Generated by trjconv : CNT in water t= 538.00000
33518
    1C        C    1   2.841   2.771   4.747
    1C        C    2   2.895   2.720   4.868
    1C        C    3   2.841   2.774   4.986
    1C        C    4   2.846   2.775   4.262
    1C        C    5   2.902   2.728   4.384
    1C        C    6   2.844   2.769   4.506
    1C        C    7   3.012   2.641   4.627
    1C        C    8   2.894   2.718   4.627
    1C        C    9   3.074   2.603   4.749
    1C        C   10   3.006   2.634   4.869
    1C        C   11   3.178   2.493   4.979
    1C        C   12   3.059   2.567   4.980
    1C        C   13   2.848   2.771   3.773
    1C        C   14   2.900   2.724   3.896
    1C        C   15   2.848   2.775   4.017
    1C        C   16   3.019   2.653   4.140
    1C        C   17   2.899   2.728   4.140
    1C        C   18   3.084   2.621   4.262
    1C        C   19   3.020   2.651   4.384
    1C        C   20   3.211   2.562   4.506
    1C        C   21   3.079   2.612   4.507
    1C        C   22   3.279   2.536   4.628
    1C        C   23   3.205   2.548   4.747
    1C        C   24   3.408   2.481   4.866
    1C        C   25   3.268   2.507   4.868
    1C        C   26   3.490   2.474   4.979
    1C        C   27   2.845   2.766   3.282
    1C        C   28   2.902   2.726   3.405
    1C        C   29   2.848   2.772   3.527
    1C        C   30   3.015   2.644   3.652
    1C        C   31   2.900   2.726   3.650
    1C        C   32   3.079   2.610   3.773
    1C        C   33   3.017   2.645   3.895
    1C        C   34   3.207   2.557   4.018
    1C        C   35   3.076   2.610   4.018
    1C        C   36   3.279   2.541   4.138
    1C        C   37   3.213   2.564   4.261
    1C        C   38   3.417   2.512   4.383
    1C        C   39   3.279   2.544   4.384
    1C        C   40   3.487   2.502   4.505
    1C        C   41   3.419   2.513   4.628
    1C        C   42   3.630   2.483   4.745
    1C        C   43   3.488   2.485   4.748
    1C        C   44   3.707   2.486   4.863
    1C        C   45   3.629   2.477   4.979
    1C        C   46   2.838   2.753   2.792
    1C        C   47   2.894   2.712   2.915
    1C        C   48   2.842   2.760   3.038
    1C        C   49   3.019   2.644   3.165
    1C        C   50   2.898   2.717   3.160
    1C        C   51   3.083   2.611   3.287
    1C        C   52   3.021   2.649   3.408
    1C        C   53   3.207   2.549   3.530
    1C        C   54   3.078   2.608   3.531
    1C        C   55   3.276   2.532   3.652
    1C        C   56   3.209   2.555   3.774
    1C        C   57   3.416   2.510   3.895
    1C        C   58   3.277   2.537   3.897
    1C        C   59   3.489   2.505   4.017
    1C        C   60   3.416   2.509   4.138
    1C        C   61   3.628   2.502   4.259
    1C        C   62   3.486   2.503   4.261
    1C        C   63   3.700   2.507   4.380
    1C        C   64   3.629   2.501   4.502
    1C        C   65   3.836   2.541   4.620
    1C        C   66   3.700   2.503   4.624
    1C        C   67   3.904   2.562   4.742
    1C        C   68   3.842   2.528   4.864
    1C        C   69   4.053   2.581   4.976
    1C        C   70   3.919   2.539   4.980
    1C        C   71   2.831   2.738   2.305
    1C        C   72   2.885   2.694   2.428
    1C        C   73   2.833   2.745   2.549
    1C        C   74   3.010   2.628   2.674
    1C        C   75   2.892   2.705   2.671
    1C        C   76   3.072   2.595   2.797
    1C        C   77   3.011   2.632   2.919
    1C        C   78   3.205   2.550   3.041
    1C        C   79   3.076   2.606   3.042
    1C        C   80   3.275   2.529   3.162
    1C        C   81   3.211   2.553   3.286
    1C        C   82   3.415   2.498   3.405
    1C        C   83   3.277   2.529   3.409
    1C        C   84   3.485   2.502   3.528
    1C        C   85   3.415   2.510   3.650
    1C        C   86   3.626   2.503   3.770
    1C        C   87   3.485   2.496   3.773
    1C        C   88   3.698   2.508   3.891
    1C        C   89   3.630   2.504   4.015
    1C        C   90   3.836   2.547   4.137
    1C        C   91   3.699   2.512   4.138
    1C        C   92   3.905   2.569   4.258
    1C        C   93   3.837   2.540   4.379
    1C        C   94   4.030   2.633   4.498
    1C        C   95   3.906   2.566   4.500
    1C        C   96   4.093   2.666   4.620
    1C        C   97   4.034   2.621   4.740
    1C        C   98   4.186   2.768   4.861
    1C        C   99   4.099   2.654   4.862
    1C        C  100   4.208   2.846   4.976
    1C        C  101   2.818   2.728   2.070
    1C        C  102   2.989   2.589   2.191
    1C        C  103   2.874   2.674   2.186
    1C        C  104   3.063   2.571   2.311
    1C        C  105   3.003   2.617   2.431
    1C        C  106   3.204   2.543   2.551
    1C        C  107   3.072   2.595   2.552
    1C        C  108   3.271   2.523   2.674
    1C        C  109   3.204   2.546   2.796
    1C        C  110   3.411   2.503   2.917
    1C        C  111   3.272   2.526   2.919
    1C        C  112   3.482   2.491   3.038
    1C        C  113   3.414   2.502   3.161
    1C        C  114   3.626   2.497   3.281
    1C        C  115   3.485   2.488   3.283
    1C        C  116   3.696   2.507   3.404
    1C        C  117   3.626   2.505   3.527
    1C        C  118   3.836   2.541   3.648
    1C        C  119   3.697   2.514   3.649
    1C        C  120   3.902   2.566   3.770
    1C        C  121   3.834   2.545   3.892
    1C        C  122   4.028   2.632   4.012
    1C        C  123   3.902   2.567   4.014
    1C        C  124   4.084   2.676   4.134
    1C        C  125   4.028   2.638   4.257
    1C        C  126   4.203   2.763   4.377
    1C        C  127   4.090   2.678   4.378
    1C        C  128   4.247   2.817   4.500
    1C        C  129   4.196   2.762   4.621
    1C        C  130   4.327   2.933   4.742
    1C        C  131   4.245   2.817   4.742
    1C        C  132   4.354   3.006   4.860
    1C        C  133   4.281   2.964   4.971
    1C        C  134   3.176   2.471   2.079
    1C        C  135   3.042   2.512   2.083
    1C        C  136   3.261   2.481   2.190
    1C        C  137   3.195   2.519   2.309
    1C        C  138   3.406   2.481   2.429
    1C        C  139   3.267   2.506   2.430
    1C        C  140   3.478   2.484   2.550
    1C        C  141   3.409   2.493   2.673
    1C        C  142   3.622   2.500   2.793
    1C        C  143   3.481   2.493   2.794
    1C        C  144   3.694   2.508   2.914
    1C        C  145   3.624   2.497   3.036
    1C        C  146   3.833   2.534   3.158
    1C        C  147   3.694   2.507   3.158
    1C        C  148   3.900   2.563   3.280
    1C        C  149   3.832   2.543   3.402
    1C        C  150   4.026   2.630   3.523
    1C        C  151   3.898   2.570   3.524
    1C        C  152   4.088   2.665   3.645
    1C        C  153   4.028   2.631   3.768
    1C        C  154   4.192   2.766   3.888
    1C        C  155   4.086   2.673   3.890
    1C        C  156   4.242   2.815   4.011
    1C        C  157   4.195   2.764   4.134
    1C        C  158   4.339   2.922   4.255
    1C        C  159   4.255   2.809   4.254
    1C        C  160   4.370   2.987   4.377
    1C        C  161   4.332   2.930   4.500
    1C        C  162   4.442   3.113   4.617
    1C        C  163   4.371   2.991   4.621
    1C        C  164   4.469   3.186   4.735
    1C        C  165   4.430   3.125   4.857
    1C        C  166   4.512   3.324   4.976
    1C        C  167   4.478   3.189   4.971
    1C        C  168   3.478   2.437   2.074
    1C        C  169   3.401   2.463   2.189
    1C        C  170   3.619   2.462   2.309
    1C        C  171   3.477   2.463   2.308
    1C        C  172   3.692   2.488   2.427
    1C        C  173   3.619   2.490   2.548
    1C        C  174   3.825   2.549   2.667
    1C        C  175   3.690   2.510   2.669
    1C        C  176   3.893   2.567   2.789
    1C        C  177   3.831   2.543   2.914
    1C        C  178   4.027   2.621   3.033
    1C        C  179   3.900   2.558   3.036
    1C        C  180   4.085   2.661   3.155
    1C        C  181   4.026   2.625   3.278
    1C        C  182   4.199   2.747   3.399
    1C        C  183   4.090   2.658   3.400
    1C        C  184   4.247   2.802   3.520
    1C        C  185   4.196   2.757   3.644
    1C        C  186   4.335   2.920   3.764
    1C        C  187   4.246   2.809   3.765
    1C        C  188   4.373   2.979   3.886
    1C        C  189   4.332   2.923   4.009
    1C        C  190   4.437   3.108   4.129
    1C        C  191   4.375   2.980   4.131
    1C        C  192   4.460   3.175   4.251
    1C        C  193   4.432   3.113   4.375
    1C        C  194   4.502   3.317   4.492
    1C        C  195   4.464   3.181   4.495
    1C        C  196   4.520   3.391   4.611
    1C        C  197   4.506   3.323   4.735
    1C        C  198   4.557   3.535   4.851
    1C        C  199   4.529   3.394   4.855
    1C        C  200   4.583   3.620   4.963
    1C        C  201   3.616   2.415   2.075
    1C        C  202   3.827   2.510   2.183
    1C        C  203   3.694   2.458   2.188
    1C        C  204   3.897   2.537   2.303
    1C        C  205   3.830   2.518   2.426
    1C        C  206   4.025   2.614   2.544
    1C        C  207   3.896   2.556   2.545
    1C        C  208   4.087   2.651   2.665
    1C        C  209   4.024   2.622   2.789
    1C        C  210   4.198   2.744   2.908
    1C        C  211   4.087   2.657   2.910
    1C        C  212   4.247   2.796   3.030
    1C        C  213   4.197   2.747   3.154
    1C        C  214   4.333   2.909   3.270
    1C        C  215   4.247   2.797   3.276
    1C        C  216   4.366   2.972   3.393
    1C        C  217   4.333   2.914   3.517
    1C        C  218   4.438   3.100   3.637
    1C        C  219   4.372   2.975   3.639
    1C        C  220   4.464   3.167   3.759
    1C        C  221   4.441   3.103   3.883
    1C        C  222   4.499   3.306   4.005
    1C        C  223   4.466   3.169   4.005
    1C        C  224   4.510   3.379   4.126
    1C        C  225   4.503   3.309   4.248
    1C        C  226   4.523   3.524   4.366
    1C        C  227   4.514   3.383   4.368
    1C        C  228   4.522   3.598   4.487
    1C        C  229   4.533   3.531   4.611
    1C        C  230   4.504   3.744   4.728
    1C        C  231   4.541   3.607   4.730
    1C        C  232   4.495   3.822   4.846
    1C        C  233   4.547   3.755   4.957
    1C        C  234   4.018   2.607   2.066
    1C        C  235   3.897   2.540   2.065
    1C        C  236   4.090   2.637   2.182
    1C        C  237   4.023   2.603   2.302
    1C        C  238   4.200   2.733   2.419
    1C        C  239   4.088   2.645   2.421
    1C        C  240   4.250   2.783   2.541
    1C        C  241   4.197   2.738   2.664
    1C        C  242   4.337   2.901   2.781
    1C        C  243   4.249   2.791   2.785
    1C        C  244   4.374   2.962   2.903
    1C        C  245   4.337   2.905   3.027
    1C        C  246   4.441   3.091   3.149
    1C        C  247   4.377   2.964   3.148
    1C        C  248   4.459   3.161   3.270
    1C        C  249   4.427   3.099   3.393
    1C        C  250   4.497   3.302   3.516
    1C        C  251   4.460   3.165   3.514
    1C        C  252   4.507   3.373   3.638
    1C        C  253   4.496   3.304   3.761
    1C        C  254   4.522   3.516   3.878
    1C        C  255   4.513   3.375   3.882
    1C        C  256   4.519   3.588   4.000
    1C        C  257   4.514   3.521   4.124
    1C        C  258   4.493   3.734   4.241
    1C        C  259   4.515   3.595   4.244
    1C        C  260   4.469   3.801   4.363
    1C        C  261   4.493   3.736   4.486
    1C        C  262   4.426   3.941   4.603
    1C        C  263   4.475   3.809   4.606
    1C        C  264   4.396   4.009   4.724
    1C        C  265   4.434   3.949   4.846
    1C        C  266   4.323   4.136   4.961
    1C        C  267   4.387   4.012   4.962
    1C        C  268   4.259   2.775   2.062
    1C        C  269   4.199   2.726   2.179
    1C        C  270   4.344   2.891   2.299
    1C        C  271   4.250   2.784   2.297
    1C        C  272   4.386   2.951   2.420
    1C        C  273   4.340   2.892   2.540
    1C        C  274   4.445   3.082   2.661
    1C        C  275   4.376   2.959   2.658
    1C        C  276   4.473   3.152   2.781
    1C        C  277   4.438   3.088   2.902
    1C        C  278   4.502   3.290   3.022
    1C        C  279   4.467   3.153   3.024
    1C        C  280   4.510   3.361   3.144
    1C        C  281   4.498   3.296   3.269
    1C        C  282   4.514   3.507   3.390
    1C        C  283   4.511   3.366   3.391
    1C        C  284   4.512   3.581   3.510
    1C        C  285   4.517   3.514   3.634
    1C        C  286   4.498   3.726   3.752
    1C        C  287   4.518   3.586   3.755
    1C        C  288   4.483   3.793   3.875
    1C        C  289   4.496   3.727   3.999
    1C        C  290   4.429   3.933   4.117
    1C        C  291   4.482   3.803   4.118
    1C        C  292   4.396   4.001   4.237
    1C        C  293   4.421   3.934   4.359
    1C        C  294   4.329   4.127   4.477
    1C        C  295   4.395   4.002   4.480
    1C        C  296   4.284   4.188   4.597
    1C        C  297   4.322   4.130   4.720
    1C        C  298   4.202   4.313   4.837
    1C        C  299   4.285   4.196   4.841
    1C        C  300   4.173   4.405   4.943
    1C        C  301   4.348   2.882   2.062
    1C        C  302   4.470   3.067   2.177
    1C        C  303   4.394   2.945   2.178
    1C        C  304   4.480   3.142   2.297
    1C        C  305   4.447   3.079   2.419
    1C        C  306   4.509   3.284   2.534
    1C        C  307   4.475   3.147   2.539
    1C        C  308   4.517   3.358   2.655
    1C        C  309   4.507   3.289   2.777
    1C        C  310   4.520   3.500   2.899
    1C        C  311   4.517   3.359   2.899
    1C        C  312   4.524   3.572   3.021
    1C        C  313   4.519   3.502   3.143
    1C        C  314   4.489   3.712   3.262
    1C        C  315   4.514   3.573   3.265
    1C        C  316   4.472   3.784   3.383
    1C        C  317   4.494   3.721   3.507
    1C        C  318   4.431   3.925   3.629
    1C        C  319   4.481   3.792   3.628
    1C        C  320   4.398   3.987   3.751
    1C        C  321   4.431   3.925   3.873
    1C        C  322   4.314   4.107   3.990
    1C        C  323   4.396   3.992   3.993
    1C        C  324   4.275   4.170   4.111
    1C        C  325   4.326   4.124   4.234
    1C        C  326   4.185   4.282   4.353
    1C        C  327   4.286   4.184   4.355
    1C        C  328   4.138   4.338   4.474
    1C        C  329   4.192   4.295   4.597
    1C        C  330   4.024   4.434   4.713
    1C        C  331   4.138   4.349   4.716
    1C        C  332   3.971   4.494   4.830
    1C        C  333   4.053   4.476   4.942
    1C        C  334   4.552   3.268   2.060
    1C        C  335   4.530   3.130   2.063
    1C        C  336   4.537   3.351   2.172
    1C        C  337   4.511   3.280   2.292
    1C        C  338   4.519   3.495   2.410
    1C        C  339   4.519   3.354   2.412
    1C        C  340   4.513   3.568   2.531
    1C        C  341   4.519   3.499   2.654
    1C        C  342   4.496   3.710   2.774
    1C        C  343   4.515   3.570   2.776
    1C        C  344   4.484   3.780   2.896
    1C        C  345   4.501   3.712   3.019
    1C        C  346   4.425   3.914   3.138
    1C        C  347   4.473   3.781   3.139
    1C        C  348   4.395   3.978   3.259
    1C        C  349   4.424   3.917   3.383
    1C        C  350   4.322   4.102   3.503
    1C        C  351   4.402   3.986   3.505
    1C        C  352   4.273   4.158   3.623
    1C        C  353   4.317   4.103   3.745
    1C        C  354   4.175   4.263   3.866
    1C        C  355   4.272   4.160   3.866
    1C        C  356   4.118   4.313   3.986
    1C        C  357   4.173   4.268   4.108
    1C        C  358   4.011   4.403   4.232
    1C        C  359   4.127   4.321   4.230
    1C        C  360   3.951   4.444   4.353
    1C        C  361   4.022   4.419   4.472
    1C        C  362   3.831   4.519   4.592
    1C        C  363   3.961   4.464   4.591
    1C        C  364   3.763   4.552   4.712
    1C        C  365   3.840   4.547   4.830
    1C        C  366   3.631   4.591   4.948
    1C        C  367   3.769   4.573   4.948
    1C        C  368   4.507   3.564   2.050
    1C        C  369   4.524   3.491   2.168
    1C        C  370   4.494   3.705   2.283
    1C        C  371   4.518   3.566   2.288
    1C        C  372   4.485   3.776   2.405
    1C        C  373   4.499   3.709   2.528
    1C        C  374   4.426   3.907   2.649
    1C        C  375   4.483   3.778   2.650
    1C        C  376   4.398   3.973   2.770
    1C        C  377   4.431   3.911   2.892
    1C        C  378   4.315   4.090   3.013
    1C        C  379   4.397   3.975   3.013
    1C        C  380   4.268   4.145   3.133
    1C        C  381   4.312   4.093   3.257
    1C        C  382   4.176   4.254   3.375
    1C        C  383   4.274   4.152   3.380
    1C        C  384   4.120   4.299   3.497
    1C        C  385   4.171   4.256   3.622
    1C        C  386   4.003   4.385   3.743
    1C        C  387   4.121   4.308   3.744
    1C        C  388   3.942   4.427   3.863
    1C        C  389   4.005   4.397   3.986
    1C        C  390   3.817   4.486   4.107
    1C        C  391   3.949   4.436   4.110
    1C        C  392   3.750   4.510   4.229
    1C        C  393   3.819   4.496   4.351
    1C        C  394   3.617   4.553   4.476
    1C        C  395   3.756   4.531   4.473
    1C        C  396   3.547   4.566   4.598
    1C        C  397   3.623   4.570   4.717
    1C        C  398   3.410   4.552   4.840
    1C        C  399   3.548   4.580   4.835
    1C        C  400   3.342   4.513   4.956
    1C        C  401   4.500   3.703   2.046
    1C        C  402   4.453   3.916   2.164
    1C        C  403   4.488   3.779   2.163
    1C        C  404   4.411   3.975   2.285
    1C        C  405   4.439   3.910   2.407
    1C        C  406   4.324   4.093   2.524
    1C        C  407   4.400   3.974   2.527
    1C        C  408   4.276   4.144   2.646
    1C        C  409   4.318   4.090   2.770
    1C        C  410   4.175   4.249   2.889
    1C        C  411   4.272   4.147   2.891
    1C        C  412   4.120   4.298   3.010
    1C        C  413   4.172   4.249   3.132
    1C        C  414   4.002   4.377   3.252
    1C        C  415   4.120   4.298   3.254
    1C        C  416   3.939   4.406   3.375
    1C        C  417   4.003   4.377   3.498
    1C        C  418   3.810   4.468   3.619
    1C        C  419   3.940   4.413   3.620
    1C        C  420   3.745   4.500   3.740
    1C        C  421   3.810   4.478   3.864
    1C        C  422   3.607   4.536   3.987
    1C        C  423   3.746   4.507   3.987
    1C        C  424   3.541   4.547   4.112
    1C        C  425   3.613   4.545   4.233
    1C        C  426   3.402   4.551   4.357
    1C        C  427   3.543   4.561   4.355
    1C        C  428   3.332   4.550   4.479
    1C        C  429   3.406   4.563   4.599
    1C        C  430   3.196   4.518   4.723
    1C        C  431   3.335   4.547   4.720
    1C        C  432   3.125   4.500   4.844
    1C        C  433   3.205   4.487   4.958
    1C        C  434   4.380   4.124   2.051
    1C        C  435   4.443   3.999   2.051
    1C        C  436   4.300   4.161   2.164
    1C        C  437   4.338   4.097   2.285
    1C        C  438   4.181   4.249   2.402
    1C        C  439   4.285   4.154   2.403
    1C        C  440   4.122   4.292   2.523
    1C        C  441   4.174   4.242   2.645
    1C        C  442   4.007   4.376   2.764
    1C        C  443   4.121   4.293   2.766
    1C        C  444   3.945   4.415   2.885
    1C        C  445   4.002   4.375   3.008
    1C        C  446   3.810   4.465   3.129
    1C        C  447   3.939   4.408   3.130
    1C        C  448   3.745   4.490   3.252
    1C        C  449   3.811   4.466   3.375
    1C        C  450   3.609   4.531   3.495
    1C        C  451   3.745   4.495   3.496
    1C        C  452   3.540   4.542   3.618
    1C        C  453   3.608   4.536   3.741
    1C        C  454   3.399   4.550   3.862
    1C        C  455   3.540   4.549   3.864
    1C        C  456   3.332   4.541   3.987
    1C        C  457   3.400   4.544   4.110
    1C        C  458   3.196   4.507   4.237
    1C        C  459   3.333   4.541   4.234
    1C        C  460   3.128   4.488   4.359
    1C        C  461   3.194   4.517   4.481
    1C        C  462   2.999   4.434   4.602
    1C        C  463   3.125   4.499   4.603
    1C        C  464   2.936   4.398   4.723
    1C        C  465   2.993   4.445   4.845
    1C        C  466   2.806   4.333   4.959
    1C        C  467   2.907   4.430   4.958
    1C        C  468   4.122   4.287   2.044
    1C        C  469   4.186   4.248   2.161
    1C        C  470   4.004   4.370   2.278
    1C        C  471   4.125   4.294   2.281
    1C        C  472   3.940   4.401   2.400
    1C        C  473   4.003   4.368   2.523
    1C        C  474   3.812   4.464   2.643
    1C        C  475   3.940   4.406   2.644
    1C        C  476   3.745   4.493   2.765
    1C        C  477   3.814   4.466   2.885
    1C        C  478   3.606   4.519   3.008
    1C        C  479   3.743   4.487   3.006
    1C        C  480   3.536   4.534   3.130
    1C        C  481   3.608   4.523   3.251
    1C        C  482   3.397   4.543   3.375
    1C        C  483   3.538   4.538   3.373
    1C        C  484   3.328   4.537   3.498
    1C        C  485   3.399   4.550   3.620
    1C        C  486   3.191   4.502   3.745
    1C        C  487   3.327   4.542   3.741
    1C        C  488   3.126   4.483   3.869
    1C        C  489   3.195   4.504   3.990
    1C        C  490   3.002   4.424   4.115
    1C        C  491   3.130   4.483   4.114
    1C        C  492   2.944   4.383   4.237
    1C        C  493   3.002   4.426   4.359
    1C        C  494   2.830   4.304   4.481
    1C        C  495   2.939   4.394   4.481
    1C        C  496   2.778   4.255   4.602
    1C        C  497   2.824   4.309   4.724
    1C        C  498   2.666   4.165   4.844
    1C        C  499   2.755   4.274   4.842
    1C        C  500   2.596   4.120   4.957
    1C        C  501   3.996   4.347   2.039
    1C        C  502   3.817   4.468   2.155
    1C        C  503   3.942   4.402   2.156
    1C        C  504   3.745   4.483   2.275
    1C        C  505   3.810   4.456   2.397
    1C        C  506   3.605   4.503   2.518
    1C        C  507   3.744   4.477   2.520
    1C        C  508   3.536   4.515   2.641
    1C        C  509   3.606   4.515   2.764
    1C        C  510   3.394   4.526   2.886
    1C        C  511   3.535   4.524   2.886
    1C        C  512   3.325   4.520   3.009
    1C        C  513   3.395   4.532   3.131
    1C        C  514   3.188   4.500   3.255
    1C        C  515   3.325   4.534   3.254
    1C        C  516   3.124   4.471   3.377
    1C        C  517   3.191   4.500   3.498
    1C        C  518   3.000   4.415   3.625
    1C        C  519   3.126   4.479   3.622
    1C        C  520   2.942   4.377   3.748
    1C        C  521   3.001   4.417   3.870
    1C        C  522   2.840   4.284   3.995
    1C        C  523   2.943   4.381   3.994
    1C        C  524   2.794   4.233   4.118
    1C        C  525   2.839   4.289   4.239
    1C        C  526   2.698   4.132   4.365
    1C        C  527   2.782   4.246   4.361
    1C        C  528   2.654   4.076   4.487
    1C        C  529   2.691   4.143   4.605
    1C        C  530   2.580   3.962   4.731
    1C        C  531   2.641   4.091   4.726
    1C        C  532   2.540   3.903   4.854
    1C        C  533   2.536   3.994   4.964
    1C        C  534   3.619   4.560   2.040
    1C        C  535   3.751   4.514   2.040
    1C        C  536   3.535   4.536   2.153
    1C        C  537   3.605   4.510   2.274
    1C        C  538   3.394   4.519   2.400
    1C        C  539   3.535   4.510   2.396
    1C        C  540   3.322   4.514   2.521
    1C        C  541   3.395   4.521   2.642
    1C        C  542   3.186   4.486   2.766
    1C        C  543   3.323   4.518   2.764
    1C        C  544   3.118   4.469   2.889
    1C        C  545   3.187   4.490   3.011
    1C        C  546   2.996   4.406   3.136
    1C        C  547   3.120   4.472   3.134
    1C        C  548   2.938   4.368   3.260
    1C        C  549   2.998   4.407   3.382
    1C        C  550   2.831   4.280   3.508
    1C        C  551   2.940   4.370   3.505
    1C        C  552   2.781   4.230   3.630
    1C        C  553   2.837   4.283   3.749
    1C        C  554   2.708   4.118   3.876
    1C        C  555   2.791   4.232   3.873
    1C        C  556   2.668   4.059   3.998
    1C        C  557   2.707   4.121   4.118
    1C        C  558   2.610   3.940   4.246
    1C        C  559   2.667   4.069   4.243
    1C        C  560   2.581   3.875   4.368
    1C        C  561   2.593   3.948   4.489
    1C        C  562   2.533   3.749   4.617
    1C        C  563   2.565   3.887   4.613
    1C        C  564   2.517   3.682   4.741
    1C        C  565   2.517   3.762   4.859
    1C        C  566   2.521   3.546   4.978
    1C        C  567   2.523   3.685   4.976
    1C        C  568   3.327   4.472   2.041
    1C        C  569   3.394   4.518   2.155
    1C        C  570   3.185   4.479   2.282
    1C        C  571   3.323   4.512   2.278
    1C        C  572   3.114   4.460   2.403
    1C        C  573   3.184   4.482   2.523
    1C        C  574   2.988   4.405   2.648
    1C        C  575   3.115   4.466   2.645
    1C        C  576   2.930   4.367   2.771
    1C        C  577   2.992   4.406   2.893
    1C        C  578   2.829   4.272   3.016
    1C        C  579   2.935   4.365   3.015
    1C        C  580   2.780   4.223   3.139
    1C        C  581   2.833   4.274   3.260
    1C        C  582   2.707   4.110   3.384
    1C        C  583   2.788   4.226   3.385
    1C        C  584   2.666   4.056   3.508
    1C        C  585   2.699   4.115   3.632
    1C        C  586   2.603   3.930   3.756
    1C        C  587   2.663   4.057   3.756
    1C        C  588   2.579   3.867   3.881
    1C        C  589   2.604   3.933   4.003
    1C        C  590   2.540   3.735   4.128
    1C        C  591   2.575   3.872   4.127
    1C        C  592   2.526   3.669   4.252
    1C        C  593   2.536   3.741   4.373
    1C        C  594   2.506   3.535   4.498
    1C        C  595   2.518   3.676   4.497
    1C        C  596   2.516   3.464   4.620
    1C        C  597   2.516   3.540   4.739
    1C        C  598   2.531   3.329   4.862
    1C        C  599   2.519   3.469   4.861
    1C        C  600   2.527   3.251   4.979
    1C        C  601   3.192   4.443   2.045
    1C        C  602   2.981   4.397   2.161
    1C        C  603   3.116   4.447   2.162
    1C        C  604   2.926   4.357   2.286
    1C        C  605   2.987   4.398   2.406
    1C        C  606   2.819   4.273   2.527
    1C        C  607   2.923   4.368   2.528
    1C        C  608   2.776   4.218   2.650
    1C        C  609   2.825   4.273   2.771
    1C        C  610   2.694   4.108   2.897
    1C        C  611   2.779   4.221   2.894
    1C        C  612   2.659   4.047   3.020
    1C        C  613   2.697   4.109   3.141
    1C        C  614   2.600   3.922   3.266
    1C        C  615   2.665   4.048   3.264
    1C        C  616   2.576   3.861   3.391
    1C        C  617   2.607   3.928   3.512
    1C        C  618   2.535   3.729   3.637
    1C        C  619   2.577   3.864   3.634
    1C        C  620   2.519   3.663   3.760
    1C        C  621   2.532   3.734   3.882
    1C        C  622   2.511   3.526   4.008
    1C        C  623   2.522   3.666   4.006
    1C        C  624   2.515   3.458   4.132
    1C        C  625   2.511   3.529   4.254
    1C        C  626   2.532   3.322   4.379
    1C        C  627   2.506   3.461   4.378
    1C        C  628   2.552   3.252   4.500
    1C        C  629   2.534   3.324   4.621
    1C        C  630   2.590   3.120   4.743
    1C        C  631   2.545   3.255   4.743
    1C        C  632   2.614   3.049   4.864
    1C        C  633   2.561   3.115   4.980
    1C        C  634   2.785   4.302   2.053
    1C        C  635   2.891   4.393   2.050
    1C        C  636   2.753   4.228   2.168
    1C        C  637   2.811   4.272   2.289
    1C        C  638   2.676   4.107   2.411
    1C        C  639   2.759   4.221   2.410
    1C        C  640   2.643   4.045   2.533
    1C        C  641   2.693   4.104   2.651
    1C        C  642   2.591   3.922   2.777
    1C        C  643   2.658   4.046   2.775
    1C        C  644   2.563   3.855   2.899
    1C        C  645   2.599   3.920   3.019
    1C        C  646   2.530   3.723   3.149
    1C        C  647   2.572   3.858   3.144
    1C        C  648   2.516   3.654   3.272
    1C        C  649   2.532   3.727   3.392
    1C        C  650   2.513   3.518   3.518
    1C        C  651   2.518   3.659   3.515
    1C        C  652   2.513   3.450   3.642
    1C        C  653   2.510   3.522   3.764
    1C        C  654   2.531   3.313   3.891
    1C        C  655   2.507   3.453   3.887
    1C        C  656   2.550   3.249   4.015
    1C        C  657   2.535   3.319   4.137
    1C        C  658   2.598   3.116   4.261
    1C        C  659   2.551   3.249   4.259
    1C        C  660   2.630   3.052   4.382
    1C        C  661   2.597   3.118   4.502
    1C        C  662   2.706   2.937   4.624
    1C        C  663   2.626   3.053   4.624
    1C        C  664   2.750   2.881   4.745
    1C        C  665   2.699   2.934   4.866
    1C        C  666   2.739   2.868   4.983
    1C        C  667   2.678   4.026   2.053
    1C        C  668   2.686   4.104   2.169
    1C        C  669   2.593   3.909   2.291
    1C        C  670   2.650   4.039   2.290
    1C        C  671   2.564   3.845   2.413
    1C        C  672   2.586   3.915   2.534
    1C        C  673   2.525   3.716   2.660
    1C        C  674   2.563   3.852   2.658
    1C        C  675   2.510   3.647   2.782
    1C        C  676   2.528   3.718   2.903
    1C        C  677   2.504   3.512   3.032
    1C        C  678   2.518   3.652   3.028
    1C        C  679   2.503   3.439   3.153
    1C        C  680   2.508   3.513   3.273
    1C        C  681   2.525   3.304   3.399
    1C        C  682   2.513   3.445   3.397
    1C        C  683   2.541   3.239   3.524
    1C        C  684   2.528   3.309   3.645
    1C        C  685   2.600   3.113   3.769
    1C        C  686   2.549   3.244   3.769
    1C        C  687   2.632   3.056   3.894
    1C        C  688   2.597   3.116   4.017
    1C        C  689   2.712   2.937   4.137
    1C        C  690   2.629   3.052   4.139
    1C        C  691   2.756   2.884   4.260
    1C        C  692   2.710   2.935   4.383
    1C        C  693   2.753   2.877   4.505
    1C        C  694   2.636   3.892   2.056
    1C        C  695   2.532   3.702   2.172
    1C        C  696   2.584   3.833   2.172
    1C        C  697   2.512   3.636   2.295
    1C        C  698   2.520   3.711   2.415
    1C        C  699   2.492   3.504   2.539
    1C        C  700   2.503   3.645   2.539
    1C        C  701   2.500   3.436   2.663
    1C        C  702   2.498   3.507   2.785
    1C        C  703   2.523   3.301   2.910
    1C        C  704   2.502   3.441   2.910
    1C        C  705   2.542   3.232   3.032
    1C        C  706   2.528   3.300   3.156
    1C        C  707   2.595   3.101   3.277
    1C        C  708   2.543   3.232   3.279
    1C        C  709   2.628   3.044   3.402
    1C        C  710   2.599   3.110   3.524
    1C        C  711   2.707   2.930   3.651
    1C        C  712   2.629   3.047   3.647
    1C        C  713   2.753   2.876   3.773
    1C        C  714   2.711   2.939   3.893
    1C        C  715   2.754   2.881   4.015
    1C        C  716   2.449   3.498   2.062
    1C        C  717   2.492   3.631   2.058
    1C        C  718   2.459   3.422   2.183
    1C        C  719   2.487   3.496   2.300
    1C        C  720   2.511   3.285   2.425
    1C        C  721   2.493   3.425   2.422
    1C        C  722   2.538   3.224   2.550
    1C        C  723   2.519   3.296   2.669
    1C        C  724   2.595   3.098   2.788
    1C        C  725   2.536   3.227   2.791
    1C        C  726   2.627   3.038   2.912
    1C        C  727   2.592   3.100   3.034
    1C        C  728   2.704   2.919   3.159
    1C        C  729   2.628   3.038   3.155
    1C        C  730   2.749   2.869   3.283
    1C        C  731   2.706   2.926   3.405
    1C        C  732   2.752   2.875   3.528
    1C        C  733   2.492   3.195   2.075
    1C        C  734   2.482   3.280   2.186
    1C        C  735   2.585   3.086   2.304
    1C        C  736   2.520   3.212   2.305
    1C        C  737   2.623   3.024   2.426
    1C        C  738   2.594   3.094   2.545
    1C        C  739   2.697   2.910   2.669
    1C        C  740   2.622   3.030   2.668
    1C        C  741   2.742   2.857   2.792
    1C        C  742   2.704   2.919   2.913
    1C        C  743   2.750   2.867   3.036
    1C        C  744   2.544   3.067   2.070
    1C        C  745   2.682   2.895   2.185
    1C        C  746   2.610   3.017   2.184
    1C        C  747   2.731   2.840   2.305
    1C        C  748   2.689   2.899   2.426
    1C        C  749   2.737   2.848   2.549
    1C        C  750   2.737   2.841   2.068
    1C        C  751   3.668   2.315   1.980
    1C        O  752   3.729   2.210   2.015
    1C        O  753   3.714   2.348   1.852
    1C        C  754   4.613   3.057   1.964
    1C        O  755   4.551   3.017   1.862
    1C        O  756   4.726   2.981   1.997
    1C        C  757   4.432   4.224   1.955
    1C        O  758   4.537   4.279   1.996
    1C        O  759   4.408   4.213   1.817
    1C        C  760   3.575   4.653   1.933
    1C        O  761   3.627   4.768   1.932
    1C        O  762   3.550   4.596   1.807
    1C        C  763   2.876   4.510   1.961
    1C        O  764   2.884   4.504   1.835
    1C        O  765   2.833   4.636   2.004
    1C        C  766   2.342   3.459   1.967
    1C        O  767   2.369   3.393   1.863
    1C        O  768   2.231   3.544   1.957
    1C        C  769   4.702   3.596   5.047
    1C        O  770   4.689   3.589   5.172
    1C        O  771   4.819   3.662   5.009
    1C        C  772   4.276   4.475   5.023
    1C        O  773   4.256   4.501   5.145
    1C        O  774   4.326   4.595   4.969
    1C        C  775   4.129   2.503   5.076
    1C        O  776   4.233   2.433   5.059
    1C        O  777   4.137   2.551   5.207
    1C        C  778   2.895   4.534   5.063
    1C        O  779   2.872   4.651   5.025
    1C        O  780   2.886   4.510   5.201
    1C        C  781   2.483   3.029   5.073
    1C        O  782   2.397   2.952   5.024
    1C        O  783   2.477   3.058   5.208
    1C        C  784   2.413   3.980   5.046
    1C        O  785   2.299   4.014   5.003
    1C        O  786   2.403   3.940   5.179
    1C        C  787   2.949   2.428   2.004
    1C        O  788   2.963   2.432   1.878
    1C        O  789   2.877   2.318   2.047
    1C        C  790   3.168   2.364   5.050
    1C        O  791   3.124   2.257   4.999
    1C        O  792   3.170   2.354   5.190
    1C        H  793   4.297   3.012   5.066
    1C        H  794   4.143   2.833   5.060
    1C        H  795   4.525   3.125   5.043
    1C        H  796   4.515   3.374   5.070
    1C        H  797   4.606   3.818   5.022
    1C        H  798   4.385   3.957   5.054
    1C        H  799   4.260   4.157   5.045
    1C        H  800   4.020   4.527   5.031
    1C        H  801   3.819   4.624   5.028
    1C        H  802   3.589   4.602   5.045
    1C        H  803   3.398   4.475   5.039
    1C        H  804   3.173   4.413   5.028
    1C        H  805   3.866   2.538   5.074
    1C        H  806   3.673   2.417   5.056
    1C        H  807   2.996   2.566   5.067
    1C        H  808   3.441   2.441   5.069
    1C        H  809   2.881   2.751   5.083
    1C        H  810   2.673   2.858   5.067
    1C        H  811   2.459   3.283   5.054
    1C        H  812   2.557   3.502   5.069
    1C        H  813   2.553   3.732   5.067
    1C        H  814   2.563   4.193   5.027
    1C        H  815   2.791   4.282   5.052
    1C        H  816   2.709   2.873   1.970
    1C        H  817   2.797   2.662   1.988
    1C        H  818   3.217   2.433   1.987
    1C        H  819   3.434   2.476   1.985
    1C        H  820   3.839   2.555   1.976
    1C        H  821   4.075   2.582   1.978
    1C        H  822   4.255   2.715   1.974
    1C        H  823   4.401   2.892   1.969
    1C        H  824   4.593   3.307   1.969
    1C        H  825   4.486   3.514   1.958
    1C        H  826   4.539   3.745   1.956
    1C        H  827   3.804   4.515   1.947
    1C        H  828   3.958   4.370   1.942
    1C        H  829   4.179   4.286   1.953
    1C        H  830   4.476   3.963   1.956
    1C        H  831   2.655   3.831   1.970
    1C        H  832   2.674   4.072   1.957
    1C        H  833   2.719   4.294   1.969
    1C        H  834   3.382   4.411   1.973
    1C        H  835   3.150   4.391   1.961
    1C        H  836   2.505   2.998   1.998
    1C        H  837   2.414   3.206   2.003
    1C        H  838   2.531   3.664   1.963
    2V3OU   H29  839   2.805   3.543   5.965
    2V3OU   C27  840   2.776   3.502   6.065
    2V3OU   H27  841   2.719   3.574   6.130
    2V3OU   H28  842   2.724   3.403   6.056
    2V3OU   O11  843   2.906   3.471   6.116
    2V3OU   C15  844   2.920   3.397   6.232
    2V3OU   C13  845   3.052   3.371   6.274
    2V3OU   C14  846   3.075   3.261   6.358
    2V3OU   C16  847   2.972   3.184   6.410
    2V3OU    H6  848   2.990   3.112   6.491
    2V3OU   C12  849   3.214   3.235   6.401
    2V3OU    O2  850   3.234   3.121   6.449
    2V3OU   C10  851   3.325   3.317   6.352
    2V3OU    C8  852   3.456   3.276   6.371
    2V3OU   O10  853   3.484   3.153   6.422
    2V3OU   H26  854   3.397   3.111   6.431
    2V3OU    C6  855   3.568   3.352   6.323
    2V3OU    C5  856   3.540   3.467   6.251
    2V3OU    C4  857   3.705   3.295   6.320
    2V3OU    H4  858   3.728   3.228   6.408
    2V3OU    H5  859   3.711   3.228   6.229
    2V3OU    C2  860   3.818   3.398   6.312
    2V3OU    O6  861   3.806   3.471   6.434
    2V3OU   H21  862   3.760   3.553   6.410
    2V3OU    C3  863   3.784   3.498   6.202
    2V3OU    H2  864   3.866   3.574   6.190
    2V3OU    H3  865   3.787   3.441   6.105
    2V3OU   C25  866   3.954   3.332   6.288
    2V3OU    O7  867   4.001   3.301   6.179
    2V3OU   C26  868   4.034   3.288   6.410
    2V3OU   H22  869   4.063   3.382   6.464
    2V3OU   H23  870   4.121   3.224   6.378
    2V3OU    O8  871   3.961   3.208   6.500
    2V3OU   H24  872   3.928   3.265   6.571
    2V3OU    C1  873   3.649   3.565   6.220
    2V3OU    H1  874   3.626   3.622   6.125
    2V3OU    O3  875   3.659   3.659   6.327
    2V3OU   C19  876   3.620   3.794   6.301
    2V3OU    H9  877   3.519   3.804   6.251
    2V3OU    O4  878   3.716   3.852   6.216
    2V3OU   C20  879   3.846   3.870   6.272
    2V3OU   H10  880   3.894   3.770   6.295
    2V3OU   C24  881   3.609   3.858   6.439
    2V3OU   H16  882   3.542   3.796   6.505
    2V3OU   H17  883   3.557   3.956   6.420
    2V3OU   C23  884   3.747   3.878   6.502
    2V3OU   H15  885   3.788   3.772   6.516
    2V3OU    N1  886   3.736   3.954   6.625
    2V3OU   H19  887   3.807   3.927   6.690
    2V3OU   H20  888   3.645   3.942   6.665
    2V3OU   C21  889   3.848   3.947   6.405
    2V3OU   H11  890   3.953   3.930   6.444
    2V3OU    O5  891   3.823   4.086   6.409
    2V3OU   H18  892   3.780   4.105   6.493
    2V3OU   C22  893   3.914   3.949   6.161
    2V3OU   H12  894   3.858   4.045   6.148
    2V3OU   H13  895   3.911   3.891   6.065
    2V3OU   H14  896   4.024   3.963   6.180
    2V3OU   C11  897   3.158   3.470   6.248
    2V3OU    O1  898   3.134   3.582   6.198
    2V3OU    C9  899   3.298   3.426   6.266
    2V3OU    C7  900   3.405   3.498   6.214
    2V3OU    O9  901   3.383   3.619   6.150
    2V3OU   H25  902   3.286   3.627   6.152
    2V3OU   C17  903   2.817   3.318   6.288
    2V3OU    H7  904   2.716   3.339   6.253
    2V3OU   C18  905   2.840   3.213   6.376
    2V3OU    H8  906   2.754   3.154   6.412
    3SOL     OW  907   2.919   3.297   4.086
    3SOL    HW1  908   2.974   3.219   4.116
    3SOL    HW2  909   2.900   3.357   4.164
    4SOL     OW  910   6.836   5.939   0.961
    4SOL    HW1  911   6.919   5.889   0.985
    4SOL    HW2  912   6.858   6.006   0.889
    5SOL     OW  913   4.238   2.639   0.737
    5SOL    HW1  914   4.282   2.728   0.728
    5SOL    HW2  915   4.282   2.573   0.676
    6SOL     OW  916   3.730   1.501   2.209
    6SOL    HW1  917   3.786   1.484   2.128
    6SOL    HW2  918   3.662   1.572   2.188
    7SOL     OW  919   2.379   2.525   4.276
    7SOL    HW1  920   2.397   2.534   4.178
    7SOL    HW2  921   2.412   2.435   4.307
    8SOL     OW  922   1.322   2.138   5.326
    8SOL    HW1  923   1.398   2.142   5.391
    8SOL    HW2  924   1.259   2.214   5.344
    9SOL     OW  925   1.567   2.016   6.202
    9SOL    HW1  926   1.644   1.987   6.144
    9SOL    HW2  927   1.537   2.107   6.173
   10SOL     OW  928   5.604   5.439   1.470
   10SOL    HW1  929   5.517   5.444   1.520
   10SOL    HW2  930   5.673   5.395   1.527
   11SOL     OW  931   3.071   2.274   0.761
   11SOL    HW1  932   3.055   2.371   0.745
   11SOL    HW2  933   3.093   2.229   0.674
   12SOL     OW  934   5.227   5.244   1.917
   12SOL    HW1  935   5.190   5.152   1.930
   12SOL    HW2  936   5.220   5.296   2.002
   13SOL     OW  937   5.269   6.173   2.042
   13SOL    HW1  938   5.210   6.254   2.048
   13SOL    HW2  939   5.215   6.091   2.062
   14SOL     OW  940   4.261   6.282   0.287
   14SOL    HW1  941   4.232   6.219   0.215
   14SOL    HW2  942   4.347   6.250   0.328
   15SOL     OW  943   0.609   5.901   6.255
   15SOL    HW1  944   0.660   5.987   6.251
   15SOL    HW2  945   0.673   5.824   6.257
   16SOL     OW  946   2.115   5.839   4.457
   16SOL    HW1  947   2.137   5.937   4.463
   16SOL    HW2  948   2.094   5.815   4.362
   17SOL     OW  949   6.952   1.498   4.595
   17SOL    HW1  950   0.013   1.547   4.573
   17SOL    HW2  951   6.940   1.495   4.695
   18SOL     OW  952   2.929   0.604   5.361
   18SOL    HW1  953   2.854   0.561   5.311
   18SOL    HW2  954   2.914   0.703   5.366
   19SOL     OW  955   2.891   6.027   2.531
   19SOL    HW1  956   2.858   5.966   2.603
   19SOL    HW2  957   2.903   6.119   2.568
   20SOL     OW  958   6.810   2.098   5.924
   20SOL    HW1  959   6.862   2.154   5.859
   20SOL    HW2  960   6.860   2.093   6.010
   21SOL     OW  961   2.060   4.086   2.350
   21SOL    HW1  962   2.078   4.123   2.441
   21SOL    HW2  963   2.111   4.138   2.282
   22SOL     OW  964   0.941   1.330   7.008
   22SOL    HW1  965   0.987   1.415   6.981
   22SOL    HW2  966   0.845   1.350   0.004
   23SOL     OW  967   6.838   5.386   0.367
   23SOL    HW1  968   6.774   5.381   0.290
   23SOL    HW2  969   6.816   5.316   0.434
   24SOL     OW  970   5.303   1.319   0.132
   24SOL    HW1  971   5.226   1.327   0.195
   24SOL    HW2  972   5.272   1.338   0.039
   25SOL     OW  973   1.567   0.872   4.487
   25SOL    HW1  974   1.601   0.934   4.557
   25SOL    HW2  975   1.491   0.819   4.523
   26SOL     OW  976   1.850   0.650   6.401
   26SOL    HW1  977   1.920   0.628   6.468
   26SOL    HW2  978   1.874   0.733   6.352
   27SOL     OW  979   7.002   0.148   2.374
   27SOL    HW1  980   6.998   0.121   2.470
   27SOL    HW2  981   6.939   0.224   2.357
   28SOL     OW  982   1.472   0.615   5.334
   28SOL    HW1  983   1.459   0.666   5.249
   28SOL    HW2  984   1.555   0.561   5.328
   29SOL     OW  985   5.525   1.175   1.537
   29SOL    HW1  986   5.506   1.199   1.632
   29SOL    HW2  987   5.608   1.221   1.506
   30SOL     OW  988   4.754   0.361   5.058
   30SOL    HW1  989   4.680   0.293   5.059
   30SOL    HW2  990   4.818   0.339   4.984
   31SOL     OW  991   6.755   4.832   4.356
   31SOL    HW1  992   6.829   4.809   4.293
   31SOL    HW2  993   6.667   4.815   4.311
   32SOL     OW  994   2.485   1.240   1.156
   32SOL    HW1  995   2.549   1.205   1.087
   32SOL    HW2  996   2.398   1.191   1.149
   33SOL     OW  997   1.894   5.036   5.586
   33SOL    HW1  998   1.975   5.044   5.643
   33SOL    HW2  999   1.824   4.983   5.634
   34SOL     OW 1000   1.795   5.911   5.451
   34SOL    HW1 1001   1.713   5.885   5.501
   34SOL    HW2 1002   1.802   6.011   5.447
   35SOL     OW 1003   1.549   3.317   5.198
   35SOL    HW1 1004   1.505   3.236   5.237
   35SOL    HW2 1005   1.551   3.390   5.266
   36SOL     OW 1006   5.735   1.192   4.027
   36SOL    HW1 1007   5.691   1.232   3.946
   36SOL    HW2 1008   5.807   1.253   4.059
   37SOL     OW 1009   1.554   6.521   4.286
   37SOL    HW1 1010   1.510   6.478   4.364
   37SOL    HW2 1011   1.504   6.604   4.260
   38SOL     OW 1012   1.129   4.180   2.018
   38SOL    HW1 1013   1.105   4.086   2.041
   38SOL    HW2 1014   1.215   4.204   2.064
   39SOL     OW 1015   6.578   5.355   1.233
   39SOL    HW1 1016   6.653   5.316   1.287
   39SOL    HW2 1017   6.607   5.441   1.192
   40SOL     OW 1018   3.647   0.717   6.522
   40SOL    HW1 1019   3.647   0.763   6.610
   40SOL    HW2 1020   3.566   0.659   6.515
   41SOL     OW 1021   5.095   3.820   1.742
   41SOL    HW1 1022   5.101   3.909   1.698
   41SOL    HW2 1023   5.008   3.811   1.790
   42SOL     OW 1024   2.881   3.642   6.572
   42SOL    HW1 1025   2.840   3.667   6.484
   42SOL    HW2 1026   2.980   3.637   6.563
   43SOL     OW 1027   5.134   6.991   5.095
   43SOL    HW1 1028   5.232   6.975   5.087
   43SOL    HW2 1029   5.088   6.960   5.012
   44SOL     OW 1030   6.180   1.131   5.971
   44SOL    HW1 1031   6.157   1.066   6.044
   44SOL    HW2 1032   6.266   1.103   5.928
   45SOL     OW 1033   2.755   4.330   5.852
   45SOL    HW1 1034   2.685   4.259   5.848
   45SOL    HW2 1035   2.839   4.292   5.891
   46SOL     OW 1036   0.921   4.585   4.748
   46SOL    HW1 1037   1.013   4.621   4.757
   46SOL    HW2 1038   0.869   4.639   4.682
   47SOL     OW 1039   6.200   4.183   6.887
   47SOL    HW1 1040   6.282   4.139   6.851
   47SOL    HW2 1041   6.204   4.187   6.986
   48SOL     OW 1042   0.339   4.351   0.500
   48SOL    HW1 1043   0.246   4.386   0.488
   48SOL    HW2 1044   0.384   4.345   0.412
   49SOL     OW 1045   3.283   2.438   6.318
   49SOL    HW1 1046   3.215   2.463   6.387
   49SOL    HW2 1047   3.242   2.450   6.227
   50SOL     OW 1048   5.028   2.323   0.313
   50SOL    HW1 1049   4.989   2.231   0.314
   50SOL    HW2 1050   5.088   2.334   0.393
   51SOL     OW 1051   0.740   6.269   2.309
   51SOL    HW1 1052   0.823   6.261   2.255
   51SOL    HW2 1053   0.753   6.339   2.380
   52SOL     OW 1054   5.508   1.972   2.563
   52SOL    HW1 1055   5.539   1.908   2.634
   52SOL    HW2 1056   5.409   1.965   2.553
   53SOL     OW 1057   4.413   0.888   0.814
   53SOL    HW1 1058   4.472   0.948   0.868
   53SOL    HW2 1059   4.445   0.794   0.821
   54SOL     OW 1060   6.275   0.169   6.595
   54SOL    HW1 1061   6.263   0.212   6.506
   54SOL    HW2 1062   6.238   0.076   6.592
   55SOL     OW 1063   1.834   3.843   5.677
   55SOL    HW1 1064   1.767   3.885   5.737
   55SOL    HW2 1065   1.901   3.792   5.732
   56SOL     OW 1066   0.606   2.296   6.873
   56SOL    HW1 1067   0.609   2.394   6.853
   56SOL    HW2 1068   0.690   2.269   6.921
   57SOL     OW 1069   4.035   5.864   1.485
   57SOL    HW1 1070   4.118   5.871   1.541
   57SOL    HW2 1071   3.966   5.927   1.520
   58SOL     OW 1072   0.970   0.452   6.747
   58SOL    HW1 1073   0.968   0.536   6.692
   58SOL    HW2 1074   1.045   0.456   6.812
   59SOL     OW 1075   4.214   3.195   6.723
   59SOL    HW1 1076   4.194   3.285   6.682
   59SOL    HW2 1077   4.130   3.157   6.762
   60SOL     OW 1078   6.894   3.361   2.612
   60SOL    HW1 1079   6.876   3.277   2.561
   60SOL    HW2 1080   6.816   3.382   2.671
   61SOL     OW 1081   1.382   5.578   3.170
   61SOL    HW1 1082   1.433   5.591   3.085
   61SOL    HW2 1083   1.286   5.557   3.148
   62SOL     OW 1084   5.348   2.724   3.117
   62SOL    HW1 1085   5.327   2.715   3.020
   62SOL    HW2 1086   5.401   2.808   3.131
   63SOL     OW 1087   3.668   0.139   6.051
   63SOL    HW1 1088   3.763   0.168   6.049
   63SOL    HW2 1089   3.609   0.216   6.073
   64SOL     OW 1090   1.895   1.997   6.482
   64SOL    HW1 1091   1.904   2.060   6.406
   64SOL    HW2 1092   1.984   1.957   6.503
   65SOL     OW 1093   0.987   5.036   5.374
   65SOL    HW1 1094   1.057   4.984   5.423
   65SOL    HW2 1095   0.965   4.989   5.289
   66SOL     OW 1096   4.578   1.215   1.318
   66SOL    HW1 1097   4.501   1.152   1.327
   66SOL    HW2 1098   4.652   1.187   1.379
   67SOL     OW 1099   0.231   3.526   1.100
   67SOL    HW1 1100   0.182   3.608   1.071
   67SOL    HW2 1101   0.325   3.550   1.124
   68SOL     OW 1102   0.569   0.986   6.084
   68SOL    HW1 1103   0.569   0.928   6.003
   68SOL    HW2 1104   0.645   1.050   6.079
   69SOL     OW 1105   1.471   6.775   6.720
   69SOL    HW1 1106   1.403   6.808   6.785
   69SOL    HW2 1107   1.494   6.849   6.656
   70SOL     OW 1108   4.832   4.586   3.071
   70SOL    HW1 1109   4.805   4.556   2.980
   70SOL    HW2 1110   4.819   4.511   3.136
   71SOL     OW 1111   4.839   1.922   5.178
   71SOL    HW1 1112   4.799   1.846   5.229
   71SOL    HW2 1113   4.770   1.961   5.117
   72SOL     OW 1114   0.127   1.196   2.023
   72SOL    HW1 1115   0.045   1.251   2.011
   72SOL    HW2 1116   0.105   1.114   2.077
   73SOL     OW 1117   2.576   0.844   1.149
   73SOL    HW1 1118   2.632   0.854   1.232
   73SOL    HW2 1119   2.611   0.769   1.094
   74SOL     OW 1120   2.635   1.164   0.153
   74SOL    HW1 1121   2.630   1.238   0.220
   74SOL    HW2 1122   2.544   1.142   0.119
   75SOL     OW 1123   2.374   2.643   1.202
   75SOL    HW1 1124   2.465   2.633   1.243
   75SOL    HW2 1125   2.370   2.729   1.151
   76SOL     OW 1126   3.725   5.252   6.060
   76SOL    HW1 1127   3.665   5.187   6.012
   76SOL    HW2 1128   3.793   5.286   5.996
   77SOL     OW 1129   6.903   5.171   4.427
   77SOL    HW1 1130   6.920   5.178   4.526
   77SOL    HW2 1131   6.806   5.154   4.411
   78SOL     OW 1132   5.415   1.546   1.587
   78SOL    HW1 1133   5.511   1.553   1.613
   78SOL    HW2 1134   5.405   1.478   1.514
   79SOL     OW 1135   1.216   4.167   4.470
   79SOL    HW1 1136   1.254   4.180   4.378
   79SOL    HW2 1137   1.279   4.113   4.525
   80SOL     OW 1138   3.496   2.151   5.183
   80SOL    HW1 1139   3.415   2.200   5.216
   80SOL    HW2 1140   3.573   2.170   5.243
   81SOL     OW 1141   3.656   5.271   2.514
   81SOL    HW1 1142   3.605   5.326   2.448
   81SOL    HW2 1143   3.616   5.179   2.520
   82SOL     OW 1144   3.209   0.462   2.066
   82SOL    HW1 1145   3.305   0.435   2.063
   82SOL    HW2 1146   3.172   0.441   2.157
   83SOL     OW 1147   5.414   1.029   4.498
   83SOL    HW1 1148   5.484   1.072   4.554
   83SOL    HW2 1149   5.419   0.929   4.509
   84SOL     OW 1150   6.045   2.694   3.113
   84SOL    HW1 1151   6.112   2.739   3.053
   84SOL    HW2 1152   5.953   2.727   3.090
   85SOL     OW 1153   2.058   5.838   3.309
   85SOL    HW1 1154   2.053   5.796   3.399
   85SOL    HW2 1155   1.978   5.810   3.255
   86SOL     OW 1156   4.728   0.968   0.160
   86SOL    HW1 1157   4.628   0.972   0.167
   86SOL    HW2 1158   4.755   0.878   0.125
   87SOL     OW 1159   2.961   2.844   6.823
   87SOL    HW1 1160   2.939   2.844   6.921
   87SOL    HW2 1161   3.041   2.902   6.807
   88SOL     OW 1162   1.763   2.693   1.496
   88SOL    HW1 1163   1.783   2.630   1.571
   88SOL    HW2 1164   1.757   2.787   1.532
   89SOL     OW 1165   3.313   3.890   5.017
   89SOL    HW1 1166   3.244   3.830   4.976
   89SOL    HW2 1167   3.268   3.961   5.070
   90SOL     OW 1168   6.676   4.353   1.907
   90SOL    HW1 1169   6.577   4.350   1.901
   90SOL    HW2 1170   6.716   4.338   1.816
   91SOL     OW 1171   4.488   5.945   1.100
   91SOL    HW1 1172   4.586   5.949   1.085
   91SOL    HW2 1173   4.468   5.875   1.169
   92SOL     OW 1174   5.785   4.962   0.319
   92SOL    HW1 1175   5.875   4.986   0.283
   92SOL    HW2 1176   5.777   4.863   0.326
   93SOL     OW 1177   2.971   3.856   1.891
   93SOL    HW1 1178   2.938   3.792   1.960
   93SOL    HW2 1179   3.050   3.905   1.927
   94SOL     OW 1180   2.991   1.533   4.545
   94SOL    HW1 1181   2.907   1.481   4.528
   94SOL    HW2 1182   3.050   1.482   4.609
   95SOL     OW 1183   0.674   6.966   3.827
   95SOL    HW1 1184   0.667   6.962   3.927
   95SOL    HW2 1185   0.668   0.037   3.797
   96SOL     OW 1186   0.442   5.940   6.495
   96SOL    HW1 1187   0.493   5.974   6.574
   96SOL    HW2 1188   0.505   5.927   6.418
   97SOL     OW 1189   3.560   4.718   5.379
   97SOL    HW1 1190   3.463   4.720   5.356
   97SOL    HW2 1191   3.604   4.801   5.347
   98SOL     OW 1192   0.902   3.033   5.088
   98SOL    HW1 1193   0.958   2.951   5.085
   98SOL    HW2 1194   0.960   3.113   5.105
   99SOL     OW 1195   4.293   4.849   5.080
   99SOL    HW1 1196   4.290   4.768   5.020
   99SOL    HW2 1197   4.310   4.930   5.025
  100SOL     OW 1198   1.421   0.697   5.073
  100SOL    HW1 1199   1.484   0.755   5.020
  100SOL    HW2 1200   1.330   0.701   5.033
  101SOL     OW 1201   5.236   3.348   2.704
  101SOL    HW1 1202   5.185   3.309   2.781
  101SOL    HW2 1203   5.315   3.290   2.684
  102SOL     OW 1204   3.690   0.276   6.978
  102SOL    HW1 1205   3.766   0.261   6.914
  102SOL    HW2 1206   3.694   0.369   7.013
  103SOL     OW 1207   1.364   1.854   1.589
  103SOL    HW1 1208   1.364   1.945   1.547
  103SOL    HW2 1209   1.368   1.862   1.688
  104SOL     OW 1210   7.003   4.631   1.722
  104SOL    HW1 1211   6.952   4.652   1.806
  104SOL    HW2 1212   0.073   4.604   1.747
  105SOL     OW 1213   6.963   0.643   5.217
  105SOL    HW1 1214   6.943   0.675   5.124
  105SOL    HW2 1215   0.012   0.574   5.213
  106SOL     OW 1216   4.281   2.940   1.735
  106SOL    HW1 1217   4.256   3.007   1.665
  106SOL    HW2 1218   4.365   2.971   1.781
  107SOL     OW 1219   4.542   6.573   2.319
  107SOL    HW1 1220   4.530   6.584   2.221
  107SOL    HW2 1221   4.463   6.525   2.357
  108SOL     OW 1222   3.498   1.645   4.768
  108SOL    HW1 1223   3.575   1.656   4.704
  108SOL    HW2 1224   3.530   1.597   4.850
  109SOL     OW 1225   1.820   1.118   5.304
  109SOL    HW1 1226   1.834   1.172   5.387
  109SOL    HW2 1227   1.908   1.100   5.260
  110SOL     OW 1228   4.231   4.369   5.661
  110SOL    HW1 1229   4.173   4.304   5.613
  110SOL    HW2 1230   4.188   4.460   5.660
  111SOL     OW 1231   6.225   3.212   2.024
  111SOL    HW1 1232   6.148   3.191   1.964
  111SOL    HW2 1233   6.212   3.303   2.064
  112SOL     OW 1234   4.579   6.997   4.858
  112SOL    HW1 1235   4.480   7.000   4.869
  112SOL    HW2 1236   4.623   7.013   4.946
  113SOL     OW 1237   0.538   4.988   2.460
  113SOL    HW1 1238   0.538   4.921   2.386
  113SOL    HW2 1239   0.618   5.048   2.451
  114SOL     OW 1240   0.013   2.281   1.801
  114SOL    HW1 1241   6.993   2.255   1.714
  114SOL    HW2 1242   6.970   2.272   1.875
  115SOL     OW 1243   4.175   1.039   2.943
  115SOL    HW1 1244   4.089   1.083   2.914
  115SOL    HW2 1245   4.250   1.076   2.888
  116SOL     OW 1246   6.534   5.632   1.083
  116SOL    HW1 1247   6.604   5.696   1.115
  116SOL    HW2 1248   6.455   5.683   1.049
  117SOL     OW 1249   2.933   1.885   0.168
  117SOL    HW1 1250   3.025   1.916   0.192
  117SOL    HW2 1251   2.898   1.825   0.239
  118SOL     OW 1252   6.928   2.115   2.105
  118SOL    HW1 1253   6.830   2.124   2.124
  118SOL    HW2 1254   6.958   2.023   2.130
  119SOL     OW 1255   6.087   6.425   4.793
  119SOL    HW1 1256   6.147   6.356   4.834
  119SOL    HW2 1257   6.069   6.498   4.859
  120SOL     OW 1258   4.273   1.792   4.487
  120SOL    HW1 1259   4.245   1.777   4.582
  120SOL    HW2 1260   4.191   1.801   4.430
  121SOL     OW 1261   0.355   5.408   6.131
  121SOL    HW1 1262   0.306   5.368   6.208
  121SOL    HW2 1263   0.380   5.503   6.153
  122SOL     OW 1264   6.624   4.983   5.979
  122SOL    HW1 1265   6.708   4.953   6.023
  122SOL    HW2 1266   6.551   4.917   5.997
  123SOL     OW 1267   0.875   3.176   1.273
  123SOL    HW1 1268   0.877   3.173   1.173
  123SOL    HW2 1269   0.923   3.097   1.310
  124SOL     OW 1270   1.996   3.525   6.779
  124SOL    HW1 1271   2.084   3.570   6.793
  124SOL    HW2 1272   2.010   3.428   6.760
  125SOL     OW 1273   4.413   2.179   0.370
  125SOL    HW1 1274   4.377   2.233   0.445
  125SOL    HW2 1275   4.510   2.201   0.355
  126SOL     OW 1276   3.648   3.633   4.662
  126SOL    HW1 1277   3.572   3.651   4.724
  126SOL    HW2 1278   3.613   3.587   4.580
  127SOL     OW 1279   0.367   5.018   6.068
  127SOL    HW1 1280   0.278   5.056   6.091
  127SOL    HW2 1281   0.366   4.920   6.084
  128SOL     OW 1282   4.207   4.302   6.169
  128SOL    HW1 1283   4.260   4.387   6.178
  128SOL    HW2 1284   4.227   4.243   6.247
  129SOL     OW 1285   0.905   4.683   1.506
  129SOL    HW1 1286   1.001   4.712   1.501
  129SOL    HW2 1287   0.872   4.663   1.414
  130SOL     OW 1288   6.120   3.734   4.989
  130SOL    HW1 1289   6.152   3.762   5.079
  130SOL    HW2 1290   6.064   3.652   4.997
  131SOL     OW 1291   1.364   3.503   3.086
  131SOL    HW1 1292   1.454   3.537   3.111
  131SOL    HW2 1293   1.352   3.511   2.987
  132SOL     OW 1294   4.756   2.909   1.376
  132SOL    HW1 1295   4.704   2.939   1.457
  132SOL    HW2 1296   4.766   2.810   1.379
  133SOL     OW 1297   4.159   4.706   6.416
  133SOL    HW1 1298   4.226   4.643   6.376
  133SOL    HW2 1299   4.114   4.661   6.493
  134SOL     OW 1300   6.677   2.219   0.773
  134SOL    HW1 1301   6.749   2.195   0.709
  134SOL    HW2 1302   6.588   2.199   0.732
  135SOL     OW 1303   4.412   4.559   3.817
  135SOL    HW1 1304   4.417   4.607   3.904
  135SOL    HW2 1305   4.338   4.598   3.762
  136SOL     OW 1306   4.028   6.460   6.589
  136SOL    HW1 1307   4.017   6.479   6.687
  136SOL    HW2 1308   4.017   6.545   6.537
  137SOL     OW 1309   2.189   4.182   6.882
  137SOL    HW1 1310   2.257   4.125   6.836
  137SOL    HW2 1311   2.117   4.207   6.817
  138SOL     OW 1312   0.865   6.146   6.895
  138SOL    HW1 1313   0.811   6.064   6.912
  138SOL    HW2 1314   0.916   6.170   6.977
  139SOL     OW 1315   0.511   1.018   0.933
  139SOL    HW1 1316   0.479   0.981   1.020
  139SOL    HW2 1317   0.558   0.946   0.882
  140SOL     OW 1318   3.852   0.299   1.595
  140SOL    HW1 1319   3.863   0.224   1.660
  140SOL    HW2 1320   3.866   0.266   1.502
  141SOL     OW 1321   1.008   1.240   6.720
  141SOL    HW1 1322   1.097   1.194   6.720
  141SOL    HW2 1323   0.992   1.282   6.809
  142SOL     OW 1324   1.789   3.694   6.722
  142SOL    HW1 1325   1.859   3.622   6.721
  142SOL    HW2 1326   1.724   3.678   6.647
  143SOL     OW 1327   5.022   5.659   1.725
  143SOL    HW1 1328   5.065   5.748   1.710
  143SOL    HW2 1329   5.079   5.586   1.688
  144SOL     OW 1330   2.815   5.515   2.922
  144SOL    HW1 1331   2.785   5.463   3.003
  144SOL    HW2 1332   2.878   5.587   2.951
  145SOL     OW 1333   0.385   5.570   3.588
  145SOL    HW1 1334   0.411   5.506   3.516
  145SOL    HW2 1335   0.339   5.521   3.662
  146SOL     OW 1336   6.705   0.791   5.818
  146SOL    HW1 1337   6.782   0.849   5.790
  146SOL    HW2 1338   6.724   0.754   5.909
  147SOL     OW 1339   5.660   1.020   5.218
  147SOL    HW1 1340   5.580   0.989   5.168
  147SOL    HW2 1341   5.662   1.120   5.220
  148SOL     OW 1342   1.821   6.531   1.685
  148SOL    HW1 1343   1.752   6.459   1.690
  148SOL    HW2 1344   1.912   6.491   1.683
  149SOL     OW 1345   1.893   3.024   4.854
  149SOL    HW1 1346   1.887   3.122   4.874
  149SOL    HW2 1347   1.965   3.009   4.786
  150SOL     OW 1348   4.914   2.725   5.866
  150SOL    HW1 1349   4.922   2.645   5.808
  150SOL    HW2 1350   4.954   2.804   5.819
  151SOL     OW 1351   6.037   2.949   1.377
  151SOL    HW1 1352   6.119   3.005   1.366
  151SOL    HW2 1353   6.040   2.903   1.466
  152SOL     OW 1354   6.988   2.891   0.589
  152SOL    HW1 1355   0.033   2.952   0.629
  152SOL    HW2 1356   6.998   2.890   0.490
  153SOL     OW 1357   1.285   2.054   3.651
  153SOL    HW1 1358   1.197   2.025   3.615
  153SOL    HW2 1359   1.358   2.017   3.593
  154SOL     OW 1360   7.019   1.475   3.703
  154SOL    HW1 1361   0.094   1.493   3.699
  154SOL    HW2 1362   6.970   1.561   3.720
  155SOL     OW 1363   5.696   4.799   3.604
  155SOL    HW1 1364   5.681   4.723   3.667
  155SOL    HW2 1365   5.792   4.799   3.574
  156SOL     OW 1366   4.603   0.446   1.778
  156SOL    HW1 1367   4.584   0.373   1.843
  156SOL    HW2 1368   4.642   0.525   1.826
  157SOL     OW 1369   4.875   0.129   1.181
  157SOL    HW1 1370   4.878   0.157   1.277
  157SOL    HW2 1371   4.916   0.201   1.124
  158SOL     OW 1372   0.939   3.527   3.935
  158SOL    HW1 1373   0.929   3.432   3.907
  158SOL    HW2 1374   0.862   3.554   3.992
  159SOL     OW 1375   6.665   5.250   6.816
  159SOL    HW1 1376   6.704   5.233   6.907
  159SOL    HW2 1377   6.719   5.320   6.770
  160SOL     OW 1378   4.150   0.655   0.985
  160SOL    HW1 1379   4.097   0.739   0.981
  160SOL    HW2 1380   4.234   0.670   1.038
  161SOL     OW 1381   6.977   6.860   0.252
  161SOL    HW1 1382   6.934   6.947   0.227
  161SOL    HW2 1383   6.986   6.802   0.171
  162SOL     OW 1384   4.570   6.759   5.845
  162SOL    HW1 1385   4.574   6.726   5.750
  162SOL    HW2 1386   4.570   6.681   5.907
  163SOL     OW 1387   0.883   3.541   2.533
  163SOL    HW1 1388   0.969   3.541   2.584
  163SOL    HW2 1389   0.824   3.613   2.569
  164SOL     OW 1390   1.810   2.197   2.320
  164SOL    HW1 1391   1.872   2.265   2.358
  164SOL    HW2 1392   1.747   2.166   2.391
  165SOL     OW 1393   0.512   6.533   4.291
  165SOL    HW1 1394   0.465   6.586   4.362
  165SOL    HW2 1395   0.548   6.595   4.222
  166SOL     OW 1396   0.606   4.663   3.856
  166SOL    HW1 1397   0.688   4.690   3.907
  166SOL    HW2 1398   0.564   4.585   3.901
  167SOL     OW 1399   1.160   1.279   3.295
  167SOL    HW1 1400   1.229   1.287   3.367
  167SOL    HW2 1401   1.115   1.367   3.282
  168SOL     OW 1402   2.905   3.565   2.889
  168SOL    HW1 1403   2.978   3.553   2.821
  168SOL    HW2 1404   2.899   3.482   2.945
  169SOL     OW 1405   5.368   2.318   6.874
  169SOL    HW1 1406   5.280   2.272   6.888
  169SOL    HW2 1407   5.383   2.384   6.947
  170SOL     OW 1408   6.696   5.318   1.803
  170SOL    HW1 1409   6.619   5.343   1.745
  170SOL    HW2 1410   6.781   5.329   1.751
  171SOL     OW 1411   3.084   2.529   0.711
  171SOL    HW1 1412   3.064   2.575   0.624
  171SOL    HW2 1413   3.080   2.594   0.786
  172SOL     OW 1414   1.534   1.393   0.043
  172SOL    HW1 1415   1.609   1.358   7.011
  172SOL    HW2 1416   1.487   1.317   0.088
  173SOL     OW 1417   5.991   0.825   4.966
  173SOL    HW1 1418   5.989   0.733   5.003
  173SOL    HW2 1419   6.002   0.891   5.040
  174SOL     OW 1420   5.997   4.210   5.402
  174SOL    HW1 1421   5.987   4.245   5.495
  174SOL    HW2 1422   6.038   4.119   5.405
  175SOL     OW 1423   0.324   6.664   2.721
  175SOL    HW1 1424   0.370   6.676   2.634
  175SOL    HW2 1425   0.331   6.748   2.775
  176SOL     OW 1426   6.676   3.656   0.951
  176SOL    HW1 1427   6.775   3.645   0.947
  176SOL    HW2 1428   6.654   3.754   0.949
  177SOL     OW 1429   6.678   2.463   3.649
  177SOL    HW1 1430   6.691   2.561   3.659
  177SOL    HW2 1431   6.675   2.420   3.740
  178SOL     OW 1432   1.925   5.760   4.637
  178SOL    HW1 1433   1.885   5.829   4.697
  178SOL    HW2 1434   1.972   5.805   4.562
  179SOL     OW 1435   3.692   4.093   2.026
  179SOL    HW1 1436   3.729   4.157   2.093
  179SOL    HW2 1437   3.600   4.066   2.053
  180SOL     OW 1438   4.683   1.566   6.586
  180SOL    HW1 1439   4.601   1.604   6.628
  180SOL    HW2 1440   4.763   1.617   6.618
  181SOL     OW 1441   3.844   0.186   5.348
  181SOL    HW1 1442   3.787   0.262   5.378
  181SOL    HW2 1443   3.890   0.211   5.263
  182SOL     OW 1444   2.950   3.090   5.728
  182SOL    HW1 1445   2.878   3.114   5.663
  182SOL    HW2 1446   3.033   3.140   5.705
  183SOL     OW 1447   2.959   1.284   3.333
  183SOL    HW1 1448   3.014   1.331   3.402
  183SOL    HW2 1449   2.976   1.185   3.339
  184SOL     OW 1450   4.937   5.211   3.372
  184SOL    HW1 1451   4.965   5.244   3.462
  184SOL    HW2 1452   5.009   5.229   3.306
  185SOL     OW 1453   0.171   6.775   4.905
  185SOL    HW1 1454   0.194   6.678   4.905
  185SOL    HW2 1455   0.256   6.829   4.902
  186SOL     OW 1456   2.789   5.892   5.948
  186SOL    HW1 1457   2.791   5.837   5.865
  186SOL    HW2 1458   2.759   5.985   5.926
  187SOL     OW 1459   3.924   5.580   1.122
  187SOL    HW1 1460   3.837   5.569   1.073
  187SOL    HW2 1461   3.990   5.625   1.062
  188SOL     OW 1462   1.544   3.866   3.569
  188SOL    HW1 1463   1.637   3.847   3.538
  188SOL    HW2 1464   1.487   3.785   3.553
  189SOL     OW 1465   5.212   4.451   6.133
  189SOL    HW1 1466   5.268   4.441   6.215
  189SOL    HW2 1467   5.263   4.418   6.054
  190SOL     OW 1468   6.159   6.815   0.752
  190SOL    HW1 1469   6.065   6.786   0.770
  190SOL    HW2 1470   6.195   6.766   0.673
  191SOL     OW 1471   1.842   2.417   5.366
  191SOL    HW1 1472   1.929   2.433   5.414
  191SOL    HW2 1473   1.860   2.371   5.279
  192SOL     OW 1474   7.020   6.712   1.621
  192SOL    HW1 1475   6.941   6.685   1.676
  192SOL    HW2 1476   0.055   6.632   1.607
  193SOL     OW 1477   3.132   0.608   1.680
  193SOL    HW1 1478   3.049   0.559   1.652
  193SOL    HW2 1479   3.122   0.637   1.775
  194SOL     OW 1480   4.214   6.130   3.075
  194SOL    HW1 1481   4.292   6.143   3.136
  194SOL    HW2 1482   4.164   6.216   3.067
  195SOL     OW 1483   2.894   0.744   1.083
  195SOL    HW1 1484   2.815   0.700   1.127
  195SOL    HW2 1485   2.932   0.682   1.014
  196SOL     OW 1486   4.726   2.635   1.371
  196SOL    HW1 1487   4.667   2.651   1.450
  196SOL    HW2 1488   4.671   2.638   1.287
  197SOL     OW 1489   1.956   6.214   0.579
  197SOL    HW1 1490   1.984   6.280   0.649
  197SOL    HW2 1491   2.015   6.133   0.584
  198SOL     OW 1492   4.975   6.687   6.668
  198SOL    HW1 1493   5.074   6.679   6.678
  198SOL    HW2 1494   4.932   6.683   6.758
  199SOL     OW 1495   2.038   0.688   3.030
  199SOL    HW1 1496   2.069   0.665   2.938
  199SOL    HW2 1497   2.110   0.666   3.096
  200SOL     OW 1498   1.364   3.765   4.340
  200SOL    HW1 1499   1.287   3.807   4.292
  200SOL    HW2 1500   1.438   3.748   4.275
  201SOL     OW 1501   4.482   1.666   6.784
  201SOL    HW1 1502   4.491   1.762   6.755
  201SOL    HW2 1503   4.528   1.653   6.872
  202SOL     OW 1504   4.383   0.506   3.053
  202SOL    HW1 1505   4.285   0.516   3.072
  202SOL    HW2 1506   4.396   0.449   2.971
  203SOL     OW 1507   5.932   2.515   0.269
  203SOL    HW1 1508   5.953   2.508   0.366
  203SOL    HW2 1509   5.836   2.491   0.254
  204SOL     OW 1510   1.532   6.083   1.067
  204SOL    HW1 1511   1.434   6.064   1.059
  204SOL    HW2 1512   1.571   6.025   1.138
  205SOL     OW 1513   5.438   0.954   1.215
  205SOL    HW1 1514   5.351   0.938   1.261
  205SOL    HW2 1515   5.512   0.914   1.269
  206SOL     OW 1516   7.016   5.973   1.248
  206SOL    HW1 1517   0.050   6.054   1.237
  206SOL    HW2 1518   0.009   5.910   1.172
  207SOL     OW 1519   6.283   1.842   5.998
  207SOL    HW1 1520   6.352   1.820   5.929
  207SOL    HW2 1521   6.235   1.759   6.026
  208SOL     OW 1522   3.918   4.035   6.958
  208SOL    HW1 1523   3.993   4.089   6.919
  208SOL    HW2 1524   3.831   4.084   6.945
  209SOL     OW 1525   0.099   6.342   4.040
  209SOL    HW1 1526   0.117   6.248   4.070
  209SOL    HW2 1527   0.105   6.347   3.941
  210SOL     OW 1528   4.087   2.270   0.514
  210SOL    HW1 1529   4.033   2.231   0.439
  210SOL    HW2 1530   4.066   2.367   0.522
  211SOL     OW 1531   1.054   3.386   1.580
  211SOL    HW1 1532   1.073   3.470   1.631
  211SOL    HW2 1533   1.045   3.310   1.643
  212SOL     OW 1534   1.148   5.366   5.252
  212SOL    HW1 1535   1.163   5.274   5.217
  212SOL    HW2 1536   1.143   5.363   5.352
  213SOL     OW 1537   3.653   2.366   0.200
  213SOL    HW1 1538   3.719   2.320   0.141
  213SOL    HW2 1539   3.619   2.448   0.154
  214SOL     OW 1540   1.436   6.212   3.219
  214SOL    HW1 1541   1.403   6.283   3.157
  214SOL    HW2 1542   1.534   6.199   3.205
  215SOL     OW 1543   3.103   3.993   3.193
  215SOL    HW1 1544   3.078   4.087   3.169
  215SOL    HW2 1545   3.050   3.928   3.139
  216SOL     OW 1546   2.740   0.331   5.697
  216SOL    HW1 1547   2.818   0.378   5.657
  216SOL    HW2 1548   2.745   0.339   5.797
  217SOL     OW 1549   6.907   2.320   4.995
  217SOL    HW1 1550   6.995   2.326   5.041
  217SOL    HW2 1551   6.883   2.409   4.956
  218SOL     OW 1552   2.705   3.781   5.496
  218SOL    HW1 1553   2.787   3.811   5.545
  218SOL    HW2 1554   2.625   3.793   5.553
  219SOL     OW 1555   3.378   5.280   0.057
  219SOL    HW1 1556   3.319   5.341   0.108
  219SOL    HW2 1557   3.329   5.196   0.034
  220SOL     OW 1558   1.624   4.444   0.175
  220SOL    HW1 1559   1.635   4.345   0.183
  220SOL    HW2 1560   1.546   4.473   0.230
  221SOL     OW 1561   5.722   2.335   4.902
  221SOL    HW1 1562   5.638   2.283   4.889
  221SOL    HW2 1563   5.769   2.344   4.814
  222SOL     OW 1564   1.837   6.462   4.651
  222SOL    HW1 1565   1.752   6.458   4.599
  222SOL    HW2 1566   1.847   6.552   4.693
  223SOL     OW 1567   5.697   4.930   2.722
  223SOL    HW1 1568   5.645   4.881   2.793
  223SOL    HW2 1569   5.788   4.953   2.757
  224SOL     OW 1570   4.428   2.079   2.364
  224SOL    HW1 1571   4.379   2.163   2.343
  224SOL    HW2 1572   4.411   2.053   2.459
  225SOL     OW 1573   5.249   6.702   1.202
  225SOL    HW1 1574   5.195   6.690   1.286
  225SOL    HW2 1575   5.190   6.693   1.122
  226SOL     OW 1576   0.629   5.506   2.754
  226SOL    HW1 1577   0.547   5.535   2.704
  226SOL    HW2 1578   0.607   5.492   2.850
  227SOL     OW 1579   1.376   3.811   3.220
  227SOL    HW1 1580   1.447   3.791   3.152
  227SOL    HW2 1581   1.377   3.741   3.291
  228SOL     OW 1582   4.134   6.599   2.374
  228SOL    HW1 1583   4.173   6.687   2.345
  228SOL    HW2 1584   4.092   6.609   2.464
  229SOL     OW 1585   6.580   5.235   2.801
  229SOL    HW1 1586   6.600   5.141   2.829
  229SOL    HW2 1587   6.599   5.297   2.877
  230SOL     OW 1588   0.908   4.630   6.091
  230SOL    HW1 1589   0.905   4.684   6.175
  230SOL    HW2 1590   0.947   4.540   6.111
  231SOL     OW 1591   0.352   2.233   6.487
  231SOL    HW1 1592   0.448   2.221   6.463
  231SOL    HW2 1593   0.345   2.252   6.585
  232SOL     OW 1594   1.089   3.886   6.226
  232SOL    HW1 1595   1.169   3.930   6.267
  232SOL    HW2 1596   1.110   3.860   6.132
  233SOL     OW 1597   3.117   0.021   6.734
  233SOL    HW1 1598   3.104   0.057   6.826
  233SOL    HW2 1599   3.140   6.948   6.738
  234SOL     OW 1600   2.565   4.577   6.336
  234SOL    HW1 1601   2.597   4.557   6.429
  234SOL    HW2 1602   2.466   4.564   6.331
  235SOL     OW 1603   3.364   3.387   5.716
  235SOL    HW1 1604   3.404   3.297   5.698
  235SOL    HW2 1605   3.294   3.407   5.647
  236SOL     OW 1606   0.458   2.148   5.946
  236SOL    HW1 1607   0.491   2.202   6.024
  236SOL    HW2 1608   0.530   2.084   5.918
  237SOL     OW 1609   6.800   6.606   1.755
  237SOL    HW1 1610   6.729   6.604   1.684
  237SOL    HW2 1611   6.765   6.654   1.835
  238SOL     OW 1612   0.106   1.771   2.628
  238SOL    HW1 1613   0.024   1.819   2.658
  238SOL    HW2 1614   0.152   1.731   2.707
  239SOL     OW 1615   6.439   5.353   0.646
  239SOL    HW1 1616   6.492   5.396   0.719
  239SOL    HW2 1617   6.387   5.423   0.597
  240SOL     OW 1618   0.268   2.625   5.354
  240SOL    HW1 1619   0.347   2.566   5.336
  240SOL    HW2 1620   0.267   2.653   5.450
  241SOL     OW 1621   5.339   2.350   4.963
  241SOL    HW1 1622   5.313   2.310   5.051
  241SOL    HW2 1623   5.258   2.356   4.904
  242SOL     OW 1624   2.639   2.391   4.085
  242SOL    HW1 1625   2.715   2.383   4.149
  242SOL    HW2 1626   2.565   2.330   4.112
  243SOL     OW 1627   4.988   1.142   6.948
  243SOL    HW1 1628   4.930   1.084   6.892
  243SOL    HW2 1629   4.936   1.222   6.978
  244SOL     OW 1630   0.855   1.743   5.820
  244SOL    HW1 1631   0.949   1.709   5.810
  244SOL    HW2 1632   0.850   1.839   5.792
  245SOL     OW 1633   4.927   2.954   3.583
  245SOL    HW1 1634   4.925   2.979   3.679
  245SOL    HW2 1635   5.015   2.911   3.561
  246SOL     OW 1636   4.842   2.977   4.165
  246SOL    HW1 1637   4.909   3.048   4.144
  246SOL    HW2 1638   4.812   2.987   4.260
  247SOL     OW 1639   3.072   0.505   2.894
  247SOL    HW1 1640   3.141   0.477   2.827
  247SOL    HW2 1641   3.092   0.597   2.927
  248SOL     OW 1642   0.213   1.854   2.335
  248SOL    HW1 1643   0.229   1.788   2.408
  248SOL    HW2 1644   0.220   1.947   2.372
  249SOL     OW 1645   2.218   5.327   5.153
  249SOL    HW1 1646   2.233   5.233   5.184
  249SOL    HW2 1647   2.123   5.339   5.125
  250SOL     OW 1648   5.482   2.241   0.659
  250SOL    HW1 1649   5.506   2.218   0.565
  250SOL    HW2 1650   5.512   2.334   0.680
  251SOL     OW 1651   2.137   0.883   0.784
  251SOL    HW1 1652   2.215   0.857   0.841
  251SOL    HW2 1653   2.116   0.980   0.798
  252SOL     OW 1654   0.430   2.126   0.138
  252SOL    HW1 1655   0.410   2.031   0.160
  252SOL    HW2 1656   0.528   2.143   0.150
  253SOL     OW 1657   1.974   4.417   6.459
  253SOL    HW1 1658   1.994   4.454   6.368
  253SOL    HW2 1659   1.875   4.404   6.469
  254SOL     OW 1660   4.796   3.813   6.326
  254SOL    HW1 1661   4.727   3.821   6.253
  254SOL    HW2 1662   4.843   3.900   6.336
  255SOL     OW 1663   4.147   2.196   2.125
  255SOL    HW1 1664   4.183   2.227   2.213
  255SOL    HW2 1665   4.219   2.203   2.056
  256SOL     OW 1666   6.586   5.674   1.556
  256SOL    HW1 1667   6.659   5.696   1.620
  256SOL    HW2 1668   6.557   5.757   1.508
  257SOL     OW 1669   2.439   5.739   5.648
  257SOL    HW1 1670   2.478   5.805   5.711
  257SOL    HW2 1671   2.420   5.654   5.695
  258SOL     OW 1672   4.404   4.981   4.287
  258SOL    HW1 1673   4.480   4.925   4.318
  258SOL    HW2 1674   4.318   4.942   4.319
  259SOL     OW 1675   0.721   1.894   2.780
  259SOL    HW1 1676   0.624   1.873   2.788
  259SOL    HW2 1677   0.742   1.921   2.686
  260SOL     OW 1678   6.437   6.482   5.890
  260SOL    HW1 1679   6.518   6.502   5.945
  260SOL    HW2 1680   6.397   6.395   5.920
  261SOL     OW 1681   0.662   1.204   3.842
  261SOL    HW1 1682   0.720   1.143   3.896
  261SOL    HW2 1683   0.680   1.299   3.869
  262SOL     OW 1684   1.121   4.867   1.516
  262SOL    HW1 1685   1.150   4.932   1.445
  262SOL    HW2 1686   1.109   4.915   1.603
  263SOL     OW 1687   0.497   4.416   3.949
  263SOL    HW1 1688   0.533   4.327   3.921
  263SOL    HW2 1689   0.406   4.405   3.988
  264SOL     OW 1690   3.172   4.355   0.188
  264SOL    HW1 1691   3.217   4.443   0.200
  264SOL    HW2 1692   3.157   4.313   0.277
  265SOL     OW 1693   3.981   5.621   3.660
  265SOL    HW1 1694   4.015   5.579   3.576
  265SOL    HW2 1695   3.922   5.699   3.637
  266SOL     OW 1696   4.281   3.520   0.034
  266SOL    HW1 1697   4.353   3.586   0.055
  266SOL    HW2 1698   4.319   3.445   7.003
  267SOL     OW 1699   2.044   2.281   5.868
  267SOL    HW1 1700   2.002   2.344   5.803
  267SOL    HW2 1701   2.106   2.331   5.928
  268SOL     OW 1702   2.198   4.480   3.808
  268SOL    HW1 1703   2.169   4.398   3.758
  268SOL    HW2 1704   2.144   4.559   3.778
  269SOL     OW 1705   2.386   2.098   5.250
  269SOL    HW1 1706   2.429   2.125   5.164
  269SOL    HW2 1707   2.287   2.098   5.239
  270SOL     OW 1708   4.895   6.301   4.943
  270SOL    HW1 1709   4.975   6.326   4.997
  270SOL    HW2 1710   4.911   6.213   4.899
  271SOL     OW 1711   2.262   1.644   0.258
  271SOL    HW1 1712   2.260   1.561   0.203
  271SOL    HW2 1713   2.193   1.638   0.330
  272SOL     OW 1714   4.437   5.209   0.357
  272SOL    HW1 1715   4.406   5.213   0.262
  272SOL    HW2 1716   4.362   5.235   0.418
  273SOL     OW 1717   1.745   5.909   3.970
  273SOL    HW1 1718   1.659   5.951   3.999
  273SOL    HW2 1719   1.815   5.925   4.039
  274SOL     OW 1720   5.828   1.966   1.960
  274SOL    HW1 1721   5.783   1.988   1.874
  274SOL    HW2 1722   5.825   2.045   2.021
  275SOL     OW 1723   5.996   5.636   5.905
  275SOL    HW1 1724   6.005   5.671   5.812
  275SOL    HW2 1725   6.087   5.619   5.943
  276SOL     OW 1726   0.600   0.358   4.263
  276SOL    HW1 1727   0.531   0.285   4.259
  276SOL    HW2 1728   0.571   0.434   4.206
  277SOL     OW 1729   4.043   2.753   5.370
  277SOL    HW1 1730   4.074   2.676   5.315
  277SOL    HW2 1731   3.979   2.722   5.440
  278SOL     OW 1732   5.800   3.854   3.120
  278SOL    HW1 1733   5.735   3.781   3.144
  278SOL    HW2 1734   5.836   3.837   3.028
  279SOL     OW 1735   0.284   3.974   3.502
  279SOL    HW1 1736   0.341   3.983   3.420
  279SOL    HW2 1737   0.228   4.057   3.512
  280SOL     OW 1738   4.158   1.920   3.437
  280SOL    HW1 1739   4.076   1.867   3.413
  280SOL    HW2 1740   4.190   1.892   3.528
  281SOL     OW 1741   4.711   6.097   5.292
  281SOL    HW1 1742   4.781   6.160   5.326
  281SOL    HW2 1743   4.673   6.046   5.369
  282SOL     OW 1744   1.043   2.460   0.156
  282SOL    HW1 1745   0.978   2.428   0.086
  282SOL    HW2 1746   1.041   2.397   0.234
  283SOL     OW 1747   6.208   3.595   3.510
  283SOL    HW1 1748   6.111   3.571   3.515
  283SOL    HW2 1749   6.218   3.686   3.470
  284SOL     OW 1750   5.305   6.768   2.516
  284SOL    HW1 1751   5.370   6.695   2.496
  284SOL    HW2 1752   5.221   6.729   2.552
  285SOL     OW 1753   3.785   6.336   6.407
  285SOL    HW1 1754   3.871   6.360   6.451
  285SOL    HW2 1755   3.716   6.406   6.429
  286SOL     OW 1756   2.733   5.098   5.564
  286SOL    HW1 1757   2.830   5.073   5.563
  286SOL    HW2 1758   2.720   5.185   5.516
  287SOL     OW 1759   3.287   5.614   0.446
  287SOL    HW1 1760   3.192   5.639   0.466
  287SOL    HW2 1761   3.289   5.553   0.367
  288SOL     OW 1762   4.320   1.502   0.265
  288SOL    HW1 1763   4.378   1.428   0.232
  288SOL    HW2 1764   4.359   1.540   0.349
  289SOL     OW 1765   5.270   5.108   4.834
  289SOL    HW1 1766   5.240   5.032   4.777
  289SOL    HW2 1767   5.232   5.098   4.926
  290SOL     OW 1768   3.644   0.632   5.450
  290SOL    HW1 1769   3.664   0.662   5.357
  290SOL    HW2 1770   3.706   0.677   5.514
  291SOL     OW 1771   5.271   1.169   5.106
  291SOL    HW1 1772   5.241   1.231   5.033
  291SOL    HW2 1773   5.270   1.218   5.193
  292SOL     OW 1774   3.470   0.209   3.741
  292SOL    HW1 1775   3.394   0.153   3.774
  292SOL    HW2 1776   3.457   0.303   3.772
  293SOL     OW 1777   5.414   0.415   2.770
  293SOL    HW1 1778   5.422   0.393   2.867
  293SOL    HW2 1779   5.354   0.494   2.758
  294SOL     OW 1780   6.917   1.725   6.266
  294SOL    HW1 1781   6.878   1.714   6.358
  294SOL    HW2 1782   7.017   1.732   6.273
  295SOL     OW 1783   0.452   0.379   4.863
  295SOL    HW1 1784   0.380   0.356   4.797
  295SOL    HW2 1785   0.481   0.296   4.911
  296SOL     OW 1786   0.943   1.825   1.716
  296SOL    HW1 1787   0.880   1.769   1.772
  296SOL    HW2 1788   1.032   1.779   1.711
  297SOL     OW 1789   5.184   3.327   3.309
  297SOL    HW1 1790   5.204   3.231   3.291
  297SOL    HW2 1791   5.197   3.381   3.226
  298SOL     OW 1792   4.285   0.980   5.944
  298SOL    HW1 1793   4.289   1.054   5.877
  298SOL    HW2 1794   4.303   1.017   6.036
  299SOL     OW 1795   0.859   1.335   5.875
  299SOL    HW1 1796   0.884   1.401   5.946
  299SOL    HW2 1797   0.853   1.244   5.916
  300SOL     OW 1798   4.556   6.301   3.730
  300SOL    HW1 1799   4.510   6.386   3.754
  300SOL    HW2 1800   4.582   6.303   3.633
  301SOL     OW 1801   0.147   6.275   5.772
  301SOL    HW1 1802   0.182   6.193   5.725
  301SOL    HW2 1803   0.088   6.326   5.711
  302SOL     OW 1804   6.989   6.806   1.987
  302SOL    HW1 1805   0.022   6.727   2.010
  302SOL    HW2 1806   0.021   6.889   1.991
  303SOL     OW 1807   5.370   5.980   2.485
  303SOL    HW1 1808   5.432   5.902   2.491
  303SOL    HW2 1809   5.289   5.955   2.433
  304SOL     OW 1810   2.058   0.161   4.467
  304SOL    HW1 1811   2.126   0.115   4.411
  304SOL    HW2 1812   2.060   0.124   4.560
  305SOL     OW 1813   1.345   1.786   1.320
  305SOL    HW1 1814   1.433   1.808   1.277
  305SOL    HW2 1815   1.352   1.798   1.418
  306SOL     OW 1816   0.219   0.062   2.279
  306SOL    HW1 1817   0.290   0.057   2.350
  306SOL    HW2 1818   0.129   0.060   2.322
  307SOL     OW 1819   3.680   3.367   3.572
  307SOL    HW1 1820   3.582   3.368   3.591
  307SOL    HW2 1821   3.700   3.425   3.492
  308SOL     OW 1822   6.130   1.450   2.129
  308SOL    HW1 1823   6.197   1.403   2.186
  308SOL    HW2 1824   6.178   1.514   2.068
  309SOL     OW 1825   1.839   4.783   0.137
  309SOL    HW1 1826   1.910   4.847   0.108
  309SOL    HW2 1827   1.821   4.717   0.064
  310SOL     OW 1828   5.041   6.831   4.890
  310SOL    HW1 1829   4.984   6.749   4.896
  310SOL    HW2 1830   4.984   6.912   4.885
  311SOL     OW 1831   1.148   6.514   1.847
  311SOL    HW1 1832   1.196   6.598   1.824
  311SOL    HW2 1833   1.055   6.535   1.877
  312SOL     OW 1834   3.432   0.492   4.301
  312SOL    HW1 1835   3.390   0.582   4.310
  312SOL    HW2 1836   3.360   0.423   4.292
  313SOL     OW 1837   3.061   3.138   2.810
  313SOL    HW1 1838   3.049   3.129   2.711
  313SOL    HW2 1839   3.143   3.087   2.838
  314SOL     OW 1840   3.098   5.529   6.334
  314SOL    HW1 1841   3.130   5.486   6.419
  314SOL    HW2 1842   3.173   5.535   6.269
  315SOL     OW 1843   5.970   0.576   4.149
  315SOL    HW1 1844   5.957   0.673   4.130
  315SOL    HW2 1845   5.917   0.521   4.085
  316SOL     OW 1846   3.451   1.138   5.995
  316SOL    HW1 1847   3.450   1.235   6.016
  316SOL    HW2 1848   3.524   1.093   6.047
  317SOL     OW 1849   0.617   2.486   1.159
  317SOL    HW1 1850   0.605   2.429   1.240
  317SOL    HW2 1851   0.590   2.434   1.077
  318SOL     OW 1852   0.667   0.516   3.540
  318SOL    HW1 1853   0.650   0.598   3.486
  318SOL    HW2 1854   0.679   0.437   3.480
  319SOL     OW 1855   0.396   0.823   2.797
  319SOL    HW1 1856   0.362   0.738   2.837
  319SOL    HW2 1857   0.377   0.824   2.699
  320SOL     OW 1858   4.947   1.594   0.276
  320SOL    HW1 1859   4.991   1.505   0.287
  320SOL    HW2 1860   4.969   1.630   0.185
  321SOL     OW 1861   4.615   2.989   0.839
  321SOL    HW1 1862   4.674   2.982   0.759
  321SOL    HW2 1863   4.670   3.013   0.919
  322SOL     OW 1864   3.462   2.684   6.708
  322SOL    HW1 1865   3.371   2.721   6.694
  322SOL    HW2 1866   3.519   2.751   6.756
  323SOL     OW 1867   1.472   3.354   2.325
  323SOL    HW1 1868   1.497   3.370   2.230
  323SOL    HW2 1869   1.551   3.316   2.374
  324SOL     OW 1870   0.077   0.328   3.253
  324SOL    HW1 1871   0.155   0.371   3.299
  324SOL    HW2 1872   0.060   0.375   3.166
  325SOL     OW 1873   6.283   3.602   1.045
  325SOL    HW1 1874   6.342   3.677   1.074
  325SOL    HW2 1875   6.339   3.522   1.022
  326SOL     OW 1876   0.325   5.791   6.788
  326SOL    HW1 1877   0.360   5.875   6.746
  326SOL    HW2 1878   0.258   5.749   6.727
  327SOL     OW 1879   4.123   6.203   6.533
  327SOL    HW1 1880   4.086   6.295   6.546
  327SOL    HW2 1881   4.050   6.136   6.545
  328SOL     OW 1882   1.157   4.945   3.557
  328SOL    HW1 1883   1.170   5.031   3.508
  328SOL    HW2 1884   1.139   4.872   3.492
  329SOL     OW 1885   3.685   3.099   1.843
  329SOL    HW1 1886   3.606   3.076   1.787
  329SOL    HW2 1887   3.754   3.027   1.835
  330SOL     OW 1888   2.762   3.265   6.975
  330SOL    HW1 1889   2.778   3.171   7.007
  330SOL    HW2 1890   2.758   3.265   6.875
  331SOL     OW 1891   5.088   4.773   4.618
  331SOL    HW1 1892   5.118   4.792   4.525
  331SOL    HW2 1893   5.004   4.825   4.637
  332SOL     OW 1894   5.935   2.403   3.227
  332SOL    HW1 1895   5.886   2.440   3.306
  332SOL    HW2 1896   5.979   2.478   3.178
  333SOL     OW 1897   4.027   6.505   4.088
  333SOL    HW1 1898   3.933   6.477   4.106
  333SOL    HW2 1899   4.062   6.457   4.007
  334SOL     OW 1900   3.130   3.549   4.159
  334SOL    HW1 1901   3.057   3.611   4.128
  334SOL    HW2 1902   3.091   3.482   4.222
  335SOL     OW 1903   3.012   1.000   1.011
  335SOL    HW1 1904   3.092   1.009   1.071
  335SOL    HW2 1905   2.928   1.009   1.064
  336SOL     OW 1906   4.473   1.958   5.032
  336SOL    HW1 1907   4.438   1.881   4.978
  336SOL    HW2 1908   4.429   1.958   5.122
  337SOL     OW 1909   0.029   1.186   5.442
  337SOL    HW1 1910   0.061   1.098   5.409
  337SOL    HW2 1911   0.107   1.240   5.475
  338SOL     OW 1912   4.623   1.628   1.322
  338SOL    HW1 1913   4.589   1.577   1.243
  338SOL    HW2 1914   4.722   1.639   1.314
  339SOL     OW 1915   4.298   4.792   5.825
  339SOL    HW1 1916   4.216   4.840   5.856
  339SOL    HW2 1917   4.353   4.853   5.769
  340SOL     OW 1918   5.062   3.273   5.097
  340SOL    HW1 1919   5.007   3.229   5.026
  340SOL    HW2 1920   5.158   3.246   5.086
  341SOL     OW 1921   6.934   0.276   1.908
  341SOL    HW1 1922   6.861   0.213   1.936
  341SOL    HW2 1923   7.022   0.230   1.917
  342SOL     OW 1924   4.521   1.387   2.188
  342SOL    HW1 1925   4.424   1.368   2.206
  342SOL    HW2 1926   4.541   1.482   2.211
  343SOL     OW 1927   5.208   0.458   1.023
  343SOL    HW1 1928   5.306   0.439   1.011
  343SOL    HW2 1929   5.197   0.549   1.061
  344SOL     OW 1930   6.671   3.314   1.471
  344SOL    HW1 1931   6.766   3.311   1.441
  344SOL    HW2 1932   6.665   3.359   1.560
  345SOL     OW 1933   6.884   2.412   4.188
  345SOL    HW1 1934   6.914   2.426   4.094
  345SOL    HW2 1935   6.787   2.386   4.189
  346SOL     OW 1936   2.125   6.045   2.704
  346SOL    HW1 1937   2.053   6.029   2.635
  346SOL    HW2 1938   2.129   5.967   2.767
  347SOL     OW 1939   2.672   4.653   1.154
  347SOL    HW1 1940   2.680   4.752   1.168
  347SOL    HW2 1941   2.703   4.605   1.236
  348SOL     OW 1942   4.952   4.730   2.046
  348SOL    HW1 1943   5.029   4.707   1.988
  348SOL    HW2 1944   4.895   4.649   2.061
  349SOL     OW 1945   5.369   4.503   0.814
  349SOL    HW1 1946   5.326   4.440   0.879
  349SOL    HW2 1947   5.465   4.515   0.838
  350SOL     OW 1948   2.484   1.819   0.231
  350SOL    HW1 1949   2.397   1.770   0.237
  350SOL    HW2 1950   2.518   1.816   0.137
  351SOL     OW 1951   3.456   3.882   1.038
  351SOL    HW1 1952   3.381   3.900   1.102
  351SOL    HW2 1953   3.424   3.897   0.945
  352SOL     OW 1954   4.501   6.255   2.226
  352SOL    HW1 1955   4.563   6.290   2.297
  352SOL    HW2 1956   4.406   6.268   2.256
  353SOL     OW 1957   2.366   6.802   0.650
  353SOL    HW1 1958   2.271   6.818   0.675
  353SOL    HW2 1959   2.373   6.788   0.551
  354SOL     OW 1960   1.397   2.010   0.649
  354SOL    HW1 1961   1.497   2.013   0.651
  354SOL    HW2 1962   1.366   1.916   0.661
  355SOL     OW 1963   0.519   2.793   3.406
  355SOL    HW1 1964   0.543   2.744   3.489
  355SOL    HW2 1965   0.602   2.830   3.363
  356SOL     OW 1966   2.615   0.289   5.438
  356SOL    HW1 1967   2.576   0.197   5.438
  356SOL    HW2 1968   2.670   0.303   5.520
  357SOL     OW 1969   5.975   5.828   4.648
  357SOL    HW1 1970   5.946   5.756   4.712
  357SOL    HW2 1971   6.066   5.861   4.674
  358SOL     OW 1972   3.144   5.807   6.539
  358SOL    HW1 1973   3.236   5.808   6.580
  358SOL    HW2 1974   3.081   5.855   6.599
  359SOL     OW 1975   1.496   2.074   1.991
  359SOL    HW1 1976   1.434   2.000   1.965
  359SOL    HW2 1977   1.526   2.123   1.909
  360SOL     OW 1978   2.051   3.964   3.624
  360SOL    HW1 1979   2.071   3.946   3.721
  360SOL    HW2 1980   2.127   3.930   3.568
  361SOL     OW 1981   0.333   1.984   1.711
  361SOL    HW1 1982   0.322   2.047   1.788
  361SOL    HW2 1983   0.278   2.017   1.633
  362SOL     OW 1984   3.816   3.952   2.536
  362SOL    HW1 1985   3.875   3.931   2.614
  362SOL    HW2 1986   3.752   4.025   2.561
  363SOL     OW 1987   4.507   5.446   1.018
  363SOL    HW1 1988   4.457   5.416   0.937
  363SOL    HW2 1989   4.550   5.535   0.999
  364SOL     OW 1990   1.160   0.752   0.280
  364SOL    HW1 1991   1.193   0.664   0.314
  364SOL    HW2 1992   1.063   0.744   0.258
  365SOL     OW 1993   5.916   0.842   4.086
  365SOL    HW1 1994   5.823   0.866   4.113
  365SOL    HW2 1995   5.981   0.907   4.126
  366SOL     OW 1996   5.110   1.893   0.171
  366SOL    HW1 1997   5.046   1.959   0.210
  366SOL    HW2 1998   5.060   1.830   0.111
  367SOL     OW 1999   5.498   0.788   6.673
  367SOL    HW1 2000   5.530   0.695   6.654
  367SOL    HW2 2001   5.479   0.835   6.587
  368SOL     OW 2002   1.798   2.054   5.678
  368SOL    HW1 2003   1.729   2.065   5.606
  368SOL    HW2 2004   1.824   1.957   5.685
  369SOL     OW 2005   5.986   4.425   0.462
  369SOL    HW1 2006   6.001   4.403   0.365
  369SOL    HW2 2007   5.892   4.458   0.473
  370SOL     OW 2008   2.440   2.621   3.248
  370SOL    HW1 2009   2.374   2.549   3.270
  370SOL    HW2 2010   2.399   2.710   3.266
  371SOL     OW 2011   2.010   5.944   0.285
  371SOL    HW1 2012   2.079   6.016   0.299
  371SOL    HW2 2013   2.054   5.863   0.248
  372SOL     OW 2014   2.252   5.731   5.964
  372SOL    HW1 2015   2.297   5.817   5.939
  372SOL    HW2 2016   2.289   5.656   5.909
  373SOL     OW 2017   6.570   4.481   3.130
  373SOL    HW1 2018   6.526   4.570   3.114
  373SOL    HW2 2019   6.508   4.408   3.102
  374SOL     OW 2020   2.870   1.688   2.228
  374SOL    HW1 2021   2.826   1.600   2.247
  374SOL    HW2 2022   2.964   1.687   2.263
  375SOL     OW 2023   1.231   6.096   4.361
  375SOL    HW1 2024   1.313   6.060   4.407
  375SOL    HW2 2025   1.230   6.064   4.266
  376SOL     OW 2026   4.104   0.544   3.053
  376SOL    HW1 2027   4.053   0.458   3.053
  376SOL    HW2 2028   4.076   0.599   3.132
  377SOL     OW 2029   2.964   2.174   6.314
  377SOL    HW1 2030   3.012   2.098   6.359
  377SOL    HW2 2031   2.921   2.140   6.230
  378SOL     OW 2032   3.890   1.126   1.974
  378SOL    HW1 2033   3.980   1.115   1.931
  378SOL    HW2 2034   3.819   1.105   1.907
  379SOL     OW 2035   4.253   2.823   6.576
  379SOL    HW1 2036   4.315   2.902   6.571
  379SOL    HW2 2037   4.266   2.776   6.663
  380SOL     OW 2038   4.317   2.218   0.645
  380SOL    HW1 2039   4.345   2.292   0.707
  380SOL    HW2 2040   4.234   2.245   0.596
  381SOL     OW 2041   2.211   4.099   2.904
  381SOL    HW1 2042   2.170   4.058   2.822
  381SOL    HW2 2043   2.296   4.145   2.878
  382SOL     OW 2044   5.977   6.930   6.965
  382SOL    HW1 2045   5.879   6.946   6.976
  382SOL    HW2 2046   6.007   6.966   6.877
  383SOL     OW 2047   4.339   3.442   0.496
  383SOL    HW1 2048   4.283   3.446   0.412
  383SOL    HW2 2049   4.380   3.351   0.504
  384SOL     OW 2050   0.324   3.939   5.055
  384SOL    HW1 2051   0.337   3.877   4.978
  384SOL    HW2 2052   0.397   3.926   5.122
  385SOL     OW 2053   4.371   2.883   0.745
  385SOL    HW1 2054   4.439   2.909   0.814
  385SOL    HW2 2055   4.416   2.832   0.672
  386SOL     OW 2056   4.051   6.369   5.232
  386SOL    HW1 2057   4.117   6.441   5.212
  386SOL    HW2 2058   3.958   6.407   5.232
  387SOL     OW 2059   3.106   6.184   4.207
  387SOL    HW1 2060   3.122   6.115   4.278
  387SOL    HW2 2061   3.068   6.140   4.126
  388SOL     OW 2062   1.622   5.269   6.152
  388SOL    HW1 2063   1.669   5.218   6.080
  388SOL    HW2 2064   1.625   5.367   6.130
  389SOL     OW 2065   2.695   2.823   1.248
  389SOL    HW1 2066   2.611   2.876   1.244
  389SOL    HW2 2067   2.768   2.880   1.287
  390SOL     OW 2068   2.528   0.873   4.847
  390SOL    HW1 2069   2.436   0.908   4.829
  390SOL    HW2 2070   2.596   0.930   4.801
  391SOL     OW 2071   1.528   2.431   6.884
  391SOL    HW1 2072   1.550   2.364   6.954
  391SOL    HW2 2073   1.430   2.425   6.862
  392SOL     OW 2074   3.370   6.025   4.595
  392SOL    HW1 2075   3.369   5.999   4.692
  392SOL    HW2 2076   3.451   5.986   4.551
  393SOL     OW 2077   5.758   4.018   5.773
  393SOL    HW1 2078   5.719   3.929   5.747
  393SOL    HW2 2079   5.856   4.007   5.791
  394SOL     OW 2080   2.028   0.932   6.412
  394SOL    HW1 2081   1.964   0.919   6.337
  394SOL    HW2 2082   2.121   0.911   6.380
  395SOL     OW 2083   0.050   3.187   0.814
  395SOL    HW1 2084   0.074   3.136   0.897
  395SOL    HW2 2085   0.100   3.149   0.736
  396SOL     OW 2086   3.501   3.089   5.168
  396SOL    HW1 2087   3.406   3.060   5.169
  396SOL    HW2 2088   3.530   3.113   5.261
  397SOL     OW 2089   4.156   1.509   6.858
  397SOL    HW1 2090   4.076   1.488   6.914
  397SOL    HW2 2091   4.141   1.477   6.764
  398SOL     OW 2092   0.896   4.586   2.428
  398SOL    HW1 2093   0.936   4.675   2.407
  398SOL    HW2 2094   0.849   4.590   2.516
  399SOL     OW 2095   5.203   4.510   2.238
  399SOL    HW1 2096   5.128   4.454   2.274
  399SOL    HW2 2097   5.250   4.460   2.165
  400SOL     OW 2098   2.647   4.950   4.431
  400SOL    HW1 2099   2.657   4.854   4.457
  400SOL    HW2 2100   2.562   4.986   4.470
  401SOL     OW 2101   5.754   1.400   0.370
  401SOL    HW1 2102   5.669   1.407   0.319
  401SOL    HW2 2103   5.735   1.385   0.467
  402SOL     OW 2104   6.907   4.467   0.958
  402SOL    HW1 2105   6.911   4.562   0.927
  402SOL    HW2 2106   6.839   4.417   0.904
  403SOL     OW 2107   5.156   4.688   0.662
  403SOL    HW1 2108   5.246   4.716   0.628
  403SOL    HW2 2109   5.099   4.768   0.676
  404SOL     OW 2110   0.728   6.684   4.563
  404SOL    HW1 2111   0.765   6.777   4.559
  404SOL    HW2 2112   0.711   6.650   4.471
  405SOL     OW 2113   0.987   2.934   1.376
  405SOL    HW1 2114   0.899   2.888   1.392
  405SOL    HW2 2115   1.040   2.934   1.461
  406SOL     OW 2116   0.714   2.003   3.141
  406SOL    HW1 2117   0.790   1.992   3.077
  406SOL    HW2 2118   0.747   1.992   3.235
  407SOL     OW 2119   2.983   1.661   3.586
  407SOL    HW1 2120   2.994   1.702   3.677
  407SOL    HW2 2121   2.915   1.713   3.534
  408SOL     OW 2122   2.412   0.597   3.553
  408SOL    HW1 2123   2.405   0.527   3.625
  408SOL    HW2 2124   2.505   0.635   3.553
  409SOL     OW 2125   6.722   3.156   4.262
  409SOL    HW1 2126   6.711   3.176   4.164
  409SOL    HW2 2127   6.820   3.158   4.285
  410SOL     OW 2128   2.992   6.798   6.300
  410SOL    HW1 2129   3.068   6.849   6.339
  410SOL    HW2 2130   2.925   6.862   6.261
  411SOL     OW 2131   0.751   3.237   4.623
  411SOL    HW1 2132   0.851   3.237   4.629
  411SOL    HW2 2133   0.712   3.217   4.713
  412SOL     OW 2134   4.489   0.223   2.289
  412SOL    HW1 2135   4.455   0.294   2.350
  412SOL    HW2 2136   4.589   0.230   2.283
  413SOL     OW 2137   2.453   0.333   2.570
  413SOL    HW1 2138   2.437   0.297   2.662
  413SOL    HW2 2139   2.475   0.258   2.508
  414SOL     OW 2140   4.793   4.425   0.714
  414SOL    HW1 2141   4.783   4.351   0.647
  414SOL    HW2 2142   4.745   4.400   0.798
  415SOL     OW 2143   3.811   6.778   2.406
  415SOL    HW1 2144   3.840   6.767   2.311
  415SOL    HW2 2145   3.844   6.865   2.442
  416SOL     OW 2146   3.612   5.554   6.870
  416SOL    HW1 2147   3.611   5.566   6.771
  416SOL    HW2 2148   3.542   5.611   6.912
  417SOL     OW 2149   5.461   4.708   1.482
  417SOL    HW1 2150   5.507   4.619   1.468
  417SOL    HW2 2151   5.442   4.749   1.393
  418SOL     OW 2152   6.462   5.243   0.360
  418SOL    HW1 2153   6.518   5.276   0.436
  418SOL    HW2 2154   6.470   5.143   0.354
  419SOL     OW 2155   5.553   6.116   1.063
  419SOL    HW1 2156   5.523   6.065   0.982
  419SOL    HW2 2157   5.541   6.214   1.047
  420SOL     OW 2158   4.715   4.358   0.140
  420SOL    HW1 2159   4.802   4.331   0.100
  420SOL    HW2 2160   4.686   4.446   0.102
  421SOL     OW 2161   1.429   6.544   6.556
  421SOL    HW1 2162   1.452   6.637   6.582
  421SOL    HW2 2163   1.363   6.506   6.621
  422SOL     OW 2164   5.417   4.523   6.691
  422SOL    HW1 2165   5.464   4.595   6.743
  422SOL    HW2 2166   5.338   4.562   6.645
  423SOL     OW 2167   1.078   3.162   5.773
  423SOL    HW1 2168   1.032   3.239   5.819
  423SOL    HW2 2169   1.177   3.169   5.788
  424SOL     OW 2170   1.972   3.773   0.100
  424SOL    HW1 2171   1.969   3.867   0.066
  424SOL    HW2 2172   2.064   3.736   0.090
  425SOL     OW 2173   3.036   6.783   0.303
  425SOL    HW1 2174   2.952   6.828   0.273
  425SOL    HW2 2175   3.044   6.694   0.258
  426SOL     OW 2176   6.171   4.220   6.161
  426SOL    HW1 2177   6.120   4.149   6.113
  426SOL    HW2 2178   6.228   4.269   6.096
  427SOL     OW 2179   4.879   3.322   0.410
  427SOL    HW1 2180   4.859   3.408   0.364
  427SOL    HW2 2181   4.957   3.334   0.471
  428SOL     OW 2182   3.578   1.985   5.697
  428SOL    HW1 2183   3.655   1.982   5.634
  428SOL    HW2 2184   3.594   1.921   5.773
  429SOL     OW 2185   2.778   5.742   0.194
  429SOL    HW1 2186   2.865   5.786   0.171
  429SOL    HW2 2187   2.705   5.811   0.193
  430SOL     OW 2188   2.678   0.052   4.420
  430SOL    HW1 2189   2.590   0.098   4.414
  430SOL    HW2 2190   2.665   6.977   4.427
  431SOL     OW 2191   3.322   1.399   6.520
  431SOL    HW1 2192   3.324   1.487   6.569
  431SOL    HW2 2193   3.291   1.327   6.583
  432SOL     OW 2194   6.993   1.612   0.813
  432SOL    HW1 2195   6.955   1.526   0.849
  432SOL    HW2 2196   6.946   1.689   0.855
  433SOL     OW 2197   2.873   6.023   4.616
  433SOL    HW1 2198   2.938   6.097   4.598
  433SOL    HW2 2199   2.912   5.936   4.588
  434SOL     OW 2200   6.256   3.536   1.355
  434SOL    HW1 2201   6.176   3.537   1.295
  434SOL    HW2 2202   6.260   3.621   1.407
  435SOL     OW 2203   3.920   3.164   0.995
  435SOL    HW1 2204   3.977   3.160   1.077
  435SOL    HW2 2205   3.839   3.108   1.009
  436SOL     OW 2206   2.711   0.356   0.404
  436SOL    HW1 2207   2.715   0.456   0.415
  436SOL    HW2 2208   2.779   0.314   0.464
  437SOL     OW 2209   6.704   0.269   5.614
  437SOL    HW1 2210   6.769   0.200   5.643
  437SOL    HW2 2211   6.669   0.247   5.523
  438SOL     OW 2212   2.091   3.142   1.479
  438SOL    HW1 2213   2.041   3.220   1.515
  438SOL    HW2 2214   2.058   3.122   1.386
  439SOL     OW 2215   6.174   4.296   2.229
  439SOL    HW1 2216   6.256   4.286   2.285
  439SOL    HW2 2217   6.194   4.354   2.150
  440SOL     OW 2218   1.549   3.194   2.967
  440SOL    HW1 2219   1.619   3.262   2.946
  440SOL    HW2 2220   1.550   3.173   3.064
  441SOL     OW 2221   0.964   1.084   3.238
  441SOL    HW1 2222   0.988   0.990   3.264
  441SOL    HW2 2223   1.043   1.144   3.253
  442SOL     OW 2224   0.148   4.570   6.822
  442SOL    HW1 2225   0.129   4.622   6.738
  442SOL    HW2 2226   0.246   4.568   6.838
  443SOL     OW 2227   1.198   4.489   5.345
  443SOL    HW1 2228   1.127   4.559   5.338
  443SOL    HW2 2229   1.194   4.429   5.265
  444SOL     OW 2230   4.888   3.301   6.581
  444SOL    HW1 2231   4.963   3.285   6.517
  444SOL    HW2 2232   4.924   3.313   6.673
  445SOL     OW 2233   1.851   4.597   2.958
  445SOL    HW1 2234   1.941   4.578   2.919
  445SOL    HW2 2235   1.802   4.662   2.900
  446SOL     OW 2236   3.646   5.148   4.088
  446SOL    HW1 2237   3.552   5.176   4.069
  446SOL    HW2 2238   3.703   5.166   4.008
  447SOL     OW 2239   0.587   6.147   0.132
  447SOL    HW1 2240   0.660   6.113   0.191
  447SOL    HW2 2241   0.511   6.082   0.132
  448SOL     OW 2242   4.370   0.520   6.229
  448SOL    HW1 2243   4.344   0.572   6.148
  448SOL    HW2 2244   4.469   0.518   6.238
  449SOL     OW 2245   5.996   6.547   4.286
  449SOL    HW1 2246   5.952   6.479   4.227
  449SOL    HW2 2247   5.948   6.551   4.374
  450SOL     OW 2248   6.890   5.839   3.472
  450SOL    HW1 2249   6.972   5.786   3.446
  450SOL    HW2 2250   6.816   5.817   3.409
  451SOL     OW 2251   6.026   2.706   3.921
  451SOL    HW1 2252   6.115   2.739   3.890
  451SOL    HW2 2253   6.033   2.609   3.945
  452SOL     OW 2254   6.682   5.124   6.497
  452SOL    HW1 2255   6.582   5.116   6.492
  452SOL    HW2 2256   6.706   5.204   6.552
  453SOL     OW 2257   2.961   0.447   5.597
  453SOL    HW1 2258   2.958   0.526   5.536
  453SOL    HW2 2259   3.049   0.399   5.586
  454SOL     OW 2260   0.949   6.464   0.260
  454SOL    HW1 2261   1.011   6.540   0.238
  454SOL    HW2 2262   0.998   6.396   0.314
  455SOL     OW 2263   4.595   0.762   4.913
  455SOL    HW1 2264   4.623   0.827   4.983
  455SOL    HW2 2265   4.495   0.759   4.909
  456SOL     OW 2266   4.729   5.531   6.957
  456SOL    HW1 2267   4.782   5.600   6.907
  456SOL    HW2 2268   4.707   5.567   0.024
  457SOL     OW 2269   0.669   4.526   1.564
  457SOL    HW1 2270   0.766   4.551   1.572
  457SOL    HW2 2271   0.659   4.453   1.497
  458SOL     OW 2272   6.373   6.215   5.955
  458SOL    HW1 2273   6.323   6.155   5.893
  458SOL    HW2 2274   6.353   6.190   6.050
  459SOL     OW 2275   1.713   0.423   3.526
  459SOL    HW1 2276   1.796   0.480   3.524
  459SOL    HW2 2277   1.660   0.446   3.608
  460SOL     OW 2278   6.696   1.580   3.814
  460SOL    HW1 2279   6.726   1.675   3.812
  460SOL    HW2 2280   6.708   1.539   3.723
  461SOL     OW 2281   5.105   6.101   5.716
  461SOL    HW1 2282   5.115   6.095   5.616
  461SOL    HW2 2283   5.155   6.181   5.749
  462SOL     OW 2284   3.162   2.497   6.829
  462SOL    HW1 2285   3.132   2.512   6.923
  462SOL    HW2 2286   3.128   2.409   6.797
  463SOL     OW 2287   0.093   5.867   1.487
  463SOL    HW1 2288   0.068   5.917   1.570
  463SOL    HW2 2289   0.034   5.895   1.412
  464SOL     OW 2290   1.869   1.222   5.564
  464SOL    HW1 2291   1.947   1.283   5.576
  464SOL    HW2 2292   1.879   1.143   5.624
  465SOL     OW 2293   6.974   3.170   5.258
  465SOL    HW1 2294   6.908   3.125   5.197
  465SOL    HW2 2295   0.000   3.100   5.310
  466SOL     OW 2296   2.539   0.585   3.183
  466SOL    HW1 2297   2.518   0.499   3.138
  466SOL    HW2 2298   2.466   0.651   3.165
  467SOL     OW 2299   1.478   1.313   4.744
  467SOL    HW1 2300   1.552   1.285   4.682
  467SOL    HW2 2301   1.480   1.255   4.826
  468SOL     OW 2302   3.410   4.083   1.749
  468SOL    HW1 2303   3.473   4.156   1.776
  468SOL    HW2 2304   3.398   4.085   1.650
  469SOL     OW 2305   2.864   4.663   6.736
  469SOL    HW1 2306   2.963   4.674   6.735
  469SOL    HW2 2307   2.834   4.637   6.827
  470SOL     OW 2308   3.739   0.438   2.792
  470SOL    HW1 2309   3.759   0.402   2.882
  470SOL    HW2 2310   3.696   0.528   2.801
  471SOL     OW 2311   2.885   1.849   4.814
  471SOL    HW1 2312   2.918   1.828   4.722
  471SOL    HW2 2313   2.944   1.805   4.881
  472SOL     OW 2314   4.185   4.271   5.280
  472SOL    HW1 2315   4.086   4.276   5.292
  472SOL    HW2 2316   4.217   4.353   5.232
  473SOL     OW 2317   1.209   4.258   3.793
  473SOL    HW1 2318   1.213   4.166   3.834
  473SOL    HW2 2319   1.165   4.321   3.856
  474SOL     OW 2320   4.806   4.722   4.849
  474SOL    HW1 2321   4.834   4.790   4.781
  474SOL    HW2 2322   4.872   4.720   4.924
  475SOL     OW 2323   1.276   6.854   6.437
  475SOL    HW1 2324   1.355   6.913   6.425
  475SOL    HW2 2325   1.214   6.864   6.359
  476SOL     OW 2326   0.090   5.131   2.290
  476SOL    HW1 2327   0.010   5.134   2.230
  476SOL    HW2 2328   0.173   5.119   2.235
  477SOL     OW 2329   1.452   5.642   4.145
  477SOL    HW1 2330   1.406   5.640   4.056
  477SOL    HW2 2331   1.476   5.549   4.172
  478SOL     OW 2332   1.485   5.218   3.275
  478SOL    HW1 2333   1.462   5.291   3.340
  478SOL    HW2 2334   1.532   5.144   3.324
  479SOL     OW 2335   3.323   1.779   1.307
  479SOL    HW1 2336   3.311   1.697   1.250
  479SOL    HW2 2337   3.250   1.782   1.376
  480SOL     OW 2338   1.406   6.555   2.773
  480SOL    HW1 2339   1.446   6.585   2.686
  480SOL    HW2 2340   1.306   6.559   2.767
  481SOL     OW 2341   2.970   6.886   1.683
  481SOL    HW1 2342   2.980   6.801   1.735
  481SOL    HW2 2343   3.017   6.961   1.731
  482SOL     OW 2344   5.696   4.976   1.529
  482SOL    HW1 2345   5.665   4.914   1.601
  482SOL    HW2 2346   5.796   4.973   1.523
  483SOL     OW 2347   5.907   1.841   0.928
  483SOL    HW1 2348   5.939   1.875   1.016
  483SOL    HW2 2349   5.984   1.837   0.864
  484SOL     OW 2350   6.905   2.570   5.367
  484SOL    HW1 2351   6.806   2.557   5.365
  484SOL    HW2 2352   6.933   2.627   5.289
  485SOL     OW 2353   3.717   5.380   1.822
  485SOL    HW1 2354   3.726   5.285   1.851
  485SOL    HW2 2355   3.804   5.411   1.783
  486SOL     OW 2356   0.608   0.567   6.352
  486SOL    HW1 2357   0.515   0.542   6.378
  486SOL    HW2 2358   0.622   0.546   6.255
  487SOL     OW 2359   6.434   3.179   6.607
  487SOL    HW1 2360   6.463   3.149   6.698
  487SOL    HW2 2361   6.482   3.263   6.583
  488SOL     OW 2362   0.568   3.251   2.286
  488SOL    HW1 2363   0.634   3.254   2.212
  488SOL    HW2 2364   0.479   3.221   2.251
  489SOL     OW 2365   3.189   6.163   5.839
  489SOL    HW1 2366   3.182   6.196   5.745
  489SOL    HW2 2367   3.159   6.068   5.844
  490SOL     OW 2368   5.147   6.198   4.295
  490SOL    HW1 2369   5.237   6.232   4.267
  490SOL    HW2 2370   5.132   6.220   4.392
  491SOL     OW 2371   0.253   2.337   3.004
  491SOL    HW1 2372   0.323   2.273   2.974
  491SOL    HW2 2373   0.194   2.292   3.072
  492SOL     OW 2374   1.773   0.965   4.761
  492SOL    HW1 2375   1.796   0.875   4.724
  492SOL    HW2 2376   1.715   0.955   4.842
  493SOL     OW 2377   6.341   3.982   3.892
  493SOL    HW1 2378   6.293   3.908   3.845
  493SOL    HW2 2379   6.332   4.066   3.839
  494SOL     OW 2380   6.490   1.805   6.840
  494SOL    HW1 2381   6.484   1.824   6.938
  494SOL    HW2 2382   6.526   1.713   6.826
  495SOL     OW 2383   3.839   4.604   0.868
  495SOL    HW1 2384   3.784   4.530   0.830
  495SOL    HW2 2385   3.856   4.673   0.797
  496SOL     OW 2386   6.162   3.021   3.484
  496SOL    HW1 2387   6.166   2.999   3.386
  496SOL    HW2 2388   6.239   2.977   3.531
  497SOL     OW 2389   4.196   0.371   4.162
  497SOL    HW1 2390   4.276   0.329   4.120
  497SOL    HW2 2391   4.225   0.431   4.237
  498SOL     OW 2392   1.026   3.213   2.906
  498SOL    HW1 2393   0.969   3.211   2.823
  498SOL    HW2 2394   1.122   3.208   2.880
  499SOL     OW 2395   3.461   1.621   5.270
  499SOL    HW1 2396   3.459   1.721   5.269
  499SOL    HW2 2397   3.373   1.587   5.305
  500SOL     OW 2398   1.331   3.940   2.651
  500SOL    HW1 2399   1.371   3.962   2.741
  500SOL    HW2 2400   1.402   3.947   2.581
  501SOL     OW 2401   0.973   4.979   6.487
  501SOL    HW1 2402   0.930   4.964   6.576
  501SOL    HW2 2403   1.071   4.958   6.494
  502SOL     OW 2404   3.088   5.175   6.370
  502SOL    HW1 2405   3.130   5.233   6.301
  502SOL    HW2 2406   3.073   5.228   6.454
  503SOL     OW 2407   5.739   5.767   4.933
  503SOL    HW1 2408   5.656   5.732   4.889
  503SOL    HW2 2409   5.737   5.867   4.933
  504SOL     OW 2410   1.881   5.415   4.068
  504SOL    HW1 2411   1.948   5.343   4.050
  504SOL    HW2 2412   1.865   5.421   4.167
  505SOL     OW 2413   4.536   6.701   5.548
  505SOL    HW1 2414   4.470   6.776   5.533
  505SOL    HW2 2415   4.520   6.630   5.480
  506SOL     OW 2416   2.398   3.422   6.840
  506SOL    HW1 2417   2.335   3.491   6.804
  506SOL    HW2 2418   2.476   3.467   6.883
  507SOL     OW 2419   3.517   1.554   4.095
  507SOL    HW1 2420   3.451   1.480   4.080
  507SOL    HW2 2421   3.585   1.553   4.021
  508SOL     OW 2422   6.506   4.517   3.974
  508SOL    HW1 2423   6.454   4.437   4.003
  508SOL    HW2 2424   6.459   4.600   4.004
  509SOL     OW 2425   4.877   2.285   1.806
  509SOL    HW1 2426   4.825   2.370   1.811
  509SOL    HW2 2427   4.943   2.281   1.881
  510SOL     OW 2428   0.368   3.849   4.095
  510SOL    HW1 2429   0.400   3.920   4.158
  510SOL    HW2 2430   0.364   3.762   4.143
  511SOL     OW 2431   0.202   6.172   1.306
  511SOL    HW1 2432   0.285   6.164   1.249
  511SOL    HW2 2433   0.188   6.267   1.330
  512SOL     OW 2434   0.520   3.777   6.684
  512SOL    HW1 2435   0.446   3.727   6.639
  512SOL    HW2 2436   0.604   3.723   6.681
  513SOL     OW 2437   0.001   5.495   4.455
  513SOL    HW1 2438   0.086   5.453   4.486
  513SOL    HW2 2439   0.021   5.567   4.390
  514SOL     OW 2440   5.810   1.561   3.715
  514SOL    HW1 2441   5.815   1.576   3.814
  514SOL    HW2 2442   5.856   1.475   3.692
  515SOL     OW 2443   1.803   6.225   0.339
  515SOL    HW1 2444   1.871   6.259   0.403
  515SOL    HW2 2445   1.838   6.144   0.292
  516SOL     OW 2446   1.245   5.156   2.325
  516SOL    HW1 2447   1.303   5.076   2.341
  516SOL    HW2 2448   1.286   5.237   2.366
  517SOL     OW 2449   4.830   0.512   6.951
  517SOL    HW1 2450   4.836   0.413   6.964
  517SOL    HW2 2451   4.763   0.532   6.880
  518SOL     OW 2452   2.834   1.928   0.593
  518SOL    HW1 2453   2.873   1.880   0.514
  518SOL    HW2 2454   2.905   1.940   0.662
  519SOL     OW 2455   0.508   6.797   0.929
  519SOL    HW1 2456   0.457   6.714   0.953
  519SOL    HW2 2457   0.443   6.869   0.903
  520SOL     OW 2458   6.415   4.293   5.145
  520SOL    HW1 2459   6.378   4.342   5.224
  520SOL    HW2 2460   6.345   4.232   5.108
  521SOL     OW 2461   6.548   0.878   1.030
  521SOL    HW1 2462   6.565   0.954   0.967
  521SOL    HW2 2463   6.458   0.890   1.073
  522SOL     OW 2464   3.668   3.576   5.389
  522SOL    HW1 2465   3.698   3.504   5.451
  522SOL    HW2 2466   3.625   3.535   5.309
  523SOL     OW 2467   6.621   6.404   5.004
  523SOL    HW1 2468   6.587   6.344   4.932
  523SOL    HW2 2469   6.692   6.465   4.967
  524SOL     OW 2470   4.421   1.446   5.762
  524SOL    HW1 2471   4.362   1.493   5.696
  524SOL    HW2 2472   4.473   1.514   5.815
  525SOL     OW 2473   2.573   2.942   6.564
  525SOL    HW1 2474   2.536   3.032   6.542
  525SOL    HW2 2475   2.659   2.929   6.514
  526SOL     OW 2476   4.470   6.110   4.922
  526SOL    HW1 2477   4.382   6.138   4.883
  526SOL    HW2 2478   4.524   6.190   4.945
  527SOL     OW 2479   1.175   2.118   0.066
  527SOL    HW1 2480   1.098   2.163   0.021
  527SOL    HW2 2481   1.238   2.084   7.020
  528SOL     OW 2482   2.240   0.438   5.511
  528SOL    HW1 2483   2.239   0.403   5.605
  528SOL    HW2 2484   2.270   0.533   5.510
  529SOL     OW 2485   6.892   4.371   4.381
  529SOL    HW1 2486   6.849   4.346   4.468
  529SOL    HW2 2487   6.827   4.424   4.326
  530SOL     OW 2488   1.645   2.886   5.153
  530SOL    HW1 2489   1.587   2.871   5.233
  530SOL    HW2 2490   1.713   2.813   5.146
  531SOL     OW 2491   7.015   0.715   0.187
  531SOL    HW1 2492   6.971   0.630   0.218
  531SOL    HW2 2493   7.017   0.717   0.087
  532SOL     OW 2494   2.100   0.214   5.468
  532SOL    HW1 2495   2.159   0.294   5.469
  532SOL    HW2 2496   2.136   0.145   5.532
  533SOL     OW 2497   5.506   0.172   4.482
  533SOL    HW1 2498   5.524   0.251   4.541
  533SOL    HW2 2499   5.589   0.116   4.474
  534SOL     OW 2500   3.904   5.712   2.170
  534SOL    HW1 2501   3.882   5.618   2.196
  534SOL    HW2 2502   3.966   5.752   2.238
  535SOL     OW 2503   6.807   4.203   3.048
  535SOL    HW1 2504   6.898   4.162   3.044
  535SOL    HW2 2505   6.761   4.173   3.132
  536SOL     OW 2506   1.230   5.655   0.652
  536SOL    HW1 2507   1.170   5.716   0.600
  536SOL    HW2 2508   1.282   5.708   0.719
  537SOL     OW 2509   2.024   0.289   3.026
  537SOL    HW1 2510   2.093   0.239   3.079
  537SOL    HW2 2511   1.977   0.226   2.965
  538SOL     OW 2512   1.473   4.323   3.713
  538SOL    HW1 2513   1.545   4.255   3.699
  538SOL    HW2 2514   1.385   4.277   3.723
  539SOL     OW 2515   1.243   5.358   1.262
  539SOL    HW1 2516   1.246   5.286   1.193
  539SOL    HW2 2517   1.168   5.338   1.327
  540SOL     OW 2518   1.628   2.794   1.185
  540SOL    HW1 2519   1.561   2.762   1.118
  540SOL    HW2 2520   1.688   2.719   1.210
  541SOL     OW 2521   3.751   5.411   5.152
  541SOL    HW1 2522   3.663   5.386   5.111
  541SOL    HW2 2523   3.818   5.339   5.134
  542SOL     OW 2524   5.765   6.164   0.001
  542SOL    HW1 2525   5.852   6.173   6.975
  542SOL    HW2 2526   5.711   6.089   6.985
  543SOL     OW 2527   0.256   6.147   6.925
  543SOL    HW1 2528   0.352   6.174   6.926
  543SOL    HW2 2529   0.221   6.142   7.019
  544SOL     OW 2530   1.157   5.974   6.703
  544SOL    HW1 2531   1.098   6.055   6.698
  544SOL    HW2 2532   1.223   5.976   6.628
  545SOL     OW 2533   3.290   1.908   3.645
  545SOL    HW1 2534   3.307   1.993   3.596
  545SOL    HW2 2535   3.372   1.851   3.644
  546SOL     OW 2536   1.429   3.163   6.983
  546SOL    HW1 2537   1.390   3.156   6.892
  546SOL    HW2 2538   1.447   3.259   7.005
  547SOL     OW 2539   2.896   2.282   0.039
  547SOL    HW1 2540   2.911   2.248   0.132
  547SOL    HW2 2541   2.923   2.212   6.996
  548SOL     OW 2542   3.225   3.293   5.171
  548SOL    HW1 2543   3.180   3.382   5.163
  548SOL    HW2 2544   3.197   3.234   5.095
  549SOL     OW 2545   0.832   3.880   1.420
  549SOL    HW1 2546   0.762   3.830   1.471
  549SOL    HW2 2547   0.864   3.824   1.344
  550SOL     OW 2548   0.014   3.774   1.579
  550SOL    HW1 2549   7.006   3.781   1.674
  550SOL    HW2 2550   0.011   3.679   1.550
  551SOL     OW 2551   6.779   1.814   6.499
  551SOL    HW1 2552   6.768   1.907   6.463
  551SOL    HW2 2553   6.842   1.816   6.576
  552SOL     OW 2554   4.851   5.467   0.302
  552SOL    HW1 2555   4.921   5.509   0.359
  552SOL    HW2 2556   4.809   5.391   0.351
  553SOL     OW 2557   1.655   1.809   1.508
  553SOL    HW1 2558   1.677   1.854   1.594
  553SOL    HW2 2559   1.565   1.764   1.515
  554SOL     OW 2560   4.850   5.676   4.997
  554SOL    HW1 2561   4.906   5.690   4.915
  554SOL    HW2 2562   4.775   5.613   4.976
  555SOL     OW 2563   1.944   4.238   4.601
  555SOL    HW1 2564   1.865   4.216   4.658
  555SOL    HW2 2565   1.923   4.319   4.545
  556SOL     OW 2566   5.825   3.194   2.889
  556SOL    HW1 2567   5.793   3.233   2.975
  556SOL    HW2 2568   5.924   3.181   2.892
  557SOL     OW 2569   6.983   5.451   6.377
  557SOL    HW1 2570   6.919   5.378   6.401
  557SOL    HW2 2571   0.045   5.411   6.343
  558SOL     OW 2572   4.286   3.775   5.453
  558SOL    HW1 2573   4.225   3.696   5.450
  558SOL    HW2 2574   4.366   3.757   5.395
  559SOL     OW 2575   6.237   5.612   6.025
  559SOL    HW1 2576   6.291   5.574   5.949
  559SOL    HW2 2577   6.295   5.619   6.106
  560SOL     OW 2578   3.856   6.435   0.081
  560SOL    HW1 2579   3.853   6.449   7.006
  560SOL    HW2 2580   3.947   6.457   0.116
  561SOL     OW 2581   5.512   6.420   1.142
  561SOL    HW1 2582   5.476   6.366   1.218
  561SOL    HW2 2583   5.437   6.446   1.081
  562SOL     OW 2584   6.539   0.748   6.821
  562SOL    HW1 2585   6.551   0.719   6.726
  562SOL    HW2 2586   6.447   0.724   6.852
  563SOL     OW 2587   3.260   0.291   4.931
  563SOL    HW1 2588   3.180   0.240   4.901
  563SOL    HW2 2589   3.230   0.373   4.980
  564SOL     OW 2590   0.432   1.880   6.549
  564SOL    HW1 2591   0.428   1.887   6.450
  564SOL    HW2 2592   0.421   1.784   6.576
  565SOL     OW 2593   4.608   4.504   5.149
  565SOL    HW1 2594   4.621   4.406   5.135
  565SOL    HW2 2595   4.682   4.540   5.207
  566SOL     OW 2596   5.657   5.170   2.589
  566SOL    HW1 2597   5.665   5.085   2.642
  566SOL    HW2 2598   5.584   5.160   2.522
  567SOL     OW 2599   3.998   3.850   4.030
  567SOL    HW1 2600   4.082   3.813   3.989
  567SOL    HW2 2601   4.005   3.845   4.129
  568SOL     OW 2602   1.947   1.138   6.044
  568SOL    HW1 2603   1.965   1.226   6.001
  568SOL    HW2 2604   2.034   1.089   6.057
  569SOL     OW 2605   2.611   3.503   7.023
  569SOL    HW1 2606   2.567   3.498   0.089
  569SOL    HW2 2607   2.658   3.418   7.004
  570SOL     OW 2608   0.291   5.954   1.090
  570SOL    HW1 2609   0.308   5.921   1.182
  570SOL    HW2 2610   0.296   5.878   1.025
  571SOL     OW 2611   4.352   5.241   3.013
  571SOL    HW1 2612   4.446   5.259   3.044
  571SOL    HW2 2613   4.333   5.144   3.021
  572SOL     OW 2614   2.228   4.271   4.622
  572SOL    HW1 2615   2.238   4.257   4.721
  572SOL    HW2 2616   2.131   4.264   4.598
  573SOL     OW 2617   3.867   2.528   6.567
  573SOL    HW1 2618   3.908   2.620   6.560
  573SOL    HW2 2619   3.922   2.464   6.513
  574SOL     OW 2620   2.742   1.202   4.409
  574SOL    HW1 2621   2.748   1.299   4.388
  574SOL    HW2 2622   2.650   1.169   4.388
  575SOL     OW 2623   5.743   2.006   6.338
  575SOL    HW1 2624   5.705   1.951   6.412
  575SOL    HW2 2625   5.695   2.093   6.332
  576SOL     OW 2626   0.955   2.419   2.597
  576SOL    HW1 2627   1.010   2.361   2.658
  576SOL    HW2 2628   1.015   2.471   2.537
  577SOL     OW 2629   2.987   2.268   4.155
  577SOL    HW1 2630   2.908   2.307   4.202
  577SOL    HW2 2631   3.034   2.204   4.215
  578SOL     OW 2632   0.202   3.606   4.715
  578SOL    HW1 2633   0.179   3.509   4.710
  578SOL    HW2 2634   0.201   3.646   4.623
  579SOL     OW 2635   3.617   3.511   0.327
  579SOL    HW1 2636   3.678   3.439   0.292
  579SOL    HW2 2637   3.662   3.599   0.322
  580SOL     OW 2638   0.831   6.030   6.560
  580SOL    HW1 2639   0.822   6.048   6.462
  580SOL    HW2 2640   0.912   6.076   6.596
  581SOL     OW 2641   4.137   3.302   2.214
  581SOL    HW1 2642   4.165   3.394   2.242
  581SOL    HW2 2643   4.193   3.272   2.137
  582SOL     OW 2644   6.416   4.267   1.839
  582SOL    HW1 2645   6.437   4.218   1.754
  582SOL    HW2 2646   6.352   4.341   1.820
  583SOL     OW 2647   2.482   5.754   6.633
  583SOL    HW1 2648   2.441   5.680   6.580
  583SOL    HW2 2649   2.577   5.766   6.607
  584SOL     OW 2650   0.894   5.452   5.248
  584SOL    HW1 2651   0.879   5.389   5.324
  584SOL    HW2 2652   0.991   5.450   5.222
  585SOL     OW 2653   6.054   1.177   5.742
  585SOL    HW1 2654   6.130   1.167   5.677
  585SOL    HW2 2655   6.083   1.144   5.832
  586SOL     OW 2656   2.509   6.010   1.118
  586SOL    HW1 2657   2.550   6.086   1.068
  586SOL    HW2 2658   2.560   5.926   1.099
  587SOL     OW 2659   1.182   3.564   5.842
  587SOL    HW1 2660   1.174   3.470   5.876
  587SOL    HW2 2661   1.095   3.593   5.803
  588SOL     OW 2662   2.234   0.092   1.583
  588SOL    HW1 2663   2.298   0.017   1.598
  588SOL    HW2 2664   2.142   0.055   1.566
  589SOL     OW 2665   4.700   5.185   2.356
  589SOL    HW1 2666   4.703   5.137   2.444
  589SOL    HW2 2667   4.618   5.241   2.352
  590SOL     OW 2668   6.606   2.261   1.667
  590SOL    HW1 2669   6.648   2.319   1.597
  590SOL    HW2 2670   6.572   2.177   1.624
  591SOL     OW 2671   2.831   6.408   2.953
  591SOL    HW1 2672   2.909   6.391   3.014
  591SOL    HW2 2673   2.758   6.342   2.973
  592SOL     OW 2674   5.684   0.479   6.557
  592SOL    HW1 2675   5.762   0.421   6.534
  592SOL    HW2 2676   5.681   0.493   6.656
  593SOL     OW 2677   6.249   1.518   4.483
  593SOL    HW1 2678   6.272   1.424   4.506
  593SOL    HW2 2679   6.328   1.562   4.439
  594SOL     OW 2680   5.289   3.038   1.848
  594SOL    HW1 2681   5.252   3.079   1.765
  594SOL    HW2 2682   5.310   2.942   1.831
  595SOL     OW 2683   4.643   6.881   4.048
  595SOL    HW1 2684   4.579   6.890   3.972
  595SOL    HW2 2685   4.602   6.917   4.131
  596SOL     OW 2686   0.966   4.030   2.358
  596SOL    HW1 2687   0.922   3.942   2.338
  596SOL    HW2 2688   1.052   4.037   2.308
  597SOL     OW 2689   4.319   2.579   5.939
  597SOL    HW1 2690   4.296   2.639   5.863
  597SOL    HW2 2691   4.237   2.558   5.992
  598SOL     OW 2692   3.188   3.894   1.165
  598SOL    HW1 2693   3.126   3.964   1.200
  598SOL    HW2 2694   3.174   3.809   1.216
  599SOL     OW 2695   6.979   6.656   3.356
  599SOL    HW1 2696   0.030   6.680   3.419
  599SOL    HW2 2697   7.013   6.594   3.286
  600SOL     OW 2698   2.478   1.469   1.600
  600SOL    HW1 2699   2.455   1.416   1.681
  600SOL    HW2 2700   2.572   1.502   1.607
  601SOL     OW 2701   2.232   4.729   3.433
  601SOL    HW1 2702   2.331   4.712   3.435
  601SOL    HW2 2703   2.210   4.790   3.357
  602SOL     OW 2704   0.233   0.501   1.904
  602SOL    HW1 2705   0.167   0.565   1.944
  602SOL    HW2 2706   0.238   0.418   1.959
  603SOL     OW 2707   3.714   1.616   3.263
  603SOL    HW1 2708   3.742   1.524   3.234
  603SOL    HW2 2709   3.795   1.672   3.278
  604SOL     OW 2710   0.641   4.275   5.556
  604SOL    HW1 2711   0.716   4.219   5.590
  604SOL    HW2 2712   0.674   4.339   5.487
  605SOL     OW 2713   5.920   6.994   4.820
  605SOL    HW1 2714   5.884   6.908   4.784
  605SOL    HW2 2715   6.017   6.982   4.844
  606SOL     OW 2716   3.591   0.122   2.422
  606SOL    HW1 2717   3.639   0.191   2.368
  606SOL    HW2 2718   3.557   0.164   2.506
  607SOL     OW 2719   4.143   0.797   4.035
  607SOL    HW1 2720   4.044   0.807   4.028
  607SOL    HW2 2721   4.166   0.748   4.119
  608SOL     OW 2722   5.307   2.085   1.941
  608SOL    HW1 2723   5.370   2.027   1.993
  608SOL    HW2 2724   5.359   2.139   1.874
  609SOL     OW 2725   2.868   3.602   4.805
  609SOL    HW1 2726   2.802   3.675   4.819
  609SOL    HW2 2727   2.879   3.549   4.890
  610SOL     OW 2728   6.026   1.630   4.662
  610SOL    HW1 2729   6.008   1.707   4.723
  610SOL    HW2 2730   6.123   1.627   4.638
  611SOL     OW 2731   6.202   7.005   0.109
  611SOL    HW1 2732   6.105   6.985   0.120
  611SOL    HW2 2733   6.214   0.080   0.096
  612SOL     OW 2734   2.465   5.297   5.672
  612SOL    HW1 2735   2.394   5.277   5.604
  612SOL    HW2 2736   2.478   5.217   5.731
  613SOL     OW 2737   3.745   1.646   6.693
  613SOL    HW1 2738   3.840   1.635   6.664
  613SOL    HW2 2739   3.706   1.556   6.714
  614SOL     OW 2740   5.646   3.429   1.278
  614SOL    HW1 2741   5.602   3.401   1.364
  614SOL    HW2 2742   5.718   3.363   1.255
  615SOL     OW 2743   4.851   7.008   0.857
  615SOL    HW1 2744   4.871   6.954   0.939
  615SOL    HW2 2745   4.936   0.009   0.811
  616SOL     OW 2746   5.668   0.621   4.691
  616SOL    HW1 2747   5.624   0.653   4.775
  616SOL    HW2 2748   5.751   0.570   4.715
  617SOL     OW 2749   0.161   6.029   5.608
  617SOL    HW1 2750   0.094   6.028   5.682
  617SOL    HW2 2751   0.217   5.947   5.613
  618SOL     OW 2752   5.893   4.705   0.288
  618SOL    HW1 2753   5.983   4.696   0.245
  618SOL    HW2 2754   5.871   4.621   0.336
  619SOL     OW 2755   2.718   6.503   5.849
  619SOL    HW1 2756   2.756   6.462   5.766
  619SOL    HW2 2757   2.618   6.502   5.843
  620SOL     OW 2758   4.849   1.706   2.412
  620SOL    HW1 2759   4.934   1.717   2.361
  620SOL    HW2 2760   4.866   1.646   2.491
  621SOL     OW 2761   3.034   0.408   6.670
  621SOL    HW1 2762   3.035   0.309   6.656
  621SOL    HW2 2763   3.109   0.449   6.619
  622SOL     OW 2764   0.219   3.287   5.430
  622SOL    HW1 2765   0.228   3.266   5.333
  622SOL    HW2 2766   0.202   3.203   5.481
  623SOL     OW 2767   6.557   0.378   3.169
  623SOL    HW1 2768   6.654   0.369   3.147
  623SOL    HW2 2769   6.542   0.352   3.265
  624SOL     OW 2770   6.796   1.605   5.863
  624SOL    HW1 2771   6.722   1.654   5.910
  624SOL    HW2 2772   6.814   1.519   5.911
  625SOL     OW 2773   3.631   0.992   1.168
  625SOL    HW1 2774   3.542   0.983   1.213
  625SOL    HW2 2775   3.642   1.086   1.135
  626SOL     OW 2776   0.189   6.114   3.000
  626SOL    HW1 2777   0.269   6.057   2.977
  626SOL    HW2 2778   0.221   6.205   3.028
  627SOL     OW 2779   6.508   5.987   0.581
  627SOL    HW1 2780   6.439   5.924   0.617
  627SOL    HW2 2781   6.599   5.958   0.611
  628SOL     OW 2782   3.647   4.980   6.233
  628SOL    HW1 2783   3.587   5.008   6.158
  628SOL    HW2 2784   3.591   4.947   6.309
  629SOL     OW 2785   1.306   6.898   0.199
  629SOL    HW1 2786   1.342   6.913   0.107
  629SOL    HW2 2787   1.381   6.879   0.262
  630SOL     OW 2788   0.036   1.903   1.194
  630SOL    HW1 2789   7.017   1.867   1.111
  630SOL    HW2 2790   0.124   1.944   1.172
  631SOL     OW 2791   1.664   2.900   3.582
  631SOL    HW1 2792   1.753   2.947   3.579
  631SOL    HW2 2793   1.670   2.814   3.531
  632SOL     OW 2794   2.964   4.057   0.848
  632SOL    HW1 2795   2.873   4.024   0.874
  632SOL    HW2 2796   2.963   4.157   0.841
  633SOL     OW 2797   1.599   5.739   0.642
  633SOL    HW1 2798   1.697   5.748   0.661
  633SOL    HW2 2799   1.578   5.645   0.618
  634SOL     OW 2800   2.882   3.417   5.010
  634SOL    HW1 2801   2.890   3.417   5.110
  634SOL    HW2 2802   2.829   3.337   4.980
  635SOL     OW 2803   5.583   6.895   6.224
  635SOL    HW1 2804   5.589   6.913   6.322
  635SOL    HW2 2805   5.651   6.826   6.199
  636SOL     OW 2806   2.856   0.949   5.083
  636SOL    HW1 2807   2.789   0.896   5.135
  636SOL    HW2 2808   2.948   0.921   5.109
  637SOL     OW 2809   0.113   1.313   2.924
  637SOL    HW1 2810   0.133   1.292   2.829
  637SOL    HW2 2811   0.017   1.293   2.943
  638SOL     OW 2812   6.572   3.203   5.157
  638SOL    HW1 2813   6.553   3.200   5.255
  638SOL    HW2 2814   6.646   3.140   5.136
  639SOL     OW 2815   5.897   4.230   2.235
  639SOL    HW1 2816   5.994   4.227   2.257
  639SOL    HW2 2817   5.844   4.236   2.320
  640SOL     OW 2818   0.283   3.227   2.220
  640SOL    HW1 2819   0.205   3.268   2.267
  640SOL    HW2 2820   0.262   3.216   2.123
  641SOL     OW 2821   2.632   5.501   4.390
  641SOL    HW1 2822   2.594   5.450   4.313
  641SOL    HW2 2823   2.729   5.478   4.401
  642SOL     OW 2824   0.146   5.307   4.766
  642SOL    HW1 2825   0.188   5.340   4.682
  642SOL    HW2 2826   0.207   5.241   4.809
  643SOL     OW 2827   4.374   5.260   0.829
  643SOL    HW1 2828   4.348   5.289   0.736
  643SOL    HW2 2829   4.296   5.214   0.872
  644SOL     OW 2830   6.600   6.212   5.212
  644SOL    HW1 2831   6.678   6.170   5.258
  644SOL    HW2 2832   6.632   6.277   5.143
  645SOL     OW 2833   4.210   5.688   2.531
  645SOL    HW1 2834   4.270   5.750   2.581
  645SOL    HW2 2835   4.196   5.605   2.585
  646SOL     OW 2836   3.651   2.048   4.645
  646SOL    HW1 2837   3.614   2.058   4.737
  646SOL    HW2 2838   3.591   1.989   4.591
  647SOL     OW 2839   3.597   2.491   6.597
  647SOL    HW1 2840   3.693   2.511   6.613
  647SOL    HW2 2841   3.541   2.568   6.627
  648SOL     OW 2842   6.171   1.166   3.952
  648SOL    HW1 2843   6.247   1.121   3.905
  648SOL    HW2 2844   6.178   1.265   3.940
  649SOL     OW 2845   2.531   5.540   0.474
  649SOL    HW1 2846   2.573   5.482   0.404
  649SOL    HW2 2847   2.465   5.485   0.526
  650SOL     OW 2848   0.480   3.455   0.910
  650SOL    HW1 2849   0.503   3.418   0.820
  650SOL    HW2 2850   0.497   3.387   0.980
  651SOL     OW 2851   0.342   0.429   3.473
  651SOL    HW1 2852   0.334   0.330   3.480
  651SOL    HW2 2853   0.391   0.465   3.553
  652SOL     OW 2854   4.331   5.402   1.251
  652SOL    HW1 2855   4.356   5.353   1.335
  652SOL    HW2 2856   4.413   5.417   1.196
  653SOL     OW 2857   1.356   6.578   2.472
  653SOL    HW1 2858   1.400   6.609   2.388
  653SOL    HW2 2859   1.318   6.657   2.521
  654SOL     OW 2860   0.796   0.116   5.545
  654SOL    HW1 2861   0.889   0.146   5.522
  654SOL    HW2 2862   0.735   0.134   5.467
  655SOL     OW 2863   1.041   3.447   1.148
  655SOL    HW1 2864   1.124   3.487   1.108
  655SOL    HW2 2865   1.064   3.403   1.235
  656SOL     OW 2866   2.995   6.302   6.833
  656SOL    HW1 2867   3.085   6.262   6.846
  656SOL    HW2 2868   2.950   6.312   6.922
  657SOL     OW 2869   3.683   3.396   3.257
  657SOL    HW1 2870   3.668   3.306   3.217
  657SOL    HW2 2871   3.780   3.405   3.282
  658SOL     OW 2872   1.277   1.337   4.065
  658SOL    HW1 2873   1.201   1.394   4.033
  658SOL    HW2 2874   1.245   1.243   4.077
  659SOL     OW 2875   1.825   5.480   6.588
  659SOL    HW1 2876   1.876   5.440   6.664
  659SOL    HW2 2877   1.889   5.512   6.518
  660SOL     OW 2878   5.773   4.457   2.891
  660SOL    HW1 2879   5.821   4.369   2.888
  660SOL    HW2 2880   5.760   4.485   2.986
  661SOL     OW 2881   4.345   5.180   3.891
  661SOL    HW1 2882   4.314   5.111   3.825
  661SOL    HW2 2883   4.268   5.239   3.916
  662SOL     OW 2884   4.882   3.907   0.105
  662SOL    HW1 2885   4.852   3.827   0.054
  662SOL    HW2 2886   4.836   3.909   0.194
  663SOL     OW 2887   0.100   4.422   0.166
  663SOL    HW1 2888   0.040   4.422   0.087
  663SOL    HW2 2889   0.122   4.327   0.192
  664SOL     OW 2890   1.611   0.028   6.314
  664SOL    HW1 2891   1.629   0.115   6.267
  664SOL    HW2 2892   1.618   6.976   6.249
  665SOL     OW 2893   2.824   4.763   2.801
  665SOL    HW1 2894   2.919   4.792   2.816
  665SOL    HW2 2895   2.768   4.842   2.778
  666SOL     OW 2896   3.203   1.266   6.704
  666SOL    HW1 2897   3.153   1.181   6.688
  666SOL    HW2 2898   3.230   1.271   6.800
  667SOL     OW 2899   1.825   3.472   2.355
  667SOL    HW1 2900   1.798   3.509   2.266
  667SOL    HW2 2901   1.794   3.377   2.362
  668SOL     OW 2902   4.653   0.243   0.980
  668SOL    HW1 2903   4.742   0.212   1.013
  668SOL    HW2 2904   4.630   0.331   1.023
  669SOL     OW 2905   0.825   5.697   2.701
  669SOL    HW1 2906   0.749   5.637   2.726
  669SOL    HW2 2907   0.790   5.789   2.685
  670SOL     OW 2908   3.834   3.600   2.905
  670SOL    HW1 2909   3.867   3.609   2.999
  670SOL    HW2 2910   3.888   3.659   2.845
  671SOL     OW 2911   1.694   0.827   6.571
  671SOL    HW1 2912   1.698   0.731   6.543
  671SOL    HW2 2913   1.721   0.885   6.495
  672SOL     OW 2914   0.872   2.249   3.029
  672SOL    HW1 2915   0.929   2.177   3.069
  672SOL    HW2 2916   0.929   2.329   3.008
  673SOL     OW 2917   4.743   0.651   0.154
  673SOL    HW1 2918   4.811   0.679   0.221
  673SOL    HW2 2919   4.787   0.596   0.083
  674SOL     OW 2920   0.151   2.204   4.710
  674SOL    HW1 2921   0.224   2.232   4.649
  674SOL    HW2 2922   0.146   2.104   4.713
  675SOL     OW 2923   6.457   6.575   3.766
  675SOL    HW1 2924   6.464   6.539   3.859
  675SOL    HW2 2925   6.424   6.669   3.768
  676SOL     OW 2926   2.676   5.758   4.032
  676SOL    HW1 2927   2.605   5.687   4.034
  676SOL    HW2 2928   2.672   5.811   4.117
  677SOL     OW 2929   4.066   6.487   0.677
  677SOL    HW1 2930   4.084   6.583   0.653
  677SOL    HW2 2931   4.022   6.484   0.767
  678SOL     OW 2932   2.322   1.109   5.315
  678SOL    HW1 2933   2.332   1.016   5.350
  678SOL    HW2 2934   2.302   1.171   5.390
  679SOL     OW 2935   6.212   0.868   2.102
  679SOL    HW1 2936   6.224   0.770   2.085
  679SOL    HW2 2937   6.296   0.906   2.140
  680SOL     OW 2938   5.675   4.492   4.562
  680SOL    HW1 2939   5.715   4.575   4.600
  680SOL    HW2 2940   5.704   4.413   4.616
  681SOL     OW 2941   1.172   6.524   2.151
  681SOL    HW1 2942   1.132   6.519   2.060
  681SOL    HW2 2943   1.158   6.437   2.199
  682SOL     OW 2944   7.008   0.356   6.088
  682SOL    HW1 2945   0.004   0.379   5.993
  682SOL    HW2 2946   6.964   0.266   6.093
  683SOL     OW 2947   4.940   1.719   1.057
  683SOL    HW1 2948   4.910   1.628   1.030
  683SOL    HW2 2949   4.926   1.731   1.156
  684SOL     OW 2950   0.234   6.015   6.304
  684SOL    HW1 2951   0.252   5.966   6.219
  684SOL    HW2 2952   0.296   5.982   6.376
  685SOL     OW 2953   6.102   0.579   6.627
  685SOL    HW1 2954   6.194   0.547   6.649
  685SOL    HW2 2955   6.102   0.622   6.537
  686SOL     OW 2956   5.933   4.942   2.854
  686SOL    HW1 2957   5.980   5.005   2.915
  686SOL    HW2 2958   5.996   4.911   2.783
  687SOL     OW 2959   5.744   2.273   5.620
  687SOL    HW1 2960   5.771   2.271   5.524
  687SOL    HW2 2961   5.762   2.363   5.659
  688SOL     OW 2962   6.715   3.453   5.220
  688SOL    HW1 2963   6.680   3.361   5.200
  688SOL    HW2 2964   6.810   3.459   5.192
  689SOL     OW 2965   5.912   4.413   4.855
  689SOL    HW1 2966   5.894   4.322   4.891
  689SOL    HW2 2967   6.000   4.446   4.889
  690SOL     OW 2968   0.325   3.458   3.822
  690SOL    HW1 2969   0.338   3.545   3.776
  690SOL    HW2 2970   0.298   3.474   3.917
  691SOL     OW 2971   0.081   3.202   6.832
  691SOL    HW1 2972   0.037   3.158   6.754
  691SOL    HW2 2973   0.052   3.156   6.917
  692SOL     OW 2974   2.859   0.160   3.150
  692SOL    HW1 2975   2.760   0.150   3.137
  692SOL    HW2 2976   2.883   0.256   3.143
  693SOL     OW 2977   6.175   1.657   3.009
  693SOL    HW1 2978   6.168   1.586   2.939
  693SOL    HW2 2979   6.262   1.705   3.000
  694SOL     OW 2980   1.320   0.203   2.287
  694SOL    HW1 2981   1.254   0.133   2.314
  694SOL    HW2 2982   1.400   0.199   2.347
  695SOL     OW 2983   4.770   5.617   6.482
  695SOL    HW1 2984   4.692   5.560   6.507
  695SOL    HW2 2985   4.746   5.677   6.406
  696SOL     OW 2986   5.051   6.730   2.636
  696SOL    HW1 2987   5.002   6.778   2.709
  696SOL    HW2 2988   5.092   6.646   2.673
  697SOL     OW 2989   1.696   4.094   3.981
  697SOL    HW1 2990   1.612   4.118   4.028
  697SOL    HW2 2991   1.675   4.038   3.901
  698SOL     OW 2992   5.430   5.916   4.070
  698SOL    HW1 2993   5.520   5.874   4.082
  698SOL    HW2 2994   5.366   5.849   4.032
  699SOL     OW 2995   0.992   4.175   6.607
  699SOL    HW1 2996   1.044   4.099   6.647
  699SOL    HW2 2997   0.994   4.253   6.671
  700SOL     OW 2998   2.312   1.680   4.387
  700SOL    HW1 2999   2.263   1.622   4.322
  700SOL    HW2 3000   2.257   1.690   4.470
  701SOL     OW 3001   0.909   4.755   5.854
  701SOL    HW1 3002   0.882   4.678   5.796
  701SOL    HW2 3003   0.909   4.727   5.950
  702SOL     OW 3004   5.295   6.006   4.976
  702SOL    HW1 3005   5.313   6.007   4.877
  702SOL    HW2 3006   5.360   5.945   5.021
  703SOL     OW 3007   4.773   4.143   6.383
  703SOL    HW1 3008   4.709   4.173   6.454
  703SOL    HW2 3009   4.739   4.171   6.293
  704SOL     OW 3010   2.399   0.308   1.699
  704SOL    HW1 3011   2.389   0.375   1.626
  704SOL    HW2 3012   2.369   0.218   1.667
  705SOL     OW 3013   6.959   2.135   3.647
  705SOL    HW1 3014   6.874   2.120   3.698
  705SOL    HW2 3015   6.963   2.072   3.569
  706SOL     OW 3016   5.107   2.879   4.037
  706SOL    HW1 3017   5.024   2.865   4.091
  706SOL    HW2 3018   5.156   2.793   4.028
  707SOL     OW 3019   4.619   1.812   2.647
  707SOL    HW1 3020   4.551   1.857   2.705
  707SOL    HW2 3021   4.708   1.857   2.659
  708SOL     OW 3022   4.395   0.342   2.056
  708SOL    HW1 3023   4.327   0.409   2.085
  708SOL    HW2 3024   4.437   0.300   2.136
  709SOL     OW 3025   0.968   5.468   0.099
  709SOL    HW1 3026   0.868   5.459   0.096
  709SOL    HW2 3027   1.010   5.387   0.056
  710SOL     OW 3028   3.032   3.063   2.479
  710SOL    HW1 3029   2.965   2.997   2.513
  710SOL    HW2 3030   3.099   3.015   2.422
  711SOL     OW 3031   1.005   1.019   4.592
  711SOL    HW1 3032   0.921   1.031   4.645
  711SOL    HW2 3033   1.079   0.992   4.653
  712SOL     OW 3034   1.224   3.678   2.242
  712SOL    HW1 3035   1.245   3.776   2.246
  712SOL    HW2 3036   1.175   3.658   2.157
  713SOL     OW 3037   3.102   3.958   3.956
  713SOL    HW1 3038   3.059   3.882   3.907
  713SOL    HW2 3039   3.048   3.980   4.037
  714SOL     OW 3040   5.008   4.915   5.553
  714SOL    HW1 3041   5.018   4.879   5.645
  714SOL    HW2 3042   4.957   5.001   5.555
  715SOL     OW 3043   5.011   0.558   6.545
  715SOL    HW1 3044   4.969   0.642   6.581
  715SOL    HW2 3045   5.085   0.582   6.483
  716SOL     OW 3046   6.556   5.069   1.893
  716SOL    HW1 3047   6.587   5.152   1.846
  716SOL    HW2 3048   6.631   5.003   1.898
  717SOL     OW 3049   5.928   3.116   6.943
  717SOL    HW1 3050   5.859   3.186   6.921
  717SOL    HW2 3051   6.015   3.161   6.964
  718SOL     OW 3052   2.531   3.166   6.789
  718SOL    HW1 3053   2.537   3.258   6.750
  718SOL    HW2 3054   2.609   3.112   6.759
  719SOL     OW 3055   4.856   4.996   0.319
  719SOL    HW1 3056   4.791   5.033   0.385
  719SOL    HW2 3057   4.855   4.896   0.324
  720SOL     OW 3058   2.947   1.039   5.998
  720SOL    HW1 3059   2.893   1.121   6.015
  720SOL    HW2 3060   2.886   0.963   5.974
  721SOL     OW 3061   1.419   6.538   5.594
  721SOL    HW1 3062   1.372   6.450   5.608
  721SOL    HW2 3063   1.368   6.593   5.527
  722SOL     OW 3064   4.446   6.534   5.349
  722SOL    HW1 3065   4.475   6.582   5.266
  722SOL    HW2 3066   4.453   6.435   5.334
  723SOL     OW 3067   1.899   3.378   1.980
  723SOL    HW1 3068   1.839   3.409   2.054
  723SOL    HW2 3069   1.884   3.281   1.964
  724SOL     OW 3070   6.580   0.650   4.676
  724SOL    HW1 3071   6.501   0.689   4.628
  724SOL    HW2 3072   6.561   0.649   4.774
  725SOL     OW 3073   2.673   4.755   1.568
  725SOL    HW1 3074   2.769   4.750   1.597
  725SOL    HW2 3075   2.615   4.712   1.636
  726SOL     OW 3076   4.616   6.453   5.922
  726SOL    HW1 3077   4.713   6.474   5.925
  726SOL    HW2 3078   4.573   6.484   6.007
  727SOL     OW 3079   2.153   4.236   3.721
  727SOL    HW1 3080   2.057   4.208   3.716
  727SOL    HW2 3081   2.186   4.226   3.815
  728SOL     OW 3082   0.295   3.225   5.181
  728SOL    HW1 3083   0.258   3.133   5.166
  728SOL    HW2 3084   0.285   3.279   5.097
  729SOL     OW 3085   3.026   0.745   0.842
  729SOL    HW1 3086   3.000   0.815   0.909
  729SOL    HW2 3087   2.956   0.737   0.772
  730SOL     OW 3088   5.215   1.472   5.372
  730SOL    HW1 3089   5.223   1.560   5.324
  730SOL    HW2 3090   5.125   1.432   5.355
  731SOL     OW 3091   0.126   2.676   4.178
  731SOL    HW1 3092   0.041   2.729   4.182
  731SOL    HW2 3093   0.128   2.622   4.095
  732SOL     OW 3094   6.713   3.243   3.442
  732SOL    HW1 3095   6.797   3.263   3.391
  732SOL    HW2 3096   6.682   3.150   3.421
  733SOL     OW 3097   4.680   5.210   4.554
  733SOL    HW1 3098   4.764   5.161   4.530
  733SOL    HW2 3099   4.629   5.232   4.471
  734SOL     OW 3100   0.939   5.290   6.918
  734SOL    HW1 3101   1.018   5.230   6.928
  734SOL    HW2 3102   0.862   5.238   6.880
  735SOL     OW 3103   2.840   4.544   7.008
  735SOL    HW1 3104   2.863   4.448   6.992
  735SOL    HW2 3105   2.862   4.568   0.080
  736SOL     OW 3106   5.724   1.100   3.000
  736SOL    HW1 3107   5.819   1.111   3.030
  736SOL    HW2 3108   5.722   1.083   2.901
  737SOL     OW 3109   5.678   4.059   0.647
  737SOL    HW1 3110   5.722   4.133   0.698
  737SOL    HW2 3111   5.581   4.055   0.670
  738SOL     OW 3112   0.818   4.386   3.012
  738SOL    HW1 3113   0.725   4.353   3.027
  738SOL    HW2 3114   0.817   4.486   3.008
  739SOL     OW 3115   4.367   6.064   6.617
  739SOL    HW1 3116   4.301   6.124   6.571
  739SOL    HW2 3117   4.459   6.102   6.608
  740SOL     OW 3118   5.337   0.342   0.505
  740SOL    HW1 3119   5.386   0.429   0.512
  740SOL    HW2 3120   5.380   0.286   0.435
  741SOL     OW 3121   2.638   0.325   4.063
  741SOL    HW1 3122   2.638   0.242   4.008
  741SOL    HW2 3123   2.708   0.388   4.029
  742SOL     OW 3124   1.159   6.764   2.298
  742SOL    HW1 3125   1.174   6.689   2.233
  742SOL    HW2 3126   1.106   6.730   2.375
  743SOL     OW 3127   1.863   2.945   4.436
  743SOL    HW1 3128   1.810   3.008   4.492
  743SOL    HW2 3129   1.839   2.851   4.460
  744SOL     OW 3130   0.180   5.242   0.705
  744SOL    HW1 3131   0.225   5.288   0.629
  744SOL    HW2 3132   0.085   5.272   0.711
  745SOL     OW 3133   1.843   5.758   3.178
  745SOL    HW1 3134   1.823   5.665   3.211
  745SOL    HW2 3135   1.828   5.762   3.080
  746SOL     OW 3136   2.971   0.662   3.723
  746SOL    HW1 3137   3.011   0.578   3.759
  746SOL    HW2 3138   2.871   0.655   3.724
  747SOL     OW 3139   6.338   4.271   1.423
  747SOL    HW1 3140   6.369   4.352   1.473
  747SOL    HW2 3141   6.392   4.260   1.340
  748SOL     OW 3142   4.012   3.107   2.372
  748SOL    HW1 3143   4.053   3.169   2.306
  748SOL    HW2 3144   4.075   3.094   2.449
  749SOL     OW 3145   6.222   1.749   5.089
  749SOL    HW1 3146   6.198   1.831   5.036
  749SOL    HW2 3147   6.157   1.739   5.165
  750SOL     OW 3148   3.037   3.455   1.455
  750SOL    HW1 3149   2.942   3.435   1.479
  750SOL    HW2 3150   3.056   3.419   1.364
  751SOL     OW 3151   5.216   1.269   0.524
  751SOL    HW1 3152   5.173   1.307   0.606
  751SOL    HW2 3153   5.275   1.193   0.551
  752SOL     OW 3154   4.772   0.987   1.764
  752SOL    HW1 3155   4.803   1.082   1.774
  752SOL    HW2 3156   4.676   0.981   1.792
  753SOL     OW 3157   2.559   1.269   2.757
  753SOL    HW1 3158   2.517   1.211   2.827
  753SOL    HW2 3159   2.641   1.225   2.721
  754SOL     OW 3160   5.251   5.962   0.107
  754SOL    HW1 3161   5.266   5.964   0.008
  754SOL    HW2 3162   5.154   5.945   0.125
  755SOL     OW 3163   7.020   5.716   3.010
  755SOL    HW1 3164   0.043   5.754   2.930
  755SOL    HW2 3165   6.946   5.655   2.980
  756SOL     OW 3166   3.405   6.453   3.538
  756SOL    HW1 3167   3.420   6.439   3.440
  756SOL    HW2 3168   3.493   6.467   3.584
  757SOL     OW 3169   6.363   1.272   4.941
  757SOL    HW1 3170   6.440   1.336   4.939
  757SOL    HW2 3171   6.343   1.241   4.848
  758SOL     OW 3172   4.668   2.123   1.751
  758SOL    HW1 3173   4.621   2.117   1.839
  758SOL    HW2 3174   4.738   2.194   1.755
  759SOL     OW 3175   1.744   0.569   0.616
  759SOL    HW1 3176   1.729   0.488   0.673
  759SOL    HW2 3177   1.814   0.627   0.659
  760SOL     OW 3178   4.679   2.292   6.034
  760SOL    HW1 3179   4.681   2.195   6.055
  760SOL    HW2 3180   4.604   2.311   5.972
  761SOL     OW 3181   5.645   1.564   0.064
  761SOL    HW1 3182   5.671   1.654   0.098
  761SOL    HW2 3183   5.604   1.510   0.138
  762SOL     OW 3184   2.099   5.274   3.974
  762SOL    HW1 3185   2.055   5.195   3.931
  762SOL    HW2 3186   2.166   5.313   3.911
  763SOL     OW 3187   5.711   5.416   6.795
  763SOL    HW1 3188   5.798   5.373   6.818
  763SOL    HW2 3189   5.657   5.430   6.878
  764SOL     OW 3190   4.829   1.024   2.566
  764SOL    HW1 3191   4.789   1.100   2.617
  764SOL    HW2 3192   4.852   0.950   2.629
  765SOL     OW 3193   6.414   6.579   3.340
  765SOL    HW1 3194   6.406   6.677   3.353
  765SOL    HW2 3195   6.485   6.542   3.401
  766SOL     OW 3196   0.277   6.552   0.109
  766SOL    HW1 3197   0.344   6.508   0.168
  766SOL    HW2 3198   0.291   6.522   0.015
  767SOL     OW 3199   5.779   6.935   1.084
  767SOL    HW1 3200   5.748   7.019   1.128
  767SOL    HW2 3201   5.879   6.927   1.094
  768SOL     OW 3202   3.293   6.695   3.605
  768SOL    HW1 3203   3.310   6.596   3.601
  768SOL    HW2 3204   3.381   6.744   3.604
  769SOL     OW 3205   2.975   0.701   6.754
  769SOL    HW1 3206   3.042   0.743   6.815
  769SOL    HW2 3207   2.991   0.602   6.750
  770SOL     OW 3208   2.743   5.039   3.390
  770SOL    HW1 3209   2.649   5.068   3.376
  770SOL    HW2 3210   2.778   4.996   3.307
  771SOL     OW 3211   0.281   5.387   4.550
  771SOL    HW1 3212   0.313   5.463   4.607
  771SOL    HW2 3213   0.359   5.339   4.510
  772SOL     OW 3214   6.835   4.431   5.068
  772SOL    HW1 3215   6.823   4.412   5.165
  772SOL    HW2 3216   6.762   4.388   5.016
  773SOL     OW 3217   0.486   3.745   1.829
  773SOL    HW1 3218   0.500   3.774   1.735
  773SOL    HW2 3219   0.474   3.646   1.833
  774SOL     OW 3220   1.268   1.143   1.588
  774SOL    HW1 3221   1.231   1.099   1.670
  774SOL    HW2 3222   1.363   1.115   1.575
  775SOL     OW 3223   1.444   2.477   4.282
  775SOL    HW1 3224   1.384   2.474   4.202
  775SOL    HW2 3225   1.423   2.560   4.336
  776SOL     OW 3226   2.257   6.909   5.475
  776SOL    HW1 3227   2.166   6.950   5.478
  776SOL    HW2 3228   2.268   6.847   5.553
  777SOL     OW 3229   4.406   0.362   0.622
  777SOL    HW1 3230   4.412   0.304   0.704
  777SOL    HW2 3231   4.318   0.408   0.621
  778SOL     OW 3232   4.173   5.568   4.428
  778SOL    HW1 3233   4.213   5.647   4.475
  778SOL    HW2 3234   4.121   5.513   4.493
  779SOL     OW 3235   1.274   0.796   2.817
  779SOL    HW1 3236   1.328   0.875   2.845
  779SOL    HW2 3237   1.312   0.757   2.733
  780SOL     OW 3238   5.066   3.502   5.234
  780SOL    HW1 3239   5.154   3.549   5.241
  780SOL    HW2 3240   5.077   3.419   5.180
  781SOL     OW 3241   0.845   2.044   6.711
  781SOL    HW1 3242   0.765   2.094   6.679
  781SOL    HW2 3243   0.867   1.971   6.646
  782SOL     OW 3244   0.354   4.095   0.612
  782SOL    HW1 3245   0.352   4.023   0.543
  782SOL    HW2 3246   0.331   4.183   0.569
  783SOL     OW 3247   2.258   4.055   0.270
  783SOL    HW1 3248   2.252   3.980   0.336
  783SOL    HW2 3249   2.249   4.018   0.177
  784SOL     OW 3250   5.112   6.226   3.633
  784SOL    HW1 3251   5.076   6.137   3.604
  784SOL    HW2 3252   5.037   6.283   3.665
  785SOL     OW 3253   6.287   2.178   4.264
  785SOL    HW1 3254   6.353   2.139   4.328
  785SOL    HW2 3255   6.273   2.275   4.285
  786SOL     OW 3256   6.400   6.804   0.132
  786SOL    HW1 3257   6.455   6.848   0.203
  786SOL    HW2 3258   6.316   6.857   0.117
  787SOL     OW 3259   4.279   1.302   6.988
  787SOL    HW1 3260   4.236   1.376   6.936
  787SOL    HW2 3261   4.254   1.310   0.061
  788SOL     OW 3262   0.980   4.673   3.631
  788SOL    HW1 3263   1.032   4.746   3.674
  788SOL    HW2 3264   0.885   4.677   3.662
  789SOL     OW 3265   6.030   3.564   1.153
  789SOL    HW1 3266   6.123   3.581   1.121
  789SOL    HW2 3267   5.979   3.514   1.083
  790SOL     OW 3268   3.630   0.756   3.885
  790SOL    HW1 3269   3.555   0.823   3.894
  790SOL    HW2 3270   3.629   0.694   3.963
  791SOL     OW 3271   3.820   2.137   4.456
  791SOL    HW1 3272   3.757   2.087   4.516
  791SOL    HW2 3273   3.775   2.158   4.370
  792SOL     OW 3274   5.831   0.015   3.819
  792SOL    HW1 3275   5.892   0.047   3.747
  792SOL    HW2 3276   5.870   0.034   3.908
  793SOL     OW 3277   6.716   0.003   5.890
  793SOL    HW1 3278   6.636   6.967   5.893
  793SOL    HW2 3279   6.762   7.015   5.801
  794SOL     OW 3280   3.766   5.250   4.794
  794SOL    HW1 3281   3.858   5.210   4.788
  794SOL    HW2 3282   3.721   5.242   4.706
  795SOL     OW 3283   4.709   4.853   6.305
  795SOL    HW1 3284   4.625   4.907   6.317
  795SOL    HW2 3285   4.770   4.901   6.241
  796SOL     OW 3286   0.576   1.885   6.005
  796SOL    HW1 3287   0.613   1.793   5.992
  796SOL    HW2 3288   0.497   1.898   5.946
  797SOL     OW 3289   6.037   2.701   5.314
  797SOL    HW1 3290   6.017   2.705   5.216
  797SOL    HW2 3291   6.134   2.682   5.328
  798SOL     OW 3292   6.275   0.818   5.158
  798SOL    HW1 3293   6.281   0.841   5.255
  798SOL    HW2 3294   6.267   0.902   5.105
  799SOL     OW 3295   6.828   3.667   3.782
  799SOL    HW1 3296   6.918   3.709   3.785
  799SOL    HW2 3297   6.825   3.597   3.710
  800SOL     OW 3298   6.912   1.680   1.633
  800SOL    HW1 3299   6.917   1.754   1.700
  800SOL    HW2 3300   6.966   1.603   1.665
  801SOL     OW 3301   0.463   1.977   4.042
  801SOL    HW1 3302   0.535   2.040   4.070
  801SOL    HW2 3303   0.501   1.885   4.033
  802SOL     OW 3304   5.988   1.237   1.173
  802SOL    HW1 3305   5.990   1.327   1.218
  802SOL    HW2 3306   6.011   1.247   1.077
  803SOL     OW 3307   1.895   0.429   4.710
  803SOL    HW1 3308   1.870   0.439   4.613
  803SOL    HW2 3309   1.895   0.332   4.734
  804SOL     OW 3310   6.567   6.700   1.122
  804SOL    HW1 3311   6.634   6.654   1.180
  804SOL    HW2 3312   6.612   6.772   1.069
  805SOL     OW 3313   1.343   3.158   5.635
  805SOL    HW1 3314   1.283   3.228   5.595
  805SOL    HW2 3315   1.436   3.194   5.639
  806SOL     OW 3316   4.969   0.674   0.838
  806SOL    HW1 3317   4.924   0.585   0.841
  806SOL    HW2 3318   4.908   0.742   0.798
  807SOL     OW 3319   1.040   6.877   2.863
  807SOL    HW1 3320   1.136   6.849   2.858
  807SOL    HW2 3321   1.034   6.975   2.882
  808SOL     OW 3322   6.237   3.758   5.232
  808SOL    HW1 3323   6.335   3.736   5.231
  808SOL    HW2 3324   6.194   3.715   5.311
  809SOL     OW 3325   0.770   5.404   5.982
  809SOL    HW1 3326   0.675   5.375   5.992
  809SOL    HW2 3327   0.810   5.417   6.073
  810SOL     OW 3328   6.496   5.034   6.738
  810SOL    HW1 3329   6.447   5.057   6.653
  810SOL    HW2 3330   6.538   5.117   6.775
  811SOL     OW 3331   4.317   4.996   3.585
  811SOL    HW1 3332   4.275   4.963   3.670
  811SOL    HW2 3333   4.417   4.993   3.594
  812SOL     OW 3334   0.542   0.624   2.325
  812SOL    HW1 3335   0.550   0.589   2.418
  812SOL    HW2 3336   0.515   0.550   2.264
  813SOL     OW 3337   5.769   5.703   2.032
  813SOL    HW1 3338   5.801   5.611   2.010
  813SOL    HW2 3339   5.729   5.745   1.950
  814SOL     OW 3340   5.573   5.673   1.293
  814SOL    HW1 3341   5.572   5.587   1.343
  814SOL    HW2 3342   5.479   5.702   1.273
  815SOL     OW 3343   0.659   1.370   0.042
  815SOL    HW1 3344   0.648   1.385   0.141
  815SOL    HW2 3345   0.576   1.398   7.019
  816SOL     OW 3346   5.767   0.781   1.182
  816SOL    HW1 3347   5.699   0.801   1.111
  816SOL    HW2 3348   5.723   0.730   1.256
  817SOL     OW 3349   0.679   2.109   1.565
  817SOL    HW1 3350   0.647   2.026   1.519
  817SOL    HW2 3351   0.776   2.122   1.546
  818SOL     OW 3352   6.125   1.677   2.323
  818SOL    HW1 3353   6.082   1.764   2.299
  818SOL    HW2 3354   6.117   1.613   2.247
  819SOL     OW 3355   0.308   4.905   3.039
  819SOL    HW1 3356   0.406   4.915   3.053
  819SOL    HW2 3357   0.278   4.815   3.070
  820SOL     OW 3358   1.648   2.919   4.887
  820SOL    HW1 3359   1.740   2.952   4.867
  820SOL    HW2 3360   1.630   2.924   4.985
  821SOL     OW 3361   1.635   3.993   0.403
  821SOL    HW1 3362   1.707   3.929   0.429
  821SOL    HW2 3363   1.551   3.943   0.384
  822SOL     OW 3364   1.401   3.615   4.954
  822SOL    HW1 3365   1.482   3.660   4.992
  822SOL    HW2 3366   1.318   3.656   4.993
  823SOL     OW 3367   3.163   3.339   1.206
  823SOL    HW1 3368   3.235   3.397   1.168
  823SOL    HW2 3369   3.202   3.276   1.272
  824SOL     OW 3370   6.151   2.285   6.104
  824SOL    HW1 3371   6.227   2.284   6.039
  824SOL    HW2 3372   6.151   2.373   6.153
  825SOL     OW 3373   1.483   4.405   2.224
  825SOL    HW1 3374   1.422   4.437   2.297
  825SOL    HW2 3375   1.577   4.428   2.247
  826SOL     OW 3376   0.968   4.261   5.743
  826SOL    HW1 3377   1.039   4.222   5.802
  826SOL    HW2 3378   0.880   4.253   5.789
  827SOL     OW 3379   4.072   5.354   1.165
  827SOL    HW1 3380   4.162   5.347   1.208
  827SOL    HW2 3381   4.048   5.450   1.152
  828SOL     OW 3382   6.235   6.823   5.325
  828SOL    HW1 3383   6.242   6.888   5.249
  828SOL    HW2 3384   6.233   6.730   5.289
  829SOL     OW 3385   3.591   3.054   4.763
  829SOL    HW1 3386   3.651   3.133   4.753
  829SOL    HW2 3387   3.612   3.006   4.848
  830SOL     OW 3388   4.324   3.820   6.149
  830SOL    HW1 3389   4.254   3.816   6.077
  830SOL    HW2 3390   4.371   3.908   6.145
  831SOL     OW 3391   6.627   6.989   5.034
  831SOL    HW1 3392   6.652   6.900   5.072
  831SOL    HW2 3393   6.528   7.002   5.040
  832SOL     OW 3394   2.263   1.242   5.545
  832SOL    HW1 3395   2.192   1.310   5.563
  832SOL    HW2 3396   2.274   1.184   5.626
  833SOL     OW 3397   0.903   6.849   5.569
  833SOL    HW1 3398   1.000   6.869   5.559
  833SOL    HW2 3399   0.851   6.934   5.577
  834SOL     OW 3400   3.175   4.510   5.739
  834SOL    HW1 3401   3.099   4.553   5.691
  834SOL    HW2 3402   3.252   4.574   5.745
  835SOL     OW 3403   4.444   0.813   3.349
  835SOL    HW1 3404   4.436   0.878   3.274
  835SOL    HW2 3405   4.464   0.862   3.434
  836SOL     OW 3406   2.735   0.424   6.779
  836SOL    HW1 3407   2.831   0.437   6.758
  836SOL    HW2 3408   2.680   0.490   6.726
  837SOL     OW 3409   4.039   1.033   5.052
  837SOL    HW1 3410   4.095   1.107   5.092
  837SOL    HW2 3411   3.951   1.028   5.100
  838SOL     OW 3412   1.316   4.886   2.460
  838SOL    HW1 3413   1.414   4.888   2.442
  838SOL    HW2 3414   1.300   4.896   2.558
  839SOL     OW 3415   3.436   0.927   1.783
  839SOL    HW1 3416   3.355   0.908   1.728
  839SOL    HW2 3417   3.412   0.925   1.880
  840SOL     OW 3418   0.628   1.630   5.903
  840SOL    HW1 3419   0.711   1.660   5.856
  840SOL    HW2 3420   0.625   1.530   5.906
  841SOL     OW 3421   0.367   3.672   0.454
  841SOL    HW1 3422   0.462   3.674   0.484
  841SOL    HW2 3423   0.307   3.671   0.533
  842SOL     OW 3424   3.570   5.309   3.195
  842SOL    HW1 3425   3.548   5.378   3.264
  842SOL    HW2 3426   3.504   5.234   3.201
  843SOL     OW 3427   6.760   4.295   2.338
  843SOL    HW1 3428   6.717   4.322   2.424
  843SOL    HW2 3429   6.787   4.199   2.343
  844SOL     OW 3430   5.421   5.352   6.962
  844SOL    HW1 3431   5.354   5.417   6.999
  844SOL    HW2 3432   5.399   5.333   6.867
  845SOL     OW 3433   1.694   5.347   4.650
  845SOL    HW1 3434   1.784   5.389   4.660
  845SOL    HW2 3435   1.670   5.298   4.734
  846SOL     OW 3436   5.067   2.914   0.100
  846SOL    HW1 3437   5.070   2.937   0.003
  846SOL    HW2 3438   5.147   2.953   0.146
  847SOL     OW 3439   5.345   4.088   2.086
  847SOL    HW1 3440   5.408   4.136   2.025
  847SOL    HW2 3441   5.379   4.092   2.180
  848SOL     OW 3442   6.354   0.174   5.385
  848SOL    HW1 3443   6.358   0.165   5.485
  848SOL    HW2 3444   6.370   0.269   5.359
  849SOL     OW 3445   0.834   5.535   4.477
  849SOL    HW1 3446   0.801   5.576   4.562
  849SOL    HW2 3447   0.862   5.606   4.414
  850SOL     OW 3448   3.738   0.448   3.421
  850SOL    HW1 3449   3.687   0.428   3.337
  850SOL    HW2 3450   3.675   0.485   3.490
  851SOL     OW 3451   0.396   0.563   5.042
  851SOL    HW1 3452   0.426   0.531   5.132
  851SOL    HW2 3453   0.391   0.486   4.979
  852SOL     OW 3454   2.829   4.593   5.856
  852SOL    HW1 3455   2.786   4.504   5.841
  852SOL    HW2 3456   2.774   4.664   5.812
  853SOL     OW 3457   1.327   3.812   0.803
  853SOL    HW1 3458   1.279   3.724   0.803
  853SOL    HW2 3459   1.423   3.797   0.827
  854SOL     OW 3460   6.454   5.099   2.151
  854SOL    HW1 3461   6.504   5.084   2.066
  854SOL    HW2 3462   6.356   5.097   2.134
  855SOL     OW 3463   5.197   0.639   0.672
  855SOL    HW1 3464   5.145   0.685   0.601
  855SOL    HW2 3465   5.135   0.609   0.745
  856SOL     OW 3466   0.891   1.466   4.998
  856SOL    HW1 3467   0.881   1.522   4.916
  856SOL    HW2 3468   0.927   1.376   4.972
  857SOL     OW 3469   6.418   3.620   1.774
  857SOL    HW1 3470   6.430   3.618   1.873
  857SOL    HW2 3471   6.329   3.660   1.752
  858SOL     OW 3472   3.539   3.457   1.419
  858SOL    HW1 3473   3.613   3.429   1.357
  858SOL    HW2 3474   3.567   3.444   1.513
  859SOL     OW 3475   6.729   4.553   0.618
  859SOL    HW1 3476   6.630   4.562   0.602
  859SOL    HW2 3477   6.744   4.491   0.695
  860SOL     OW 3478   2.261   4.400   0.635
  860SOL    HW1 3479   2.317   4.464   0.582
  860SOL    HW2 3480   2.304   4.310   0.635
  861SOL     OW 3481   3.486   4.613   6.228
  861SOL    HW1 3482   3.473   4.537   6.292
  861SOL    HW2 3483   3.494   4.699   6.279
  862SOL     OW 3484   4.754   4.137   3.610
  862SOL    HW1 3485   4.677   4.194   3.580
  862SOL    HW2 3486   4.833   4.196   3.628
  863SOL     OW 3487   5.799   2.325   0.989
  863SOL    HW1 3488   5.873   2.287   1.044
  863SOL    HW2 3489   5.827   2.330   0.893
  864SOL     OW 3490   6.842   4.543   2.657
  864SOL    HW1 3491   6.868   4.624   2.605
  864SOL    HW2 3492   6.786   4.571   2.736
  865SOL     OW 3493   1.990   0.748   3.643
  865SOL    HW1 3494   2.048   0.792   3.712
  865SOL    HW2 3495   1.903   0.798   3.636
  866SOL     OW 3496   3.853   1.222   0.713
  866SOL    HW1 3497   3.769   1.167   0.720
  866SOL    HW2 3498   3.908   1.189   0.636
  867SOL     OW 3499   2.370   1.534   6.136
  867SOL    HW1 3500   2.329   1.624   6.148
  867SOL    HW2 3501   2.343   1.496   6.048
  868SOL     OW 3502   5.725   2.783   3.544
  868SOL    HW1 3503   5.814   2.793   3.589
  868SOL    HW2 3504   5.678   2.702   3.580
  869SOL     OW 3505   6.833   4.254   1.314
  869SOL    HW1 3506   6.786   4.321   1.370
  869SOL    HW2 3507   6.865   4.179   1.373
  870SOL     OW 3508   6.575   2.477   0.455
  870SOL    HW1 3509   6.497   2.529   0.419
  870SOL    HW2 3510   6.579   2.486   0.554
  871SOL     OW 3511   6.325   4.047   0.764
  871SOL    HW1 3512   6.242   4.101   0.771
  871SOL    HW2 3513   6.366   4.059   0.674
  872SOL     OW 3514   6.229   2.032   2.102
  872SOL    HW1 3515   6.259   2.118   2.061
  872SOL    HW2 3516   6.269   2.023   2.194
  873SOL     OW 3517   3.798   6.780   4.861
  873SOL    HW1 3518   3.879   6.795   4.805
  873SOL    HW2 3519   3.782   6.682   4.871
  874SOL     OW 3520   0.168   3.988   6.477
  874SOL    HW1 3521   0.149   3.959   6.383
  874SOL    HW2 3522   0.183   3.907   6.534
  875SOL     OW 3523   6.155   5.205   6.608
  875SOL    HW1 3524   6.119   5.137   6.672
  875SOL    HW2 3525   6.094   5.284   6.606
  876SOL     OW 3526   1.059   2.211   0.735
  876SOL    HW1 3527   0.978   2.269   0.728
  876SOL    HW2 3528   1.050   2.151   0.814
  877SOL     OW 3529   5.712   5.975   0.483
  877SOL    HW1 3530   5.730   6.041   0.410
  877SOL    HW2 3531   5.646   5.907   0.451
  878SOL     OW 3532   3.526   2.314   0.434
  878SOL    HW1 3533   3.569   2.351   0.351
  878SOL    HW2 3534   3.570   2.228   0.459
  879SOL     OW 3535   4.321   2.020   2.621
  879SOL    HW1 3536   4.343   1.965   2.702
  879SOL    HW2 3537   4.253   1.973   2.565
  880SOL     OW 3538   4.628   5.368   1.773
  880SOL    HW1 3539   4.578   5.443   1.729
  880SOL    HW2 3540   4.578   5.340   1.855
  881SOL     OW 3541   4.618   5.031   3.575
  881SOL    HW1 3542   4.664   5.070   3.655
  881SOL    HW2 3543   4.604   5.103   3.507
  882SOL     OW 3544   0.769   2.290   4.247
  882SOL    HW1 3545   0.730   2.340   4.324
  882SOL    HW2 3546   0.868   2.301   4.246
  883SOL     OW 3547   3.269   4.622   0.277
  883SOL    HW1 3548   3.213   4.674   0.342
  883SOL    HW2 3549   3.300   4.682   0.204
  884SOL     OW 3550   4.029   3.985   1.717
  884SOL    HW1 3551   3.941   4.024   1.744
  884SOL    HW2 3552   4.016   3.891   1.686
  885SOL     OW 3553   4.491   6.493   6.162
  885SOL    HW1 3554   4.410   6.438   6.144
  885SOL    HW2 3555   4.489   6.527   6.256
  886SOL     OW 3556   4.222   2.063   6.917
  886SOL    HW1 3557   4.147   2.013   6.960
  886SOL    HW2 3558   4.187   2.118   6.841
  887SOL     OW 3559   5.312   6.807   5.764
  887SOL    HW1 3560   5.317   6.808   5.664
  887SOL    HW2 3561   5.272   6.721   5.795
  888SOL     OW 3562   6.082   6.702   2.874
  888SOL    HW1 3563   6.076   6.646   2.792
  888SOL    HW2 3564   6.177   6.731   2.887
  889SOL     OW 3565   1.122   0.135   4.494
  889SOL    HW1 3566   1.122   0.148   4.395
  889SOL    HW2 3567   1.033   0.162   4.531
  890SOL     OW 3568   1.779   4.269   2.222
  890SOL    HW1 3569   1.800   4.331   2.297
  890SOL    HW2 3570   1.835   4.292   2.142
  891SOL     OW 3571   5.420   3.851   6.461
  891SOL    HW1 3572   5.382   3.812   6.377
  891SOL    HW2 3573   5.351   3.910   6.504
  892SOL     OW 3574   2.446   5.187   1.327
  892SOL    HW1 3575   2.347   5.180   1.337
  892SOL    HW2 3576   2.488   5.101   1.355
  893SOL     OW 3577   1.913   6.557   1.989
  893SOL    HW1 3578   1.862   6.611   1.923
  893SOL    HW2 3579   2.011   6.558   1.965
  894SOL     OW 3580   1.121   5.569   4.239
  894SOL    HW1 3581   1.187   5.552   4.312
  894SOL    HW2 3582   1.139   5.507   4.162
  895SOL     OW 3583   2.540   0.982   4.313
  895SOL    HW1 3584   2.517   1.056   4.376
  895SOL    HW2 3585   2.516   0.894   4.354
  896SOL     OW 3586   5.216   7.016   3.381
  896SOL    HW1 3587   5.144   7.006   3.312
  896SOL    HW2 3588   5.244   0.089   3.385
  897SOL     OW 3589   5.178   1.814   6.447
  897SOL    HW1 3590   5.233   1.856   6.374
  897SOL    HW2 3591   5.128   1.736   6.410
  898SOL     OW 3592   5.847   6.078   4.207
  898SOL    HW1 3593   5.816   5.997   4.157
  898SOL    HW2 3594   5.804   6.080   4.297
  899SOL     OW 3595   1.341   4.243   0.052
  899SOL    HW1 3596   1.296   4.331   0.064
  899SOL    HW2 3597   1.349   4.197   0.140
  900SOL     OW 3598   0.544   6.047   3.616
  900SOL    HW1 3599   0.585   6.136   3.597
  900SOL    HW2 3600   0.445   6.057   3.625
  901SOL     OW 3601   5.476   1.827   3.445
  901SOL    HW1 3602   5.457   1.861   3.537
  901SOL    HW2 3603   5.569   1.791   3.441
  902SOL     OW 3604   1.007   6.249   0.081
  902SOL    HW1 3605   0.987   6.305   0.162
  902SOL    HW2 3606   1.105   6.255   0.060
  903SOL     OW 3607   0.887   4.900   6.735
  903SOL    HW1 3608   0.841   4.980   6.774
  903SOL    HW2 3609   0.917   4.840   6.809
  904SOL     OW 3610   1.588   0.774   3.772
  904SOL    HW1 3611   1.681   0.803   3.797
  904SOL    HW2 3612   1.565   0.812   3.682
  905SOL     OW 3613   6.193   2.138   4.845
  905SOL    HW1 3614   6.213   2.107   4.753
  905SOL    HW2 3615   6.241   2.081   4.912
  906SOL     OW 3616   6.335   4.180   5.612
  906SOL    HW1 3617   6.370   4.134   5.694
  906SOL    HW2 3618   6.317   4.113   5.541
  907SOL     OW 3619   0.245   3.107   1.972
  907SOL    HW1 3620   0.148   3.089   1.956
  907SOL    HW2 3621   0.296   3.089   1.887
  908SOL     OW 3622   2.910   0.994   3.385
  908SOL    HW1 3623   2.925   0.914   3.327
  908SOL    HW2 3624   2.928   0.970   3.480
  909SOL     OW 3625   4.186   6.915   1.010
  909SOL    HW1 3626   4.139   6.946   1.093
  909SOL    HW2 3627   4.125   6.924   0.932
  910SOL     OW 3628   1.636   1.453   2.362
  910SOL    HW1 3629   1.581   1.528   2.326
  910SOL    HW2 3630   1.730   1.461   2.326
  911SOL     OW 3631   0.654   3.839   0.780
  911SOL    HW1 3632   0.740   3.796   0.809
  911SOL    HW2 3633   0.659   3.937   0.796
  912SOL     OW 3634   0.832   0.771   6.196
  912SOL    HW1 3635   0.770   0.715   6.251
  912SOL    HW2 3636   0.831   0.739   6.101
  913SOL     OW 3637   1.894   1.260   2.162
  913SOL    HW1 3638   1.906   1.354   2.192
  913SOL    HW2 3639   1.983   1.220   2.141
  914SOL     OW 3640   3.008   5.794   1.878
  914SOL    HW1 3641   3.097   5.783   1.833
  914SOL    HW2 3642   3.005   5.882   1.925
  915SOL     OW 3643   1.794   2.489   0.346
  915SOL    HW1 3644   1.801   2.580   0.387
  915SOL    HW2 3645   1.758   2.496   0.253
  916SOL     OW 3646   1.723   3.193   2.372
  916SOL    HW1 3647   1.726   3.118   2.306
  916SOL    HW2 3648   1.755   3.161   2.461
  917SOL     OW 3649   3.983   1.620   6.528
  917SOL    HW1 3650   3.997   1.616   6.429
  917SOL    HW2 3651   4.068   1.648   6.572
  918SOL     OW 3652   0.222   2.056   5.057
  918SOL    HW1 3653   0.138   2.067   5.003
  918SOL    HW2 3654   0.199   2.035   5.152
  919SOL     OW 3655   1.572   0.100   1.124
  919SOL    HW1 3656   1.478   0.113   1.093
  919SOL    HW2 3657   1.572   0.080   1.222
  920SOL     OW 3658   1.590   1.176   3.336
  920SOL    HW1 3659   1.590   1.201   3.433
  920SOL    HW2 3660   1.601   1.259   3.281
  921SOL     OW 3661   3.715   4.007   0.570
  921SOL    HW1 3662   3.775   3.971   0.641
  921SOL    HW2 3663   3.759   4.085   0.526
  922SOL     OW 3664   2.230   5.226   6.705
  922SOL    HW1 3665   2.262   5.159   6.773
  922SOL    HW2 3666   2.225   5.181   6.615
  923SOL     OW 3667   3.681   1.119   6.869
  923SOL    HW1 3668   3.662   1.201   6.815
  923SOL    HW2 3669   3.598   1.064   6.879
  924SOL     OW 3670   6.590   4.960   2.841
  924SOL    HW1 3671   6.596   4.897   2.918
  924SOL    HW2 3672   6.517   4.931   2.779
  925SOL     OW 3673   6.710   1.885   3.078
  925SOL    HW1 3674   6.665   1.798   3.096
  925SOL    HW2 3675   6.657   1.937   3.012
  926SOL     OW 3676   4.600   6.256   1.270
  926SOL    HW1 3677   4.695   6.240   1.243
  926SOL    HW2 3678   4.541   6.254   1.189
  927SOL     OW 3679   4.527   5.906   5.090
  927SOL    HW1 3680   4.499   5.947   5.003
  927SOL    HW2 3681   4.463   5.934   5.162
  928SOL     OW 3682   0.503   1.360   1.116
  928SOL    HW1 3683   0.459   1.438   1.161
  928SOL    HW2 3684   0.451   1.277   1.137
  929SOL     OW 3685   6.898   2.568   2.186
  929SOL    HW1 3686   6.901   2.600   2.280
  929SOL    HW2 3687   6.940   2.478   2.179
  930SOL     OW 3688   5.747   5.503   2.306
  930SOL    HW1 3689   5.730   5.468   2.213
  930SOL    HW2 3690   5.724   5.600   2.309
  931SOL     OW 3691   1.569   2.860   1.770
  931SOL    HW1 3692   1.491   2.861   1.708
  931SOL    HW2 3693   1.541   2.895   1.860
  932SOL     OW 3694   4.097   6.191   1.367
  932SOL    HW1 3695   4.118   6.095   1.347
  932SOL    HW2 3696   4.090   6.204   1.466
  933SOL     OW 3697   1.256   6.932   3.568
  933SOL    HW1 3698   1.197   7.004   3.604
  933SOL    HW2 3699   1.345   6.936   3.613
  934SOL     OW 3700   3.390   0.729   5.352
  934SOL    HW1 3701   3.449   0.698   5.426
  934SOL    HW2 3702   3.323   0.794   5.388
  935SOL     OW 3703   1.496   3.746   5.385
  935SOL    HW1 3704   1.488   3.765   5.483
  935SOL    HW2 3705   1.524   3.829   5.337
  936SOL     OW 3706   0.854   2.443   1.519
  936SOL    HW1 3707   0.795   2.363   1.505
  936SOL    HW2 3708   0.901   2.465   1.433
  937SOL     OW 3709   5.426   2.399   3.826
  937SOL    HW1 3710   5.464   2.397   3.919
  937SOL    HW2 3711   5.435   2.491   3.788
  938SOL     OW 3712   0.249   1.076   6.664
  938SOL    HW1 3713   0.199   1.031   6.591
  938SOL    HW2 3714   0.287   1.007   6.727
  939SOL     OW 3715   6.238   1.038   5.584
  939SOL    HW1 3716   6.269   0.957   5.534
  939SOL    HW2 3717   6.298   1.055   5.662
  940SOL     OW 3718   0.255   0.636   4.319
  940SOL    HW1 3719   0.206   0.697   4.256
  940SOL    HW2 3720   0.206   0.549   4.324
  941SOL     OW 3721   5.803   2.621   5.427
  941SOL    HW1 3722   5.882   2.619   5.366
  941SOL    HW2 3723   5.829   2.661   5.514
  942SOL     OW 3724   4.911   0.443   4.623
  942SOL    HW1 3725   4.821   0.437   4.579
  942SOL    HW2 3726   4.911   0.519   4.688
  943SOL     OW 3727   5.480   1.894   0.517
  943SOL    HW1 3728   5.390   1.905   0.476
  943SOL    HW2 3729   5.503   1.796   0.522
  944SOL     OW 3730   4.919   4.113   4.795
  944SOL    HW1 3731   4.829   4.149   4.819
  944SOL    HW2 3732   4.984   4.132   4.869
  945SOL     OW 3733   5.369   3.485   6.012
  945SOL    HW1 3734   5.367   3.387   6.032
  945SOL    HW2 3735   5.342   3.500   5.917
  946SOL     OW 3736   5.825   3.715   6.706
  946SOL    HW1 3737   5.815   3.815   6.701
  946SOL    HW2 3738   5.741   3.675   6.743
  947SOL     OW 3739   0.645   2.863   5.686
  947SOL    HW1 3740   0.654   2.841   5.589
  947SOL    HW2 3741   0.565   2.921   5.700
  948SOL     OW 3742   3.760   1.416   0.541
  948SOL    HW1 3743   3.762   1.373   0.451
  948SOL    HW2 3744   3.756   1.345   0.612
  949SOL     OW 3745   5.609   5.982   6.924
  949SOL    HW1 3746   5.578   5.941   7.010
  949SOL    HW2 3747   5.589   5.919   6.848
  950SOL     OW 3748   3.913   5.184   0.991
  950SOL    HW1 3749   3.829   5.222   0.954
  950SOL    HW2 3750   3.950   5.246   1.060
  951SOL     OW 3751   0.762   2.861   3.972
  951SOL    HW1 3752   0.730   2.940   3.921
  951SOL    HW2 3753   0.760   2.881   4.070
  952SOL     OW 3754   5.406   1.785   1.189
  952SOL    HW1 3755   5.403   1.742   1.099
  952SOL    HW2 3756   5.348   1.866   1.189
  953SOL     OW 3757   3.846   6.613   6.016
  953SOL    HW1 3758   3.787   6.555   6.070
  953SOL    HW2 3759   3.848   6.705   6.055
  954SOL     OW 3760   6.578   0.865   1.747
  954SOL    HW1 3761   6.626   0.837   1.830
  954SOL    HW2 3762   6.570   0.788   1.685
  955SOL     OW 3763   0.470   6.598   2.489
  955SOL    HW1 3764   0.546   6.603   2.424
  955SOL    HW2 3765   0.505   6.571   2.579
  956SOL     OW 3766   1.724   2.633   0.792
  956SOL    HW1 3767   1.766   2.693   0.860
  956SOL    HW2 3768   1.794   2.603   0.726
  957SOL     OW 3769   1.787   6.716   4.808
  957SOL    HW1 3770   1.873   6.733   4.856
  957SOL    HW2 3771   1.715   6.774   4.846
  958SOL     OW 3772   4.871   2.951   0.261
  958SOL    HW1 3773   4.827   3.039   0.241
  958SOL    HW2 3774   4.941   2.932   0.193
  959SOL     OW 3775   1.773   3.267   1.368
  959SOL    HW1 3776   1.872   3.278   1.369
  959SOL    HW2 3777   1.737   3.289   1.278
  960SOL     OW 3778   1.690   5.226   5.512
  960SOL    HW1 3779   1.786   5.203   5.496
  960SOL    HW2 3780   1.684   5.289   5.590
  961SOL     OW 3781   3.489   0.052   6.969
  961SOL    HW1 3782   3.433   0.063   0.027
  961SOL    HW2 3783   3.563   0.120   6.969
  962SOL     OW 3784   1.160   6.452   3.800
  962SOL    HW1 3785   1.191   6.546   3.791
  962SOL    HW2 3786   1.138   6.415   3.710
  963SOL     OW 3787   5.988   0.137   1.977
  963SOL    HW1 3788   6.037   0.080   1.910
  963SOL    HW2 3789   6.054   0.178   2.040
  964SOL     OW 3790   5.747   3.360   1.822
  964SOL    HW1 3791   5.673   3.331   1.883
  964SOL    HW2 3792   5.830   3.308   1.843
  965SOL     OW 3793   1.759   1.817   6.827
  965SOL    HW1 3794   1.822   1.743   6.805
  965SOL    HW2 3795   1.781   1.898   6.774
  966SOL     OW 3796   6.757   2.580   1.922
  966SOL    HW1 3797   6.819   2.559   1.997
  966SOL    HW2 3798   6.804   2.567   1.834
  967SOL     OW 3799   0.927   6.046   2.463
  967SOL    HW1 3800   0.886   6.129   2.423
  967SOL    HW2 3801   0.855   5.978   2.477
  968SOL     OW 3802   0.043   4.237   1.004
  968SOL    HW1 3803   7.019   4.155   0.971
  968SOL    HW2 3804   7.003   4.315   1.004
  969SOL     OW 3805   4.130   0.013   6.946
  969SOL    HW1 3806   4.177   0.073   6.882
  969SOL    HW2 3807   4.074   0.068   7.008
  970SOL     OW 3808   4.643   2.867   5.905
  970SOL    HW1 3809   4.692   2.813   5.836
  970SOL    HW2 3810   4.609   2.807   5.977
  971SOL     OW 3811   0.187   2.679   0.148
  971SOL    HW1 3812   0.185   2.755   0.083
  971SOL    HW2 3813   0.100   2.629   0.143
  972SOL     OW 3814   5.683   6.923   0.707
  972SOL    HW1 3815   5.710   7.018   0.717
  972SOL    HW2 3816   5.621   6.897   0.781
  973SOL     OW 3817   5.647   3.548   5.462
  973SOL    HW1 3818   5.724   3.612   5.458
  973SOL    HW2 3819   5.658   3.488   5.541
  974SOL     OW 3820   2.629   0.643   4.641
  974SOL    HW1 3821   2.563   0.581   4.682
  974SOL    HW2 3822   2.705   0.589   4.603
  975SOL     OW 3823   3.177   6.972   5.561
  975SOL    HW1 3824   3.141   6.951   5.470
  975SOL    HW2 3825   3.274   6.995   5.554
  976SOL     OW 3826   0.254   5.411   3.767
  976SOL    HW1 3827   0.225   5.326   3.723
  976SOL    HW2 3828   0.303   5.390   3.851
  977SOL     OW 3829   1.126   2.950   1.610
  977SOL    HW1 3830   1.097   3.041   1.641
  977SOL    HW2 3831   1.120   2.886   1.687
  978SOL     OW 3832   5.500   3.522   5.085
  978SOL    HW1 3833   5.517   3.536   4.987
  978SOL    HW2 3834   5.436   3.592   5.117
  979SOL     OW 3835   5.524   1.340   3.579
  979SOL    HW1 3836   5.482   1.431   3.580
  979SOL    HW2 3837   5.584   1.332   3.499
  980SOL     OW 3838   7.015   0.318   4.975
  980SOL    HW1 3839   0.048   0.380   5.029
  980SOL    HW2 3840   6.947   0.275   5.034
  981SOL     OW 3841   6.387   3.013   5.779
  981SOL    HW1 3842   6.334   3.047   5.701
  981SOL    HW2 3843   6.470   2.969   5.747
  982SOL     OW 3844   1.767   3.696   1.232
  982SOL    HW1 3845   1.799   3.777   1.281
  982SOL    HW2 3846   1.718   3.635   1.295
  983SOL     OW 3847   5.233   2.252   3.540
  983SOL    HW1 3848   5.251   2.163   3.497
  983SOL    HW2 3849   5.135   2.272   3.536
  984SOL     OW 3850   5.201   2.678   5.664
  984SOL    HW1 3851   5.120   2.620   5.673
  984SOL    HW2 3852   5.284   2.623   5.678
  985SOL     OW 3853   2.655   4.946   0.647
  985SOL    HW1 3854   2.692   5.025   0.598
  985SOL    HW2 3855   2.561   4.930   0.618
  986SOL     OW 3856   4.259   4.521   0.053
  986SOL    HW1 3857   4.170   4.489   0.085
  986SOL    HW2 3858   4.268   4.619   0.072
  987SOL     OW 3859   3.408   6.996   2.630
  987SOL    HW1 3860   3.418   0.044   2.561
  987SOL    HW2 3861   3.498   6.972   2.666
  988SOL     OW 3862   3.580   2.958   1.591
  988SOL    HW1 3863   3.513   3.019   1.549
  988SOL    HW2 3864   3.652   2.936   1.524
  989SOL     OW 3865   0.385   0.604   4.561
  989SOL    HW1 3866   0.330   0.622   4.480
  989SOL    HW2 3867   0.326   0.569   4.634
  990SOL     OW 3868   4.664   5.893   2.531
  990SOL    HW1 3869   4.610   5.975   2.546
  990SOL    HW2 3870   4.713   5.869   2.615
  991SOL     OW 3871   5.817   1.612   5.253
  991SOL    HW1 3872   5.858   1.703   5.244
  991SOL    HW2 3873   5.814   1.568   5.163
  992SOL     OW 3874   6.947   3.217   1.392
  992SOL    HW1 3875   6.985   3.245   1.480
  992SOL    HW2 3876   7.007   3.247   1.318
  993SOL     OW 3877   3.961   5.762   4.626
  993SOL    HW1 3878   3.979   5.667   4.651
  993SOL    HW2 3879   4.040   5.800   4.578
  994SOL     OW 3880   3.257   2.928   2.341
  994SOL    HW1 3881   3.261   3.028   2.331
  994SOL    HW2 3882   3.315   2.885   2.273
  995SOL     OW 3883   0.109   1.298   4.919
  995SOL    HW1 3884   0.130   1.257   5.008
  995SOL    HW2 3885   0.194   1.324   4.874
  996SOL     OW 3886   0.899   3.503   0.667
  996SOL    HW1 3887   0.921   3.531   0.573
  996SOL    HW2 3888   0.961   3.549   0.730
  997SOL     OW 3889   0.288   1.208   0.829
  997SOL    HW1 3890   0.368   1.183   0.884
  997SOL    HW2 3891   0.245   1.290   0.869
  998SOL     OW 3892   5.047   6.971   3.634
  998SOL    HW1 3893   5.109   6.954   3.557
  998SOL    HW2 3894   5.076   6.919   3.713
  999SOL     OW 3895   6.338   5.187   1.513
  999SOL    HW1 3896   6.279   5.190   1.432
  999SOL    HW2 3897   6.363   5.280   1.539
 1000SOL     OW 3898   4.550   2.291   4.213
 1000SOL    HW1 3899   4.467   2.258   4.167
 1000SOL    HW2 3900   4.548   2.260   4.308
 1001SOL     OW 3901   4.133   1.366   6.088
 1001SOL    HW1 3902   4.231   1.361   6.071
 1001SOL    HW2 3903   4.100   1.459   6.069
 1002SOL     OW 3904   0.211   1.214   0.106
 1002SOL    HW1 3905   0.249   1.124   0.085
 1002SOL    HW2 3906   0.250   1.247   0.192
 1003SOL     OW 3907   4.975   4.749   3.284
 1003SOL    HW1 3908   4.916   4.814   3.330
 1003SOL    HW2 3909   4.928   4.711   3.204
 1004SOL     OW 3910   6.116   5.635   0.405
 1004SOL    HW1 3911   6.040   5.698   0.416
 1004SOL    HW2 3912   6.135   5.623   0.307
 1005SOL     OW 3913   6.790   5.473   3.764
 1005SOL    HW1 3914   6.779   5.388   3.816
 1005SOL    HW2 3915   6.709   5.530   3.776
 1006SOL     OW 3916   2.265   3.852   0.471
 1006SOL    HW1 3917   2.345   3.803   0.506
 1006SOL    HW2 3918   2.205   3.787   0.424
 1007SOL     OW 3919   1.146   0.906   3.464
 1007SOL    HW1 3920   1.181   0.814   3.484
 1007SOL    HW2 3921   1.197   0.973   3.517
 1008SOL     OW 3922   2.789   2.096   4.488
 1008SOL    HW1 3923   2.767   2.003   4.516
 1008SOL    HW2 3924   2.812   2.150   4.569
 1009SOL     OW 3925   2.430   5.904   5.240
 1009SOL    HW1 3926   2.353   5.936   5.295
 1009SOL    HW2 3927   2.510   5.963   5.259
 1010SOL     OW 3928   4.617   0.625   6.162
 1010SOL    HW1 3929   4.711   0.608   6.192
 1010SOL    HW2 3930   4.615   0.635   6.063
 1011SOL     OW 3931   3.226   5.900   3.708
 1011SOL    HW1 3932   3.210   5.916   3.611
 1011SOL    HW2 3933   3.271   5.980   3.749
 1012SOL     OW 3934   3.527   5.454   0.529
 1012SOL    HW1 3935   3.566   5.532   0.480
 1012SOL    HW2 3936   3.432   5.474   0.552
 1013SOL     OW 3937   0.686   0.898   7.016
 1013SOL    HW1 3938   0.674   0.847   6.931
 1013SOL    HW2 3939   0.689   0.834   0.070
 1014SOL     OW 3940   5.243   0.448   6.650
 1014SOL    HW1 3941   5.159   0.497   6.631
 1014SOL    HW2 3942   5.261   0.382   6.577
 1015SOL     OW 3943   3.518   0.056   4.875
 1015SOL    HW1 3944   3.535   0.128   4.808
 1015SOL    HW2 3945   3.537   6.991   4.834
 1016SOL     OW 3946   4.485   2.277   2.068
 1016SOL    HW1 3947   4.448   2.336   1.996
 1016SOL    HW2 3948   4.521   2.334   2.142
 1017SOL     OW 3949   4.863   0.774   6.717
 1017SOL    HW1 3950   4.802   0.695   6.716
 1017SOL    HW2 3951   4.809   0.857   6.730
 1018SOL     OW 3952   1.334   2.569   1.664
 1018SOL    HW1 3953   1.325   2.507   1.586
 1018SOL    HW2 3954   1.355   2.661   1.632
 1019SOL     OW 3955   6.006   1.177   0.383
 1019SOL    HW1 3956   5.924   1.143   0.336
 1019SOL    HW2 3957   5.980   1.216   0.472
 1020SOL     OW 3958   3.216   1.873   1.539
 1020SOL    HW1 3959   3.184   1.950   1.484
 1020SOL    HW2 3960   3.301   1.897   1.586
 1021SOL     OW 3961   6.613   1.235   0.577
 1021SOL    HW1 3962   6.538   1.298   0.558
 1021SOL    HW2 3963   6.593   1.146   0.536
 1022SOL     OW 3964   3.430   2.491   6.965
 1022SOL    HW1 3965   3.361   2.550   6.923
 1022SOL    HW2 3966   3.397   2.458   0.030
 1023SOL     OW 3967   6.292   0.666   4.938
 1023SOL    HW1 3968   6.251   0.739   4.882
 1023SOL    HW2 3969   6.270   0.683   5.034
 1024SOL     OW 3970   6.639   1.593   4.083
 1024SOL    HW1 3971   6.686   1.513   4.119
 1024SOL    HW2 3972   6.640   1.591   3.983
 1025SOL     OW 3973   3.307   4.084   1.484
 1025SOL    HW1 3974   3.332   4.159   1.423
 1025SOL    HW2 3975   3.219   4.106   1.528
 1026SOL     OW 3976   0.868   2.814   6.534
 1026SOL    HW1 3977   0.827   2.877   6.467
 1026SOL    HW2 3978   0.799   2.748   6.563
 1027SOL     OW 3979   2.332   4.590   1.535
 1027SOL    HW1 3980   2.427   4.572   1.560
 1027SOL    HW2 3981   2.309   4.537   1.453
 1028SOL     OW 3982   0.520   5.664   0.613
 1028SOL    HW1 3983   0.549   5.670   0.518
 1028SOL    HW2 3984   0.592   5.699   0.672
 1029SOL     OW 3985   3.552   1.118   5.353
 1029SOL    HW1 3986   3.500   1.200   5.373
 1029SOL    HW2 3987   3.489   1.041   5.338
 1030SOL     OW 3988   3.914   4.252   5.349
 1030SOL    HW1 3989   3.863   4.330   5.386
 1030SOL    HW2 3990   3.853   4.193   5.297
 1031SOL     OW 3991   2.178   5.215   1.032
 1031SOL    HW1 3992   2.105   5.269   0.989
 1031SOL    HW2 3993   2.214   5.150   0.965
 1032SOL     OW 3994   1.346   1.477   5.070
 1032SOL    HW1 3995   1.271   1.532   5.035
 1032SOL    HW2 3996   1.328   1.380   5.052
 1033SOL     OW 3997   2.273   6.109   3.072
 1033SOL    HW1 3998   2.244   6.113   3.168
 1033SOL    HW2 3999   2.192   6.110   3.013
 1034SOL     OW 4000   0.949   0.006   1.934
 1034SOL    HW1 4001   0.866   7.007   1.883
 1034SOL    HW2 4002   1.026   0.014   1.871
 1035SOL     OW 4003   3.333   0.782   3.329
 1035SOL    HW1 4004   3.312   0.864   3.383
 1035SOL    HW2 4005   3.247   0.743   3.295
 1036SOL     OW 4006   4.415   6.802   6.548
 1036SOL    HW1 4007   4.414   6.704   6.568
 1036SOL    HW2 4008   4.501   6.825   6.501
 1037SOL     OW 4009   3.044   1.917   6.384
 1037SOL    HW1 4010   3.014   1.875   6.299
 1037SOL    HW2 4011   3.014   1.860   6.461
 1038SOL     OW 4012   2.666   1.341   5.068
 1038SOL    HW1 4013   2.677   1.303   4.976
 1038SOL    HW2 4014   2.571   1.326   5.098
 1039SOL     OW 4015   4.132   2.187   3.472
 1039SOL    HW1 4016   4.064   2.214   3.540
 1039SOL    HW2 4017   4.134   2.088   3.465
 1040SOL     OW 4018   5.890   3.462   4.472
 1040SOL    HW1 4019   5.869   3.556   4.443
 1040SOL    HW2 4020   5.989   3.449   4.474
 1041SOL     OW 4021   1.859   6.822   4.308
 1041SOL    HW1 4022   1.917   6.866   4.240
 1041SOL    HW2 4023   1.912   6.755   4.359
 1042SOL     OW 4024   4.590   3.583   0.930
 1042SOL    HW1 4025   4.543   3.670   0.912
 1042SOL    HW2 4026   4.688   3.601   0.943
 1043SOL     OW 4027   3.660   0.263   6.676
 1043SOL    HW1 4028   3.564   0.234   6.670
 1043SOL    HW2 4029   3.716   0.205   6.616
 1044SOL     OW 4030   3.988   3.907   2.344
 1044SOL    HW1 4031   3.920   3.943   2.408
 1044SOL    HW2 4032   4.040   3.983   2.305
 1045SOL     OW 4033   3.788   0.956   3.108
 1045SOL    HW1 4034   3.706   0.899   3.110
 1045SOL    HW2 4035   3.798   1.005   3.194
 1046SOL     OW 4036   3.571   0.729   2.492
 1046SOL    HW1 4037   3.570   0.738   2.592
 1046SOL    HW2 4038   3.665   0.713   2.462
 1047SOL     OW 4039   0.594   5.166   2.149
 1047SOL    HW1 4040   0.666   5.097   2.163
 1047SOL    HW2 4041   0.628   5.255   2.177
 1048SOL     OW 4042   6.309   4.950   5.043
 1048SOL    HW1 4043   6.246   4.877   5.067
 1048SOL    HW2 4044   6.402   4.915   5.040
 1049SOL     OW 4045   0.562   3.487   4.964
 1049SOL    HW1 4046   0.581   3.427   5.041
 1049SOL    HW2 4047   0.648   3.529   4.933
 1050SOL     OW 4048   2.506   0.758   0.291
 1050SOL    HW1 4049   2.491   0.679   0.351
 1050SOL    HW2 4050   2.445   0.752   0.212
 1051SOL     OW 4051   4.949   4.490   2.596
 1051SOL    HW1 4052   5.018   4.530   2.656
 1051SOL    HW2 4053   4.993   4.431   2.528
 1052SOL     OW 4054   4.243   0.401   4.689
 1052SOL    HW1 4055   4.276   0.463   4.617
 1052SOL    HW2 4056   4.174   0.339   4.650
 1053SOL     OW 4057   3.665   4.842   3.375
 1053SOL    HW1 4058   3.631   4.847   3.469
 1053SOL    HW2 4059   3.758   4.878   3.372
 1054SOL     OW 4060   4.263   5.780   4.559
 1054SOL    HW1 4061   4.272   5.845   4.483
 1054SOL    HW2 4062   4.326   5.805   4.632
 1055SOL     OW 4063   3.624   5.394   3.758
 1055SOL    HW1 4064   3.680   5.465   3.715
 1055SOL    HW2 4065   3.672   5.359   3.839
 1056SOL     OW 4066   2.171   5.737   6.251
 1056SOL    HW1 4067   2.202   5.711   6.160
 1056SOL    HW2 4068   2.074   5.715   6.262
 1057SOL     OW 4069   3.833   3.764   1.288
 1057SOL    HW1 4070   3.807   3.677   1.329
 1057SOL    HW2 4071   3.920   3.754   1.240
 1058SOL     OW 4072   2.914   6.587   2.090
 1058SOL    HW1 4073   2.875   6.506   2.133
 1058SOL    HW2 4074   2.852   6.665   2.104
 1059SOL     OW 4075   3.339   0.521   0.332
 1059SOL    HW1 4076   3.395   0.440   0.322
 1059SOL    HW2 4077   3.274   0.526   0.256
 1060SOL     OW 4078   2.456   1.209   4.440
 1060SOL    HW1 4079   2.501   1.276   4.499
 1060SOL    HW2 4080   2.370   1.248   4.406
 1061SOL     OW 4081   3.220   5.906   1.260
 1061SOL    HW1 4082   3.277   5.988   1.254
 1061SOL    HW2 4083   3.124   5.932   1.260
 1062SOL     OW 4084   4.997   4.729   5.039
 1062SOL    HW1 4085   5.096   4.715   5.045
 1062SOL    HW2 4086   4.976   4.824   5.062
 1063SOL     OW 4087   2.665   2.519   6.125
 1063SOL    HW1 4088   2.641   2.552   6.034
 1063SOL    HW2 4089   2.587   2.531   6.187
 1064SOL     OW 4090   0.440   3.477   1.955
 1064SOL    HW1 4091   0.442   3.475   2.055
 1064SOL    HW2 4092   0.346   3.487   1.923
 1065SOL     OW 4093   3.936   4.817   5.590
 1065SOL    HW1 4094   3.840   4.787   5.591
 1065SOL    HW2 4095   3.992   4.748   5.635
 1066SOL     OW 4096   4.163   6.629   3.221
 1066SOL    HW1 4097   4.171   6.545   3.166
 1066SOL    HW2 4098   4.167   6.605   3.318
 1067SOL     OW 4099   2.602   2.979   0.708
 1067SOL    HW1 4100   2.582   2.881   0.713
 1067SOL    HW2 4101   2.696   2.995   0.737
 1068SOL     OW 4102   0.408   4.458   0.748
 1068SOL    HW1 4103   0.338   4.496   0.809
 1068SOL    HW2 4104   0.362   4.413   0.671
 1069SOL     OW 4105   3.737   3.202   2.333
 1069SOL    HW1 4106   3.808   3.148   2.377
 1069SOL    HW2 4107   3.754   3.206   2.235
 1070SOL     OW 4108   2.404   6.557   0.960
 1070SOL    HW1 4109   2.324   6.519   1.006
 1070SOL    HW2 4110   2.463   6.482   0.930
 1071SOL     OW 4111   4.807   5.921   3.738
 1071SOL    HW1 4112   4.783   5.825   3.721
 1071SOL    HW2 4113   4.865   5.954   3.664
 1072SOL     OW 4114   3.596   5.518   2.719
 1072SOL    HW1 4115   3.569   5.612   2.742
 1072SOL    HW2 4116   3.694   5.516   2.701
 1073SOL     OW 4117   2.299   5.546   2.950
 1073SOL    HW1 4118   2.336   5.483   3.019
 1073SOL    HW2 4119   2.269   5.630   2.995
 1074SOL     OW 4120   1.380   5.751   2.412
 1074SOL    HW1 4121   1.439   5.807   2.470
 1074SOL    HW2 4122   1.388   5.655   2.439
 1075SOL     OW 4123   1.106   4.387   3.080
 1075SOL    HW1 4124   1.162   4.451   3.133
 1075SOL    HW2 4125   1.015   4.425   3.066
 1076SOL     OW 4126   0.007   3.938   2.565
 1076SOL    HW1 4127   0.025   3.846   2.601
 1076SOL    HW2 4128   0.066   4.004   2.610
 1077SOL     OW 4129   5.369   0.716   1.826
 1077SOL    HW1 4130   5.368   0.618   1.848
 1077SOL    HW2 4131   5.286   0.740   1.777
 1078SOL     OW 4132   0.698   3.391   1.863
 1078SOL    HW1 4133   0.607   3.409   1.900
 1078SOL    HW2 4134   0.767   3.418   1.931
 1079SOL     OW 4135   1.920   5.397   3.055
 1079SOL    HW1 4136   1.978   5.350   2.988
 1079SOL    HW2 4137   1.855   5.332   3.095
 1080SOL     OW 4138   1.696   5.842   3.718
 1080SOL    HW1 4139   1.710   5.860   3.816
 1080SOL    HW2 4140   1.758   5.900   3.665
 1081SOL     OW 4141   1.588   0.782   0.253
 1081SOL    HW1 4142   1.639   0.844   0.194
 1081SOL    HW2 4143   1.583   0.691   0.210
 1082SOL     OW 4144   2.095   6.849   0.654
 1082SOL    HW1 4145   2.077   6.915   0.581
 1082SOL    HW2 4146   2.054   6.761   0.629
 1083SOL     OW 4147   3.468   2.400   1.677
 1083SOL    HW1 4148   3.538   2.361   1.736
 1083SOL    HW2 4149   3.396   2.332   1.661
 1084SOL     OW 4150   6.500   3.413   1.027
 1084SOL    HW1 4151   6.487   3.401   1.125
 1084SOL    HW2 4152   6.567   3.486   1.011
 1085SOL     OW 4153   1.633   5.038   3.421
 1085SOL    HW1 4154   1.622   4.975   3.498
 1085SOL    HW2 4155   1.730   5.057   3.406
 1086SOL     OW 4156   3.652   5.026   2.252
 1086SOL    HW1 4157   3.583   4.979   2.196
 1086SOL    HW2 4158   3.636   5.005   2.348
 1087SOL     OW 4159   3.848   3.510   4.821
 1087SOL    HW1 4160   3.801   3.422   4.829
 1087SOL    HW2 4161   3.811   3.561   4.744
 1088SOL     OW 4162   6.308   4.416   2.616
 1088SOL    HW1 4163   6.240   4.482   2.583
 1088SOL    HW2 4164   6.300   4.331   2.565
 1089SOL     OW 4165   6.410   6.607   2.720
 1089SOL    HW1 4166   6.474   6.546   2.765
 1089SOL    HW2 4167   6.392   6.686   2.778
 1090SOL     OW 4168   1.824   1.531   6.098
 1090SOL    HW1 4169   1.825   1.576   6.187
 1090SOL    HW2 4170   1.733   1.540   6.056
 1091SOL     OW 4171   1.098   2.686   5.572
 1091SOL    HW1 4172   1.034   2.761   5.593
 1091SOL    HW2 4173   1.191   2.720   5.576
 1092SOL     OW 4174   2.145   4.623   1.039
 1092SOL    HW1 4175   2.148   4.554   0.966
 1092SOL    HW2 4176   2.115   4.580   1.124
 1093SOL     OW 4177   0.082   2.430   1.506
 1093SOL    HW1 4178   0.151   2.369   1.545
 1093SOL    HW2 4179   0.007   2.375   1.468
 1094SOL     OW 4180   0.624   6.744   1.950
 1094SOL    HW1 4181   0.682   6.824   1.931
 1094SOL    HW2 4182   0.586   6.710   1.864
 1095SOL     OW 4183   6.849   3.709   5.555
 1095SOL    HW1 4184   6.844   3.774   5.480
 1095SOL    HW2 4185   6.926   3.647   5.541
 1096SOL     OW 4186   3.550   3.432   1.907
 1096SOL    HW1 4187   3.510   3.451   1.817
 1096SOL    HW2 4188   3.491   3.366   1.955
 1097SOL     OW 4189   2.567   4.156   5.709
 1097SOL    HW1 4190   2.474   4.122   5.719
 1097SOL    HW2 4191   2.575   4.207   5.623
 1098SOL     OW 4192   4.158   0.615   2.553
 1098SOL    HW1 4193   4.222   0.692   2.552
 1098SOL    HW2 4194   4.080   0.637   2.613
 1099SOL     OW 4195   3.331   0.613   2.489
 1099SOL    HW1 4196   3.346   0.534   2.429
 1099SOL    HW2 4197   3.418   0.657   2.508
 1100SOL     OW 4198   6.685   0.952   6.935
 1100SOL    HW1 4199   6.638   0.876   6.890
 1100SOL    HW2 4200   6.667   1.037   6.886
 1101SOL     OW 4201   5.491   3.343   1.498
 1101SOL    HW1 4202   5.442   3.423   1.533
 1101SOL    HW2 4203   5.427   3.283   1.451
 1102SOL     OW 4204   0.182   4.191   3.802
 1102SOL    HW1 4205   0.189   4.252   3.723
 1102SOL    HW2 4206   0.086   4.169   3.818
 1103SOL     OW 4207   0.155   3.545   0.006
 1103SOL    HW1 4208   0.242   3.548   0.056
 1103SOL    HW2 4209   0.097   3.621   0.036
 1104SOL     OW 4210   2.730   5.391   6.528
 1104SOL    HW1 4211   2.683   5.333   6.461
 1104SOL    HW2 4212   2.681   5.388   6.615
 1105SOL     OW 4213   3.811   5.293   1.292
 1105SOL    HW1 4214   3.892   5.321   1.241
 1105SOL    HW2 4215   3.826   5.307   1.390
 1106SOL     OW 4216   1.309   0.919   6.115
 1106SOL    HW1 4217   1.330   0.914   6.017
 1106SOL    HW2 4218   1.240   0.850   6.137
 1107SOL     OW 4219   6.552   0.289   1.066
 1107SOL    HW1 4220   6.520   0.337   0.985
 1107SOL    HW2 4221   6.508   0.200   1.072
 1108SOL     OW 4222   0.960   0.722   6.967
 1108SOL    HW1 4223   1.007   0.633   6.969
 1108SOL    HW2 4224   0.949   0.755   0.037
 1109SOL     OW 4225   5.194   0.838   3.789
 1109SOL    HW1 4226   5.261   0.768   3.765
 1109SOL    HW2 4227   5.218   0.878   3.878
 1110SOL     OW 4228   3.789   2.904   2.389
 1110SOL    HW1 4229   3.875   2.954   2.373
 1110SOL    HW2 4230   3.782   2.829   2.324
 1111SOL     OW 4231   4.868   7.001   6.789
 1111SOL    HW1 4232   4.860   6.907   6.822
 1111SOL    HW2 4233   4.945   7.007   6.725
 1112SOL     OW 4234   0.807   1.447   2.492
 1112SOL    HW1 4235   0.790   1.494   2.405
 1112SOL    HW2 4236   0.833   1.514   2.561
 1113SOL     OW 4237   6.126   4.140   1.511
 1113SOL    HW1 4238   6.209   4.192   1.490
 1113SOL    HW2 4239   6.048   4.202   1.510
 1114SOL     OW 4240   5.561   0.881   5.437
 1114SOL    HW1 4241   5.583   0.946   5.365
 1114SOL    HW2 4242   5.480   0.828   5.411
 1115SOL     OW 4243   2.441   3.997   0.831
 1115SOL    HW1 4244   2.492   4.079   0.860
 1115SOL    HW2 4245   2.503   3.935   0.784
 1116SOL     OW 4246   3.783   6.692   6.670
 1116SOL    HW1 4247   3.722   6.718   6.744
 1116SOL    HW2 4248   3.744   6.721   6.583
 1117SOL     OW 4249   2.782   2.479   0.884
 1117SOL    HW1 4250   2.696   2.465   0.932
 1117SOL    HW2 4251   2.764   2.510   0.791
 1118SOL     OW 4252   1.597   2.974   2.203
 1118SOL    HW1 4253   1.655   2.921   2.141
 1118SOL    HW2 4254   1.540   3.035   2.150
 1119SOL     OW 4255   2.965   3.748   2.686
 1119SOL    HW1 4256   2.910   3.720   2.764
 1119SOL    HW2 4257   3.054   3.781   2.717
 1120SOL     OW 4258   4.683   1.129   4.194
 1120SOL    HW1 4259   4.689   1.088   4.285
 1120SOL    HW2 4260   4.759   1.096   4.138
 1121SOL     OW 4261   5.104   3.242   2.913
 1121SOL    HW1 4262   5.116   3.274   3.007
 1121SOL    HW2 4263   5.015   3.198   2.904
 1122SOL     OW 4264   4.262   5.107   6.898
 1122SOL    HW1 4265   4.293   5.156   6.816
 1122SOL    HW2 4266   4.187   5.045   6.874
 1123SOL     OW 4267   3.836   1.418   1.964
 1123SOL    HW1 4268   3.902   1.438   1.892
 1123SOL    HW2 4269   3.860   1.331   2.008
 1124SOL     OW 4270   1.796   4.960   4.561
 1124SOL    HW1 4271   1.791   4.957   4.660
 1124SOL    HW2 4272   1.884   4.998   4.533
 1125SOL     OW 4273   2.861   3.426   5.289
 1125SOL    HW1 4274   2.860   3.490   5.366
 1125SOL    HW2 4275   2.783   3.364   5.297
 1126SOL     OW 4276   6.370   0.330   2.130
 1126SOL    HW1 4277   6.431   0.281   2.068
 1126SOL    HW2 4278   6.405   0.322   2.224
 1127SOL     OW 4279   1.917   5.609   6.252
 1127SOL    HW1 4280   1.877   5.532   6.203
 1127SOL    HW2 4281   1.844   5.663   6.294
 1128SOL     OW 4282   2.640   1.633   4.103
 1128SOL    HW1 4283   2.612   1.661   4.195
 1128SOL    HW2 4284   2.566   1.651   4.038
 1129SOL     OW 4285   4.585   6.990   6.207
 1129SOL    HW1 4286   4.550   6.903   6.173
 1129SOL    HW2 4287   4.638   0.012   6.136
 1130SOL     OW 4288   0.404   5.746   6.130
 1130SOL    HW1 4289   0.371   5.831   6.087
 1130SOL    HW2 4290   0.490   5.765   6.177
 1131SOL     OW 4291   0.413   5.074   5.427
 1131SOL    HW1 4292   0.373   5.064   5.336
 1131SOL    HW2 4293   0.513   5.074   5.420
 1132SOL     OW 4294   5.449   6.905   5.402
 1132SOL    HW1 4295   5.499   6.929   5.319
 1132SOL    HW2 4296   5.468   6.809   5.426
 1133SOL     OW 4297   0.093   2.617   6.481
 1133SOL    HW1 4298   7.018   2.620   6.467
 1133SOL    HW2 4299   0.126   2.708   6.507
 1134SOL     OW 4300   6.904   2.649   6.234
 1134SOL    HW1 4301   6.852   2.683   6.156
 1134SOL    HW2 4302   6.886   2.551   6.246
 1135SOL     OW 4303   6.372   1.665   4.101
 1135SOL    HW1 4304   6.361   1.645   4.199
 1135SOL    HW2 4305   6.467   1.648   4.075
 1136SOL     OW 4306   3.364   5.187   4.033
 1136SOL    HW1 4307   3.345   5.242   3.951
 1136SOL    HW2 4308   3.302   5.215   4.106
 1137SOL     OW 4309   1.522   0.824   5.861
 1137SOL    HW1 4310   1.568   0.907   5.891
 1137SOL    HW2 4311   1.501   0.830   5.764
 1138SOL     OW 4312   0.860   4.025   6.010
 1138SOL    HW1 4313   0.822   4.040   5.919
 1138SOL    HW2 4314   0.799   4.063   6.079
 1139SOL     OW 4315   0.964   6.708   1.392
 1139SOL    HW1 4316   0.967   6.759   1.478
 1139SOL    HW2 4317   0.995   6.614   1.408
 1140SOL     OW 4318   3.522   1.815   3.387
 1140SOL    HW1 4319   3.424   1.817   3.369
 1140SOL    HW2 4320   3.560   1.727   3.358
 1141SOL     OW 4321   6.852   6.162   5.699
 1141SOL    HW1 4322   6.763   6.159   5.744
 1141SOL    HW2 4323   6.883   6.257   5.693
 1142SOL     OW 4324   6.368   0.753   4.531
 1142SOL    HW1 4325   6.276   0.791   4.544
 1142SOL    HW2 4326   6.430   0.827   4.503
 1143SOL     OW 4327   4.386   1.594   1.608
 1143SOL    HW1 4328   4.374   1.548   1.520
 1143SOL    HW2 4329   4.472   1.645   1.607
 1144SOL     OW 4330   1.186   0.100   5.152
 1144SOL    HW1 4331   1.238   0.014   5.151
 1144SOL    HW2 4332   1.250   0.177   5.141
 1145SOL     OW 4333   2.056   4.844   4.936
 1145SOL    HW1 4334   2.043   4.779   4.861
 1145SOL    HW2 4335   2.146   4.831   4.977
 1146SOL     OW 4336   6.335   1.730   1.163
 1146SOL    HW1 4337   6.386   1.644   1.159
 1146SOL    HW2 4338   6.365   1.790   1.089
 1147SOL     OW 4339   6.537   3.262   2.348
 1147SOL    HW1 4340   6.559   3.200   2.273
 1147SOL    HW2 4341   6.440   3.283   2.348
 1148SOL     OW 4342   4.968   1.311   6.538
 1148SOL    HW1 4343   4.998   1.252   6.463
 1148SOL    HW2 4344   4.962   1.405   6.505
 1149SOL     OW 4345   6.045   2.607   3.638
 1149SOL    HW1 4346   6.086   2.569   3.721
 1149SOL    HW2 4347   6.024   2.703   3.651
 1150SOL     OW 4348   1.353   5.271   5.596
 1150SOL    HW1 4349   1.441   5.278   5.645
 1150SOL    HW2 4350   1.370   5.243   5.502
 1151SOL     OW 4351   3.226   5.087   6.982
 1151SOL    HW1 4352   3.139   5.114   6.938
 1151SOL    HW2 4353   3.210   5.008   0.016
 1152SOL     OW 4354   0.722   1.470   4.144
 1152SOL    HW1 4355   0.728   1.497   4.240
 1152SOL    HW2 4356   0.635   1.425   4.127
 1153SOL     OW 4357   2.458   4.842   2.752
 1153SOL    HW1 4358   2.513   4.759   2.758
 1153SOL    HW2 4359   2.516   4.918   2.722
 1154SOL     OW 4360   1.561   4.107   2.296
 1154SOL    HW1 4361   1.653   4.129   2.262
 1154SOL    HW2 4362   1.494   4.168   2.253
 1155SOL     OW 4363   4.102   6.800   2.644
 1155SOL    HW1 4364   4.201   6.806   2.631
 1155SOL    HW2 4365   4.056   6.848   2.569
 1156SOL     OW 4366   1.247   1.691   3.710
 1156SOL    HW1 4367   1.329   1.642   3.739
 1156SOL    HW2 4368   1.216   1.751   3.784
 1157SOL     OW 4369   1.288   3.197   4.475
 1157SOL    HW1 4370   1.293   3.126   4.545
 1157SOL    HW2 4371   1.193   3.217   4.454
 1158SOL     OW 4372   4.147   5.765   6.360
 1158SOL    HW1 4373   4.127   5.741   6.455
 1158SOL    HW2 4374   4.217   5.837   6.358
 1159SOL     OW 4375   5.782   4.738   2.491
 1159SOL    HW1 4376   5.731   4.813   2.533
 1159SOL    HW2 4377   5.723   4.657   2.486
 1160SOL     OW 4378   2.807   2.818   0.976
 1160SOL    HW1 4379   2.752   2.799   1.058
 1160SOL    HW2 4380   2.857   2.735   0.950
 1161SOL     OW 4381   4.120   1.107   4.575
 1161SOL    HW1 4382   4.035   1.140   4.616
 1161SOL    HW2 4383   4.106   1.093   4.477
 1162SOL     OW 4384   4.215   5.045   1.309
 1162SOL    HW1 4385   4.119   5.025   1.330
 1162SOL    HW2 4386   4.271   4.964   1.326
 1163SOL     OW 4387   5.208   0.708   2.279
 1163SOL    HW1 4388   5.284   0.773   2.287
 1163SOL    HW2 4389   5.130   0.742   2.331
 1164SOL     OW 4390   6.181   3.483   4.160
 1164SOL    HW1 4391   6.133   3.402   4.126
 1164SOL    HW2 4392   6.249   3.512   4.093
 1165SOL     OW 4393   1.511   4.804   2.705
 1165SOL    HW1 4394   1.498   4.783   2.802
 1165SOL    HW2 4395   1.545   4.723   2.657
 1166SOL     OW 4396   3.453   2.277   6.467
 1166SOL    HW1 4397   3.378   2.324   6.422
 1166SOL    HW2 4398   3.501   2.341   6.528
 1167SOL     OW 4399   3.896   1.898   5.200
 1167SOL    HW1 4400   3.797   1.903   5.190
 1167SOL    HW2 4401   3.938   1.976   5.153
 1168SOL     OW 4402   5.908   6.808   3.091
 1168SOL    HW1 4403   5.819   6.813   3.045
 1168SOL    HW2 4404   5.972   6.757   3.033
 1169SOL     OW 4405   0.840   3.663   1.173
 1169SOL    HW1 4406   0.919   3.603   1.169
 1169SOL    HW2 4407   0.766   3.617   1.222
 1170SOL     OW 4408   2.827   0.462   1.253
 1170SOL    HW1 4409   2.849   0.373   1.293
 1170SOL    HW2 4410   2.836   0.457   1.153
 1171SOL     OW 4411   2.855   0.499   0.156
 1171SOL    HW1 4412   2.838   0.510   0.254
 1171SOL    HW2 4413   2.768   0.507   0.107
 1172SOL     OW 4414   3.127   3.702   4.926
 1172SOL    HW1 4415   3.079   3.775   4.877
 1172SOL    HW2 4416   3.087   3.613   4.903
 1173SOL     OW 4417   4.873   0.346   6.430
 1173SOL    HW1 4418   4.924   0.344   6.344
 1173SOL    HW2 4419   4.915   0.413   6.492
 1174SOL     OW 4420   3.557   5.881   0.001
 1174SOL    HW1 4421   3.649   5.899   0.038
 1174SOL    HW2 4422   3.539   5.782   0.006
 1175SOL     OW 4423   6.951   5.167   4.701
 1175SOL    HW1 4424   6.904   5.139   4.785
 1175SOL    HW2 4425   0.026   5.176   4.719
 1176SOL     OW 4426   6.251   3.153   1.189
 1176SOL    HW1 4427   6.262   3.083   1.118
 1176SOL    HW2 4428   6.327   3.218   1.183
 1177SOL     OW 4429   5.701   3.306   6.940
 1177SOL    HW1 4430   5.708   3.278   0.013
 1177SOL    HW2 4431   5.716   3.405   6.933
 1178SOL     OW 4432   5.170   4.140   2.410
 1178SOL    HW1 4433   5.172   4.045   2.440
 1178SOL    HW2 4434   5.251   4.160   2.356
 1179SOL     OW 4435   1.974   5.816   5.939
 1179SOL    HW1 4436   2.054   5.757   5.929
 1179SOL    HW2 4437   1.999   5.910   5.916
 1180SOL     OW 4438   1.888   1.318   3.603
 1180SOL    HW1 4439   1.949   1.377   3.656
 1180SOL    HW2 4440   1.909   1.328   3.506
 1181SOL     OW 4441   2.001   4.332   2.751
 1181SOL    HW1 4442   1.977   4.301   2.843
 1181SOL    HW2 4443   2.020   4.430   2.752
 1182SOL     OW 4444   1.237   3.987   3.908
 1182SOL    HW1 4445   1.296   4.031   3.977
 1182SOL    HW2 4446   1.189   3.910   3.951
 1183SOL     OW 4447   4.704   6.076   0.600
 1183SOL    HW1 4448   4.716   6.175   0.613
 1183SOL    HW2 4449   4.607   6.056   0.588
 1184SOL     OW 4450   3.475   3.030   6.047
 1184SOL    HW1 4451   3.423   3.103   6.004
 1184SOL    HW2 4452   3.525   2.979   5.978
 1185SOL     OW 4453   2.689   1.417   6.464
 1185SOL    HW1 4454   2.757   1.402   6.393
 1185SOL    HW2 4455   2.598   1.399   6.428
 1186SOL     OW 4456   3.463   0.916   4.757
 1186SOL    HW1 4457   3.458   0.991   4.823
 1186SOL    HW2 4458   3.406   0.937   4.678
 1187SOL     OW 4459   0.576   2.041   5.330
 1187SOL    HW1 4460   0.577   1.998   5.239
 1187SOL    HW2 4461   0.634   2.122   5.329
 1188SOL     OW 4462   1.195   0.564   4.777
 1188SOL    HW1 4463   1.220   0.468   4.788
 1188SOL    HW2 4464   1.110   0.582   4.826
 1189SOL     OW 4465   0.341   1.140   1.257
 1189SOL    HW1 4466   0.368   1.119   1.351
 1189SOL    HW2 4467   0.250   1.103   1.239
 1190SOL     OW 4468   4.370   4.864   2.708
 1190SOL    HW1 4469   4.409   4.880   2.617
 1190SOL    HW2 4470   4.437   4.816   2.765
 1191SOL     OW 4471   2.966   4.393   1.133
 1191SOL    HW1 4472   3.036   4.366   1.199
 1191SOL    HW2 4473   2.990   4.359   1.043
 1192SOL     OW 4474   4.757   4.765   2.584
 1192SOL    HW1 4475   4.751   4.736   2.489
 1192SOL    HW2 4476   4.754   4.686   2.644
 1193SOL     OW 4477   3.970   6.948   3.916
 1193SOL    HW1 4478   4.016   6.891   3.848
 1193SOL    HW2 4479   3.972   0.020   3.886
 1194SOL     OW 4480   5.866   1.328   1.684
 1194SOL    HW1 4481   5.818   1.260   1.741
 1194SOL    HW2 4482   5.799   1.377   1.628
 1195SOL     OW 4483   3.543   6.354   0.004
 1195SOL    HW1 4484   3.628   6.381   6.984
 1195SOL    HW2 4485   3.476   6.427   7.018
 1196SOL     OW 4486   1.181   5.172   3.381
 1196SOL    HW1 4487   1.096   5.220   3.403
 1196SOL    HW2 4488   1.207   5.191   3.287
 1197SOL     OW 4489   3.362   4.856   6.688
 1197SOL    HW1 4490   3.405   4.930   6.740
 1197SOL    HW2 4491   3.313   4.894   6.609
 1198SOL     OW 4492   3.633   1.020   2.312
 1198SOL    HW1 4493   3.671   1.107   2.343
 1198SOL    HW2 4494   3.705   0.964   2.272
 1199SOL     OW 4495   2.923   3.730   4.132
 1199SOL    HW1 4496   2.868   3.751   4.051
 1199SOL    HW2 4497   2.953   3.815   4.175
 1200SOL     OW 4498   4.096   3.139   1.198
 1200SOL    HW1 4499   4.185   3.108   1.165
 1200SOL    HW2 4500   4.081   3.106   1.291
 1201SOL     OW 4501   1.387   0.989   4.691
 1201SOL    HW1 4502   1.350   1.077   4.659
 1201SOL    HW2 4503   1.333   0.914   4.652
 1202SOL     OW 4504   6.389   0.131   4.937
 1202SOL    HW1 4505   6.412   0.081   4.853
 1202SOL    HW2 4506   6.353   0.221   4.914
 1203SOL     OW 4507   6.338   6.608   1.521
 1203SOL    HW1 4508   6.424   6.657   1.502
 1203SOL    HW2 4509   6.290   6.653   1.596
 1204SOL     OW 4510   1.398   6.927   6.962
 1204SOL    HW1 4511   1.497   6.918   6.970
 1204SOL    HW2 4512   1.372   7.023   6.974
 1205SOL     OW 4513   0.872   3.214   5.466
 1205SOL    HW1 4514   0.902   3.295   5.415
 1205SOL    HW2 4515   0.946   3.147   5.469
 1206SOL     OW 4516   0.314   2.281   4.508
 1206SOL    HW1 4517   0.395   2.323   4.549
 1206SOL    HW2 4518   0.316   2.296   4.409
 1207SOL     OW 4519   6.089   6.660   6.934
 1207SOL    HW1 4520   6.046   6.749   6.951
 1207SOL    HW2 4521   6.174   6.674   6.883
 1208SOL     OW 4522   3.512   3.655   2.753
 1208SOL    HW1 4523   3.480   3.678   2.661
 1208SOL    HW2 4524   3.554   3.736   2.794
 1209SOL     OW 4525   6.642   4.262   4.962
 1209SOL    HW1 4526   6.563   4.292   5.016
 1209SOL    HW2 4527   6.610   4.217   4.879
 1210SOL     OW 4528   2.484   6.864   2.863
 1210SOL    HW1 4529   2.560   6.799   2.865
 1210SOL    HW2 4530   2.508   6.943   2.807
 1211SOL     OW 4531   1.293   3.066   3.283
 1211SOL    HW1 4532   1.373   3.124   3.296
 1211SOL    HW2 4533   1.220   3.118   3.239
 1212SOL     OW 4534   0.586   4.493   3.615
 1212SOL    HW1 4535   0.578   4.577   3.561
 1212SOL    HW2 4536   0.619   4.516   3.707
 1213SOL     OW 4537   5.664   3.378   5.264
 1213SOL    HW1 4538   5.614   3.430   5.194
 1213SOL    HW2 4539   5.676   3.435   5.345
 1214SOL     OW 4540   1.580   2.175   1.714
 1214SOL    HW1 4541   1.679   2.165   1.699
 1214SOL    HW2 4542   1.562   2.258   1.765
 1215SOL     OW 4543   6.843   5.081   2.157
 1215SOL    HW1 4544   6.817   5.127   2.073
 1215SOL    HW2 4545   6.790   4.997   2.168
 1216SOL     OW 4546   2.710   6.948   1.696
 1216SOL    HW1 4547   2.721   0.014   1.653
 1216SOL    HW2 4548   2.797   6.898   1.691
 1217SOL     OW 4549   2.032   1.863   2.521
 1217SOL    HW1 4550   2.013   1.795   2.592
 1217SOL    HW2 4551   2.038   1.954   2.561
 1218SOL     OW 4552   0.210   3.570   3.589
 1218SOL    HW1 4553   0.305   3.574   3.557
 1218SOL    HW2 4554   0.171   3.481   3.568
 1219SOL     OW 4555   2.590   5.675   3.553
 1219SOL    HW1 4556   2.518   5.680   3.621
 1219SOL    HW2 4557   2.553   5.699   3.463
 1220SOL     OW 4558   5.972   4.561   2.697
 1220SOL    HW1 4559   5.899   4.628   2.713
 1220SOL    HW2 4560   5.993   4.512   2.781
 1221SOL     OW 4561   4.858   4.464   6.346
 1221SOL    HW1 4562   4.865   4.364   6.354
 1221SOL    HW2 4563   4.765   4.492   6.370
 1222SOL     OW 4564   6.212   4.964   1.222
 1222SOL    HW1 4565   6.296   4.916   1.244
 1222SOL    HW2 4566   6.217   5.057   1.258
 1223SOL     OW 4567   6.828   5.012   5.218
 1223SOL    HW1 4568   6.831   4.948   5.295
 1223SOL    HW2 4569   6.905   4.995   5.157
 1224SOL     OW 4570   4.478   4.566   1.260
 1224SOL    HW1 4571   4.451   4.562   1.164
 1224SOL    HW2 4572   4.558   4.509   1.275
 1225SOL     OW 4573   3.474   2.089   0.021
 1225SOL    HW1 4574   3.555   2.144   0.043
 1225SOL    HW2 4575   3.447   2.036   0.101
 1226SOL     OW 4576   5.490   5.556   0.661
 1226SOL    HW1 4577   5.588   5.563   0.682
 1226SOL    HW2 4578   5.464   5.460   0.654
 1227SOL     OW 4579   5.080   4.779   6.928
 1227SOL    HW1 4580   5.102   4.682   6.933
 1227SOL    HW2 4581   4.987   4.790   6.893
 1228SOL     OW 4582   3.816   4.067   4.019
 1228SOL    HW1 4583   3.849   4.159   3.999
 1228SOL    HW2 4584   3.886   4.000   3.993
 1229SOL     OW 4585   2.220   5.735   3.118
 1229SOL    HW1 4586   2.304   5.718   3.169
 1229SOL    HW2 4587   2.163   5.801   3.167
 1230SOL     OW 4588   5.079   5.784   1.023
 1230SOL    HW1 4589   4.995   5.731   1.033
 1230SOL    HW2 4590   5.103   5.790   0.926
 1231SOL     OW 4591   2.350   1.449   6.874
 1231SOL    HW1 4592   2.317   1.429   6.966
 1231SOL    HW2 4593   2.297   1.524   6.835
 1232SOL     OW 4594   3.196   1.486   5.361
 1232SOL    HW1 4595   3.166   1.442   5.276
 1232SOL    HW2 4596   3.116   1.508   5.417
 1233SOL     OW 4597   6.671   5.542   4.812
 1233SOL    HW1 4598   6.597   5.519   4.749
 1233SOL    HW2 4599   6.757   5.506   4.776
 1234SOL     OW 4600   6.391   4.533   7.016
 1234SOL    HW1 4601   6.378   4.557   6.920
 1234SOL    HW2 4602   6.461   4.462   7.023
 1235SOL     OW 4603   5.964   4.893   1.216
 1235SOL    HW1 4604   5.926   4.947   1.141
 1235SOL    HW2 4605   6.062   4.909   1.222
 1236SOL     OW 4606   1.751   1.075   2.588
 1236SOL    HW1 4607   1.715   0.991   2.628
 1236SOL    HW2 4608   1.851   1.076   2.598
 1237SOL     OW 4609   1.135   0.377   4.276
 1237SOL    HW1 4610   1.042   0.349   4.256
 1237SOL    HW2 4611   1.150   0.471   4.244
 1238SOL     OW 4612   0.693   0.495   4.782
 1238SOL    HW1 4613   0.619   0.461   4.840
 1238SOL    HW2 4614   0.680   0.460   4.689
 1239SOL     OW 4615   4.799   4.864   3.890
 1239SOL    HW1 4616   4.859   4.933   3.850
 1239SOL    HW2 4617   4.843   4.823   3.970
 1240SOL     OW 4618   0.432   3.707   0.855
 1240SOL    HW1 4619   0.459   3.612   0.872
 1240SOL    HW2 4620   0.511   3.758   0.821
 1241SOL     OW 4621   4.039   4.871   5.895
 1241SOL    HW1 4622   4.016   4.885   5.991
 1241SOL    HW2 4623   3.970   4.914   5.837
 1242SOL     OW 4624   2.260   5.085   0.795
 1242SOL    HW1 4625   2.323   5.162   0.800
 1242SOL    HW2 4626   2.308   5.004   0.763
 1243SOL     OW 4627   1.266   3.559   3.693
 1243SOL    HW1 4628   1.288   3.623   3.767
 1243SOL    HW2 4629   1.273   3.465   3.727
 1244SOL     OW 4630   6.010   7.002   5.217
 1244SOL    HW1 4631   6.094   0.016   5.177
 1244SOL    HW2 4632   5.972   0.044   5.282
 1245SOL     OW 4633   4.584   6.522   1.163
 1245SOL    HW1 4634   4.608   6.589   1.093
 1245SOL    HW2 4635   4.665   6.499   1.216
 1246SOL     OW 4636   5.637   1.995   1.100
 1246SOL    HW1 4637   5.542   1.964   1.106
 1246SOL    HW2 4638   5.639   2.088   1.066
 1247SOL     OW 4639   5.895   6.657   2.299
 1247SOL    HW1 4640   5.866   6.684   2.208
 1247SOL    HW2 4641   5.995   6.651   2.302
 1248SOL     OW 4642   0.892   6.933   4.517
 1248SOL    HW1 4643   0.850   7.021   4.537
 1248SOL    HW2 4644   0.933   6.936   4.426
 1249SOL     OW 4645   5.964   6.438   6.829
 1249SOL    HW1 4646   5.973   6.460   6.732
 1249SOL    HW2 4647   6.016   6.504   6.883
 1250SOL     OW 4648   0.675   4.307   5.029
 1250SOL    HW1 4649   0.748   4.297   5.097
 1250SOL    HW2 4650   0.714   4.302   4.937
 1251SOL     OW 4651   2.827   0.099   2.817
 1251SOL    HW1 4652   2.753   0.046   2.776
 1251SOL    HW2 4653   2.877   0.042   2.883
 1252SOL     OW 4654   2.624   5.124   6.900
 1252SOL    HW1 4655   2.653   5.096   6.808
 1252SOL    HW2 4656   2.545   5.070   6.928
 1253SOL     OW 4657   2.947   6.345   0.094
 1253SOL    HW1 4658   2.894   6.285   0.154
 1253SOL    HW2 4659   3.030   6.375   0.141
 1254SOL     OW 4660   6.245   1.754   3.486
 1254SOL    HW1 4661   6.169   1.714   3.435
 1254SOL    HW2 4662   6.215   1.776   3.579
 1255SOL     OW 4663   6.044   2.013   5.779
 1255SOL    HW1 4664   6.062   1.918   5.751
 1255SOL    HW2 4665   6.073   2.075   5.706
 1256SOL     OW 4666   0.324   5.585   4.738
 1256SOL    HW1 4667   0.342   5.542   4.827
 1256SOL    HW2 4668   0.234   5.628   4.739
 1257SOL     OW 4669   6.693   6.310   3.361
 1257SOL    HW1 4670   6.676   6.387   3.423
 1257SOL    HW2 4671   6.609   6.255   3.353
 1258SOL     OW 4672   4.515   5.514   6.438
 1258SOL    HW1 4673   4.452   5.447   6.477
 1258SOL    HW2 4674   4.491   5.606   6.471
 1259SOL     OW 4675   5.304   0.064   5.539
 1259SOL    HW1 4676   5.368   0.006   5.489
 1259SOL    HW2 4677   5.211   0.047   5.506
 1260SOL     OW 4678   3.015   1.173   0.795
 1260SOL    HW1 4679   3.043   1.121   0.875
 1260SOL    HW2 4680   3.029   1.271   0.812
 1261SOL     OW 4681   0.172   4.373   4.965
 1261SOL    HW1 4682   0.156   4.286   4.919
 1261SOL    HW2 4683   0.217   4.356   5.053
 1262SOL     OW 4684   3.989   5.505   1.813
 1262SOL    HW1 4685   4.035   5.468   1.894
 1262SOL    HW2 4686   4.056   5.552   1.756
 1263SOL     OW 4687   6.943   1.828   0.639
 1263SOL    HW1 4688   6.956   1.730   0.647
 1263SOL    HW2 4689   0.005   1.875   0.663
 1264SOL     OW 4690   6.273   2.429   4.416
 1264SOL    HW1 4691   6.232   2.466   4.499
 1264SOL    HW2 4692   6.305   2.505   4.359
 1265SOL     OW 4693   6.578   5.890   4.648
 1265SOL    HW1 4694   6.655   5.832   4.621
 1265SOL    HW2 4695   6.505   5.882   4.579
 1266SOL     OW 4696   3.027   0.902   3.627
 1266SOL    HW1 4697   3.018   0.810   3.664
 1266SOL    HW2 4698   3.011   0.969   3.700
 1267SOL     OW 4699   0.348   4.432   2.923
 1267SOL    HW1 4700   0.302   4.422   2.835
 1267SOL    HW2 4701   0.299   4.499   2.979
 1268SOL     OW 4702   5.894   4.729   6.822
 1268SOL    HW1 4703   5.877   4.815   6.870
 1268SOL    HW2 4704   5.971   4.741   6.760
 1269SOL     OW 4705   6.770   5.019   6.250
 1269SOL    HW1 4706   6.711   5.039   6.328
 1269SOL    HW2 4707   6.817   5.102   6.221
 1270SOL     OW 4708   1.373   1.941   4.574
 1270SOL    HW1 4709   1.405   1.900   4.659
 1270SOL    HW2 4710   1.441   2.007   4.542
 1271SOL     OW 4711   5.200   2.629   3.669
 1271SOL    HW1 4712   5.199   2.720   3.627
 1271SOL    HW2 4713   5.262   2.569   3.618
 1272SOL     OW 4714   6.246   6.949   1.154
 1272SOL    HW1 4715   6.194   6.895   1.220
 1272SOL    HW2 4716   6.184   7.002   1.097
 1273SOL     OW 4717   2.543   6.244   5.533
 1273SOL    HW1 4718   2.617   6.234   5.599
 1273SOL    HW2 4719   2.458   6.210   5.573
 1274SOL     OW 4720   5.892   1.974   2.439
 1274SOL    HW1 4721   5.865   1.959   2.534
 1274SOL    HW2 4722   5.951   2.055   2.434
 1275SOL     OW 4723   3.862   1.828   4.037
 1275SOL    HW1 4724   3.877   1.730   4.033
 1275SOL    HW2 4725   3.770   1.849   4.001
 1276SOL     OW 4726   6.558   0.327   2.543
 1276SOL    HW1 4727   6.517   0.405   2.496
 1276SOL    HW2 4728   6.488   0.258   2.561
 1277SOL     OW 4729   0.561   2.219   4.987
 1277SOL    HW1 4730   0.586   2.123   4.989
 1277SOL    HW2 4731   0.612   2.268   5.058
 1278SOL     OW 4732   2.905   1.156   5.667
 1278SOL    HW1 4733   2.847   1.085   5.706
 1278SOL    HW2 4734   3.001   1.128   5.673
 1279SOL     OW 4735   2.400   4.901   0.570
 1279SOL    HW1 4736   2.366   4.823   0.621
 1279SOL    HW2 4737   2.347   4.912   0.486
 1280SOL     OW 4738   1.816   5.999   2.687
 1280SOL    HW1 4739   1.738   6.060   2.701
 1280SOL    HW2 4740   1.853   6.013   2.595
 1281SOL     OW 4741   0.998   6.876   4.262
 1281SOL    HW1 4742   0.977   6.779   4.273
 1281SOL    HW2 4743   1.087   6.896   4.302
 1282SOL     OW 4744   0.953   0.343   2.421
 1282SOL    HW1 4745   0.966   0.274   2.350
 1282SOL    HW2 4746   0.937   0.432   2.378
 1283SOL     OW 4747   4.701   4.208   5.159
 1283SOL    HW1 4748   4.649   4.137   5.205
 1283SOL    HW2 4749   4.779   4.234   5.216
 1284SOL     OW 4750   2.667   2.077   2.648
 1284SOL    HW1 4751   2.712   2.165   2.638
 1284SOL    HW2 4752   2.642   2.041   2.558
 1285SOL     OW 4753   5.675   2.811   6.473
 1285SOL    HW1 4754   5.720   2.745   6.533
 1285SOL    HW2 4755   5.609   2.763   6.414
 1286SOL     OW 4756   6.166   6.235   1.613
 1286SOL    HW1 4757   6.101   6.310   1.622
 1286SOL    HW2 4758   6.155   6.172   1.689
 1287SOL     OW 4759   6.304   4.455   6.054
 1287SOL    HW1 4760   6.294   4.537   6.109
 1287SOL    HW2 4761   6.395   4.416   6.068
 1288SOL     OW 4762   6.569   2.763   3.717
 1288SOL    HW1 4763   6.665   2.758   3.693
 1288SOL    HW2 4764   6.557   2.825   3.795
 1289SOL     OW 4765   6.850   5.044   2.690
 1289SOL    HW1 4766   6.760   5.025   2.729
 1289SOL    HW2 4767   6.839   5.073   2.595
 1290SOL     OW 4768   0.254   6.963   1.046
 1290SOL    HW1 4769   0.170   6.914   1.069
 1290SOL    HW2 4770   0.272   6.953   0.948
 1291SOL     OW 4771   1.362   6.835   0.738
 1291SOL    HW1 4772   1.409   6.791   0.662
 1291SOL    HW2 4773   1.427   6.892   0.790
 1292SOL     OW 4774   0.781   5.621   6.563
 1292SOL    HW1 4775   0.831   5.589   6.644
 1292SOL    HW2 4776   0.842   5.677   6.507
 1293SOL     OW 4777   6.400   2.744   5.939
 1293SOL    HW1 4778   6.473   2.777   6.000
 1293SOL    HW2 4779   6.348   2.822   5.905
 1294SOL     OW 4780   0.457   1.759   3.260
 1294SOL    HW1 4781   0.553   1.765   3.234
 1294SOL    HW2 4782   0.437   1.668   3.296
 1295SOL     OW 4783   4.576   3.303   1.507
 1295SOL    HW1 4784   4.633   3.342   1.580
 1295SOL    HW2 4785   4.520   3.376   1.467
 1296SOL     OW 4786   3.882   2.347   7.015
 1296SOL    HW1 4787   3.911   2.430   6.968
 1296SOL    HW2 4788   3.909   2.267   6.962
 1297SOL     OW 4789   6.230   0.925   6.381
 1297SOL    HW1 4790   6.206   1.018   6.354
 1297SOL    HW2 4791   6.324   0.904   6.352
 1298SOL     OW 4792   6.353   2.887   3.576
 1298SOL    HW1 4793   6.452   2.897   3.572
 1298SOL    HW2 4794   6.328   2.820   3.646
 1299SOL     OW 4795   1.387   3.058   4.259
 1299SOL    HW1 4796   1.342   3.097   4.339
 1299SOL    HW2 4797   1.445   3.128   4.217
 1300SOL     OW 4798   3.678   3.317   1.652
 1300SOL    HW1 4799   3.710   3.252   1.720
 1300SOL    HW2 4800   3.610   3.378   1.693
 1301SOL     OW 4801   0.678   0.839   2.590
 1301SOL    HW1 4802   0.627   0.753   2.592
 1301SOL    HW2 4803   0.714   0.860   2.681
 1302SOL     OW 4804   2.480   5.657   5.381
 1302SOL    HW1 4805   2.512   5.732   5.324
 1302SOL    HW2 4806   2.464   5.691   5.474
 1303SOL     OW 4807   3.154   0.270   0.932
 1303SOL    HW1 4808   3.204   0.203   0.987
 1303SOL    HW2 4809   3.196   0.276   0.841
 1304SOL     OW 4810   3.757   0.803   6.302
 1304SOL    HW1 4811   3.746   0.774   6.397
 1304SOL    HW2 4812   3.723   0.897   6.293
 1305SOL     OW 4813   6.046   6.315   3.829
 1305SOL    HW1 4814   6.107   6.364   3.767
 1305SOL    HW2 4815   5.975   6.270   3.777
 1306SOL     OW 4816   1.399   5.046   4.651
 1306SOL    HW1 4817   1.366   5.030   4.744
 1306SOL    HW2 4818   1.406   4.959   4.603
 1307SOL     OW 4819   1.295   1.956   4.309
 1307SOL    HW1 4820   1.272   1.864   4.278
 1307SOL    HW2 4821   1.304   1.957   4.409
 1308SOL     OW 4822   4.442   6.241   2.892
 1308SOL    HW1 4823   4.393   6.184   2.957
 1308SOL    HW2 4824   4.540   6.220   2.896
 1309SOL     OW 4825   5.650   2.804   4.896
 1309SOL    HW1 4826   5.607   2.730   4.845
 1309SOL    HW2 4827   5.602   2.818   4.983
 1310SOL     OW 4828   5.131   3.861   5.413
 1310SOL    HW1 4829   5.120   3.910   5.327
 1310SOL    HW2 4830   5.154   3.765   5.394
 1311SOL     OW 4831   5.139   5.101   5.343
 1311SOL    HW1 4832   5.219   5.065   5.392
 1311SOL    HW2 4833   5.058   5.090   5.400
 1312SOL     OW 4834   6.098   0.390   2.384
 1312SOL    HW1 4835   6.099   0.342   2.296
 1312SOL    HW2 4836   6.088   0.488   2.368
 1313SOL     OW 4837   3.225   5.051   5.010
 1313SOL    HW1 4838   3.154   5.117   4.987
 1313SOL    HW2 4839   3.185   4.959   5.009
 1314SOL     OW 4840   5.462   1.860   5.587
 1314SOL    HW1 4841   5.490   1.946   5.630
 1314SOL    HW2 4842   5.458   1.787   5.656
 1315SOL     OW 4843   2.347   0.003   3.470
 1315SOL    HW1 4844   2.412   7.009   3.397
 1315SOL    HW2 4845   2.355   0.099   3.499
 1316SOL     OW 4846   3.388   6.371   2.781
 1316SOL    HW1 4847   3.304   6.388   2.729
 1316SOL    HW2 4848   3.465   6.359   2.718
 1317SOL     OW 4849   0.171   3.922   3.898
 1317SOL    HW1 4850   0.245   3.891   3.957
 1317SOL    HW2 4851   0.200   4.003   3.848
 1318SOL     OW 4852   0.428   6.273   1.495
 1318SOL    HW1 4853   0.407   6.235   1.405
 1318SOL    HW2 4854   0.514   6.324   1.491
 1319SOL     OW 4855   6.307   0.634   6.891
 1319SOL    HW1 4856   6.331   0.602   6.982
 1319SOL    HW2 4857   6.237   0.575   6.852
 1320SOL     OW 4858   5.503   6.084   5.529
 1320SOL    HW1 4859   5.597   6.099   5.559
 1320SOL    HW2 4860   5.482   5.987   5.530
 1321SOL     OW 4861   3.027   1.707   6.651
 1321SOL    HW1 4862   3.044   1.633   6.586
 1321SOL    HW2 4863   3.106   1.768   6.654
 1322SOL     OW 4864   5.360   1.554   6.040
 1322SOL    HW1 4865   5.345   1.572   6.137
 1322SOL    HW2 4866   5.326   1.632   5.987
 1323SOL     OW 4867   6.141   1.178   4.255
 1323SOL    HW1 4868   6.053   1.203   4.295
 1323SOL    HW2 4869   6.136   1.186   4.155
 1324SOL     OW 4870   1.015   3.294   0.061
 1324SOL    HW1 4871   1.095   3.236   0.077
 1324SOL    HW2 4872   0.955   3.292   0.141
 1325SOL     OW 4873   3.799   5.337   3.459
 1325SOL    HW1 4874   3.741   5.419   3.465
 1325SOL    HW2 4875   3.805   5.308   3.364
 1326SOL     OW 4876   5.145   4.140   4.626
 1326SOL    HW1 4877   5.062   4.136   4.683
 1326SOL    HW2 4878   5.125   4.190   4.542
 1327SOL     OW 4879   2.859   5.710   3.553
 1327SOL    HW1 4880   2.883   5.776   3.482
 1327SOL    HW2 4881   2.763   5.684   3.543
 1328SOL     OW 4882   1.872   1.730   0.231
 1328SOL    HW1 4883   1.787   1.741   0.180
 1328SOL    HW2 4884   1.907   1.819   0.258
 1329SOL     OW 4885   0.747   6.903   1.489
 1329SOL    HW1 4886   0.712   6.968   1.421
 1329SOL    HW2 4887   0.847   6.898   1.482
 1330SOL     OW 4888   4.570   6.331   0.887
 1330SOL    HW1 4889   4.570   6.427   0.912
 1330SOL    HW2 4890   4.511   6.280   0.950
 1331SOL     OW 4891   6.623   1.725   2.179
 1331SOL    HW1 4892   6.699   1.660   2.181
 1331SOL    HW2 4893   6.636   1.790   2.105
 1332SOL     OW 4894   4.186   1.869   0.898
 1332SOL    HW1 4895   4.281   1.839   0.895
 1332SOL    HW2 4896   4.183   1.969   0.899
 1333SOL     OW 4897   4.115   3.687   4.483
 1333SOL    HW1 4898   4.132   3.623   4.408
 1333SOL    HW2 4899   4.115   3.637   4.570
 1334SOL     OW 4900   0.451   4.151   3.771
 1334SOL    HW1 4901   0.362   4.171   3.811
 1334SOL    HW2 4902   0.445   4.159   3.672
 1335SOL     OW 4903   2.816   5.685   1.700
 1335SOL    HW1 4904   2.860   5.597   1.684
 1335SOL    HW2 4905   2.880   5.746   1.747
 1336SOL     OW 4906   0.159   0.504   4.713
 1336SOL    HW1 4907   0.071   0.456   4.713
 1336SOL    HW2 4908   0.162   0.569   4.789
 1337SOL     OW 4909   3.274   0.519   6.551
 1337SOL    HW1 4910   3.346   0.543   6.617
 1337SOL    HW2 4911   3.314   0.470   6.474
 1338SOL     OW 4912   3.574   5.424   1.179
 1338SOL    HW1 4913   3.659   5.397   1.223
 1338SOL    HW2 4914   3.593   5.461   1.089
 1339SOL     OW 4915   0.346   4.749   6.124
 1339SOL    HW1 4916   0.410   4.673   6.140
 1339SOL    HW2 4917   0.271   4.717   6.066
 1340SOL     OW 4918   1.847   0.867   6.215
 1340SOL    HW1 4919   1.787   0.940   6.248
 1340SOL    HW2 4920   1.827   0.848   6.119
 1341SOL     OW 4921   6.250   2.669   4.167
 1341SOL    HW1 4922   6.310   2.687   4.245
 1341SOL    HW2 4923   6.176   2.608   4.196
 1342SOL     OW 4924   0.556   6.223   1.795
 1342SOL    HW1 4925   0.491   6.265   1.731
 1342SOL    HW2 4926   0.599   6.294   1.850
 1343SOL     OW 4927   3.290   5.366   3.456
 1343SOL    HW1 4928   3.217   5.431   3.477
 1343SOL    HW2 4929   3.332   5.334   3.541
 1344SOL     OW 4930   4.908   1.273   2.834
 1344SOL    HW1 4931   4.905   1.236   2.927
 1344SOL    HW2 4932   4.993   1.323   2.821
 1345SOL     OW 4933   0.965   6.775   3.167
 1345SOL    HW1 4934   1.009   6.755   3.080
 1345SOL    HW2 4935   1.034   6.775   3.240
 1346SOL     OW 4936   0.211   0.876   3.742
 1346SOL    HW1 4937   0.206   0.975   3.750
 1346SOL    HW2 4938   0.273   0.841   3.813
 1347SOL     OW 4939   5.122   0.486   3.630
 1347SOL    HW1 4940   5.193   0.550   3.658
 1347SOL    HW2 4941   5.105   0.496   3.532
 1348SOL     OW 4942   4.829   6.264   4.660
 1348SOL    HW1 4943   4.921   6.276   4.699
 1348SOL    HW2 4944   4.833   6.196   4.587
 1349SOL     OW 4945   4.681   2.591   0.496
 1349SOL    HW1 4946   4.755   2.652   0.467
 1349SOL    HW2 4947   4.597   2.643   0.508
 1350SOL     OW 4948   3.632   0.311   5.017
 1350SOL    HW1 4949   3.717   0.295   5.066
 1350SOL    HW2 4950   3.628   0.406   4.985
 1351SOL     OW 4951   1.016   1.726   4.586
 1351SOL    HW1 4952   1.104   1.683   4.564
 1351SOL    HW2 4953   1.029   1.796   4.655
 1352SOL     OW 4954   0.825   6.710   4.048
 1352SOL    HW1 4955   0.878   6.664   4.120
 1352SOL    HW2 4956   0.805   6.803   4.077
 1353SOL     OW 4957   2.019   2.440   4.429
 1353SOL    HW1 4958   2.048   2.479   4.516
 1353SOL    HW2 4959   1.937   2.385   4.442
 1354SOL     OW 4960   0.345   6.659   0.644
 1354SOL    HW1 4961   0.281   6.582   0.632
 1354SOL    HW2 4962   0.301   6.731   0.696
 1355SOL     OW 4963   4.024   3.246   0.087
 1355SOL    HW1 4964   3.964   3.165   0.087
 1355SOL    HW2 4965   4.037   3.277   7.017
 1356SOL     OW 4966   3.175   2.801   1.647
 1356SOL    HW1 4967   3.205   2.855   1.726
 1356SOL    HW2 4968   3.152   2.863   1.572
 1357SOL     OW 4969   2.793   2.944   6.099
 1357SOL    HW1 4970   2.830   2.878   6.033
 1357SOL    HW2 4971   2.796   2.904   6.190
 1358SOL     OW 4972   2.064   3.780   5.812
 1358SOL    HW1 4973   2.112   3.758   5.727
 1358SOL    HW2 4974   2.131   3.811   5.880
 1359SOL     OW 4975   6.998   1.062   0.181
 1359SOL    HW1 4976   6.902   1.072   0.157
 1359SOL    HW2 4977   0.024   1.146   0.155
 1360SOL     OW 4978   3.355   2.897   4.226
 1360SOL    HW1 4979   3.306   2.981   4.202
 1360SOL    HW2 4980   3.289   2.826   4.251
 1361SOL     OW 4981   0.485   6.307   1.193
 1361SOL    HW1 4982   0.470   6.272   1.101
 1361SOL    HW2 4983   0.549   6.384   1.189
 1362SOL     OW 4984   3.199   1.986   6.615
 1362SOL    HW1 4985   3.158   2.075   6.635
 1362SOL    HW2 4986   3.285   1.977   6.667
 1363SOL     OW 4987   6.718   6.888   1.010
 1363SOL    HW1 4988   6.769   6.973   1.020
 1363SOL    HW2 4989   6.674   6.886   0.920
 1364SOL     OW 4990   1.193   3.921   1.026
 1364SOL    HW1 4991   1.202   4.021   1.024
 1364SOL    HW2 4992   1.212   3.884   0.935
 1365SOL     OW 4993   0.657   3.891   5.571
 1365SOL    HW1 4994   0.557   3.898   5.578
 1365SOL    HW2 4995   0.698   3.911   5.660
 1366SOL     OW 4996   4.170   0.478   1.256
 1366SOL    HW1 4997   4.164   0.446   1.350
 1366SOL    HW2 4998   4.220   0.411   1.201
 1367SOL     OW 4999   1.733   0.020   4.451
 1367SOL    HW1 5000   1.782   6.969   4.405
 1367SOL    HW2 5001   1.773   0.107   4.423
 1368SOL     OW 5002   1.341   6.881   4.694
 1368SOL    HW1 5003   1.245   6.861   4.713
 1368SOL    HW2 5004   1.391   6.795   4.684
 1369SOL     OW 5005   2.476   5.435   3.814
 1369SOL    HW1 5006   2.533   5.461   3.892
 1369SOL    HW2 5007   2.533   5.392   3.744
 1370SOL     OW 5008   6.799   2.464   2.955
 1370SOL    HW1 5009   6.755   2.428   2.872
 1370SOL    HW2 5010   6.807   2.392   3.023
 1371SOL     OW 5011   6.194   2.480   5.715
 1371SOL    HW1 5012   6.098   2.483   5.685
 1371SOL    HW2 5013   6.249   2.433   5.647
 1372SOL     OW 5014   5.604   2.907   1.365
 1372SOL    HW1 5015   5.562   2.971   1.300
 1372SOL    HW2 5016   5.542   2.894   1.442
 1373SOL     OW 5017   5.922   3.056   2.204
 1373SOL    HW1 5018   5.942   3.144   2.248
 1373SOL    HW2 5019   5.955   3.057   2.110
 1374SOL     OW 5020   3.808   3.580   1.837
 1374SOL    HW1 5021   3.708   3.577   1.850
 1374SOL    HW2 5022   3.852   3.518   1.901
 1375SOL     OW 5023   5.388   4.726   4.476
 1375SOL    HW1 5024   5.345   4.697   4.391
 1375SOL    HW2 5025   5.391   4.649   4.540
 1376SOL     OW 5026   3.069   4.613   6.032
 1376SOL    HW1 5027   2.997   4.604   5.964
 1376SOL    HW2 5028   3.133   4.537   6.023
 1377SOL     OW 5029   2.164   1.800   2.918
 1377SOL    HW1 5030   2.107   1.770   2.841
 1377SOL    HW2 5031   2.202   1.720   2.965
 1378SOL     OW 5032   5.506   2.560   4.293
 1378SOL    HW1 5033   5.436   2.631   4.294
 1378SOL    HW2 5034   5.596   2.602   4.286
 1379SOL     OW 5035   4.625   5.633   0.163
 1379SOL    HW1 5036   4.589   5.721   0.192
 1379SOL    HW2 5037   4.710   5.613   0.213
 1380SOL     OW 5038   0.172   5.954   2.570
 1380SOL    HW1 5039   0.206   6.013   2.643
 1380SOL    HW2 5040   0.091   5.995   2.528
 1381SOL     OW 5041   6.273   2.486   6.255
 1381SOL    HW1 5042   6.253   2.475   6.352
 1381SOL    HW2 5043   6.217   2.560   6.217
 1382SOL     OW 5044   5.023   2.345   6.791
 1382SOL    HW1 5045   5.064   2.302   6.871
 1382SOL    HW2 5046   4.991   2.437   6.816
 1383SOL     OW 5047   6.927   0.935   0.846
 1383SOL    HW1 5048   7.023   0.932   0.818
 1383SOL    HW2 5049   6.879   1.005   0.793
 1384SOL     OW 5050   5.964   1.757   1.897
 1384SOL    HW1 5051   6.061   1.782   1.897
 1384SOL    HW2 5052   5.910   1.832   1.935
 1385SOL     OW 5053   0.329   5.833   1.364
 1385SOL    HW1 5054   0.250   5.860   1.419
 1385SOL    HW2 5055   0.413   5.863   1.410
 1386SOL     OW 5056   2.031   5.709   4.168
 1386SOL    HW1 5057   2.018   5.625   4.116
 1386SOL    HW2 5058   2.010   5.788   4.110
 1387SOL     OW 5059   2.426   6.005   1.616
 1387SOL    HW1 5060   2.473   5.948   1.683
 1387SOL    HW2 5061   2.491   6.033   1.545
 1388SOL     OW 5062   6.593   0.328   1.965
 1388SOL    HW1 5063   6.615   0.367   1.875
 1388SOL    HW2 5064   6.653   0.368   2.034
 1389SOL     OW 5065   6.287   1.138   2.223
 1389SOL    HW1 5066   6.191   1.114   2.240
 1389SOL    HW2 5067   6.307   1.226   2.264
 1390SOL     OW 5068   1.461   1.759   4.894
 1390SOL    HW1 5069   1.512   1.811   4.825
 1390SOL    HW2 5070   1.454   1.813   4.978
 1391SOL     OW 5071   0.117   2.970   3.350
 1391SOL    HW1 5072   0.052   2.968   3.275
 1391SOL    HW2 5073   0.185   2.897   3.337
 1392SOL     OW 5074   4.857   4.465   4.466
 1392SOL    HW1 5075   4.859   4.489   4.563
 1392SOL    HW2 5076   4.766   4.431   4.442
 1393SOL     OW 5077   3.475   5.875   6.295
 1393SOL    HW1 5078   3.484   5.970   6.325
 1393SOL    HW2 5079   3.556   5.823   6.322
 1394SOL     OW 5080   1.400   6.017   6.493
 1394SOL    HW1 5081   1.431   5.975   6.408
 1394SOL    HW2 5082   1.373   6.112   6.476
 1395SOL     OW 5083   3.418   4.512   5.965
 1395SOL    HW1 5084   3.440   4.575   5.891
 1395SOL    HW2 5085   3.407   4.563   6.050
 1396SOL     OW 5086   6.193   6.092   3.888
 1396SOL    HW1 5087   6.135   6.174   3.885
 1396SOL    HW2 5088   6.201   6.053   3.797
 1397SOL     OW 5089   4.540   5.954   5.865
 1397SOL    HW1 5090   4.606   6.027   5.880
 1397SOL    HW2 5091   4.461   5.991   5.815
 1398SOL     OW 5092   2.154   0.915   4.318
 1398SOL    HW1 5093   2.134   0.985   4.249
 1398SOL    HW2 5094   2.230   0.946   4.376
 1399SOL     OW 5095   3.431   6.016   1.810
 1399SOL    HW1 5096   3.362   6.068   1.761
 1399SOL    HW2 5097   3.432   6.045   1.906
 1400SOL     OW 5098   2.060   6.343   2.277
 1400SOL    HW1 5099   2.089   6.340   2.373
 1400SOL    HW2 5100   2.085   6.257   2.232
 1401SOL     OW 5101   6.693   1.515   4.430
 1401SOL    HW1 5102   6.779   1.548   4.468
 1401SOL    HW2 5103   6.711   1.448   4.359
 1402SOL     OW 5104   6.650   3.230   0.345
 1402SOL    HW1 5105   6.744   3.212   0.315
 1402SOL    HW2 5106   6.640   3.204   0.441
 1403SOL     OW 5107   3.363   0.386   2.330
 1403SOL    HW1 5108   3.323   0.303   2.291
 1403SOL    HW2 5109   3.460   0.390   2.309
 1404SOL     OW 5110   5.647   1.510   0.615
 1404SOL    HW1 5111   5.576   1.451   0.653
 1404SOL    HW2 5112   5.707   1.541   0.689
 1405SOL     OW 5113   3.358   2.890   1.199
 1405SOL    HW1 5114   3.421   2.941   1.258
 1405SOL    HW2 5115   3.345   2.798   1.235
 1406SOL     OW 5116   1.704   4.312   1.410
 1406SOL    HW1 5117   1.661   4.247   1.473
 1406SOL    HW2 5118   1.799   4.285   1.394
 1407SOL     OW 5119   6.248   2.552   3.225
 1407SOL    HW1 5120   6.183   2.616   3.185
 1407SOL    HW2 5121   6.250   2.564   3.325
 1408SOL     OW 5122   6.093   0.384   6.057
 1408SOL    HW1 5123   6.125   0.426   6.142
 1408SOL    HW2 5124   6.010   0.330   6.075
 1409SOL     OW 5125   0.430   2.006   4.631
 1409SOL    HW1 5126   0.469   2.003   4.539
 1409SOL    HW2 5127   0.338   1.966   4.630
 1410SOL     OW 5128   6.988   3.100   0.037
 1410SOL    HW1 5129   6.967   3.179   0.095
 1410SOL    HW2 5130   6.925   3.025   0.059
 1411SOL     OW 5131   1.658   0.213   1.535
 1411SOL    HW1 5132   1.617   0.132   1.491
 1411SOL    HW2 5133   1.621   0.223   1.627
 1412SOL     OW 5134   1.213   3.129   0.160
 1412SOL    HW1 5135   1.142   3.060   0.154
 1412SOL    HW2 5136   1.297   3.094   0.119
 1413SOL     OW 5137   2.901   0.224   3.965
 1413SOL    HW1 5138   2.875   0.157   3.895
 1413SOL    HW2 5139   2.946   0.177   4.040
 1414SOL     OW 5140   3.193   0.925   1.638
 1414SOL    HW1 5141   3.104   0.879   1.646
 1414SOL    HW2 5142   3.196   0.978   1.554
 1415SOL     OW 5143   4.328   6.120   6.012
 1415SOL    HW1 5144   4.306   6.082   5.922
 1415SOL    HW2 5145   4.367   6.048   6.069
 1416SOL     OW 5146   4.765   5.562   3.434
 1416SOL    HW1 5147   4.755   5.639   3.372
 1416SOL    HW2 5148   4.757   5.593   3.529
 1417SOL     OW 5149   3.485   2.560   6.158
 1417SOL    HW1 5150   3.575   2.574   6.200
 1417SOL    HW2 5151   3.432   2.496   6.213
 1418SOL     OW 5152   3.200   4.105   2.893
 1418SOL    HW1 5153   3.145   4.143   2.819
 1418SOL    HW2 5154   3.196   4.005   2.890
 1419SOL     OW 5155   4.599   6.400   4.664
 1419SOL    HW1 5156   4.679   6.344   4.682
 1419SOL    HW2 5157   4.577   6.455   4.744
 1420SOL     OW 5158   0.064   5.424   2.149
 1420SOL    HW1 5159   0.086   5.457   2.240
 1420SOL    HW2 5160   6.996   5.455   2.123
 1421SOL     OW 5161   3.589   1.107   2.965
 1421SOL    HW1 5162   3.606   1.205   2.956
 1421SOL    HW2 5163   3.674   1.057   2.949
 1422SOL     OW 5164   2.815   6.593   0.019
 1422SOL    HW1 5165   2.883   6.660   7.013
 1422SOL    HW2 5166   2.861   6.517   0.064
 1423SOL     OW 5167   5.032   0.334   2.487
 1423SOL    HW1 5168   5.120   0.379   2.499
 1423SOL    HW2 5169   4.974   0.352   2.566
 1424SOL     OW 5170   6.315   4.955   2.963
 1424SOL    HW1 5171   6.323   5.048   2.926
 1424SOL    HW2 5172   6.245   4.905   2.913
 1425SOL     OW 5173   2.066   7.004   4.930
 1425SOL    HW1 5174   2.111   0.034   5.003
 1425SOL    HW2 5175   2.058   6.909   4.959
 1426SOL     OW 5176   1.569   1.220   5.625
 1426SOL    HW1 5177   1.658   1.251   5.592
 1426SOL    HW2 5178   1.499   1.247   5.558
 1427SOL     OW 5179   6.108   0.844   4.732
 1427SOL    HW1 5180   6.100   0.758   4.682
 1427SOL    HW2 5181   6.048   0.842   4.812
 1428SOL     OW 5182   5.497   1.041   0.161
 1428SOL    HW1 5183   5.440   1.112   0.119
 1428SOL    HW2 5184   5.591   1.049   0.127
 1429SOL     OW 5185   5.633   0.205   0.398
 1429SOL    HW1 5186   5.709   0.150   0.363
 1429SOL    HW2 5187   5.660   0.301   0.401
 1430SOL     OW 5188   2.170   4.544   4.080
 1430SOL    HW1 5189   2.192   4.541   3.983
 1430SOL    HW2 5190   2.169   4.639   4.112
 1431SOL     OW 5191   1.315   0.548   1.187
 1431SOL    HW1 5192   1.355   0.460   1.213
 1431SOL    HW2 5193   1.388   0.610   1.160
 1432SOL     OW 5194   2.901   0.322   1.925
 1432SOL    HW1 5195   2.845   0.340   1.844
 1432SOL    HW2 5196   2.997   0.341   1.903
 1433SOL     OW 5197   4.665   0.804   4.054
 1433SOL    HW1 5198   4.589   0.846   4.103
 1433SOL    HW2 5199   4.748   0.809   4.109
 1434SOL     OW 5200   0.837   0.972   5.053
 1434SOL    HW1 5201   0.755   0.934   5.010
 1434SOL    HW2 5202   0.847   0.935   5.145
 1435SOL     OW 5203   7.019   1.639   3.252
 1435SOL    HW1 5204   6.989   1.659   3.158
 1435SOL    HW2 5205   6.939   1.623   3.309
 1436SOL     OW 5206   3.935   3.862   0.724
 1436SOL    HW1 5207   4.027   3.889   0.697
 1436SOL    HW2 5208   3.899   3.796   0.657
 1437SOL     OW 5209   3.875   0.921   2.184
 1437SOL    HW1 5210   3.928   0.839   2.162
 1437SOL    HW2 5211   3.865   0.977   2.101
 1438SOL     OW 5212   2.143   0.789   1.157
 1438SOL    HW1 5213   2.093   0.862   1.111
 1438SOL    HW2 5214   2.080   0.714   1.179
 1439SOL     OW 5215   0.617   5.431   3.028
 1439SOL    HW1 5216   0.614   5.494   3.105
 1439SOL    HW2 5217   0.712   5.406   3.009
 1440SOL     OW 5218   2.496   3.079   1.702
 1440SOL    HW1 5219   2.444   3.018   1.761
 1440SOL    HW2 5220   2.593   3.076   1.727
 1441SOL     OW 5221   4.890   6.041   0.800
 1441SOL    HW1 5222   4.954   5.969   0.772
 1441SOL    HW2 5223   4.821   6.052   0.729
 1442SOL     OW 5224   5.114   5.965   0.465
 1442SOL    HW1 5225   5.071   5.895   0.408
 1442SOL    HW2 5226   5.083   6.055   0.435
 1443SOL     OW 5227   0.241   2.867   2.814
 1443SOL    HW1 5228   0.313   2.811   2.853
 1443SOL    HW2 5229   0.154   2.845   2.857
 1444SOL     OW 5230   0.266   4.956   6.759
 1444SOL    HW1 5231   0.237   4.977   6.853
 1444SOL    HW2 5232   0.185   4.938   6.703
 1445SOL     OW 5233   1.098   3.816   1.511
 1445SOL    HW1 5234   1.138   3.801   1.420
 1445SOL    HW2 5235   1.013   3.866   1.501
 1446SOL     OW 5236   6.315   6.587   1.057
 1446SOL    HW1 5237   6.392   6.636   1.099
 1446SOL    HW2 5238   6.265   6.649   0.997
 1447SOL     OW 5239   5.456   5.343   4.529
 1447SOL    HW1 5240   5.453   5.432   4.484
 1447SOL    HW2 5241   5.406   5.347   4.615
 1448SOL     OW 5242   0.929   2.889   5.635
 1448SOL    HW1 5243   0.837   2.906   5.668
 1448SOL    HW2 5244   0.967   2.972   5.595
 1449SOL     OW 5245   2.166   3.105   3.222
 1449SOL    HW1 5246   2.118   3.096   3.134
 1449SOL    HW2 5247   2.188   3.201   3.238
 1450SOL     OW 5248   2.627   2.258   3.638
 1450SOL    HW1 5249   2.528   2.251   3.650
 1450SOL    HW2 5250   2.647   2.316   3.559
 1451SOL     OW 5251   2.808   1.108   2.670
 1451SOL    HW1 5252   2.893   1.119   2.722
 1451SOL    HW2 5253   2.825   1.130   2.573
 1452SOL     OW 5254   5.151   3.108   6.727
 1452SOL    HW1 5255   5.091   3.083   6.804
 1452SOL    HW2 5256   5.148   3.035   6.659
 1453SOL     OW 5257   6.706   4.550   5.515
 1453SOL    HW1 5258   6.786   4.500   5.481
 1453SOL    HW2 5259   6.649   4.579   5.438
 1454SOL     OW 5260   3.327   2.102   3.391
 1454SOL    HW1 5261   3.240   2.131   3.430
 1454SOL    HW2 5262   3.320   2.007   3.360
 1455SOL     OW 5263   0.540   5.966   1.929
 1455SOL    HW1 5264   0.568   6.019   2.009
 1455SOL    HW2 5265   0.529   6.028   1.851
 1456SOL     OW 5266   6.393   5.148   4.225
 1456SOL    HW1 5267   6.315   5.119   4.281
 1456SOL    HW2 5268   6.462   5.191   4.283
 1457SOL     OW 5269   1.160   5.330   6.133
 1457SOL    HW1 5270   1.221   5.311   6.209
 1457SOL    HW2 5271   1.078   5.376   6.167
 1458SOL     OW 5272   5.132   5.185   5.074
 1458SOL    HW1 5273   5.155   5.282   5.074
 1458SOL    HW2 5274   5.143   5.148   5.167
 1459SOL     OW 5275   5.743   6.653   5.381
 1459SOL    HW1 5276   5.677   6.649   5.306
 1459SOL    HW2 5277   5.741   6.744   5.423
 1460SOL     OW 5278   1.167   6.660   4.950
 1460SOL    HW1 5279   1.166   6.562   4.930
 1460SOL    HW2 5280   1.106   6.707   4.885
 1461SOL     OW 5281   6.749   3.236   3.982
 1461SOL    HW1 5282   6.753   3.169   3.908
 1461SOL    HW2 5283   6.835   3.287   3.986
 1462SOL     OW 5284   0.382   1.069   1.511
 1462SOL    HW1 5285   0.371   1.117   1.598
 1462SOL    HW2 5286   0.368   0.971   1.526
 1463SOL     OW 5287   2.224   5.460   6.922
 1463SOL    HW1 5288   2.229   5.551   6.882
 1463SOL    HW2 5289   2.187   5.396   6.855
 1464SOL     OW 5290   1.077   4.309   4.046
 1464SOL    HW1 5291   1.049   4.373   4.118
 1464SOL    HW2 5292   1.049   4.217   4.071
 1465SOL     OW 5293   1.072   3.233   4.324
 1465SOL    HW1 5294   1.100   3.303   4.259
 1465SOL    HW2 5295   0.985   3.259   4.366
 1466SOL     OW 5296   5.526   2.247   2.846
 1466SOL    HW1 5297   5.453   2.247   2.777
 1466SOL    HW2 5298   5.486   2.239   2.937
 1467SOL     OW 5299   0.702   0.832   3.851
 1467SOL    HW1 5300   0.714   0.924   3.889
 1467SOL    HW2 5301   0.789   0.800   3.813
 1468SOL     OW 5302   2.985   5.387   2.418
 1468SOL    HW1 5303   3.083   5.403   2.432
 1468SOL    HW2 5304   2.936   5.403   2.503
 1469SOL     OW 5305   6.218   3.852   3.418
 1469SOL    HW1 5306   6.118   3.851   3.424
 1469SOL    HW2 5307   6.256   3.882   3.506
 1470SOL     OW 5308   6.013   1.882   2.193
 1470SOL    HW1 5309   5.936   1.926   2.240
 1470SOL    HW2 5310   6.075   1.952   2.157
 1471SOL     OW 5311   4.412   6.839   1.273
 1471SOL    HW1 5312   4.428   6.792   1.186
 1471SOL    HW2 5313   4.320   6.877   1.274
 1472SOL     OW 5314   1.632   0.268   6.187
 1472SOL    HW1 5315   1.723   0.310   6.191
 1472SOL    HW2 5316   1.604   0.259   6.091
 1473SOL     OW 5317   1.578   5.600   3.750
 1473SOL    HW1 5318   1.626   5.687   3.763
 1473SOL    HW2 5319   1.485   5.607   3.787
 1474SOL     OW 5320   2.791   4.916   1.146
 1474SOL    HW1 5321   2.752   4.988   1.088
 1474SOL    HW2 5322   2.830   4.958   1.229
 1475SOL     OW 5323   5.448   0.382   6.126
 1475SOL    HW1 5324   5.459   0.387   6.225
 1475SOL    HW2 5325   5.510   0.313   6.089
 1476SOL     OW 5326   4.969   0.813   0.230
 1476SOL    HW1 5327   5.002   0.902   0.262
 1476SOL    HW2 5328   5.045   0.763   0.189
 1477SOL     OW 5329   3.385   4.707   1.448
 1477SOL    HW1 5330   3.458   4.669   1.393
 1477SOL    HW2 5331   3.365   4.646   1.524
 1478SOL     OW 5332   4.562   5.255   6.908
 1478SOL    HW1 5333   4.604   5.345   6.922
 1478SOL    HW2 5334   4.467   5.258   6.936
 1479SOL     OW 5335   4.073   3.399   1.261
 1479SOL    HW1 5336   4.126   3.401   1.346
 1479SOL    HW2 5337   4.061   3.305   1.231
 1480SOL     OW 5338   3.035   0.338   4.274
 1480SOL    HW1 5339   2.941   0.305   4.261
 1480SOL    HW2 5340   3.033   0.419   4.333
 1481SOL     OW 5341   5.063   2.929   6.137
 1481SOL    HW1 5342   5.087   2.862   6.068
 1481SOL    HW2 5343   5.012   2.884   6.211
 1482SOL     OW 5344   5.445   1.386   1.345
 1482SOL    HW1 5345   5.530   1.333   1.337
 1482SOL    HW2 5346   5.381   1.355   1.275
 1483SOL     OW 5347   5.751   1.050   0.041
 1483SOL    HW1 5348   5.785   1.132   7.019
 1483SOL    HW2 5349   5.738   0.977   6.997
 1484SOL     OW 5350   3.677   5.465   5.423
 1484SOL    HW1 5351   3.732   5.532   5.473
 1484SOL    HW2 5352   3.705   5.465   5.327
 1485SOL     OW 5353   5.197   2.872   3.549
 1485SOL    HW1 5354   5.185   2.812   3.470
 1485SOL    HW2 5355   5.234   2.960   3.518
 1486SOL     OW 5356   4.882   6.377   3.698
 1486SOL    HW1 5357   4.855   6.468   3.731
 1486SOL    HW2 5358   4.826   6.308   3.742
 1487SOL     OW 5359   6.824   0.835   0.399
 1487SOL    HW1 5360   6.878   0.824   0.316
 1487SOL    HW2 5361   6.883   0.862   0.475
 1488SOL     OW 5362   6.561   2.154   2.717
 1488SOL    HW1 5363   6.590   2.148   2.621
 1488SOL    HW2 5364   6.611   2.087   2.771
 1489SOL     OW 5365   2.865   4.430   0.474
 1489SOL    HW1 5366   2.879   4.486   0.556
 1489SOL    HW2 5367   2.767   4.416   0.459
 1490SOL     OW 5368   6.318   2.296   1.998
 1490SOL    HW1 5369   6.286   2.367   2.061
 1490SOL    HW2 5370   6.409   2.319   1.965
 1491SOL     OW 5371   6.016   2.495   4.244
 1491SOL    HW1 5372   6.012   2.466   4.340
 1491SOL    HW2 5373   5.928   2.532   4.217
 1492SOL     OW 5374   6.108   1.312   3.374
 1492SOL    HW1 5375   6.093   1.407   3.346
 1492SOL    HW2 5376   6.186   1.275   3.324
 1493SOL     OW 5377   5.863   1.577   6.025
 1493SOL    HW1 5378   5.824   1.499   5.975
 1493SOL    HW2 5379   5.810   1.659   6.003
 1494SOL     OW 5380   6.464   4.817   6.201
 1494SOL    HW1 5381   6.534   4.756   6.239
 1494SOL    HW2 5382   6.387   4.762   6.168
 1495SOL     OW 5383   6.513   4.060   4.188
 1495SOL    HW1 5384   6.559   4.106   4.113
 1495SOL    HW2 5385   6.417   4.090   4.192
 1496SOL     OW 5386   6.067   6.388   5.747
 1496SOL    HW1 5387   6.031   6.403   5.839
 1496SOL    HW2 5388   6.135   6.458   5.726
 1497SOL     OW 5389   6.240   2.464   2.204
 1497SOL    HW1 5390   6.274   2.557   2.221
 1497SOL    HW2 5391   6.152   2.452   2.250
 1498SOL     OW 5392   3.322   3.524   0.683
 1498SOL    HW1 5393   3.312   3.459   0.759
 1498SOL    HW2 5394   3.368   3.606   0.715
 1499SOL     OW 5395   0.244   4.351   4.391
 1499SOL    HW1 5396   0.252   4.360   4.490
 1499SOL    HW2 5397   0.269   4.438   4.348
 1500SOL     OW 5398   0.464   5.850   2.290
 1500SOL    HW1 5399   0.491   5.937   2.248
 1500SOL    HW2 5400   0.465   5.778   2.222
 1501SOL     OW 5401   6.054   1.586   0.389
 1501SOL    HW1 5402   6.036   1.544   0.301
 1501SOL    HW2 5403   6.114   1.665   0.377
 1502SOL     OW 5404   6.306   0.303   5.919
 1502SOL    HW1 5405   6.223   0.326   5.970
 1502SOL    HW2 5406   6.386   0.315   5.979
 1503SOL     OW 5407   0.547   4.631   1.056
 1503SOL    HW1 5408   0.508   4.628   1.148
 1503SOL    HW2 5409   0.604   4.550   1.041
 1504SOL     OW 5410   1.975   6.764   2.373
 1504SOL    HW1 5411   1.953   6.734   2.280
 1504SOL    HW2 5412   1.931   6.702   2.439
 1505SOL     OW 5413   6.449   5.117   4.895
 1505SOL    HW1 5414   6.394   5.076   4.968
 1505SOL    HW2 5415   6.423   5.214   4.884
 1506SOL     OW 5416   0.686   1.197   0.661
 1506SOL    HW1 5417   0.726   1.115   0.701
 1506SOL    HW2 5418   0.667   1.263   0.734
 1507SOL     OW 5419   1.870   2.527   3.790
 1507SOL    HW1 5420   1.808   2.531   3.711
 1507SOL    HW2 5421   1.861   2.438   3.835
 1508SOL     OW 5422   1.918   0.918   1.359
 1508SOL    HW1 5423   1.966   0.965   1.285
 1508SOL    HW2 5424   1.917   0.820   1.340
 1509SOL     OW 5425   4.862   1.199   4.453
 1509SOL    HW1 5426   4.887   1.270   4.387
 1509SOL    HW2 5427   4.810   1.240   4.528
 1510SOL     OW 5428   3.530   6.278   4.564
 1510SOL    HW1 5429   3.492   6.363   4.529
 1510SOL    HW2 5430   3.455   6.214   4.584
 1511SOL     OW 5431   3.145   3.570   5.197
 1511SOL    HW1 5432   3.067   3.587   5.256
 1511SOL    HW2 5433   3.127   3.607   5.105
 1512SOL     OW 5434   5.574   6.812   0.939
 1512SOL    HW1 5435   5.597   6.716   0.920
 1512SOL    HW2 5436   5.643   6.850   1.000
 1513SOL     OW 5437   2.155   0.174   5.926
 1513SOL    HW1 5438   2.063   0.211   5.931
 1513SOL    HW2 5439   2.152   0.080   5.891
 1514SOL     OW 5440   3.092   2.794   6.334
 1514SOL    HW1 5441   3.162   2.838   6.278
 1514SOL    HW2 5442   3.033   2.738   6.277
 1515SOL     OW 5443   4.324   0.602   2.188
 1515SOL    HW1 5444   4.409   0.621   2.140
 1515SOL    HW2 5445   4.323   0.651   2.275
 1516SOL     OW 5446   5.730   6.897   5.516
 1516SOL    HW1 5447   5.670   6.849   5.579
 1516SOL    HW2 5448   5.826   6.882   5.542
 1517SOL     OW 5449   3.323   6.324   4.073
 1517SOL    HW1 5450   3.246   6.304   4.133
 1517SOL    HW2 5451   3.347   6.242   4.020
 1518SOL     OW 5452   0.724   3.232   6.501
 1518SOL    HW1 5453   0.780   3.194   6.575
 1518SOL    HW2 5454   0.745   3.183   6.416
 1519SOL     OW 5455   6.826   5.168   7.005
 1519SOL    HW1 5456   6.888   5.231   6.959
 1519SOL    HW2 5457   6.826   5.186   0.079
 1520SOL     OW 5458   0.561   6.414   3.114
 1520SOL    HW1 5459   0.639   6.440   3.172
 1520SOL    HW2 5460   0.590   6.342   3.051
 1521SOL     OW 5461   2.346   5.126   6.114
 1521SOL    HW1 5462   2.349   5.209   6.169
 1521SOL    HW2 5463   2.351   5.046   6.174
 1522SOL     OW 5464   6.106   6.079   4.148
 1522SOL    HW1 5465   6.137   6.094   4.054
 1522SOL    HW2 5466   6.006   6.078   4.150
 1523SOL     OW 5467   3.680   6.405   0.799
 1523SOL    HW1 5468   3.715   6.491   0.762
 1523SOL    HW2 5469   3.581   6.399   0.784
 1524SOL     OW 5470   2.137   1.573   3.067
 1524SOL    HW1 5471   2.138   1.502   2.997
 1524SOL    HW2 5472   2.231   1.602   3.086
 1525SOL     OW 5473   5.669   4.501   0.006
 1525SOL    HW1 5474   5.695   4.597   0.018
 1525SOL    HW2 5475   5.712   4.465   6.947
 1526SOL     OW 5476   1.130   1.726   0.732
 1526SOL    HW1 5477   1.056   1.660   0.730
 1526SOL    HW2 5478   1.145   1.757   0.826
 1527SOL     OW 5479   4.453   1.918   3.222
 1527SOL    HW1 5480   4.459   1.982   3.145
 1527SOL    HW2 5481   4.368   1.936   3.273
 1528SOL     OW 5482   3.476   4.002   2.215
 1528SOL    HW1 5483   3.558   3.960   2.253
 1528SOL    HW2 5484   3.412   3.931   2.187
 1529SOL     OW 5485   4.517   1.657   5.905
 1529SOL    HW1 5486   4.598   1.624   5.954
 1529SOL    HW2 5487   4.460   1.711   5.967
 1530SOL     OW 5488   2.920   6.533   1.014
 1530SOL    HW1 5489   2.906   6.510   0.918
 1530SOL    HW2 5490   2.898   6.629   1.029
 1531SOL     OW 5491   4.716   6.570   4.484
 1531SOL    HW1 5492   4.731   6.529   4.394
 1531SOL    HW2 5493   4.675   6.502   4.545
 1532SOL     OW 5494   3.633   5.337   0.029
 1532SOL    HW1 5495   3.536   5.312   0.034
 1532SOL    HW2 5496   3.645   5.406   6.981
 1533SOL     OW 5497   5.711   5.903   1.206
 1533SOL    HW1 5498   5.651   5.978   1.179
 1533SOL    HW2 5499   5.656   5.828   1.241
 1534SOL     OW 5500   3.145   4.257   6.756
 1534SOL    HW1 5501   3.199   4.337   6.781
 1534SOL    HW2 5502   3.100   4.273   6.668
 1535SOL     OW 5503   5.623   4.667   3.867
 1535SOL    HW1 5504   5.649   4.763   3.876
 1535SOL    HW2 5505   5.610   4.627   3.958
 1536SOL     OW 5506   4.876   3.595   6.790
 1536SOL    HW1 5507   4.838   3.603   6.698
 1536SOL    HW2 5508   4.883   3.686   6.832
 1537SOL     OW 5509   2.621   5.241   2.821
 1537SOL    HW1 5510   2.656   5.270   2.732
 1537SOL    HW2 5511   2.560   5.311   2.858
 1538SOL     OW 5512   2.670   1.476   0.718
 1538SOL    HW1 5513   2.643   1.467   0.623
 1538SOL    HW2 5514   2.632   1.400   0.771
 1539SOL     OW 5515   5.846   3.377   0.900
 1539SOL    HW1 5516   5.884   3.329   0.980
 1539SOL    HW2 5517   5.921   3.411   0.843
 1540SOL     OW 5518   3.552   0.184   3.477
 1540SOL    HW1 5519   3.475   0.194   3.414
 1540SOL    HW2 5520   3.523   0.209   3.569
 1541SOL     OW 5521   3.806   3.080   6.050
 1541SOL    HW1 5522   3.894   3.099   6.093
 1541SOL    HW2 5523   3.740   3.054   6.119
 1542SOL     OW 5524   0.336   6.227   2.290
 1542SOL    HW1 5525   0.314   6.324   2.300
 1542SOL    HW2 5526   0.266   6.172   2.336
 1543SOL     OW 5527   3.073   4.772   0.455
 1543SOL    HW1 5528   3.163   4.798   0.490
 1543SOL    HW2 5529   3.007   4.774   0.530
 1544SOL     OW 5530   3.844   3.390   3.784
 1544SOL    HW1 5531   3.827   3.486   3.808
 1544SOL    HW2 5532   3.808   3.371   3.692
 1545SOL     OW 5533   5.851   5.931   1.653
 1545SOL    HW1 5534   5.793   5.868   1.705
 1545SOL    HW2 5535   5.912   5.979   1.716
 1546SOL     OW 5536   5.710   6.223   5.933
 1546SOL    HW1 5537   5.653   6.142   5.944
 1546SOL    HW2 5538   5.806   6.196   5.929
 1547SOL     OW 5539   1.965   3.040   6.312
 1547SOL    HW1 5540   1.895   3.109   6.295
 1547SOL    HW2 5541   2.041   3.080   6.362
 1548SOL     OW 5542   6.652   2.166   0.387
 1548SOL    HW1 5543   6.619   2.073   0.370
 1548SOL    HW2 5544   6.574   2.226   0.406
 1549SOL     OW 5545   5.187   1.051   4.741
 1549SOL    HW1 5546   5.268   1.011   4.783
 1549SOL    HW2 5547   5.170   1.141   4.782
 1550SOL     OW 5548   3.903   3.001   4.400
 1550SOL    HW1 5549   3.880   3.011   4.496
 1550SOL    HW2 5550   3.923   2.905   4.380
 1551SOL     OW 5551   6.818   4.828   5.428
 1551SOL    HW1 5552   6.722   4.803   5.434
 1551SOL    HW2 5553   6.875   4.747   5.445
 1552SOL     OW 5554   2.128   4.145   1.051
 1552SOL    HW1 5555   2.219   4.143   1.092
 1552SOL    HW2 5556   2.129   4.205   0.971
 1553SOL     OW 5557   2.000   1.377   5.937
 1553SOL    HW1 5558   2.067   1.436   5.891
 1553SOL    HW2 5559   1.940   1.433   5.994
 1554SOL     OW 5560   3.629   1.934   4.000
 1554SOL    HW1 5561   3.562   1.978   3.941
 1554SOL    HW2 5562   3.599   1.941   4.096
 1555SOL     OW 5563   6.150   4.421   6.331
 1555SOL    HW1 5564   6.164   4.386   6.424
 1555SOL    HW2 5565   6.138   4.343   6.268
 1556SOL     OW 5566   2.174   0.847   5.873
 1556SOL    HW1 5567   2.159   0.751   5.895
 1556SOL    HW2 5568   2.194   0.898   5.957
 1557SOL     OW 5569   0.091   2.964   5.378
 1557SOL    HW1 5570   0.185   2.935   5.360
 1557SOL    HW2 5571   0.050   2.905   5.447
 1558SOL     OW 5572   0.371   0.019   4.718
 1558SOL    HW1 5573   0.374   7.020   4.815
 1558SOL    HW2 5574   0.285   0.066   4.697
 1559SOL     OW 5575   1.331   1.555   6.329
 1559SOL    HW1 5576   1.377   1.573   6.416
 1559SOL    HW2 5577   1.375   1.608   6.257
 1560SOL     OW 5578   6.977   0.385   6.560
 1560SOL    HW1 5579   6.954   0.468   6.610
 1560SOL    HW2 5580   7.019   0.319   6.622
 1561SOL     OW 5581   5.652   5.825   1.816
 1561SOL    HW1 5582   5.605   5.885   1.881
 1561SOL    HW2 5583   5.588   5.796   1.745
 1562SOL     OW 5584   6.308   0.707   3.834
 1562SOL    HW1 5585   6.214   0.694   3.866
 1562SOL    HW2 5586   6.369   0.708   3.913
 1563SOL     OW 5587   3.823   6.955   5.091
 1563SOL    HW1 5588   3.802   6.892   5.166
 1563SOL    HW2 5589   3.828   6.904   5.005
 1564SOL     OW 5590   0.852   2.272   2.387
 1564SOL    HW1 5591   0.752   2.270   2.390
 1564SOL    HW2 5592   0.887   2.324   2.465
 1565SOL     OW 5593   5.859   4.656   1.282
 1565SOL    HW1 5594   5.898   4.744   1.255
 1565SOL    HW2 5595   5.864   4.647   1.381
 1566SOL     OW 5596   6.142   4.612   3.362
 1566SOL    HW1 5597   6.235   4.649   3.356
 1566SOL    HW2 5598   6.146   4.512   3.363
 1567SOL     OW 5599   6.036   5.810   5.144
 1567SOL    HW1 5600   5.948   5.782   5.183
 1567SOL    HW2 5601   6.087   5.729   5.116
 1568SOL     OW 5602   0.661   0.027   0.122
 1568SOL    HW1 5603   0.644   0.052   0.026
 1568SOL    HW2 5604   0.662   0.110   0.178
 1569SOL     OW 5605   3.518   6.544   5.082
 1569SOL    HW1 5606   3.471   6.542   4.994
 1569SOL    HW2 5607   3.563   6.456   5.097
 1570SOL     OW 5608   3.276   1.951   1.916
 1570SOL    HW1 5609   3.229   2.011   1.851
 1570SOL    HW2 5610   3.273   1.992   2.008
 1571SOL     OW 5611   0.003   3.760   1.056
 1571SOL    HW1 5612   7.010   3.743   1.153
 1571SOL    HW2 5613   6.977   3.693   1.002
 1572SOL     OW 5614   1.475   5.894   2.620
 1572SOL    HW1 5615   1.380   5.925   2.615
 1572SOL    HW2 5616   1.528   5.958   2.675
 1573SOL     OW 5617   3.859   0.491   0.672
 1573SOL    HW1 5618   3.811   0.445   0.747
 1573SOL    HW2 5619   3.801   0.490   0.591
 1574SOL     OW 5620   6.041   2.634   2.340
 1574SOL    HW1 5621   6.028   2.692   2.421
 1574SOL    HW2 5622   6.008   2.542   2.360
 1575SOL     OW 5623   3.120   2.158   0.507
 1575SOL    HW1 5624   3.217   2.155   0.483
 1575SOL    HW2 5625   3.090   2.067   0.537
 1576SOL     OW 5626   6.288   6.008   3.659
 1576SOL    HW1 5627   6.341   6.070   3.601
 1576SOL    HW2 5628   6.348   5.967   3.728
 1577SOL     OW 5629   1.583   0.516   0.140
 1577SOL    HW1 5630   1.491   0.477   0.149
 1577SOL    HW2 5631   1.647   0.462   0.195
 1578SOL     OW 5632   5.615   5.707   4.400
 1578SOL    HW1 5633   5.662   5.692   4.313
 1578SOL    HW2 5634   5.670   5.668   4.474
 1579SOL     OW 5635   0.309   6.892   3.111
 1579SOL    HW1 5636   0.298   6.876   3.209
 1579SOL    HW2 5637   0.398   6.857   3.082
 1580SOL     OW 5638   3.157   3.728   5.845
 1580SOL    HW1 5639   3.245   3.680   5.837
 1580SOL    HW2 5640   3.172   3.826   5.837
 1581SOL     OW 5641   6.598   4.070   3.860
 1581SOL    HW1 5642   6.648   4.016   3.793
 1581SOL    HW2 5643   6.512   4.025   3.883
 1582SOL     OW 5644   6.329   5.711   4.810
 1582SOL    HW1 5645   6.289   5.648   4.744
 1582SOL    HW2 5646   6.400   5.766   4.766
 1583SOL     OW 5647   2.597   1.706   2.477
 1583SOL    HW1 5648   2.641   1.689   2.389
 1583SOL    HW2 5649   2.503   1.737   2.463
 1584SOL     OW 5650   1.935   0.478   6.184
 1584SOL    HW1 5651   1.966   0.412   6.252
 1584SOL    HW2 5652   1.887   0.553   6.229
 1585SOL     OW 5653   5.839   1.226   5.429
 1585SOL    HW1 5654   5.938   1.215   5.418
 1585SOL    HW2 5655   5.808   1.170   5.507
 1586SOL     OW 5656   3.895   3.990   3.034
 1586SOL    HW1 5657   3.801   3.970   3.062
 1586SOL    HW2 5658   3.952   4.002   3.116
 1587SOL     OW 5659   2.304   6.271   6.362
 1587SOL    HW1 5660   2.388   6.217   6.359
 1587SOL    HW2 5661   2.305   6.330   6.442
 1588SOL     OW 5662   5.969   3.687   1.400
 1588SOL    HW1 5663   5.987   3.642   1.313
 1588SOL    HW2 5664   5.967   3.787   1.386
 1589SOL     OW 5665   5.144   4.168   3.616
 1589SOL    HW1 5666   5.072   4.213   3.668
 1589SOL    HW2 5667   5.213   4.235   3.587
 1590SOL     OW 5668   1.783   6.790   5.230
 1590SOL    HW1 5669   1.726   6.797   5.148
 1590SOL    HW2 5670   1.764   6.868   5.290
 1591SOL     OW 5671   0.627   4.089   1.165
 1591SOL    HW1 5672   0.715   4.044   1.149
 1591SOL    HW2 5673   0.601   4.140   1.083
 1592SOL     OW 5674   3.052   3.852   3.562
 1592SOL    HW1 5675   3.067   3.951   3.567
 1592SOL    HW2 5676   3.015   3.820   3.649
 1593SOL     OW 5677   1.149   5.130   5.065
 1593SOL    HW1 5678   1.089   5.052   5.082
 1593SOL    HW2 5679   1.218   5.105   4.996
 1594SOL     OW 5680   0.873   4.855   3.230
 1594SOL    HW1 5681   0.871   4.940   3.282
 1594SOL    HW2 5682   0.937   4.791   3.273
 1595SOL     OW 5683   0.095   5.175   5.797
 1595SOL    HW1 5684   0.022   5.107   5.796
 1595SOL    HW2 5685   0.177   5.136   5.756
 1596SOL     OW 5686   2.710   4.826   6.994
 1596SOL    HW1 5687   2.742   4.732   6.998
 1596SOL    HW2 5688   2.679   4.855   0.061
 1597SOL     OW 5689   2.600   6.733   0.725
 1597SOL    HW1 5690   2.596   6.650   0.781
 1597SOL    HW2 5691   2.507   6.763   0.703
 1598SOL     OW 5692   6.850   5.661   1.688
 1598SOL    HW1 5693   6.912   5.658   1.610
 1598SOL    HW2 5694   6.852   5.572   1.735
 1599SOL     OW 5695   3.289   4.819   0.578
 1599SOL    HW1 5696   3.336   4.807   0.666
 1599SOL    HW2 5697   3.304   4.912   0.545
 1600SOL     OW 5698   3.357   1.347   5.042
 1600SOL    HW1 5699   3.280   1.388   5.092
 1600SOL    HW2 5700   3.326   1.319   4.951
 1601SOL     OW 5701   0.947   4.908   5.130
 1601SOL    HW1 5702   0.860   4.911   5.080
 1601SOL    HW2 5703   1.004   4.835   5.093
 1602SOL     OW 5704   0.190   4.425   2.228
 1602SOL    HW1 5705   0.269   4.437   2.167
 1602SOL    HW2 5706   0.181   4.328   2.252
 1603SOL     OW 5707   5.882   6.515   1.075
 1603SOL    HW1 5708   5.883   6.415   1.062
 1603SOL    HW2 5709   5.813   6.539   1.142
 1604SOL     OW 5710   0.102   5.773   5.258
 1604SOL    HW1 5711   0.128   5.733   5.346
 1604SOL    HW2 5712   0.182   5.817   5.216
 1605SOL     OW 5713   5.195   6.582   2.983
 1605SOL    HW1 5714   5.154   6.673   2.983
 1605SOL    HW2 5715   5.277   6.583   3.040
 1606SOL     OW 5716   4.985   0.049   5.431
 1606SOL    HW1 5717   5.004   6.974   5.421
 1606SOL    HW2 5718   4.894   0.069   5.396
 1607SOL     OW 5719   4.986   3.124   0.799
 1607SOL    HW1 5720   4.926   3.204   0.806
 1607SOL    HW2 5721   5.068   3.148   0.748
 1608SOL     OW 5722   2.230   0.344   0.669
 1608SOL    HW1 5723   2.328   0.334   0.655
 1608SOL    HW2 5724   2.191   0.256   0.695
 1609SOL     OW 5725   5.308   1.314   5.593
 1609SOL    HW1 5726   5.274   1.374   5.521
 1609SOL    HW2 5727   5.285   1.219   5.571
 1610SOL     OW 5728   5.826   6.368   4.148
 1610SOL    HW1 5729   5.836   6.269   4.137
 1610SOL    HW2 5730   5.743   6.388   4.200
 1611SOL     OW 5731   3.762   2.893   1.322
 1611SOL    HW1 5732   3.821   2.874   1.244
 1611SOL    HW2 5733   3.687   2.827   1.323
 1612SOL     OW 5734   3.330   1.011   4.297
 1612SOL    HW1 5735   3.291   1.017   4.388
 1612SOL    HW2 5736   3.430   1.005   4.304
 1613SOL     OW 5737   1.415   6.701   1.005
 1613SOL    HW1 5738   1.438   6.775   0.942
 1613SOL    HW2 5739   1.492   6.637   1.011
 1614SOL     OW 5740   0.720   2.961   6.332
 1614SOL    HW1 5741   0.758   3.024   6.265
 1614SOL    HW2 5742   0.620   2.966   6.331
 1615SOL     OW 5743   6.082   4.959   6.042
 1615SOL    HW1 5744   6.050   4.867   6.019
 1615SOL    HW2 5745   6.070   4.975   6.140
 1616SOL     OW 5746   2.320   1.682   5.333
 1616SOL    HW1 5747   2.392   1.750   5.346
 1616SOL    HW2 5748   2.353   1.592   5.362
 1617SOL     OW 5749   4.640   0.540   3.997
 1617SOL    HW1 5750   4.642   0.640   4.008
 1617SOL    HW2 5751   4.730   0.507   3.970
 1618SOL     OW 5752   5.829   2.060   1.521
 1618SOL    HW1 5753   5.794   2.064   1.614
 1618SOL    HW2 5754   5.815   1.968   1.484
 1619SOL     OW 5755   2.144   2.654   4.550
 1619SOL    HW1 5756   2.137   2.653   4.450
 1619SOL    HW2 5757   2.231   2.694   4.577
 1620SOL     OW 5758   3.677   5.716   1.814
 1620SOL    HW1 5759   3.707   5.635   1.765
 1620SOL    HW2 5760   3.757   5.770   1.840
 1621SOL     OW 5761   2.035   1.507   1.773
 1621SOL    HW1 5762   1.976   1.429   1.791
 1621SOL    HW2 5763   2.108   1.511   1.841
 1622SOL     OW 5764   2.099   2.152   4.696
 1622SOL    HW1 5765   2.113   2.240   4.740
 1622SOL    HW2 5766   2.012   2.113   4.724
 1623SOL     OW 5767   2.774   2.346   4.668
 1623SOL    HW1 5768   2.690   2.390   4.636
 1623SOL    HW2 5769   2.766   2.326   4.765
 1624SOL     OW 5770   2.465   0.572   0.508
 1624SOL    HW1 5771   2.396   0.628   0.554
 1624SOL    HW2 5772   2.456   0.477   0.538
 1625SOL     OW 5773   0.196   5.464   2.416
 1625SOL    HW1 5774   0.148   5.436   2.499
 1625SOL    HW2 5775   0.278   5.408   2.403
 1626SOL     OW 5776   2.036   3.098   5.934
 1626SOL    HW1 5777   2.051   3.182   5.985
 1626SOL    HW2 5778   2.092   3.099   5.851
 1627SOL     OW 5779   5.207   3.359   4.010
 1627SOL    HW1 5780   5.294   3.313   4.030
 1627SOL    HW2 5781   5.133   3.313   4.059
 1628SOL     OW 5782   2.995   3.112   0.370
 1628SOL    HW1 5783   3.083   3.122   0.323
 1628SOL    HW2 5784   2.984   3.187   0.436
 1629SOL     OW 5785   3.866   2.108   3.071
 1629SOL    HW1 5786   3.801   2.032   3.061
 1629SOL    HW2 5787   3.833   2.187   3.021
 1630SOL     OW 5788   6.994   4.922   4.888
 1630SOL    HW1 5789   6.962   4.882   4.802
 1630SOL    HW2 5790   0.069   4.909   4.896
 1631SOL     OW 5791   0.440   6.532   5.694
 1631SOL    HW1 5792   0.406   6.487   5.777
 1631SOL    HW2 5793   0.494   6.467   5.641
 1632SOL     OW 5794   4.991   6.919   1.079
 1632SOL    HW1 5795   4.963   7.005   1.121
 1632SOL    HW2 5796   5.083   6.929   1.041
 1633SOL     OW 5797   5.700   3.076   3.558
 1633SOL    HW1 5798   5.717   3.030   3.646
 1633SOL    HW2 5799   5.731   3.017   3.484
 1634SOL     OW 5800   3.773   0.829   0.124
 1634SOL    HW1 5801   3.719   0.908   0.152
 1634SOL    HW2 5802   3.847   0.814   0.188
 1635SOL     OW 5803   0.734   5.138   4.607
 1635SOL    HW1 5804   0.818   5.130   4.552
 1635SOL    HW2 5805   0.655   5.146   4.547
 1636SOL     OW 5806   2.687   6.550   1.207
 1636SOL    HW1 5807   2.784   6.546   1.184
 1636SOL    HW2 5808   2.647   6.633   1.168
 1637SOL     OW 5809   0.231   3.134   2.745
 1637SOL    HW1 5810   0.326   3.148   2.774
 1637SOL    HW2 5811   0.218   3.038   2.719
 1638SOL     OW 5812   1.363   2.872   5.593
 1638SOL    HW1 5813   1.387   2.965   5.619
 1638SOL    HW2 5814   1.411   2.848   5.508
 1639SOL     OW 5815   4.749   4.535   2.775
 1639SOL    HW1 5816   4.834   4.532   2.722
 1639SOL    HW2 5817   4.713   4.442   2.785
 1640SOL     OW 5818   5.436   0.498   1.373
 1640SOL    HW1 5819   5.397   0.483   1.464
 1640SOL    HW2 5820   5.523   0.547   1.382
 1641SOL     OW 5821   6.769   2.888   5.440
 1641SOL    HW1 5822   6.868   2.891   5.427
 1641SOL    HW2 5823   6.726   2.860   5.354
 1642SOL     OW 5824   0.345   2.155   1.296
 1642SOL    HW1 5825   0.351   2.212   1.377
 1642SOL    HW2 5826   0.348   2.212   1.214
 1643SOL     OW 5827   3.721   0.631   6.103
 1643SOL    HW1 5828   3.694   0.704   6.165
 1643SOL    HW2 5829   3.805   0.589   6.135
 1644SOL     OW 5830   2.976   0.437   0.690
 1644SOL    HW1 5831   2.983   0.534   0.665
 1644SOL    HW2 5832   3.068   0.398   0.701
 1645SOL     OW 5833   2.086   6.523   6.009
 1645SOL    HW1 5834   2.149   6.571   6.070
 1645SOL    HW2 5835   2.103   6.425   6.015
 1646SOL     OW 5836   1.428   3.849   0.354
 1646SOL    HW1 5837   1.338   3.841   0.312
 1646SOL    HW2 5838   1.470   3.759   0.362
 1647SOL     OW 5839   5.985   2.868   3.638
 1647SOL    HW1 5840   6.029   2.937   3.581
 1647SOL    HW2 5841   5.931   2.913   3.710
 1648SOL     OW 5842   4.093   0.152   2.329
 1648SOL    HW1 5843   4.167   0.166   2.264
 1648SOL    HW2 5844   4.082   0.234   2.385
 1649SOL     OW 5845   2.843   6.822   2.934
 1649SOL    HW1 5846   2.861   6.855   3.027
 1649SOL    HW2 5847   2.924   6.776   2.899
 1650SOL     OW 5848   3.515   6.858   3.716
 1650SOL    HW1 5849   3.581   6.884   3.786
 1650SOL    HW2 5850   3.431   6.910   3.729
 1651SOL     OW 5851   1.491   7.019   1.449
 1651SOL    HW1 5852   1.499   6.967   1.364
 1651SOL    HW2 5853   1.423   6.975   1.507
 1652SOL     OW 5854   2.797   3.071   1.393
 1652SOL    HW1 5855   2.871   3.047   1.330
 1652SOL    HW2 5856   2.833   3.080   1.486
 1653SOL     OW 5857   1.295   5.092   0.755
 1653SOL    HW1 5858   1.300   4.996   0.727
 1653SOL    HW2 5859   1.205   5.110   0.795
 1654SOL     OW 5860   0.238   2.194   3.270
 1654SOL    HW1 5861   0.189   2.121   3.318
 1654SOL    HW2 5862   0.315   2.155   3.220
 1655SOL     OW 5863   4.678   4.833   5.769
 1655SOL    HW1 5864   4.665   4.774   5.690
 1655SOL    HW2 5865   4.687   4.928   5.738
 1656SOL     OW 5866   0.580   4.311   3.070
 1656SOL    HW1 5867   0.554   4.215   3.055
 1656SOL    HW2 5868   0.501   4.370   3.056
 1657SOL     OW 5869   0.947   0.591   4.921
 1657SOL    HW1 5870   0.858   0.586   4.876
 1657SOL    HW2 5871   0.944   0.537   5.005
 1658SOL     OW 5872   6.330   6.503   2.450
 1658SOL    HW1 5873   6.301   6.410   2.471
 1658SOL    HW2 5874   6.345   6.554   2.534
 1659SOL     OW 5875   4.805   1.740   6.224
 1659SOL    HW1 5876   4.747   1.784   6.292
 1659SOL    HW2 5877   4.888   1.795   6.210
 1660SOL     OW 5878   1.935   6.143   3.113
 1660SOL    HW1 5879   1.999   6.173   3.184
 1660SOL    HW2 5880   1.955   6.191   3.028
 1661SOL     OW 5881   3.224   0.066   2.390
 1661SOL    HW1 5882   3.277   0.102   2.314
 1661SOL    HW2 5883   3.128   0.090   2.378
 1662SOL     OW 5884   0.161   0.293   2.886
 1662SOL    HW1 5885   0.122   0.212   2.931
 1662SOL    HW2 5886   0.233   0.331   2.943
 1663SOL     OW 5887   2.361   6.939   3.735
 1663SOL    HW1 5888   2.301   7.008   3.775
 1663SOL    HW2 5889   2.399   6.973   3.649
 1664SOL     OW 5890   2.520   5.379   4.186
 1664SOL    HW1 5891   2.489   5.309   4.251
 1664SOL    HW2 5892   2.553   5.336   4.103
 1665SOL     OW 5893   1.057   0.474   4.552
 1665SOL    HW1 5894   1.080   0.446   4.458
 1665SOL    HW2 5895   1.138   0.515   4.595
 1666SOL     OW 5896   5.431   3.859   6.891
 1666SOL    HW1 5897   5.449   3.806   6.809
 1666SOL    HW2 5898   5.333   3.861   6.911
 1667SOL     OW 5899   6.772   0.927   6.492
 1667SOL    HW1 5900   6.829   0.974   6.560
 1667SOL    HW2 5901   6.718   0.995   6.442
 1668SOL     OW 5902   2.645   0.419   4.823
 1668SOL    HW1 5903   2.657   0.325   4.855
 1668SOL    HW2 5904   2.555   0.452   4.850
 1669SOL     OW 5905   6.042   6.697   6.524
 1669SOL    HW1 5906   6.060   6.604   6.555
 1669SOL    HW2 5907   6.007   6.695   6.430
 1670SOL     OW 5908   5.999   3.827   6.369
 1670SOL    HW1 5909   6.002   3.899   6.437
 1670SOL    HW2 5910   5.907   3.821   6.330
 1671SOL     OW 5911   6.306   4.595   0.327
 1671SOL    HW1 5912   6.351   4.656   0.262
 1671SOL    HW2 5913   6.240   4.646   0.381
 1672SOL     OW 5914   2.184   5.195   1.892
 1672SOL    HW1 5915   2.204   5.156   1.803
 1672SOL    HW2 5916   2.124   5.133   1.943
 1673SOL     OW 5917   6.662   2.043   3.644
 1673SOL    HW1 5918   6.566   2.027   3.621
 1673SOL    HW2 5919   6.720   2.010   3.570
 1674SOL     OW 5920   2.234   5.175   6.433
 1674SOL    HW1 5921   2.305   5.114   6.398
 1674SOL    HW2 5922   2.240   5.263   6.385
 1675SOL     OW 5923   4.465   2.457   0.723
 1675SOL    HW1 5924   4.546   2.412   0.759
 1675SOL    HW2 5925   4.474   2.468   0.624
 1676SOL     OW 5926   2.414   1.304   3.923
 1676SOL    HW1 5927   2.503   1.339   3.891
 1676SOL    HW2 5928   2.386   1.228   3.865
 1677SOL     OW 5929   6.360   0.860   5.424
 1677SOL    HW1 5930   6.450   0.902   5.442
 1677SOL    HW2 5931   6.368   0.761   5.430
 1678SOL     OW 5932   4.595   0.044   1.305
 1678SOL    HW1 5933   4.530   6.996   1.328
 1678SOL    HW2 5934   4.623   0.034   1.209
 1679SOL     OW 5935   6.097   4.178   0.558
 1679SOL    HW1 5936   6.048   4.264   0.542
 1679SOL    HW2 5937   6.169   4.167   0.489
 1680SOL     OW 5938   1.548   2.557   4.988
 1680SOL    HW1 5939   1.471   2.610   5.024
 1680SOL    HW2 5940   1.524   2.460   4.986
 1681SOL     OW 5941   4.770   5.460   0.881
 1681SOL    HW1 5942   4.756   5.521   0.959
 1681SOL    HW2 5943   4.720   5.496   0.802
 1682SOL     OW 5944   6.560   3.679   5.540
 1682SOL    HW1 5945   6.653   3.665   5.574
 1682SOL    HW2 5946   6.558   3.668   5.441
 1683SOL     OW 5947   5.540   6.249   6.876
 1683SOL    HW1 5948   5.588   6.167   6.907
 1683SOL    HW2 5949   5.598   6.301   6.813
 1684SOL     OW 5950   0.454   5.929   4.917
 1684SOL    HW1 5951   0.479   6.023   4.943
 1684SOL    HW2 5952   0.534   5.870   4.924
 1685SOL     OW 5953   1.175   1.573   0.243
 1685SOL    HW1 5954   1.143   1.478   0.248
 1685SOL    HW2 5955   1.222   1.588   0.156
 1686SOL     OW 5956   2.087   5.606   6.607
 1686SOL    HW1 5957   2.171   5.579   6.559
 1686SOL    HW2 5958   2.111   5.642   6.698
 1687SOL     OW 5959   1.976   6.149   1.792
 1687SOL    HW1 5960   2.026   6.204   1.859
 1687SOL    HW2 5961   1.967   6.056   1.825
 1688SOL     OW 5962   0.222   1.914   4.156
 1688SOL    HW1 5963   0.180   1.905   4.066
 1688SOL    HW2 5964   0.314   1.951   4.147
 1689SOL     OW 5965   3.395   1.016   2.465
 1689SOL    HW1 5966   3.476   1.003   2.408
 1689SOL    HW2 5967   3.352   1.104   2.443
 1690SOL     OW 5968   0.638   2.385   0.900
 1690SOL    HW1 5969   0.721   2.439   0.885
 1690SOL    HW2 5970   0.560   2.431   0.858
 1691SOL     OW 5971   4.644   4.278   2.691
 1691SOL    HW1 5972   4.560   4.268   2.743
 1691SOL    HW2 5973   4.627   4.331   2.608
 1692SOL     OW 5974   1.528   0.008   3.286
 1692SOL    HW1 5975   1.555   0.048   3.198
 1692SOL    HW2 5976   1.433   6.999   3.280
 1693SOL     OW 5977   2.413   2.033   3.871
 1693SOL    HW1 5978   2.426   1.943   3.828
 1693SOL    HW2 5979   2.484   2.047   3.940
 1694SOL     OW 5980   4.714   6.183   5.915
 1694SOL    HW1 5981   4.746   6.188   6.010
 1694SOL    HW2 5982   4.651   6.258   5.898
 1695SOL     OW 5983   3.196   1.155   6.161
 1695SOL    HW1 5984   3.111   1.119   6.122
 1695SOL    HW2 5985   3.257   1.183   6.087
 1696SOL     OW 5986   3.396   5.531   1.682
 1696SOL    HW1 5987   3.335   5.606   1.656
 1696SOL    HW2 5988   3.434   5.489   1.600
 1697SOL     OW 5989   1.351   1.074   2.342
 1697SOL    HW1 5990   1.356   1.166   2.381
 1697SOL    HW2 5991   1.261   1.035   2.362
 1698SOL     OW 5992   5.379   1.715   0.923
 1698SOL    HW1 5993   5.417   1.802   0.894
 1698SOL    HW2 5994   5.332   1.671   0.846
 1699SOL     OW 5995   2.646   3.836   0.700
 1699SOL    HW1 5996   2.711   3.896   0.653
 1699SOL    HW2 5997   2.693   3.787   0.774
 1700SOL     OW 5998   6.310   2.929   4.908
 1700SOL    HW1 5999   6.223   2.938   4.958
 1700SOL    HW2 6000   6.300   2.969   4.817
 1701SOL     OW 6001   5.770   3.098   5.184
 1701SOL    HW1 6002   5.868   3.116   5.179
 1701SOL    HW2 6003   5.722   3.181   5.214
 1702SOL     OW 6004   4.840   2.998   1.742
 1702SOL    HW1 6005   4.831   3.092   1.707
 1702SOL    HW2 6006   4.797   2.992   1.832
 1703SOL     OW 6007   1.433   3.600   6.758
 1703SOL    HW1 6008   1.474   3.679   6.804
 1703SOL    HW2 6009   1.485   3.579   6.675
 1704SOL     OW 6010   0.435   0.584   1.734
 1704SOL    HW1 6011   0.361   0.546   1.789
 1704SOL    HW2 6012   0.500   0.632   1.794
 1705SOL     OW 6013   3.979   3.396   2.476
 1705SOL    HW1 6014   3.942   3.335   2.406
 1705SOL    HW2 6015   3.982   3.490   2.440
 1706SOL     OW 6016   2.332   0.493   6.509
 1706SOL    HW1 6017   2.378   0.474   6.596
 1706SOL    HW2 6018   2.400   0.508   6.438
 1707SOL     OW 6019   5.519   1.286   2.941
 1707SOL    HW1 6020   5.429   1.272   2.983
 1707SOL    HW2 6021   5.571   1.201   2.946
 1708SOL     OW 6022   0.412   4.570   1.650
 1708SOL    HW1 6023   0.511   4.580   1.634
 1708SOL    HW2 6024   0.363   4.622   1.580
 1709SOL     OW 6025   3.174   6.005   4.401
 1709SOL    HW1 6026   3.243   6.058   4.450
 1709SOL    HW2 6027   3.216   5.922   4.363
 1710SOL     OW 6028   0.394   5.886   4.228
 1710SOL    HW1 6029   0.370   5.957   4.295
 1710SOL    HW2 6030   0.400   5.798   4.274
 1711SOL     OW 6031   2.170   4.390   5.356
 1711SOL    HW1 6032   2.212   4.307   5.321
 1711SOL    HW2 6033   2.236   4.440   5.412
 1712SOL     OW 6034   1.800   4.712   0.993
 1712SOL    HW1 6035   1.852   4.668   0.920
 1712SOL    HW2 6036   1.846   4.698   1.081
 1713SOL     OW 6037   1.985   3.474   0.186
 1713SOL    HW1 6038   2.036   3.390   0.167
 1713SOL    HW2 6039   1.920   3.491   0.112
 1714SOL     OW 6040   3.873   1.705   1.342
 1714SOL    HW1 6041   3.910   1.698   1.249
 1714SOL    HW2 6042   3.774   1.697   1.339
 1715SOL     OW 6043   0.387   2.960   3.560
 1715SOL    HW1 6044   0.428   3.049   3.578
 1715SOL    HW2 6045   0.423   2.922   3.475
 1716SOL     OW 6046   6.844   0.196   0.050
 1716SOL    HW1 6047   6.770   0.263   0.057
 1716SOL    HW2 6048   6.818   0.123   7.011
 1717SOL     OW 6049   3.031   0.245   0.279
 1717SOL    HW1 6050   2.959   0.260   0.211
 1717SOL    HW2 6051   2.991   0.244   0.371
 1718SOL     OW 6052   1.193   4.685   5.719
 1718SOL    HW1 6053   1.135   4.604   5.709
 1718SOL    HW2 6054   1.150   4.749   5.782
 1719SOL     OW 6055   2.286   3.405   1.574
 1719SOL    HW1 6056   2.199   3.410   1.623
 1719SOL    HW2 6057   2.287   3.475   1.502
 1720SOL     OW 6058   6.650   1.233   2.615
 1720SOL    HW1 6059   6.594   1.246   2.697
 1720SOL    HW2 6060   6.667   1.136   2.602
 1721SOL     OW 6061   1.742   6.203   3.457
 1721SOL    HW1 6062   1.680   6.150   3.399
 1721SOL    HW2 6063   1.691   6.275   3.503
 1722SOL     OW 6064   5.567   6.909   1.551
 1722SOL    HW1 6065   5.601   6.815   1.543
 1722SOL    HW2 6066   5.468   6.910   1.537
 1723SOL     OW 6067   6.030   0.882   2.837
 1723SOL    HW1 6068   5.958   0.914   2.775
 1723SOL    HW2 6069   6.081   0.808   2.793
 1724SOL     OW 6070   5.204   0.704   0.129
 1724SOL    HW1 6071   5.200   0.721   0.030
 1724SOL    HW2 6072   5.298   0.718   0.161
 1725SOL     OW 6073   4.105   5.180   2.068
 1725SOL    HW1 6074   4.033   5.195   2.136
 1725SOL    HW2 6075   4.136   5.269   2.032
 1726SOL     OW 6076   0.268   4.079   4.374
 1726SOL    HW1 6077   0.367   4.071   4.379
 1726SOL    HW2 6078   0.241   4.175   4.373
 1727SOL     OW 6079   3.160   3.168   5.538
 1727SOL    HW1 6080   3.143   3.266   5.522
 1727SOL    HW2 6081   3.203   3.129   5.456
 1728SOL     OW 6082   4.220   4.743   3.713
 1728SOL    HW1 6083   4.165   4.816   3.752
 1728SOL    HW2 6084   4.186   4.720   3.621
 1729SOL     OW 6085   2.101   3.424   2.650
 1729SOL    HW1 6086   2.064   3.482   2.723
 1729SOL    HW2 6087   2.124   3.480   2.571
 1730SOL     OW 6088   5.857   2.338   4.647
 1730SOL    HW1 6089   5.940   2.316   4.596
 1730SOL    HW2 6090   5.778   2.296   4.602
 1731SOL     OW 6091   1.006   5.923   0.272
 1731SOL    HW1 6092   1.086   5.970   0.236
 1731SOL    HW2 6093   1.022   5.824   0.271
 1732SOL     OW 6094   0.597   4.776   6.950
 1732SOL    HW1 6095   0.610   4.790   6.852
 1732SOL    HW2 6096   0.641   4.691   6.978
 1733SOL     OW 6097   1.420   4.194   0.486
 1733SOL    HW1 6098   1.399   4.108   0.532
 1733SOL    HW2 6099   1.502   4.182   0.430
 1734SOL     OW 6100   4.750   3.326   1.139
 1734SOL    HW1 6101   4.654   3.349   1.127
 1734SOL    HW2 6102   4.802   3.409   1.159
 1735SOL     OW 6103   5.514   6.445   0.680
 1735SOL    HW1 6104   5.449   6.457   0.605
 1735SOL    HW2 6105   5.586   6.382   0.651
 1736SOL     OW 6106   3.114   3.623   0.205
 1736SOL    HW1 6107   3.165   3.697   0.160
 1736SOL    HW2 6108   3.044   3.588   0.143
 1737SOL     OW 6109   1.115   6.278   3.601
 1737SOL    HW1 6110   1.193   6.230   3.561
 1737SOL    HW2 6111   1.063   6.216   3.659
 1738SOL     OW 6112   1.159   1.673   1.643
 1738SOL    HW1 6113   1.153   1.584   1.598
 1738SOL    HW2 6114   1.236   1.724   1.605
 1739SOL     OW 6115   4.458   2.339   5.883
 1739SOL    HW1 6116   4.380   2.284   5.853
 1739SOL    HW2 6117   4.433   2.436   5.881
 1740SOL     OW 6118   0.875   1.050   5.564
 1740SOL    HW1 6119   0.878   0.992   5.645
 1740SOL    HW2 6120   0.907   1.142   5.588
 1741SOL     OW 6121   2.338   0.753   2.369
 1741SOL    HW1 6122   2.267   0.724   2.305
 1741SOL    HW2 6123   2.406   0.681   2.378
 1742SOL     OW 6124   6.247   6.160   4.578
 1742SOL    HW1 6125   6.274   6.068   4.549
 1742SOL    HW2 6126   6.157   6.182   4.539
 1743SOL     OW 6127   4.401   1.278   0.538
 1743SOL    HW1 6128   4.362   1.216   0.607
 1743SOL    HW2 6129   4.487   1.241   0.505
 1744SOL     OW 6130   3.141   0.041   1.815
 1744SOL    HW1 6131   3.138   0.137   1.844
 1744SOL    HW2 6132   3.222   0.027   1.757
 1745SOL     OW 6133   6.019   3.170   5.162
 1745SOL    HW1 6134   6.107   3.179   5.116
 1745SOL    HW2 6135   6.032   3.184   5.260
 1746SOL     OW 6136   2.488   0.919   5.609
 1746SOL    HW1 6137   2.440   0.913   5.522
 1746SOL    HW2 6138   2.520   0.828   5.637
 1747SOL     OW 6139   4.946   0.172   5.913
 1747SOL    HW1 6140   4.990   0.200   5.998
 1747SOL    HW2 6141   4.925   0.252   5.857
 1748SOL     OW 6142   5.922   1.677   1.650
 1748SOL    HW1 6143   6.005   1.635   1.613
 1748SOL    HW2 6144   5.940   1.711   1.742
 1749SOL     OW 6145   4.324   0.065   5.909
 1749SOL    HW1 6146   4.362   0.077   5.817
 1749SOL    HW2 6147   4.226   0.084   5.907
 1750SOL     OW 6148   4.899   0.362   3.750
 1750SOL    HW1 6149   4.972   0.427   3.729
 1750SOL    HW2 6150   4.871   0.374   3.845
 1751SOL     OW 6151   1.939   5.710   3.558
 1751SOL    HW1 6152   1.884   5.636   3.520
 1751SOL    HW2 6153   1.880   5.789   3.576
 1752SOL     OW 6154   6.708   2.097   6.848
 1752SOL    HW1 6155   6.802   2.068   6.870
 1752SOL    HW2 6156   6.696   2.192   6.877
 1753SOL     OW 6157   2.371   6.899   2.292
 1753SOL    HW1 6158   2.456   6.847   2.278
 1753SOL    HW2 6159   2.338   6.932   2.204
 1754SOL     OW 6160   3.856   2.497   1.482
 1754SOL    HW1 6161   3.952   2.513   1.505
 1754SOL    HW2 6162   3.840   2.399   1.471
 1755SOL     OW 6163   5.687   3.686   0.266
 1755SOL    HW1 6164   5.610   3.669   0.204
 1755SOL    HW2 6165   5.683   3.781   0.298
 1756SOL     OW 6166   5.753   5.587   4.634
 1756SOL    HW1 6167   5.674   5.575   4.693
 1756SOL    HW2 6168   5.835   5.599   4.690
 1757SOL     OW 6169   3.570   0.554   4.945
 1757SOL    HW1 6170   3.476   0.522   4.932
 1757SOL    HW2 6171   3.568   0.649   4.976
 1758SOL     OW 6172   2.646   1.600   3.283
 1758SOL    HW1 6173   2.659   1.503   3.268
 1758SOL    HW2 6174   2.718   1.652   3.237
 1759SOL     OW 6175   0.530   5.256   5.999
 1759SOL    HW1 6176   0.498   5.161   5.998
 1759SOL    HW2 6177   0.463   5.313   6.047
 1760SOL     OW 6178   5.032   0.701   2.006
 1760SOL    HW1 6179   5.088   0.692   2.088
 1760SOL    HW2 6180   4.949   0.752   2.028
 1761SOL     OW 6181   5.824   2.745   1.505
 1761SOL    HW1 6182   5.773   2.828   1.483
 1761SOL    HW2 6183   5.793   2.670   1.446
 1762SOL     OW 6184   5.778   2.807   0.786
 1762SOL    HW1 6185   5.805   2.896   0.823
 1762SOL    HW2 6186   5.765   2.743   0.862
 1763SOL     OW 6187   2.118   3.679   3.783
 1763SOL    HW1 6188   2.156   3.752   3.839
 1763SOL    HW2 6189   2.111   3.596   3.839
 1764SOL     OW 6190   6.528   2.947   4.465
 1764SOL    HW1 6191   6.497   2.995   4.383
 1764SOL    HW2 6192   6.468   2.971   4.542
 1765SOL     OW 6193   2.401   2.583   6.163
 1765SOL    HW1 6194   2.421   2.654   6.231
 1765SOL    HW2 6195   2.396   2.624   6.072
 1766SOL     OW 6196   6.212   3.117   5.532
 1766SOL    HW1 6197   6.148   3.041   5.527
 1766SOL    HW2 6198   6.173   3.196   5.485
 1767SOL     OW 6199   6.753   3.902   1.780
 1767SOL    HW1 6200   6.768   3.975   1.713
 1767SOL    HW2 6201   6.733   3.817   1.731
 1768SOL     OW 6202   5.713   6.595   3.698
 1768SOL    HW1 6203   5.776   6.671   3.681
 1768SOL    HW2 6204   5.722   6.564   3.793
 1769SOL     OW 6205   5.776   0.718   3.498
 1769SOL    HW1 6206   5.679   0.694   3.496
 1769SOL    HW2 6207   5.794   0.784   3.570
 1770SOL     OW 6208   3.290   5.272   4.774
 1770SOL    HW1 6209   3.296   5.175   4.799
 1770SOL    HW2 6210   3.351   5.289   4.696
 1771SOL     OW 6211   4.632   6.634   0.005
 1771SOL    HW1 6212   4.668   6.575   0.077
 1771SOL    HW2 6213   4.544   6.599   6.997
 1772SOL     OW 6214   3.208   6.193   2.915
 1772SOL    HW1 6215   3.277   6.144   2.969
 1772SOL    HW2 6216   3.250   6.273   2.871
 1773SOL     OW 6217   1.011   6.213   6.665
 1773SOL    HW1 6218   0.944   6.203   6.738
 1773SOL    HW2 6219   1.007   6.305   6.628
 1774SOL     OW 6220   3.243   5.014   2.366
 1774SOL    HW1 6221   3.264   4.957   2.286
 1774SOL    HW2 6222   3.185   4.962   2.429
 1775SOL     OW 6223   0.915   4.626   1.228
 1775SOL    HW1 6224   0.858   4.552   1.193
 1775SOL    HW2 6225   0.937   4.689   1.154
 1776SOL     OW 6226   2.966   5.922   5.430
 1776SOL    HW1 6227   2.894   5.903   5.497
 1776SOL    HW2 6228   2.928   5.978   5.356
 1777SOL     OW 6229   3.213   5.450   0.196
 1777SOL    HW1 6230   3.231   5.389   0.274
 1777SOL    HW2 6231   3.116   5.444   0.171
 1778SOL     OW 6232   6.475   3.982   5.786
 1778SOL    HW1 6233   6.543   3.987   5.713
 1778SOL    HW2 6234   6.496   3.905   5.846
 1779SOL     OW 6235   3.638   0.336   5.485
 1779SOL    HW1 6236   3.679   0.305   5.571
 1779SOL    HW2 6237   3.665   0.431   5.468
 1780SOL     OW 6238   3.633   3.562   6.786
 1780SOL    HW1 6239   3.715   3.575   6.731
 1780SOL    HW2 6240   3.614   3.465   6.795
 1781SOL     OW 6241   3.656   5.589   3.398
 1781SOL    HW1 6242   3.577   5.647   3.420
 1781SOL    HW2 6243   3.733   5.646   3.370
 1782SOL     OW 6244   3.404   1.764   4.245
 1782SOL    HW1 6245   3.447   1.681   4.209
 1782SOL    HW2 6246   3.363   1.744   4.334
 1783SOL     OW 6247   2.251   5.763   6.804
 1783SOL    HW1 6248   2.310   5.762   6.724
 1783SOL    HW2 6249   2.221   5.857   6.823
 1784SOL     OW 6250   3.589   6.442   5.755
 1784SOL    HW1 6251   3.514   6.460   5.817
 1784SOL    HW2 6252   3.657   6.516   5.762
 1785SOL     OW 6253   6.830   4.368   1.668
 1785SOL    HW1 6254   6.913   4.416   1.695
 1785SOL    HW2 6255   6.779   4.423   1.602
 1786SOL     OW 6256   4.018   2.207   1.082
 1786SOL    HW1 6257   4.080   2.132   1.057
 1786SOL    HW2 6258   3.938   2.169   1.128
 1787SOL     OW 6259   3.631   0.797   5.912
 1787SOL    HW1 6260   3.660   0.707   5.944
 1787SOL    HW2 6261   3.535   0.812   5.934
 1788SOL     OW 6262   1.605   4.633   6.088
 1788SOL    HW1 6263   1.670   4.642   6.163
 1788SOL    HW2 6264   1.646   4.579   6.014
 1789SOL     OW 6265   6.005   0.493   0.349
 1789SOL    HW1 6266   5.991   0.515   0.252
 1789SOL    HW2 6267   6.084   0.433   0.357
 1790SOL     OW 6268   3.351   6.824   2.977
 1790SOL    HW1 6269   3.304   6.898   2.930
 1790SOL    HW2 6270   3.385   6.757   2.910
 1791SOL     OW 6271   0.083   6.648   2.509
 1791SOL    HW1 6272   0.090   6.640   2.609
 1791SOL    HW2 6273   0.078   6.745   2.484
 1792SOL     OW 6274   1.176   4.008   5.479
 1792SOL    HW1 6275   1.252   4.072   5.484
 1792SOL    HW2 6276   1.157   3.986   5.384
 1793SOL     OW 6277   0.476   0.475   3.738
 1793SOL    HW1 6278   0.439   0.559   3.779
 1793SOL    HW2 6279   0.567   0.495   3.701
 1794SOL     OW 6280   4.609   6.229   6.214
 1794SOL    HW1 6281   4.623   6.319   6.173
 1794SOL    HW2 6282   4.538   6.235   6.284
 1795SOL     OW 6283   0.452   2.968   0.102
 1795SOL    HW1 6284   0.373   3.007   0.055
 1795SOL    HW2 6285   0.434   2.966   0.200
 1796SOL     OW 6286   3.308   0.340   6.348
 1796SOL    HW1 6287   3.222   0.307   6.310
 1796SOL    HW2 6288   3.366   0.261   6.370
 1797SOL     OW 6289   0.796   0.438   0.632
 1797SOL    HW1 6290   0.727   0.483   0.688
 1797SOL    HW2 6291   0.756   0.358   0.587
 1798SOL     OW 6292   5.864   2.493   3.476
 1798SOL    HW1 6293   5.844   2.398   3.502
 1798SOL    HW2 6294   5.914   2.537   3.551
 1799SOL     OW 6295   2.196   1.462   6.470
 1799SOL    HW1 6296   2.160   1.383   6.420
 1799SOL    HW2 6297   2.125   1.532   6.479
 1800SOL     OW 6298   4.173   5.022   2.307
 1800SOL    HW1 6299   4.153   4.930   2.274
 1800SOL    HW2 6300   4.166   5.087   2.230
 1801SOL     OW 6301   5.628   0.187   1.112
 1801SOL    HW1 6302   5.544   0.197   1.058
 1801SOL    HW2 6303   5.612   0.225   1.203
 1802SOL     OW 6304   5.409   5.399   4.065
 1802SOL    HW1 6305   5.339   5.409   4.135
 1802SOL    HW2 6306   5.493   5.446   4.094
 1803SOL     OW 6307   5.943   5.653   0.899
 1803SOL    HW1 6308   5.875   5.614   0.961
 1803SOL    HW2 6309   5.964   5.747   0.927
 1804SOL     OW 6310   3.288   3.247   5.972
 1804SOL    HW1 6311   3.262   3.301   5.893
 1804SOL    HW2 6312   3.211   3.190   6.001
 1805SOL     OW 6313   5.151   2.947   6.501
 1805SOL    HW1 6314   5.111   2.856   6.513
 1805SOL    HW2 6315   5.246   2.937   6.470
 1806SOL     OW 6316   0.293   0.628   0.793
 1806SOL    HW1 6317   0.234   0.706   0.811
 1806SOL    HW2 6318   0.336   0.599   0.879
 1807SOL     OW 6319   5.608   2.001   5.946
 1807SOL    HW1 6320   5.668   1.957   6.012
 1807SOL    HW2 6321   5.656   2.014   5.859
 1808SOL     OW 6322   2.070   4.312   4.193
 1808SOL    HW1 6323   2.098   4.407   4.178
 1808SOL    HW2 6324   2.151   4.257   4.215
 1809SOL     OW 6325   3.489   0.112   6.401
 1809SOL    HW1 6326   3.588   0.102   6.401
 1809SOL    HW2 6327   3.451   0.059   6.477
 1810SOL     OW 6328   3.645   5.973   2.718
 1810SOL    HW1 6329   3.591   5.896   2.684
 1810SOL    HW2 6330   3.638   5.977   2.818
 1811SOL     OW 6331   6.152   5.606   2.550
 1811SOL    HW1 6332   6.164   5.600   2.450
 1811SOL    HW2 6333   6.239   5.631   2.592
 1812SOL     OW 6334   4.341   5.422   6.672
 1812SOL    HW1 6335   4.352   5.324   6.657
 1812SOL    HW2 6336   4.269   5.457   6.612
 1813SOL     OW 6337   6.423   5.226   5.531
 1813SOL    HW1 6338   6.449   5.238   5.435
 1813SOL    HW2 6339   6.470   5.294   5.588
 1814SOL     OW 6340   5.185   6.369   2.459
 1814SOL    HW1 6341   5.266   6.393   2.405
 1814SOL    HW2 6342   5.171   6.438   2.531
 1815SOL     OW 6343   0.245   0.990   2.391
 1815SOL    HW1 6344   0.307   1.056   2.435
 1815SOL    HW2 6345   0.159   0.987   2.442
 1816SOL     OW 6346   1.220   4.170   0.283
 1816SOL    HW1 6347   1.271   4.159   0.368
 1816SOL    HW2 6348   1.190   4.265   0.273
 1817SOL     OW 6349   1.046   5.342   2.139
 1817SOL    HW1 6350   1.054   5.435   2.102
 1817SOL    HW2 6351   1.099   5.279   2.083
 1818SOL     OW 6352   2.257   0.902   2.899
 1818SOL    HW1 6353   2.159   0.920   2.909
 1818SOL    HW2 6354   2.283   0.826   2.957
 1819SOL     OW 6355   1.585   4.590   2.508
 1819SOL    HW1 6356   1.493   4.555   2.492
 1819SOL    HW2 6357   1.642   4.518   2.548
 1820SOL     OW 6358   5.526   0.489   2.537
 1820SOL    HW1 6359   5.472   0.460   2.617
 1820SOL    HW2 6360   5.591   0.560   2.565
 1821SOL     OW 6361   1.781   1.761   3.340
 1821SOL    HW1 6362   1.692   1.803   3.319
 1821SOL    HW2 6363   1.849   1.791   3.273
 1822SOL     OW 6364   3.891   3.696   1.596
 1822SOL    HW1 6365   3.840   3.642   1.662
 1822SOL    HW2 6366   3.902   3.644   1.511
 1823SOL     OW 6367   4.441   0.095   2.639
 1823SOL    HW1 6368   4.506   0.166   2.610
 1823SOL    HW2 6369   4.374   0.136   2.702
 1824SOL     OW 6370   5.411   2.562   1.633
 1824SOL    HW1 6371   5.352   2.491   1.673
 1824SOL    HW2 6372   5.371   2.594   1.546
 1825SOL     OW 6373   1.187   1.154   1.315
 1825SOL    HW1 6374   1.229   1.145   1.406
 1825SOL    HW2 6375   1.207   1.245   1.278
 1826SOL     OW 6376   3.020   6.273   6.531
 1826SOL    HW1 6377   2.992   6.367   6.512
 1826SOL    HW2 6378   3.016   6.257   6.630
 1827SOL     OW 6379   6.028   6.837   1.680
 1827SOL    HW1 6380   5.971   6.765   1.720
 1827SOL    HW2 6381   5.971   6.902   1.631
 1828SOL     OW 6382   1.818   2.182   0.334
 1828SOL    HW1 6383   1.837   2.280   0.336
 1828SOL    HW2 6384   1.746   2.162   0.268
 1829SOL     OW 6385   6.165   5.578   1.317
 1829SOL    HW1 6386   6.243   5.560   1.257
 1829SOL    HW2 6387   6.102   5.500   1.313
 1830SOL     OW 6388   5.594   6.139   3.817
 1830SOL    HW1 6389   5.685   6.179   3.810
 1830SOL    HW2 6390   5.530   6.207   3.852
 1831SOL     OW 6391   5.065   0.712   3.253
 1831SOL    HW1 6392   5.055   0.620   3.290
 1831SOL    HW2 6393   5.005   0.775   3.303
 1832SOL     OW 6394   5.124   2.866   0.536
 1832SOL    HW1 6395   5.033   2.834   0.510
 1832SOL    HW2 6396   5.193   2.804   0.500
 1833SOL     OW 6397   6.132   1.989   5.379
 1833SOL    HW1 6398   6.144   2.048   5.460
 1833SOL    HW2 6399   6.052   2.019   5.328
 1834SOL     OW 6400   2.953   3.343   0.827
 1834SOL    HW1 6401   2.883   3.405   0.792
 1834SOL    HW2 6402   2.997   3.295   0.751
 1835SOL     OW 6403   1.177   4.426   0.204
 1835SOL    HW1 6404   1.106   4.460   0.142
 1835SOL    HW2 6405   1.247   4.496   0.215
 1836SOL     OW 6406   0.592   5.869   0.438
 1836SOL    HW1 6407   0.525   5.853   0.364
 1836SOL    HW2 6408   0.546   5.913   0.515
 1837SOL     OW 6409   1.294   2.420   4.590
 1837SOL    HW1 6410   1.228   2.347   4.569
 1837SOL    HW2 6411   1.294   2.487   4.515
 1838SOL     OW 6412   0.422   2.724   3.739
 1838SOL    HW1 6413   0.434   2.808   3.687
 1838SOL    HW2 6414   0.454   2.738   3.833
 1839SOL     OW 6415   0.224   2.071   6.098
 1839SOL    HW1 6416   0.173   2.025   6.026
 1839SOL    HW2 6417   0.301   2.121   6.059
 1840SOL     OW 6418   1.605   5.059   0.439
 1840SOL    HW1 6419   1.673   5.036   0.508
 1840SOL    HW2 6420   1.570   4.976   0.397
 1841SOL     OW 6421   1.680   2.959   2.872
 1841SOL    HW1 6422   1.745   2.942   2.946
 1841SOL    HW2 6423   1.623   3.038   2.896
 1842SOL     OW 6424   1.018   4.748   6.937
 1842SOL    HW1 6425   1.109   4.761   6.897
 1842SOL    HW2 6426   1.027   4.741   0.013
 1843SOL     OW 6427   3.573   2.063   4.927
 1843SOL    HW1 6428   3.569   2.096   5.022
 1843SOL    HW2 6429   3.496   2.100   4.876
 1844SOL     OW 6430   5.230   3.718   3.731
 1844SOL    HW1 6431   5.266   3.674   3.813
 1844SOL    HW2 6432   5.134   3.743   3.747
 1845SOL     OW 6433   4.044   0.290   0.405
 1845SOL    HW1 6434   4.091   0.377   0.419
 1845SOL    HW2 6435   3.948   0.308   0.380
 1846SOL     OW 6436   3.225   1.148   5.575
 1846SOL    HW1 6437   3.249   1.224   5.515
 1846SOL    HW2 6438   3.289   1.144   5.651
 1847SOL     OW 6439   1.783   0.215   0.389
 1847SOL    HW1 6440   1.685   0.216   0.370
 1847SOL    HW2 6441   1.799   0.190   0.484
 1848SOL     OW 6442   3.039   6.620   2.369
 1848SOL    HW1 6443   3.115   6.670   2.411
 1848SOL    HW2 6444   2.992   6.679   2.304
 1849SOL     OW 6445   2.899   1.347   6.286
 1849SOL    HW1 6446   2.879   1.275   6.219
 1849SOL    HW2 6447   2.951   1.307   6.362
 1850SOL     OW 6448   5.656   1.426   1.895
 1850SOL    HW1 6449   5.611   1.349   1.940
 1850SOL    HW2 6450   5.740   1.449   1.945
 1851SOL     OW 6451   6.504   3.441   3.337
 1851SOL    HW1 6452   6.558   3.394   3.407
 1851SOL    HW2 6453   6.415   3.397   3.330
 1852SOL     OW 6454   5.425   3.284   6.916
 1852SOL    HW1 6455   5.404   3.266   6.820
 1852SOL    HW2 6456   5.523   3.275   6.931
 1853SOL     OW 6457   1.761   4.393   0.461
 1853SOL    HW1 6458   1.746   4.349   0.372
 1853SOL    HW2 6459   1.856   4.425   0.467
 1854SOL     OW 6460   3.116   5.172   3.782
 1854SOL    HW1 6461   3.151   5.090   3.826
 1854SOL    HW2 6462   3.185   5.244   3.785
 1855SOL     OW 6463   5.595   4.489   1.771
 1855SOL    HW1 6464   5.589   4.441   1.859
 1855SOL    HW2 6465   5.574   4.426   1.697
 1856SOL     OW 6466   4.828   3.074   6.009
 1856SOL    HW1 6467   4.911   3.030   6.042
 1856SOL    HW2 6468   4.784   3.015   5.941
 1857SOL     OW 6469   4.831   1.323   3.769
 1857SOL    HW1 6470   4.906   1.381   3.800
 1857SOL    HW2 6471   4.775   1.373   3.704
 1858SOL     OW 6472   5.192   3.848   3.447
 1858SOL    HW1 6473   5.275   3.903   3.437
 1858SOL    HW2 6474   5.196   3.798   3.534
 1859SOL     OW 6475   5.215   1.269   3.801
 1859SOL    HW1 6476   5.303   1.300   3.839
 1859SOL    HW2 6477   5.196   1.319   3.717
 1860SOL     OW 6478   4.332   1.927   5.257
 1860SOL    HW1 6479   4.357   1.848   5.314
 1860SOL    HW2 6480   4.243   1.963   5.287
 1861SOL     OW 6481   5.687   6.143   1.833
 1861SOL    HW1 6482   5.605   6.110   1.880
 1861SOL    HW2 6483   5.763   6.148   1.898
 1862SOL     OW 6484   1.542   1.622   0.513
 1862SOL    HW1 6485   1.477   1.673   0.458
 1862SOL    HW2 6486   1.545   1.527   0.482
 1863SOL     OW 6487   2.277   2.688   1.837
 1863SOL    HW1 6488   2.227   2.648   1.760
 1863SOL    HW2 6489   2.344   2.754   1.803
 1864SOL     OW 6490   1.158   6.724   3.806
 1864SOL    HW1 6491   1.081   6.759   3.754
 1864SOL    HW2 6492   1.155   6.761   3.899
 1865SOL     OW 6493   5.240   2.263   6.523
 1865SOL    HW1 6494   5.168   2.193   6.529
 1865SOL    HW2 6495   5.204   2.350   6.557
 1866SOL     OW 6496   5.423   5.468   2.665
 1866SOL    HW1 6497   5.386   5.538   2.726
 1866SOL    HW2 6498   5.515   5.443   2.695
 1867SOL     OW 6499   1.108   4.728   6.504
 1867SOL    HW1 6500   1.165   4.739   6.422
 1867SOL    HW2 6501   1.013   4.751   6.482
 1868SOL     OW 6502   6.117   4.211   5.770
 1868SOL    HW1 6503   6.053   4.278   5.733
 1868SOL    HW2 6504   6.195   4.201   5.708
 1869SOL     OW 6505   6.027   1.328   4.655
 1869SOL    HW1 6506   6.048   1.320   4.752
 1869SOL    HW2 6507   6.059   1.416   4.621
 1870SOL     OW 6508   2.440   4.414   4.492
 1870SOL    HW1 6509   2.497   4.467   4.554
 1870SOL    HW2 6510   2.376   4.358   4.544
 1871SOL     OW 6511   1.314   0.190   1.034
 1871SOL    HW1 6512   1.260   0.116   1.073
 1871SOL    HW2 6513   1.299   0.194   0.935
 1872SOL     OW 6514   2.432   4.872   0.141
 1872SOL    HW1 6515   2.377   4.812   0.200
 1872SOL    HW2 6516   2.523   4.882   0.179
 1873SOL     OW 6517   5.020   0.892   0.654
 1873SOL    HW1 6518   5.104   0.912   0.706
 1873SOL    HW2 6519   5.035   0.913   0.557
 1874SOL     OW 6520   1.370   3.598   2.820
 1874SOL    HW1 6521   1.292   3.563   2.769
 1874SOL    HW2 6522   1.405   3.680   2.776
 1875SOL     OW 6523   1.145   6.761   1.067
 1875SOL    HW1 6524   1.113   6.794   0.978
 1875SOL    HW2 6525   1.235   6.718   1.055
 1876SOL     OW 6526   2.280   6.968   4.586
 1876SOL    HW1 6527   2.183   6.947   4.574
 1876SOL    HW2 6528   2.325   6.892   4.633
 1877SOL     OW 6529   0.090   6.769   3.565
 1877SOL    HW1 6530   0.186   6.744   3.579
 1877SOL    HW2 6531   0.083   6.868   3.551
 1878SOL     OW 6532   5.935   2.355   5.923
 1878SOL    HW1 6533   6.016   2.340   5.981
 1878SOL    HW2 6534   5.918   2.273   5.869
 1879SOL     OW 6535   1.739   4.622   5.638
 1879SOL    HW1 6536   1.656   4.677   5.632
 1879SOL    HW2 6537   1.774   4.604   5.546
 1880SOL     OW 6538   6.086   0.389   5.165
 1880SOL    HW1 6539   6.141   0.363   5.086
 1880SOL    HW2 6540   6.053   0.483   5.153
 1881SOL     OW 6541   0.031   2.399   6.713
 1881SOL    HW1 6542   0.030   2.422   6.615
 1881SOL    HW2 6543   0.091   2.462   6.762
 1882SOL     OW 6544   1.222   6.256   6.438
 1882SOL    HW1 6545   1.178   6.301   6.361
 1882SOL    HW2 6546   1.223   6.317   6.517
 1883SOL     OW 6547   0.243   2.206   4.105
 1883SOL    HW1 6548   0.200   2.233   4.191
 1883SOL    HW2 6549   0.175   2.164   4.045
 1884SOL     OW 6550   0.392   3.049   1.012
 1884SOL    HW1 6551   0.293   3.051   0.995
 1884SOL    HW2 6552   0.409   3.012   1.103
 1885SOL     OW 6553   1.846   1.237   4.379
 1885SOL    HW1 6554   1.922   1.301   4.370
 1885SOL    HW2 6555   1.770   1.267   4.321
 1886SOL     OW 6556   1.013   6.452   3.056
 1886SOL    HW1 6557   1.091   6.397   3.085
 1886SOL    HW2 6558   0.938   6.441   3.121
 1887SOL     OW 6559   2.457   6.490   5.873
 1887SOL    HW1 6560   2.373   6.461   5.828
 1887SOL    HW2 6561   2.464   6.444   5.962
 1888SOL     OW 6562   2.940   1.156   3.010
 1888SOL    HW1 6563   2.880   1.236   3.004
 1888SOL    HW2 6564   2.984   1.141   2.921
 1889SOL     OW 6565   0.525   3.150   2.814
 1889SOL    HW1 6566   0.534   3.064   2.762
 1889SOL    HW2 6567   0.587   3.148   2.892
 1890SOL     OW 6568   0.798   5.933   4.801
 1890SOL    HW1 6569   0.746   5.875   4.864
 1890SOL    HW2 6570   0.857   5.875   4.745
 1891SOL     OW 6571   3.062   3.108   3.627
 1891SOL    HW1 6572   2.996   3.033   3.615
 1891SOL    HW2 6573   3.142   3.089   3.571
 1892SOL     OW 6574   0.991   0.746   2.715
 1892SOL    HW1 6575   0.933   0.816   2.675
 1892SOL    HW2 6576   1.080   0.785   2.737
 1893SOL     OW 6577   3.857   3.239   4.246
 1893SOL    HW1 6578   3.882   3.147   4.275
 1893SOL    HW2 6579   3.939   3.296   4.242
 1894SOL     OW 6580   3.156   3.326   4.510
 1894SOL    HW1 6581   3.125   3.240   4.469
 1894SOL    HW2 6582   3.256   3.330   4.505
 1895SOL     OW 6583   1.705   6.472   0.291
 1895SOL    HW1 6584   1.766   6.402   0.255
 1895SOL    HW2 6585   1.689   6.455   0.388
 1896SOL     OW 6586   5.425   2.693   1.077
 1896SOL    HW1 6587   5.516   2.718   1.043
 1896SOL    HW2 6588   5.382   2.773   1.117
 1897SOL     OW 6589   1.607   4.417   4.695
 1897SOL    HW1 6590   1.528   4.420   4.757
 1897SOL    HW2 6591   1.666   4.340   4.719
 1898SOL     OW 6592   1.752   6.391   3.160
 1898SOL    HW1 6593   1.802   6.304   3.159
 1898SOL    HW2 6594   1.751   6.427   3.253
 1899SOL     OW 6595   6.975   0.745   2.308
 1899SOL    HW1 6596   6.921   0.810   2.362
 1899SOL    HW2 6597   7.010   0.673   2.368
 1900SOL     OW 6598   2.583   6.526   6.908
 1900SOL    HW1 6599   2.517   6.512   6.982
 1900SOL    HW2 6600   2.656   6.587   6.940
 1901SOL     OW 6601   2.772   3.766   1.707
 1901SOL    HW1 6602   2.811   3.810   1.626
 1901SOL    HW2 6603   2.837   3.774   1.783
 1902SOL     OW 6604   1.410   0.317   4.356
 1902SOL    HW1 6605   1.373   0.281   4.442
 1902SOL    HW2 6606   1.334   0.341   4.295
 1903SOL     OW 6607   1.009   2.658   3.840
 1903SOL    HW1 6608   1.055   2.581   3.795
 1903SOL    HW2 6609   1.069   2.738   3.837
 1904SOL     OW 6610   6.062   5.681   1.563
 1904SOL    HW1 6611   6.025   5.774   1.557
 1904SOL    HW2 6612   6.078   5.644   1.471
 1905SOL     OW 6613   1.078   2.066   3.908
 1905SOL    HW1 6614   0.997   2.124   3.896
 1905SOL    HW2 6615   1.098   2.018   3.823
 1906SOL     OW 6616   1.641   0.012   4.748
 1906SOL    HW1 6617   1.551   6.995   4.763
 1906SOL    HW2 6618   1.665   0.005   4.652
 1907SOL     OW 6619   4.870   2.775   0.471
 1907SOL    HW1 6620   4.866   2.842   0.398
 1907SOL    HW2 6621   4.845   2.818   0.558
 1908SOL     OW 6622   3.349   1.243   1.147
 1908SOL    HW1 6623   3.447   1.263   1.149
 1908SOL    HW2 6624   3.333   1.153   1.188
 1909SOL     OW 6625   6.452   4.917   4.693
 1909SOL    HW1 6626   6.444   5.004   4.743
 1909SOL    HW2 6627   6.373   4.860   4.714
 1910SOL     OW 6628   0.512   6.014   5.912
 1910SOL    HW1 6629   0.559   6.094   5.873
 1910SOL    HW2 6630   0.580   5.945   5.938
 1911SOL     OW 6631   5.977   5.675   4.397
 1911SOL    HW1 6632   5.892   5.647   4.354
 1911SOL    HW2 6633   5.961   5.757   4.453
 1912SOL     OW 6634   3.266   4.888   2.118
 1912SOL    HW1 6635   3.285   4.953   2.045
 1912SOL    HW2 6636   3.195   4.825   2.089
 1913SOL     OW 6637   3.843   4.381   6.674
 1913SOL    HW1 6638   3.918   4.437   6.641
 1913SOL    HW2 6639   3.756   4.429   6.660
 1914SOL     OW 6640   3.335   4.385   6.951
 1914SOL    HW1 6641   3.283   4.347   0.004
 1914SOL    HW2 6642   3.415   4.328   6.934
 1915SOL     OW 6643   3.467   2.790   6.417
 1915SOL    HW1 6644   3.383   2.763   6.371
 1915SOL    HW2 6645   3.474   2.743   6.505
 1916SOL     OW 6646   3.976   0.921   2.454
 1916SOL    HW1 6647   4.057   0.980   2.455
 1916SOL    HW2 6648   3.944   0.909   2.360
 1917SOL     OW 6649   1.892   4.133   1.233
 1917SOL    HW1 6650   1.973   4.140   1.174
 1917SOL    HW2 6651   1.916   4.088   1.319
 1918SOL     OW 6652   5.740   2.479   3.930
 1918SOL    HW1 6653   5.835   2.462   3.905
 1918SOL    HW2 6654   5.698   2.393   3.962
 1919SOL     OW 6655   0.119   2.807   6.213
 1919SOL    HW1 6656   0.081   2.898   6.228
 1919SOL    HW2 6657   0.056   2.739   6.250
 1920SOL     OW 6658   5.208   3.422   1.102
 1920SOL    HW1 6659   5.150   3.438   1.182
 1920SOL    HW2 6660   5.191   3.494   1.034
 1921SOL     OW 6661   2.548   2.247   6.856
 1921SOL    HW1 6662   2.594   2.336   6.852
 1921SOL    HW2 6663   2.542   2.216   6.951
 1922SOL     OW 6664   3.439   2.917   2.953
 1922SOL    HW1 6665   3.529   2.879   2.973
 1922SOL    HW2 6666   3.411   2.978   3.027
 1923SOL     OW 6667   3.618   0.904   4.422
 1923SOL    HW1 6668   3.674   0.840   4.370
 1923SOL    HW2 6669   3.573   0.857   4.497
 1924SOL     OW 6670   4.709   1.271   0.641
 1924SOL    HW1 6671   4.701   1.223   0.554
 1924SOL    HW2 6672   4.685   1.209   0.716
 1925SOL     OW 6673   1.259   3.809   1.267
 1925SOL    HW1 6674   1.330   3.738   1.259
 1925SOL    HW2 6675   1.230   3.837   1.175
 1926SOL     OW 6676   3.906   0.344   2.186
 1926SOL    HW1 6677   3.921   0.330   2.088
 1926SOL    HW2 6678   3.990   0.320   2.236
 1927SOL     OW 6679   2.160   5.129   1.297
 1927SOL    HW1 6680   2.174   5.150   1.200
 1927SOL    HW2 6681   2.064   5.108   1.313
 1928SOL     OW 6682   5.984   4.230   2.851
 1928SOL    HW1 6683   6.030   4.144   2.833
 1928SOL    HW2 6684   6.047   4.294   2.895
 1929SOL     OW 6685   3.289   6.908   3.429
 1929SOL    HW1 6686   3.233   6.850   3.488
 1929SOL    HW2 6687   3.368   6.856   3.396
 1930SOL     OW 6688   3.771   3.019   0.330
 1930SOL    HW1 6689   3.788   3.116   0.341
 1930SOL    HW2 6690   3.820   2.985   0.249
 1931SOL     OW 6691   0.037   2.071   3.955
 1931SOL    HW1 6692   0.002   2.150   3.904
 1931SOL    HW2 6693   0.103   2.022   3.898
 1932SOL     OW 6694   5.040   2.019   2.336
 1932SOL    HW1 6695   5.048   1.967   2.251
 1932SOL    HW2 6696   5.056   2.116   2.318
 1933SOL     OW 6697   1.232   0.762   1.026
 1933SOL    HW1 6698   1.256   0.697   1.098
 1933SOL    HW2 6699   1.261   0.854   1.053
 1934SOL     OW 6700   6.927   0.634   6.689
 1934SOL    HW1 6701   6.946   0.710   6.626
 1934SOL    HW2 6702   6.836   0.598   6.671
 1935SOL     OW 6703   6.017   5.110   3.775
 1935SOL    HW1 6704   6.000   5.165   3.694
 1935SOL    HW2 6705   5.961   5.027   3.771
 1936SOL     OW 6706   4.616   3.208   6.195
 1936SOL    HW1 6707   4.522   3.175   6.189
 1936SOL    HW2 6708   4.675   3.153   6.136
 1937SOL     OW 6709   6.166   4.897   0.013
 1937SOL    HW1 6710   6.258   4.876   7.004
 1937SOL    HW2 6711   6.110   4.929   6.961
 1938SOL     OW 6712   6.516   3.208   0.109
 1938SOL    HW1 6713   6.538   3.298   0.072
 1938SOL    HW2 6714   6.549   3.201   0.203
 1939SOL     OW 6715   0.664   0.727   4.601
 1939SOL    HW1 6716   0.579   0.682   4.574
 1939SOL    HW2 6717   0.704   0.679   4.679
 1940SOL     OW 6718   0.328   5.008   0.478
 1940SOL    HW1 6719   0.267   5.001   0.557
 1940SOL    HW2 6720   0.379   5.094   0.483
 1941SOL     OW 6721   5.394   1.856   4.641
 1941SOL    HW1 6722   5.342   1.941   4.631
 1941SOL    HW2 6723   5.347   1.783   4.592
 1942SOL     OW 6724   0.201   4.482   1.805
 1942SOL    HW1 6725   0.291   4.493   1.763
 1942SOL    HW2 6726   0.174   4.386   1.801
 1943SOL     OW 6727   1.005   2.715   3.264
 1943SOL    HW1 6728   1.088   2.749   3.307
 1943SOL    HW2 6729   0.985   2.623   3.298
 1944SOL     OW 6730   0.484   3.208   3.589
 1944SOL    HW1 6731   0.482   3.291   3.533
 1944SOL    HW2 6732   0.480   3.233   3.686
 1945SOL     OW 6733   5.078   1.269   1.982
 1945SOL    HW1 6734   5.117   1.221   2.061
 1945SOL    HW2 6735   5.151   1.319   1.935
 1946SOL     OW 6736   6.612   6.240   0.712
 1946SOL    HW1 6737   6.546   6.174   0.673
 1946SOL    HW2 6738   6.562   6.306   0.769
 1947SOL     OW 6739   6.301   5.202   2.862
 1947SOL    HW1 6740   6.257   5.276   2.912
 1947SOL    HW2 6741   6.399   5.221   2.853
 1948SOL     OW 6742   5.197   3.338   3.734
 1948SOL    HW1 6743   5.194   3.317   3.832
 1948SOL    HW2 6744   5.273   3.290   3.692
 1949SOL     OW 6745   3.533   4.214   6.552
 1949SOL    HW1 6746   3.538   4.215   6.652
 1949SOL    HW2 6747   3.554   4.305   6.516
 1950SOL     OW 6748   3.948   3.925   3.557
 1950SOL    HW1 6749   3.967   4.001   3.620
 1950SOL    HW2 6750   3.875   3.952   3.494
 1951SOL     OW 6751   5.948   5.198   6.007
 1951SOL    HW1 6752   5.956   5.102   5.982
 1951SOL    HW2 6753   5.955   5.208   6.106
 1952SOL     OW 6754   5.818   4.973   7.020
 1952SOL    HW1 6755   5.730   5.012   6.995
 1952SOL    HW2 6756   5.867   5.037   0.056
 1953SOL     OW 6757   1.316   1.614   0.019
 1953SOL    HW1 6758   1.382   1.539   0.019
 1953SOL    HW2 6759   1.351   1.688   6.985
 1954SOL     OW 6760   4.232   6.738   1.684
 1954SOL    HW1 6761   4.142   6.764   1.648
 1954SOL    HW2 6762   4.299   6.808   1.660
 1955SOL     OW 6763   0.072   2.668   3.710
 1955SOL    HW1 6764   0.139   2.604   3.672
 1955SOL    HW2 6765   0.107   2.761   3.703
 1956SOL     OW 6766   5.248   0.871   1.483
 1956SOL    HW1 6767   5.210   0.961   1.508
 1956SOL    HW2 6768   5.174   0.804   1.480
 1957SOL     OW 6769   6.590   2.372   4.170
 1957SOL    HW1 6770   6.521   2.426   4.121
 1957SOL    HW2 6771   6.565   2.367   4.267
 1958SOL     OW 6772   3.923   1.589   0.677
 1958SOL    HW1 6773   3.884   1.525   0.610
 1958SOL    HW2 6774   3.862   1.595   0.756
 1959SOL     OW 6775   0.996   2.096   5.303
 1959SOL    HW1 6776   1.077   2.083   5.360
 1959SOL    HW2 6777   0.969   2.008   5.263
 1960SOL     OW 6778   5.899   4.158   3.758
 1960SOL    HW1 6779   5.912   4.071   3.711
 1960SOL    HW2 6780   5.902   4.144   3.857
 1961SOL     OW 6781   0.740   3.852   3.615
 1961SOL    HW1 6782   0.645   3.822   3.626
 1961SOL    HW2 6783   0.800   3.772   3.608
 1962SOL     OW 6784   0.593   0.607   1.969
 1962SOL    HW1 6785   0.533   0.686   1.984
 1962SOL    HW2 6786   0.653   0.595   2.049
 1963SOL     OW 6787   0.763   2.573   6.874
 1963SOL    HW1 6788   0.748   2.609   6.967
 1963SOL    HW2 6789   0.859   2.551   6.862
 1964SOL     OW 6790   5.546   3.775   0.841
 1964SOL    HW1 6791   5.601   3.845   0.885
 1964SOL    HW2 6792   5.582   3.756   0.750
 1965SOL     OW 6793   6.337   4.216   3.696
 1965SOL    HW1 6794   6.405   4.287   3.714
 1965SOL    HW2 6795   6.258   4.257   3.651
 1966SOL     OW 6796   1.207   4.418   6.542
 1966SOL    HW1 6797   1.212   4.501   6.597
 1966SOL    HW2 6798   1.117   4.413   6.498
 1967SOL     OW 6799   6.276   3.185   5.075
 1967SOL    HW1 6800   6.328   3.211   5.156
 1967SOL    HW2 6801   6.339   3.161   5.001
 1968SOL     OW 6802   2.688   1.017   5.777
 1968SOL    HW1 6803   2.712   0.951   5.850
 1968SOL    HW2 6804   2.613   0.980   5.722
 1969SOL     OW 6805   1.672   5.932   0.845
 1969SOL    HW1 6806   1.673   6.009   0.782
 1969SOL    HW2 6807   1.622   5.958   0.928
 1970SOL     OW 6808   5.260   4.989   3.889
 1970SOL    HW1 6809   5.262   4.916   3.820
 1970SOL    HW2 6810   5.330   4.972   3.958
 1971SOL     OW 6811   2.025   4.574   4.797
 1971SOL    HW1 6812   2.028   4.521   4.881
 1971SOL    HW2 6813   2.114   4.569   4.751
 1972SOL     OW 6814   6.145   2.182   2.516
 1972SOL    HW1 6815   6.101   2.247   2.455
 1972SOL    HW2 6816   6.124   2.206   2.611
 1973SOL     OW 6817   3.180   2.347   0.996
 1973SOL    HW1 6818   3.248   2.417   0.975
 1973SOL    HW2 6819   3.130   2.324   0.912
 1974SOL     OW 6820   2.387   6.819   5.136
 1974SOL    HW1 6821   2.413   6.916   5.139
 1974SOL    HW2 6822   2.287   6.812   5.142
 1975SOL     OW 6823   2.151   2.805   3.063
 1975SOL    HW1 6824   2.198   2.847   3.140
 1975SOL    HW2 6825   2.195   2.833   2.978
 1976SOL     OW 6826   1.096   0.823   5.259
 1976SOL    HW1 6827   1.120   0.803   5.163
 1976SOL    HW2 6828   1.157   0.894   5.294
 1977SOL     OW 6829   2.035   3.595   6.347
 1977SOL    HW1 6830   1.951   3.566   6.393
 1977SOL    HW2 6831   2.100   3.519   6.346
 1978SOL     OW 6832   3.013   0.368   2.310
 1978SOL    HW1 6833   3.040   0.286   2.259
 1978SOL    HW2 6834   2.936   0.411   2.264
 1979SOL     OW 6835   5.843   4.641   6.543
 1979SOL    HW1 6836   5.814   4.565   6.485
 1979SOL    HW2 6837   5.766   4.676   6.596
 1980SOL     OW 6838   3.453   0.690   1.007
 1980SOL    HW1 6839   3.541   0.654   1.039
 1980SOL    HW2 6840   3.429   0.772   1.060
 1981SOL     OW 6841   3.855   1.829   2.213
 1981SOL    HW1 6842   3.870   1.913   2.160
 1981SOL    HW2 6843   3.768   1.787   2.186
 1982SOL     OW 6844   1.608   2.788   6.025
 1982SOL    HW1 6845   1.538   2.851   5.993
 1982SOL    HW2 6846   1.698   2.830   6.013
 1983SOL     OW 6847   6.947   1.379   2.042
 1983SOL    HW1 6848   6.905   1.430   2.117
 1983SOL    HW2 6849   6.889   1.302   2.018
 1984SOL     OW 6850   4.460   4.028   5.957
 1984SOL    HW1 6851   4.373   4.072   5.931
 1984SOL    HW2 6852   4.533   4.064   5.899
 1985SOL     OW 6853   6.343   4.332   4.124
 1985SOL    HW1 6854   6.325   4.408   4.187
 1985SOL    HW2 6855   6.295   4.250   4.157
 1986SOL     OW 6856   3.261   3.562   2.280
 1986SOL    HW1 6857   3.167   3.591   2.302
 1986SOL    HW2 6858   3.318   3.642   2.265
 1987SOL     OW 6859   2.214   0.641   1.911
 1987SOL    HW1 6860   2.200   0.665   2.007
 1987SOL    HW2 6861   2.138   0.674   1.856
 1988SOL     OW 6862   0.649   1.745   1.977
 1988SOL    HW1 6863   0.569   1.772   2.031
 1988SOL    HW2 6864   0.622   1.731   1.882
 1989SOL     OW 6865   2.792   5.674   5.204
 1989SOL    HW1 6866   2.766   5.625   5.121
 1989SOL    HW2 6867   2.892   5.673   5.213
 1990SOL     OW 6868   3.913   0.554   0.093
 1990SOL    HW1 6869   3.874   0.645   0.082
 1990SOL    HW2 6870   4.009   0.555   0.064
 1991SOL     OW 6871   2.599   5.429   1.346
 1991SOL    HW1 6872   2.562   5.522   1.337
 1991SOL    HW2 6873   2.524   5.363   1.341
 1992SOL     OW 6874   0.616   6.564   2.732
 1992SOL    HW1 6875   0.546   6.603   2.792
 1992SOL    HW2 6876   0.706   6.580   2.772
 1993SOL     OW 6877   1.914   1.846   3.096
 1993SOL    HW1 6878   1.894   1.932   3.048
 1993SOL    HW2 6879   1.997   1.806   3.058
 1994SOL     OW 6880   3.996   2.866   0.741
 1994SOL    HW1 6881   3.976   2.769   0.756
 1994SOL    HW2 6882   4.069   2.895   0.803
 1995SOL     OW 6883   5.823   1.619   3.978
 1995SOL    HW1 6884   5.782   1.611   4.069
 1995SOL    HW2 6885   5.786   1.700   3.933
 1996SOL     OW 6886   4.800   0.868   0.784
 1996SOL    HW1 6887   4.760   0.944   0.834
 1996SOL    HW2 6888   4.875   0.900   0.727
 1997SOL     OW 6889   3.396   1.289   3.575
 1997SOL    HW1 6890   3.398   1.233   3.657
 1997SOL    HW2 6891   3.362   1.234   3.498
 1998SOL     OW 6892   2.631   3.795   1.306
 1998SOL    HW1 6893   2.555   3.860   1.303
 1998SOL    HW2 6894   2.675   3.799   1.396
 1999SOL     OW 6895   0.692   0.052   6.870
 1999SOL    HW1 6896   0.776   0.054   6.923
 1999SOL    HW2 6897   0.701   0.113   6.791
 2000SOL     OW 6898   4.046   4.509   6.121
 2000SOL    HW1 6899   3.957   4.518   6.166
 2000SOL    HW2 6900   4.091   4.425   6.152
 2001SOL     OW 6901   1.580   2.337   1.253
 2001SOL    HW1 6902   1.661   2.385   1.221
 2001SOL    HW2 6903   1.598   2.238   1.255
 2002SOL     OW 6904   6.854   5.270   0.988
 2002SOL    HW1 6905   6.818   5.260   1.081
 2002SOL    HW2 6906   6.795   5.221   0.924
 2003SOL     OW 6907   5.579   5.383   2.098
 2003SOL    HW1 6908   5.631   5.300   2.076
 2003SOL    HW2 6909   5.486   5.358   2.126
 2004SOL     OW 6910   3.484   6.661   2.812
 2004SOL    HW1 6911   3.538   6.745   2.798
 2004SOL    HW2 6912   3.511   6.593   2.743
 2005SOL     OW 6913   1.328   6.479   0.375
 2005SOL    HW1 6914   1.243   6.438   0.407
 2005SOL    HW2 6915   1.400   6.410   0.372
 2006SOL     OW 6916   5.440   6.536   2.329
 2006SOL    HW1 6917   5.447   6.462   2.262
 2006SOL    HW2 6918   5.373   6.603   2.298
 2007SOL     OW 6919   5.492   5.048   5.938
 2007SOL    HW1 6920   5.395   5.027   5.939
 2007SOL    HW2 6921   5.516   5.091   5.851
 2008SOL     OW 6922   2.038   3.590   3.096
 2008SOL    HW1 6923   2.060   3.567   3.001
 2008SOL    HW2 6924   1.939   3.598   3.106
 2009SOL     OW 6925   6.331   0.138   2.534
 2009SOL    HW1 6926   6.263   0.206   2.564
 2009SOL    HW2 6927   6.319   0.054   2.587
 2010SOL     OW 6928   6.678   1.911   1.982
 2010SOL    HW1 6929   6.650   2.005   2.001
 2010SOL    HW2 6930   6.763   1.912   1.929
 2011SOL     OW 6931   0.847   6.752   4.932
 2011SOL    HW1 6932   0.851   6.767   5.031
 2011SOL    HW2 6933   0.754   6.727   4.906
 2012SOL     OW 6934   0.669   3.030   1.002
 2012SOL    HW1 6935   0.656   3.124   1.032
 2012SOL    HW2 6936   0.582   2.981   1.006
 2013SOL     OW 6937   0.165   2.526   1.987
 2013SOL    HW1 6938   0.113   2.474   2.054
 2013SOL    HW2 6939   0.145   2.491   1.895
 2014SOL     OW 6940   3.864   1.345   4.235
 2014SOL    HW1 6941   3.890   1.355   4.139
 2014SOL    HW2 6942   3.826   1.254   4.249
 2015SOL     OW 6943   4.226   6.535   1.883
 2015SOL    HW1 6944   4.252   6.615   1.829
 2015SOL    HW2 6945   4.276   6.455   1.852
 2016SOL     OW 6946   2.363   0.745   4.201
 2016SOL    HW1 6947   2.420   0.725   4.280
 2016SOL    HW2 6948   2.289   0.808   4.228
 2017SOL     OW 6949   3.091   6.321   3.619
 2017SOL    HW1 6950   3.180   6.357   3.590
 2017SOL    HW2 6951   3.020   6.359   3.560
 2018SOL     OW 6952   0.694   0.614   4.019
 2018SOL    HW1 6953   0.686   0.690   3.954
 2018SOL    HW2 6954   0.607   0.601   4.065
 2019SOL     OW 6955   5.760   5.492   6.433
 2019SOL    HW1 6956   5.690   5.466   6.499
 2019SOL    HW2 6957   5.717   5.505   6.343
 2020SOL     OW 6958   1.769   6.734   0.489
 2020SOL    HW1 6959   1.701   6.667   0.518
 2020SOL    HW2 6960   1.856   6.687   0.474
 2021SOL     OW 6961   0.211   5.889   4.806
 2021SOL    HW1 6962   0.304   5.890   4.845
 2021SOL    HW2 6963   0.214   5.925   4.712
 2022SOL     OW 6964   1.944   3.310   4.414
 2022SOL    HW1 6965   2.017   3.241   4.415
 2022SOL    HW2 6966   1.869   3.280   4.474
 2023SOL     OW 6967   6.746   6.083   6.397
 2023SOL    HW1 6968   6.784   6.052   6.310
 2023SOL    HW2 6969   6.774   6.178   6.414
 2024SOL     OW 6970   0.403   5.907   3.971
 2024SOL    HW1 6971   0.406   5.904   4.071
 2024SOL    HW2 6972   0.315   5.871   3.940
 2025SOL     OW 6973   1.818   6.096   4.541
 2025SOL    HW1 6974   1.805   6.175   4.482
 2025SOL    HW2 6975   1.876   6.121   4.619
 2026SOL     OW 6976   0.248   0.569   5.751
 2026SOL    HW1 6977   0.334   0.525   5.725
 2026SOL    HW2 6978   0.176   0.500   5.757
 2027SOL     OW 6979   0.032   5.945   1.934
 2027SOL    HW1 6980   0.024   5.981   1.841
 2027SOL    HW2 6981   0.000   6.013   1.999
 2028SOL     OW 6982   3.139   5.439   4.584
 2028SOL    HW1 6983   3.227   5.407   4.617
 2028SOL    HW2 6984   3.136   5.539   4.590
 2029SOL     OW 6985   6.319   2.946   6.481
 2029SOL    HW1 6986   6.222   2.952   6.505
 2029SOL    HW2 6987   6.370   3.018   6.528
 2030SOL     OW 6988   2.200   6.643   2.371
 2030SOL    HW1 6989   2.114   6.694   2.375
 2030SOL    HW2 6990   2.276   6.706   2.385
 2031SOL     OW 6991   0.932   6.181   4.881
 2031SOL    HW1 6992   0.980   6.132   4.954
 2031SOL    HW2 6993   0.900   6.115   4.813
 2032SOL     OW 6994   2.374   2.745   5.928
 2032SOL    HW1 6995   2.389   2.842   5.909
 2032SOL    HW2 6996   2.458   2.694   5.906
 2033SOL     OW 6997   2.078   1.291   0.513
 2033SOL    HW1 6998   2.025   1.374   0.534
 2033SOL    HW2 6999   2.142   1.273   0.587
 2034SOL     OW 7000   0.864   4.299   5.255
 2034SOL    HW1 7001   0.799   4.364   5.296
 2034SOL    HW2 7002   0.882   4.225   5.320
 2035SOL     OW 7003   5.490   5.910   3.104
 2035SOL    HW1 7004   5.545   5.986   3.067
 2035SOL    HW2 7005   5.441   5.941   3.185
 2036SOL     OW 7006   0.217   4.453   6.236
 2036SOL    HW1 7007   0.195   4.461   6.334
 2036SOL    HW2 7008   0.201   4.359   6.206
 2037SOL     OW 7009   1.304   2.686   6.854
 2037SOL    HW1 7010   1.327   2.773   6.899
 2037SOL    HW2 7011   1.275   2.620   6.924
 2038SOL     OW 7012   0.687   1.376   5.653
 2038SOL    HW1 7013   0.673   1.459   5.599
 2038SOL    HW2 7014   0.759   1.393   5.721
 2039SOL     OW 7015   5.149   6.029   3.268
 2039SOL    HW1 7016   5.218   6.101   3.258
 2039SOL    HW2 7017   5.112   6.006   3.178
 2040SOL     OW 7018   2.682   1.968   0.019
 2040SOL    HW1 7019   2.748   1.931   0.084
 2040SOL    HW2 7020   2.657   2.061   0.045
 2041SOL     OW 7021   2.961   6.563   6.752
 2041SOL    HW1 7022   2.947   6.584   6.656
 2041SOL    HW2 7023   2.957   6.464   6.766
 2042SOL     OW 7024   6.014   0.626   5.765
 2042SOL    HW1 7025   6.019   0.710   5.711
 2042SOL    HW2 7026   5.922   0.588   5.758
 2043SOL     OW 7027   0.625   4.257   0.564
 2043SOL    HW1 7028   0.527   4.247   0.544
 2043SOL    HW2 7029   0.664   4.167   0.583
 2044SOL     OW 7030   4.330   0.385   1.727
 2044SOL    HW1 7031   4.285   0.356   1.811
 2044SOL    HW2 7032   4.419   0.425   1.748
 2045SOL     OW 7033   1.971   5.977   4.107
 2045SOL    HW1 7034   1.985   6.074   4.088
 2045SOL    HW2 7035   1.930   5.967   4.198
 2046SOL     OW 7036   0.833   3.066   6.022
 2046SOL    HW1 7037   0.869   3.132   6.089
 2046SOL    HW2 7038   0.878   2.978   6.034
 2047SOL     OW 7039   6.785   0.427   1.103
 2047SOL    HW1 7040   6.697   0.389   1.075
 2047SOL    HW2 7041   6.821   0.375   1.179
 2048SOL     OW 7042   2.064   1.119   4.146
 2048SOL    HW1 7043   2.102   1.143   4.056
 2048SOL    HW2 7044   2.011   1.196   4.180
 2049SOL     OW 7045   4.739   2.895   5.104
 2049SOL    HW1 7046   4.668   2.865   5.168
 2049SOL    HW2 7047   4.786   2.975   5.141
 2050SOL     OW 7048   0.458   1.209   3.667
 2050SOL    HW1 7049   0.544   1.212   3.718
 2050SOL    HW2 7050   0.477   1.228   3.571
 2051SOL     OW 7051   3.114   5.961   0.861
 2051SOL    HW1 7052   3.065   5.898   0.919
 2051SOL    HW2 7053   3.131   5.918   0.772
 2052SOL     OW 7054   1.023   3.923   0.676
 2052SOL    HW1 7055   1.105   3.944   0.624
 2052SOL    HW2 7056   1.026   3.828   0.707
 2053SOL     OW 7057   6.176   4.836   2.737
 2053SOL    HW1 7058   6.148   4.775   2.663
 2053SOL    HW2 7059   6.260   4.883   2.712
 2054SOL     OW 7060   2.987   3.757   3.070
 2054SOL    HW1 7061   2.942   3.698   3.003
 2054SOL    HW2 7062   2.946   3.743   3.160
 2055SOL     OW 7063   4.543   2.777   5.616
 2055SOL    HW1 7064   4.490   2.697   5.645
 2055SOL    HW2 7065   4.488   2.859   5.625
 2056SOL     OW 7066   2.985   5.044   1.701
 2056SOL    HW1 7067   3.053   5.091   1.644
 2056SOL    HW2 7068   3.027   5.020   1.789
 2057SOL     OW 7069   5.967   3.244   4.296
 2057SOL    HW1 7070   5.911   3.304   4.354
 2057SOL    HW2 7071   6.021   3.183   4.354
 2058SOL     OW 7072   5.983   0.019   3.513
 2058SOL    HW1 7073   6.058   0.084   3.526
 2058SOL    HW2 7074   6.018   6.960   3.468
 2059SOL     OW 7075   2.064   1.991   5.313
 2059SOL    HW1 7076   2.081   1.963   5.407
 2059SOL    HW2 7077   2.063   1.911   5.254
 2060SOL     OW 7078   2.223   2.216   6.287
 2060SOL    HW1 7079   2.219   2.228   6.386
 2060SOL    HW2 7080   2.272   2.132   6.265
 2061SOL     OW 7081   2.141   2.005   3.320
 2061SOL    HW1 7082   2.202   1.957   3.383
 2061SOL    HW2 7083   2.180   2.005   3.228
 2062SOL     OW 7084   6.173   4.848   4.241
 2062SOL    HW1 7085   6.082   4.814   4.265
 2062SOL    HW2 7086   6.187   4.937   4.283
 2063SOL     OW 7087   1.288   2.396   4.069
 2063SOL    HW1 7088   1.236   2.316   4.100
 2063SOL    HW2 7089   1.227   2.474   4.060
 2064SOL     OW 7090   0.924   3.647   4.419
 2064SOL    HW1 7091   0.924   3.555   4.379
 2064SOL    HW2 7092   0.849   3.700   4.379
 2065SOL     OW 7093   4.055   3.480   5.934
 2065SOL    HW1 7094   4.019   3.396   5.893
 2065SOL    HW2 7095   3.982   3.547   5.940
 2066SOL     OW 7096   1.241   3.026   5.099
 2066SOL    HW1 7097   1.226   2.939   5.052
 2066SOL    HW2 7098   1.290   3.089   5.039
 2067SOL     OW 7099   6.315   4.509   1.842
 2067SOL    HW1 7100   6.408   4.547   1.836
 2067SOL    HW2 7101   6.273   4.538   1.928
 2068SOL     OW 7102   4.449   6.484   4.349
 2068SOL    HW1 7103   4.529   6.519   4.398
 2068SOL    HW2 7104   4.480   6.421   4.277
 2069SOL     OW 7105   6.806   1.013   3.590
 2069SOL    HW1 7106   6.865   0.989   3.666
 2069SOL    HW2 7107   6.861   1.052   3.516
 2070SOL     OW 7108   1.611   5.223   1.184
 2070SOL    HW1 7109   1.535   5.182   1.133
 2070SOL    HW2 7110   1.694   5.169   1.169
 2071SOL     OW 7111   6.899   2.589   4.886
 2071SOL    HW1 7112   6.887   2.606   4.788
 2071SOL    HW2 7113   6.843   2.653   4.939
 2072SOL     OW 7114   5.507   4.158   5.413
 2072SOL    HW1 7115   5.465   4.107   5.488
 2072SOL    HW2 7116   5.454   4.145   5.330
 2073SOL     OW 7117   3.410   5.422   6.443
 2073SOL    HW1 7118   3.334   5.471   6.487
 2073SOL    HW2 7119   3.407   5.326   6.470
 2074SOL     OW 7120   2.545   4.812   5.924
 2074SOL    HW1 7121   2.635   4.820   5.881
 2074SOL    HW2 7122   2.557   4.800   6.023
 2075SOL     OW 7123   5.822   2.496   1.701
 2075SOL    HW1 7124   5.889   2.450   1.643
 2075SOL    HW2 7125   5.827   2.595   1.685
 2076SOL     OW 7126   6.967   6.714   4.772
 2076SOL    HW1 7127   0.033   6.727   4.813
 2076SOL    HW2 7128   6.913   6.798   4.782
 2077SOL     OW 7129   6.342   4.311   0.330
 2077SOL    HW1 7130   6.396   4.301   0.414
 2077SOL    HW2 7131   6.325   4.409   0.314
 2078SOL     OW 7132   0.992   2.649   6.316
 2078SOL    HW1 7133   0.952   2.690   6.398
 2078SOL    HW2 7134   1.090   2.670   6.313
 2079SOL     OW 7135   5.280   1.278   3.087
 2079SOL    HW1 7136   5.215   1.227   3.031
 2079SOL    HW2 7137   5.290   1.234   3.176
 2080SOL     OW 7138   2.469   3.201   6.326
 2080SOL    HW1 7139   2.478   3.300   6.324
 2080SOL    HW2 7140   2.377   3.176   6.358
 2081SOL     OW 7141   6.984   6.141   2.135
 2081SOL    HW1 7142   6.889   6.114   2.125
 2081SOL    HW2 7143   6.999   6.229   2.090
 2082SOL     OW 7144   6.908   5.761   4.074
 2082SOL    HW1 7145   6.937   5.707   3.995
 2082SOL    HW2 7146   6.830   5.819   4.048
 2083SOL     OW 7147   0.401   6.302   4.223
 2083SOL    HW1 7148   0.413   6.291   4.124
 2083SOL    HW2 7149   0.436   6.391   4.251
 2084SOL     OW 7150   6.986   2.156   0.976
 2084SOL    HW1 7151   6.987   2.256   0.963
 2084SOL    HW2 7152   6.923   2.134   1.051
 2085SOL     OW 7153   6.757   5.958   0.326
 2085SOL    HW1 7154   6.724   6.050   0.308
 2085SOL    HW2 7155   6.687   5.892   0.297
 2086SOL     OW 7156   5.451   0.476   6.831
 2086SOL    HW1 7157   5.402   0.456   6.746
 2086SOL    HW2 7158   5.407   0.551   6.879
 2087SOL     OW 7159   4.190   1.788   6.757
 2087SOL    HW1 7160   4.135   1.804   6.839
 2087SOL    HW2 7161   4.255   1.715   6.775
 2088SOL     OW 7162   6.826   4.535   6.063
 2088SOL    HW1 7163   6.806   4.542   5.965
 2088SOL    HW2 7164   6.744   4.558   6.115
 2089SOL     OW 7165   2.567   4.075   6.125
 2089SOL    HW1 7166   2.607   3.988   6.153
 2089SOL    HW2 7167   2.636   4.147   6.133
 2090SOL     OW 7168   5.221   3.007   0.318
 2090SOL    HW1 7169   5.295   3.061   0.360
 2090SOL    HW2 7170   5.185   2.942   0.385
 2091SOL     OW 7171   5.256   6.502   0.580
 2091SOL    HW1 7172   5.203   6.578   0.618
 2091SOL    HW2 7173   5.231   6.417   0.627
 2092SOL     OW 7174   3.451   3.368   2.186
 2092SOL    HW1 7175   3.380   3.436   2.205
 2092SOL    HW2 7176   3.534   3.392   2.235
 2093SOL     OW 7177   4.360   0.719   1.130
 2093SOL    HW1 7178   4.434   0.652   1.127
 2093SOL    HW2 7179   4.317   0.717   1.221
 2094SOL     OW 7180   5.219   2.325   0.526
 2094SOL    HW1 7181   5.170   2.387   0.587
 2094SOL    HW2 7182   5.274   2.261   0.580
 2095SOL     OW 7183   5.158   5.417   4.464
 2095SOL    HW1 7184   5.244   5.468   4.461
 2095SOL    HW2 7185   5.161   5.344   4.395
 2096SOL     OW 7186   3.975   6.984   2.470
 2096SOL    HW1 7187   4.032   0.009   2.404
 2096SOL    HW2 7188   3.928   0.026   2.528
 2097SOL     OW 7189   0.712   5.842   5.943
 2097SOL    HW1 7190   0.726   5.780   5.867
 2097SOL    HW2 7191   0.760   5.809   6.024
 2098SOL     OW 7192   2.550   6.732   3.647
 2098SOL    HW1 7193   2.496   6.656   3.610
 2098SOL    HW2 7194   2.629   6.748   3.588
 2099SOL     OW 7195   4.082   1.834   7.015
 2099SOL    HW1 7196   4.152   1.768   0.021
 2099SOL    HW2 7197   4.019   1.852   0.066
 2100SOL     OW 7198   4.530   0.674   0.001
 2100SOL    HW1 7199   4.617   0.670   0.051
 2100SOL    HW2 7200   4.502   0.581   7.000
 2101SOL     OW 7201   1.853   7.013   2.567
 2101SOL    HW1 7202   1.949   0.010   2.547
 2101SOL    HW2 7203   1.811   6.968   2.488
 2102SOL     OW 7204   4.080   2.454   1.664
 2102SOL    HW1 7205   4.144   2.513   1.713
 2102SOL    HW2 7206   4.039   2.388   1.728
 2103SOL     OW 7207   1.058   6.771   0.786
 2103SOL    HW1 7208   1.029   6.733   0.697
 2103SOL    HW2 7209   1.156   6.788   0.784
 2104SOL     OW 7210   2.072   3.649   2.835
 2104SOL    HW1 7211   1.995   3.697   2.876
 2104SOL    HW2 7212   2.123   3.713   2.777
 2105SOL     OW 7213   5.621   0.257   5.102
 2105SOL    HW1 7214   5.659   0.219   5.018
 2105SOL    HW2 7215   5.536   0.306   5.080
 2106SOL     OW 7216   3.615   2.670   1.369
 2106SOL    HW1 7217   3.534   2.656   1.426
 2106SOL    HW2 7218   3.690   2.613   1.403
 2107SOL     OW 7219   5.118   4.527   4.740
 2107SOL    HW1 7220   5.128   4.624   4.716
 2107SOL    HW2 7221   5.021   4.502   4.741
 2108SOL     OW 7222   4.849   0.005   4.865
 2108SOL    HW1 7223   4.782   6.988   4.802
 2108SOL    HW2 7224   4.870   0.098   4.835
 2109SOL     OW 7225   2.694   6.071   1.838
 2109SOL    HW1 7226   2.771   6.089   1.898
 2109SOL    HW2 7227   2.657   5.980   1.857
 2110SOL     OW 7228   3.278   5.859   0.324
 2110SOL    HW1 7229   3.283   5.766   0.362
 2110SOL    HW2 7230   3.222   5.858   0.241
 2111SOL     OW 7231   1.316   2.284   6.262
 2111SOL    HW1 7232   1.396   2.335   6.230
 2111SOL    HW2 7233   1.321   2.271   6.361
 2112SOL     OW 7234   1.172   0.231   6.696
 2112SOL    HW1 7235   1.196   0.328   6.704
 2112SOL    HW2 7236   1.080   0.216   6.731
 2113SOL     OW 7237   6.337   1.516   5.167
 2113SOL    HW1 7238   6.262   1.453   5.147
 2113SOL    HW2 7239   6.304   1.610   5.167
 2114SOL     OW 7240   2.029   0.795   5.097
 2114SOL    HW1 7241   2.085   0.744   5.163
 2114SOL    HW2 7242   1.933   0.774   5.113
 2115SOL     OW 7243   6.680   6.523   3.199
 2115SOL    HW1 7244   6.692   6.443   3.259
 2115SOL    HW2 7245   6.687   6.606   3.254
 2116SOL     OW 7246   2.077   1.278   6.749
 2116SOL    HW1 7247   2.014   1.350   6.779
 2116SOL    HW2 7248   2.107   1.225   6.828
 2117SOL     OW 7249   6.238   2.299   3.098
 2117SOL    HW1 7250   6.278   2.317   3.009
 2117SOL    HW2 7251   6.225   2.385   3.147
 2118SOL     OW 7252   6.909   2.708   2.670
 2118SOL    HW1 7253   6.897   2.787   2.730
 2118SOL    HW2 7254   6.975   2.645   2.711
 2119SOL     OW 7255   0.461   3.008   0.482
 2119SOL    HW1 7256   0.405   2.951   0.423
 2119SOL    HW2 7257   0.558   2.987   0.468
 2120SOL     OW 7258   5.488   1.960   0.818
 2120SOL    HW1 7259   5.441   2.032   0.868
 2120SOL    HW2 7260   5.468   1.968   0.721
 2121SOL     OW 7261   1.889   6.588   1.414
 2121SOL    HW1 7262   1.917   6.516   1.351
 2121SOL    HW2 7263   1.849   6.547   1.496
 2122SOL     OW 7264   6.491   0.972   4.803
 2122SOL    HW1 7265   6.412   1.034   4.796
 2122SOL    HW2 7266   6.510   0.932   4.714
 2123SOL     OW 7267   0.925   5.361   3.548
 2123SOL    HW1 7268   0.914   5.439   3.609
 2123SOL    HW2 7269   0.895   5.386   3.456
 2124SOL     OW 7270   4.785   3.607   6.520
 2124SOL    HW1 7271   4.858   3.540   6.504
 2124SOL    HW2 7272   4.794   3.683   6.456
 2125SOL     OW 7273   1.101   5.577   4.652
 2125SOL    HW1 7274   1.128   5.545   4.562
 2125SOL    HW2 7275   1.136   5.514   4.722
 2126SOL     OW 7276   3.119   3.466   0.428
 2126SOL    HW1 7277   3.121   3.527   0.348
 2126SOL    HW2 7278   3.212   3.438   0.451
 2127SOL     OW 7279   1.150   3.721   3.978
 2127SOL    HW1 7280   1.240   3.680   3.959
 2127SOL    HW2 7281   1.078   3.656   3.951
 2128SOL     OW 7282   5.406   3.256   2.329
 2128SOL    HW1 7283   5.448   3.180   2.279
 2128SOL    HW2 7284   5.307   3.241   2.334
 2129SOL     OW 7285   4.963   4.334   3.981
 2129SOL    HW1 7286   5.042   4.292   4.025
 2129SOL    HW2 7287   4.879   4.302   4.026
 2130SOL     OW 7288   1.711   0.480   1.688
 2130SOL    HW1 7289   1.633   0.498   1.629
 2130SOL    HW2 7290   1.684   0.495   1.784
 2131SOL     OW 7291   5.609   0.711   6.370
 2131SOL    HW1 7292   5.527   0.703   6.313
 2131SOL    HW2 7293   5.612   0.636   6.435
 2132SOL     OW 7294   2.688   2.735   6.985
 2132SOL    HW1 7295   2.698   2.640   6.955
 2132SOL    HW2 7296   2.595   2.766   6.964
 2133SOL     OW 7297   3.869   1.981   1.205
 2133SOL    HW1 7298   3.939   1.917   1.236
 2133SOL    HW2 7299   3.786   1.968   1.261
 2134SOL     OW 7300   1.640   6.583   5.454
 2134SOL    HW1 7301   1.730   6.594   5.496
 2134SOL    HW2 7302   1.575   6.552   5.523
 2135SOL     OW 7303   0.886   6.328   4.110
 2135SOL    HW1 7304   0.813   6.282   4.059
 2135SOL    HW2 7305   0.854   6.348   4.203
 2136SOL     OW 7306   1.240   4.847   4.186
 2136SOL    HW1 7307   1.306   4.837   4.112
 2136SOL    HW2 7308   1.248   4.938   4.225
 2137SOL     OW 7309   0.287   0.422   3.979
 2137SOL    HW1 7310   0.312   0.335   3.936
 2137SOL    HW2 7311   0.188   0.433   3.974
 2138SOL     OW 7312   1.073   2.376   5.919
 2138SOL    HW1 7313   1.042   2.458   5.871
 2138SOL    HW2 7314   1.097   2.399   6.013
 2139SOL     OW 7315   2.971   6.785   4.141
 2139SOL    HW1 7316   2.930   6.814   4.227
 2139SOL    HW2 7317   3.023   6.701   4.155
 2140SOL     OW 7318   1.119   5.835   3.876
 2140SOL    HW1 7319   1.038   5.885   3.846
 2140SOL    HW2 7320   1.132   5.849   3.974
 2141SOL     OW 7321   6.490   2.105   6.647
 2141SOL    HW1 7322   6.470   2.012   6.619
 2141SOL    HW2 7323   6.553   2.104   6.725
 2142SOL     OW 7324   3.561   0.946   3.618
 2142SOL    HW1 7325   3.648   0.996   3.615
 2142SOL    HW2 7326   3.562   0.872   3.551
 2143SOL     OW 7327   3.544   5.906   0.327
 2143SOL    HW1 7328   3.543   5.968   0.406
 2143SOL    HW2 7329   3.451   5.890   0.296
 2144SOL     OW 7330   1.163   0.973   1.800
 2144SOL    HW1 7331   1.147   1.019   1.888
 2144SOL    HW2 7332   1.087   0.992   1.738
 2145SOL     OW 7333   2.871   5.485   2.649
 2145SOL    HW1 7334   2.823   5.495   2.736
 2145SOL    HW2 7335   2.895   5.575   2.613
 2146SOL     OW 7336   2.784   1.962   1.106
 2146SOL    HW1 7337   2.818   1.996   1.194
 2146SOL    HW2 7338   2.771   2.039   1.044
 2147SOL     OW 7339   0.004   1.173   4.357
 2147SOL    HW1 7340   0.043   1.236   4.423
 2147SOL    HW2 7341   0.027   1.203   4.264
 2148SOL     OW 7342   6.081   3.781   4.492
 2148SOL    HW1 7343   6.109   3.866   4.537
 2148SOL    HW2 7344   6.032   3.723   4.557
 2149SOL     OW 7345   2.855   0.444   3.183
 2149SOL    HW1 7346   2.830   0.494   3.100
 2149SOL    HW2 7347   2.797   0.474   3.259
 2150SOL     OW 7348   4.515   0.159   3.278
 2150SOL    HW1 7349   4.596   0.127   3.328
 2150SOL    HW2 7350   4.496   0.254   3.302
 2151SOL     OW 7351   3.800   4.455   5.692
 2151SOL    HW1 7352   3.829   4.383   5.755
 2151SOL    HW2 7353   3.842   4.542   5.719
 2152SOL     OW 7354   6.621   6.708   2.472
 2152SOL    HW1 7355   6.633   6.750   2.382
 2152SOL    HW2 7356   6.650   6.612   2.467
 2153SOL     OW 7357   4.419   1.677   3.367
 2153SOL    HW1 7358   4.373   1.741   3.306
 2153SOL    HW2 7359   4.494   1.724   3.413
 2154SOL     OW 7360   3.788   6.764   5.337
 2154SOL    HW1 7361   3.725   6.794   5.409
 2154SOL    HW2 7362   3.881   6.763   5.374
 2155SOL     OW 7363   6.124   3.602   6.466
 2155SOL    HW1 7364   6.057   3.563   6.530
 2155SOL    HW2 7365   6.085   3.683   6.422
 2156SOL     OW 7366   6.836   0.680   1.892
 2156SOL    HW1 7367   6.828   0.581   1.880
 2156SOL    HW2 7368   6.749   0.716   1.927
 2157SOL     OW 7369   6.204   0.904   4.230
 2157SOL    HW1 7370   6.191   0.993   4.275
 2157SOL    HW2 7371   6.135   0.839   4.264
 2158SOL     OW 7372   5.174   0.189   3.712
 2158SOL    HW1 7373   5.115   0.114   3.683
 2158SOL    HW2 7374   5.132   0.276   3.687
 2159SOL     OW 7375   2.425   0.467   5.331
 2159SOL    HW1 7376   2.341   0.455   5.384
 2159SOL    HW2 7377   2.492   0.398   5.359
 2160SOL     OW 7378   2.800   2.644   0.633
 2160SOL    HW1 7379   2.812   2.721   0.570
 2160SOL    HW2 7380   2.875   2.579   0.620
 2161SOL     OW 7381   5.183   2.381   4.066
 2161SOL    HW1 7382   5.168   2.473   4.030
 2161SOL    HW2 7383   5.122   2.364   4.143
 2162SOL     OW 7384   2.191   1.282   1.490
 2162SOL    HW1 7385   2.194   1.221   1.411
 2162SOL    HW2 7386   2.228   1.236   1.570
 2163SOL     OW 7387   2.385   1.591   0.996
 2163SOL    HW1 7388   2.353   1.529   1.067
 2163SOL    HW2 7389   2.337   1.678   1.002
 2164SOL     OW 7390   6.894   0.601   1.311
 2164SOL    HW1 7391   6.956   0.605   1.233
 2164SOL    HW2 7392   6.807   0.643   1.287
 2165SOL     OW 7393   3.181   6.972   2.084
 2165SOL    HW1 7394   3.136   6.977   1.995
 2165SOL    HW2 7395   3.198   6.877   2.108
 2166SOL     OW 7396   5.538   2.600   6.017
 2166SOL    HW1 7397   5.451   2.554   6.031
 2166SOL    HW2 7398   5.611   2.533   6.011
 2167SOL     OW 7399   3.245   1.104   1.415
 2167SOL    HW1 7400   3.158   1.153   1.410
 2167SOL    HW2 7401   3.314   1.162   1.458
 2168SOL     OW 7402   5.837   6.605   4.523
 2168SOL    HW1 7403   5.838   6.658   4.608
 2168SOL    HW2 7404   5.865   6.511   4.543
 2169SOL     OW 7405   5.611   1.320   6.113
 2169SOL    HW1 7406   5.654   1.345   6.026
 2169SOL    HW2 7407   5.542   1.389   6.136
 2170SOL     OW 7408   5.122   4.755   4.330
 2170SOL    HW1 7409   5.146   4.695   4.255
 2170SOL    HW2 7410   5.023   4.758   4.340
 2171SOL     OW 7411   6.571   3.571   0.459
 2171SOL    HW1 7412   6.479   3.610   0.463
 2171SOL    HW2 7413   6.593   3.528   0.546
 2172SOL     OW 7414   2.396   0.442   1.964
 2172SOL    HW1 7415   2.433   0.399   1.882
 2172SOL    HW2 7416   2.324   0.507   1.939
 2173SOL     OW 7417   4.618   2.321   4.808
 2173SOL    HW1 7418   4.655   2.316   4.901
 2173SOL    HW2 7419   4.533   2.374   4.809
 2174SOL     OW 7420   1.187   5.360   4.843
 2174SOL    HW1 7421   1.124   5.313   4.904
 2174SOL    HW2 7422   1.173   5.328   4.749
 2175SOL     OW 7423   1.372   5.950   5.830
 2175SOL    HW1 7424   1.276   5.953   5.856
 2175SOL    HW2 7425   1.381   5.970   5.732
 2176SOL     OW 7426   1.781   2.278   2.731
 2176SOL    HW1 7427   1.793   2.210   2.803
 2176SOL    HW2 7428   1.803   2.369   2.767
 2177SOL     OW 7429   0.972   2.127   0.990
 2177SOL    HW1 7430   0.873   2.128   1.000
 2177SOL    HW2 7431   1.015   2.123   1.080
 2178SOL     OW 7432   6.283   6.169   0.845
 2178SOL    HW1 7433   6.335   6.084   0.829
 2178SOL    HW2 7434   6.347   6.243   0.865
 2179SOL     OW 7435   1.343   4.387   4.119
 2179SOL    HW1 7436   1.372   4.480   4.142
 2179SOL    HW2 7437   1.245   4.386   4.101
 2180SOL     OW 7438   3.381   2.628   1.551
 2180SOL    HW1 7439   3.318   2.693   1.592
 2180SOL    HW2 7440   3.420   2.569   1.622
 2181SOL     OW 7441   3.364   6.658   1.376
 2181SOL    HW1 7442   3.314   6.698   1.299
 2181SOL    HW2 7443   3.457   6.693   1.378
 2182SOL     OW 7444   4.960   2.868   1.096
 2182SOL    HW1 7445   5.030   2.938   1.103
 2182SOL    HW2 7446   4.870   2.912   1.088
 2183SOL     OW 7447   3.532   2.173   0.796
 2183SOL    HW1 7448   3.438   2.141   0.809
 2183SOL    HW2 7449   3.589   2.098   0.762
 2184SOL     OW 7450   5.168   3.472   6.414
 2184SOL    HW1 7451   5.088   3.515   6.372
 2184SOL    HW2 7452   5.151   3.374   6.425
 2185SOL     OW 7453   6.709   6.797   1.930
 2185SOL    HW1 7454   6.679   6.885   1.893
 2185SOL    HW2 7455   6.801   6.808   1.968
 2186SOL     OW 7456   0.367   4.394   3.273
 2186SOL    HW1 7457   0.350   4.481   3.319
 2186SOL    HW2 7458   0.465   4.372   3.278
 2187SOL     OW 7459   6.256   1.265   0.349
 2187SOL    HW1 7460   6.291   1.262   0.255
 2187SOL    HW2 7461   6.162   1.231   0.350
 2188SOL     OW 7462   4.616   1.222   3.918
 2188SOL    HW1 7463   4.693   1.263   3.870
 2188SOL    HW2 7464   4.643   1.201   4.012
 2189SOL     OW 7465   3.031   0.090   6.964
 2189SOL    HW1 7466   3.019   0.188   6.978
 2189SOL    HW2 7467   2.957   0.040   7.008
 2190SOL     OW 7468   5.140   3.091   1.052
 2190SOL    HW1 7469   5.166   3.186   1.067
 2190SOL    HW2 7470   5.080   3.085   0.972
 2191SOL     OW 7471   2.761   1.761   0.339
 2191SOL    HW1 7472   2.764   1.679   0.396
 2191SOL    HW2 7473   2.670   1.771   0.299
 2192SOL     OW 7474   4.161   5.406   2.608
 2192SOL    HW1 7475   4.068   5.372   2.592
 2192SOL    HW2 7476   4.222   5.328   2.623
 2193SOL     OW 7477   6.879   6.025   4.683
 2193SOL    HW1 7478   6.849   6.119   4.664
 2193SOL    HW2 7479   6.976   6.027   4.707
 2194SOL     OW 7480   2.657   0.146   1.949
 2194SOL    HW1 7481   2.751   0.180   1.953
 2194SOL    HW2 7482   2.610   0.186   1.870
 2195SOL     OW 7483   0.951   4.643   1.988
 2195SOL    HW1 7484   0.869   4.643   1.931
 2195SOL    HW2 7485   1.028   4.608   1.936
 2196SOL     OW 7486   4.234   3.612   0.720
 2196SOL    HW1 7487   4.141   3.607   0.756
 2196SOL    HW2 7488   4.245   3.545   0.647
 2197SOL     OW 7489   4.388   4.053   7.012
 2197SOL    HW1 7490   4.410   3.984   0.057
 2197SOL    HW2 7491   4.406   4.144   0.026
 2198SOL     OW 7492   6.483   4.595   0.547
 2198SOL    HW1 7493   6.426   4.516   0.570
 2198SOL    HW2 7494   6.436   4.651   0.479
 2199SOL     OW 7495   4.401   1.030   3.116
 2199SOL    HW1 7496   4.487   1.024   3.067
 2199SOL    HW2 7497   4.326   1.001   3.056
 2200SOL     OW 7498   2.919   7.002   4.304
 2200SOL    HW1 7499   2.830   7.014   4.349
 2200SOL    HW2 7500   2.987   0.035   4.350
 2201SOL     OW 7501   4.688   4.197   4.214
 2201SOL    HW1 7502   4.641   4.225   4.130
 2201SOL    HW2 7503   4.657   4.254   4.290
 2202SOL     OW 7504   4.738   5.646   3.710
 2202SOL    HW1 7505   4.648   5.604   3.702
 2202SOL    HW2 7506   4.803   5.579   3.744
 2203SOL     OW 7507   3.031   2.100   2.453
 2203SOL    HW1 7508   2.998   2.127   2.362
 2203SOL    HW2 7509   3.128   2.120   2.460
 2204SOL     OW 7510   2.607   2.483   0.205
 2204SOL    HW1 7511   2.560   2.563   0.244
 2204SOL    HW2 7512   2.679   2.453   0.268
 2205SOL     OW 7513   2.873   0.992   1.903
 2205SOL    HW1 7514   2.867   0.964   1.808
 2205SOL    HW2 7515   2.901   0.913   1.959
 2206SOL     OW 7516   1.900   3.171   0.293
 2206SOL    HW1 7517   1.844   3.177   0.210
 2206SOL    HW2 7518   1.841   3.181   0.373
 2207SOL     OW 7519   0.001   4.541   4.835
 2207SOL    HW1 7520   0.086   4.499   4.867
 2207SOL    HW2 7521   6.949   4.511   4.892
 2208SOL     OW 7522   6.663   4.735   2.471
 2208SOL    HW1 7523   6.751   4.750   2.517
 2208SOL    HW2 7524   6.628   4.822   2.437
 2209SOL     OW 7525   0.422   6.870   1.540
 2209SOL    HW1 7526   0.352   6.936   1.515
 2209SOL    HW2 7527   0.481   6.852   1.462
 2210SOL     OW 7528   1.951   5.059   3.827
 2210SOL    HW1 7529   1.886   5.132   3.808
 2210SOL    HW2 7530   1.957   4.998   3.748
 2211SOL     OW 7531   6.700   1.916   4.891
 2211SOL    HW1 7532   6.673   2.012   4.882
 2211SOL    HW2 7533   6.634   1.868   4.949
 2212SOL     OW 7534   1.953   6.705   6.292
 2212SOL    HW1 7535   1.871   6.653   6.269
 2212SOL    HW2 7536   2.031   6.670   6.240
 2213SOL     OW 7537   4.104   0.743   3.268
 2213SOL    HW1 7538   4.152   0.693   3.340
 2213SOL    HW2 7539   4.130   0.839   3.271
 2214SOL     OW 7540   4.162   6.979   5.196
 2214SOL    HW1 7541   4.126   0.015   5.124
 2214SOL    HW2 7542   4.107   6.991   5.279
 2215SOL     OW 7543   5.501   2.242   5.377
 2215SOL    HW1 7544   5.557   2.195   5.309
 2215SOL    HW2 7545   5.499   2.340   5.357
 2216SOL     OW 7546   2.900   1.156   2.432
 2216SOL    HW1 7547   2.953   1.071   2.436
 2216SOL    HW2 7548   2.962   1.234   2.423
 2217SOL     OW 7549   4.353   0.685   1.841
 2217SOL    HW1 7550   4.271   0.640   1.876
 2217SOL    HW2 7551   4.361   0.667   1.743
 2218SOL     OW 7552   0.674   0.293   3.007
 2218SOL    HW1 7553   0.641   0.232   3.078
 2218SOL    HW2 7554   0.761   0.334   3.035
 2219SOL     OW 7555   1.619   2.113   2.494
 2219SOL    HW1 7556   1.553   2.187   2.508
 2219SOL    HW2 7557   1.614   2.049   2.571
 2220SOL     OW 7558   1.037   0.672   1.949
 2220SOL    HW1 7559   0.974   0.695   1.875
 2220SOL    HW2 7560   1.110   0.740   1.952
 2221SOL     OW 7561   0.461   0.680   5.968
 2221SOL    HW1 7562   0.459   0.765   5.916
 2221SOL    HW2 7563   0.370   0.663   6.007
 2222SOL     OW 7564   6.560   5.151   3.794
 2222SOL    HW1 7565   6.537   5.163   3.698
 2222SOL    HW2 7566   6.491   5.093   3.838
 2223SOL     OW 7567   6.585   6.674   1.463
 2223SOL    HW1 7568   6.634   6.592   1.493
 2223SOL    HW2 7569   6.651   6.744   1.436
 2224SOL     OW 7570   1.020   5.091   0.834
 2224SOL    HW1 7571   0.981   5.122   0.748
 2224SOL    HW2 7572   0.968   5.129   0.911
 2225SOL     OW 7573   0.632   3.672   0.525
 2225SOL    HW1 7574   0.680   3.719   0.451
 2225SOL    HW2 7575   0.633   3.731   0.606
 2226SOL     OW 7576   3.701   3.784   2.357
 2226SOL    HW1 7577   3.753   3.838   2.424
 2226SOL    HW2 7578   3.764   3.748   2.288
 2227SOL     OW 7579   0.812   2.351   3.729
 2227SOL    HW1 7580   0.764   2.421   3.781
 2227SOL    HW2 7581   0.780   2.351   3.634
 2228SOL     OW 7582   2.952   4.783   3.778
 2228SOL    HW1 7583   3.046   4.815   3.789
 2228SOL    HW2 7584   2.915   4.759   3.868
 2229SOL     OW 7585   5.756   6.484   2.993
 2229SOL    HW1 7586   5.718   6.527   2.911
 2229SOL    HW2 7587   5.843   6.441   2.971
 2230SOL     OW 7588   2.618   5.301   1.765
 2230SOL    HW1 7589   2.546   5.320   1.699
 2230SOL    HW2 7590   2.703   5.344   1.735
 2231SOL     OW 7591   1.851   6.121   1.229
 2231SOL    HW1 7592   1.797   6.039   1.211
 2231SOL    HW2 7593   1.927   6.098   1.290
 2232SOL     OW 7594   5.546   2.666   3.976
 2232SOL    HW1 7595   5.589   2.711   4.055
 2232SOL    HW2 7596   5.616   2.620   3.922
 2233SOL     OW 7597   3.373   0.947   6.552
 2233SOL    HW1 7598   3.383   0.940   6.453
 2233SOL    HW2 7599   3.288   0.996   6.574
 2234SOL     OW 7600   3.640   2.347   0.993
 2234SOL    HW1 7601   3.621   2.301   1.079
 2234SOL    HW2 7602   3.579   2.311   0.922
 2235SOL     OW 7603   2.140   1.795   1.973
 2235SOL    HW1 7604   2.218   1.786   1.910
 2235SOL    HW2 7605   2.094   1.882   1.956
 2236SOL     OW 7606   1.160   4.863   5.515
 2236SOL    HW1 7607   1.256   4.877   5.489
 2236SOL    HW2 7608   1.154   4.787   5.579
 2237SOL     OW 7609   6.795   2.950   4.619
 2237SOL    HW1 7610   6.708   2.963   4.572
 2237SOL    HW2 7611   6.811   2.853   4.635
 2238SOL     OW 7612   6.030   6.571   0.575
 2238SOL    HW1 7613   6.004   6.633   0.501
 2238SOL    HW2 7614   5.980   6.597   0.658
 2239SOL     OW 7615   6.126   6.010   1.796
 2239SOL    HW1 7616   6.075   5.947   1.854
 2239SOL    HW2 7617   6.209   5.965   1.763
 2240SOL     OW 7618   6.466   3.599   2.050
 2240SOL    HW1 7619   6.525   3.666   2.005
 2240SOL    HW2 7620   6.504   3.576   2.139
 2241SOL     OW 7621   1.237   0.655   3.578
 2241SOL    HW1 7622   1.217   0.617   3.668
 2241SOL    HW2 7623   1.256   0.581   3.513
 2242SOL     OW 7624   3.452   1.778   2.349
 2242SOL    HW1 7625   3.453   1.861   2.404
 2242SOL    HW2 7626   3.508   1.791   2.267
 2243SOL     OW 7627   2.815   0.006   5.235
 2243SOL    HW1 7628   2.846   7.000   5.145
 2243SOL    HW2 7629   2.721   7.000   5.251
 2244SOL     OW 7630   3.549   1.243   4.770
 2244SOL    HW1 7631   3.622   1.271   4.832
 2244SOL    HW2 7632   3.550   1.301   4.689
 2245SOL     OW 7633   0.542   2.229   1.777
 2245SOL    HW1 7634   0.594   2.170   1.716
 2245SOL    HW2 7635   0.457   2.183   1.802
 2246SOL     OW 7636   1.003   4.670   5.349
 2246SOL    HW1 7637   0.910   4.685   5.382
 2246SOL    HW2 7638   1.061   4.747   5.377
 2247SOL     OW 7639   1.710   1.200   4.633
 2247SOL    HW1 7640   1.739   1.183   4.539
 2247SOL    HW2 7641   1.751   1.132   4.694
 2248SOL     OW 7642   4.461   3.882   5.668
 2248SOL    HW1 7643   4.401   3.924   5.737
 2248SOL    HW2 7644   4.408   3.865   5.584
 2249SOL     OW 7645   4.078   5.377   5.577
 2249SOL    HW1 7646   4.039   5.297   5.623
 2249SOL    HW2 7647   4.097   5.356   5.482
 2250SOL     OW 7648   4.605   4.851   1.577
 2250SOL    HW1 7649   4.575   4.772   1.631
 2250SOL    HW2 7650   4.610   4.932   1.635
 2251SOL     OW 7651   0.215   0.774   6.488
 2251SOL    HW1 7652   0.299   0.819   6.458
 2251SOL    HW2 7653   0.221   0.754   6.586
 2252SOL     OW 7654   3.144   0.726   6.430
 2252SOL    HW1 7655   3.185   0.649   6.479
 2252SOL    HW2 7656   3.184   0.733   6.339
 2253SOL     OW 7657   1.120   3.969   6.780
 2253SOL    HW1 7658   1.090   4.042   6.842
 2253SOL    HW2 7659   1.040   3.921   6.744
 2254SOL     OW 7660   1.917   4.693   6.586
 2254SOL    HW1 7661   2.000   4.737   6.553
 2254SOL    HW2 7662   1.936   4.597   6.607
 2255SOL     OW 7663   6.334   3.481   6.620
 2255SOL    HW1 7664   6.310   3.397   6.670
 2255SOL    HW2 7665   6.255   3.512   6.567
 2256SOL     OW 7666   2.522   4.624   2.125
 2256SOL    HW1 7667   2.501   4.718   2.101
 2256SOL    HW2 7668   2.619   4.606   2.111
 2257SOL     OW 7669   1.666   3.728   4.864
 2257SOL    HW1 7670   1.694   3.666   4.791
 2257SOL    HW2 7671   1.741   3.739   4.929
 2258SOL     OW 7672   2.434   5.265   4.751
 2258SOL    HW1 7673   2.445   5.354   4.706
 2258SOL    HW2 7674   2.443   5.192   4.683
 2259SOL     OW 7675   6.141   3.092   6.231
 2259SOL    HW1 7676   6.117   3.021   6.165
 2259SOL    HW2 7677   6.114   3.181   6.196
 2260SOL     OW 7678   4.408   3.171   0.877
 2260SOL    HW1 7679   4.492   3.120   0.856
 2260SOL    HW2 7680   4.392   3.170   0.976
 2261SOL     OW 7681   2.806   6.151   4.980
 2261SOL    HW1 7682   2.779   6.056   4.995
 2261SOL    HW2 7683   2.794   6.175   4.884
 2262SOL     OW 7684   3.533   1.537   3.042
 2262SOL    HW1 7685   3.556   1.557   3.137
 2262SOL    HW2 7686   3.446   1.489   3.037
 2263SOL     OW 7687   1.089   4.202   6.005
 2263SOL    HW1 7688   1.076   4.286   6.057
 2263SOL    HW2 7689   1.019   4.135   6.033
 2264SOL     OW 7690   3.285   3.704   3.433
 2264SOL    HW1 7691   3.215   3.745   3.492
 2264SOL    HW2 7692   3.332   3.777   3.383
 2265SOL     OW 7693   0.353   6.713   3.540
 2265SOL    HW1 7694   0.361   6.630   3.486
 2265SOL    HW2 7695   0.315   6.786   3.484
 2266SOL     OW 7696   6.267   0.591   5.889
 2266SOL    HW1 7697   6.287   0.505   5.936
 2266SOL    HW2 7698   6.193   0.577   5.824
 2267SOL     OW 7699   5.285   1.816   4.928
 2267SOL    HW1 7700   5.245   1.860   4.848
 2267SOL    HW2 7701   5.377   1.851   4.943
 2268SOL     OW 7702   0.065   5.797   6.974
 2268SOL    HW1 7703   0.034   5.833   0.039
 2268SOL    HW2 7704   0.026   5.853   6.900
 2269SOL     OW 7705   0.073   6.895   2.628
 2269SOL    HW1 7706   0.007   6.970   2.624
 2269SOL    HW2 7707   0.035   6.819   2.680
 2270SOL     OW 7708   3.561   2.933   3.507
 2270SOL    HW1 7709   3.639   2.992   3.525
 2270SOL    HW2 7710   3.576   2.884   3.421
 2271SOL     OW 7711   1.268   4.527   3.262
 2271SOL    HW1 7712   1.365   4.551   3.258
 2271SOL    HW2 7713   1.258   4.439   3.309
 2272SOL     OW 7714   5.061   1.146   5.846
 2272SOL    HW1 7715   5.149   1.103   5.867
 2272SOL    HW2 7716   5.075   1.240   5.815
 2273SOL     OW 7717   0.425   1.196   2.460
 2273SOL    HW1 7718   0.506   1.145   2.432
 2273SOL    HW2 7719   0.438   1.231   2.553
 2274SOL     OW 7720   1.195   4.309   3.459
 2274SOL    HW1 7721   1.177   4.212   3.445
 2274SOL    HW2 7722   1.157   4.338   3.547
 2275SOL     OW 7723   4.948   6.351   4.030
 2275SOL    HW1 7724   5.047   6.353   4.023
 2275SOL    HW2 7725   4.909   6.422   3.971
 2276SOL     OW 7726   3.514   5.817   2.185
 2276SOL    HW1 7727   3.442   5.881   2.214
 2276SOL    HW2 7728   3.473   5.745   2.128
 2277SOL     OW 7729   3.376   3.180   1.618
 2277SOL    HW1 7730   3.463   3.220   1.647
 2277SOL    HW2 7731   3.372   3.178   1.518
 2278SOL     OW 7732   4.216   5.625   1.639
 2278SOL    HW1 7733   4.246   5.712   1.600
 2278SOL    HW2 7734   4.155   5.580   1.574
 2279SOL     OW 7735   5.519   4.085   5.910
 2279SOL    HW1 7736   5.607   4.064   5.866
 2279SOL    HW2 7737   5.532   4.093   6.008
 2280SOL     OW 7738   5.205   0.471   6.021
 2280SOL    HW1 7739   5.188   0.431   5.931
 2280SOL    HW2 7740   5.298   0.450   6.050
 2281SOL     OW 7741   2.110   1.149   0.239
 2281SOL    HW1 7742   2.116   1.050   0.247
 2281SOL    HW2 7743   2.088   1.189   0.328
 2282SOL     OW 7744   3.898   6.038   2.642
 2282SOL    HW1 7745   3.818   6.048   2.702
 2282SOL    HW2 7746   3.868   6.015   2.550
 2283SOL     OW 7747   0.870   3.475   2.042
 2283SOL    HW1 7748   0.969   3.463   2.040
 2283SOL    HW2 7749   0.838   3.472   2.137
 2284SOL     OW 7750   2.009   2.091   1.889
 2284SOL    HW1 7751   2.062   2.168   1.855
 2284SOL    HW2 7752   2.022   2.081   1.987
 2285SOL     OW 7753   1.709   3.547   6.208
 2285SOL    HW1 7754   1.770   3.470   6.190
 2285SOL    HW2 7755   1.614   3.516   6.206
 2286SOL     OW 7756   6.796   6.572   4.567
 2286SOL    HW1 7757   6.860   6.537   4.498
 2286SOL    HW2 7758   6.844   6.582   4.654
 2287SOL     OW 7759   2.454   2.022   0.397
 2287SOL    HW1 7760   2.438   1.965   0.478
 2287SOL    HW2 7761   2.463   1.963   0.317
 2288SOL     OW 7762   2.591   5.760   4.473
 2288SOL    HW1 7763   2.603   5.666   4.441
 2288SOL    HW2 7764   2.520   5.763   4.544
 2289SOL     OW 7765   3.423   0.801   6.970
 2289SOL    HW1 7766   3.515   0.769   6.950
 2289SOL    HW2 7767   3.398   0.874   6.905
 2290SOL     OW 7768   3.342   3.855   4.545
 2290SOL    HW1 7769   3.290   3.782   4.501
 2290SOL    HW2 7770   3.423   3.875   4.490
 2291SOL     OW 7771   2.010   2.564   0.161
 2291SOL    HW1 7772   2.057   2.623   0.096
 2291SOL    HW2 7773   2.014   2.604   0.253
 2292SOL     OW 7774   4.720   1.926   3.277
 2292SOL    HW1 7775   4.625   1.933   3.248
 2292SOL    HW2 7776   4.778   1.977   3.212
 2293SOL     OW 7777   0.807   1.430   6.376
 2293SOL    HW1 7778   0.778   1.508   6.320
 2293SOL    HW2 7779   0.907   1.429   6.382
 2294SOL     OW 7780   6.520   1.756   5.031
 2294SOL    HW1 7781   6.424   1.766   5.059
 2294SOL    HW2 7782   6.540   1.659   5.014
 2295SOL     OW 7783   5.364   5.760   0.788
 2295SOL    HW1 7784   5.431   5.834   0.785
 2295SOL    HW2 7785   5.400   5.681   0.738
 2296SOL     OW 7786   3.505   5.621   4.635
 2296SOL    HW1 7787   3.507   5.717   4.607
 2296SOL    HW2 7788   3.586   5.601   4.690
 2297SOL     OW 7789   6.323   3.408   5.781
 2297SOL    HW1 7790   6.330   3.356   5.697
 2297SOL    HW2 7791   6.282   3.351   5.852
 2298SOL     OW 7792   2.641   3.259   5.303
 2298SOL    HW1 7793   2.583   3.340   5.294
 2298SOL    HW2 7794   2.601   3.184   5.249
 2299SOL     OW 7795   5.973   3.635   4.685
 2299SOL    HW1 7796   6.026   3.554   4.711
 2299SOL    HW2 7797   5.917   3.665   4.763
 2300SOL     OW 7798   5.277   0.022   3.028
 2300SOL    HW1 7799   5.329   0.038   2.944
 2300SOL    HW2 7800   5.338   7.009   3.098
 2301SOL     OW 7801   3.569   3.313   5.019
 2301SOL    HW1 7802   3.550   3.250   5.095
 2301SOL    HW2 7803   3.495   3.306   4.952
 2302SOL     OW 7804   6.589   2.901   6.070
 2302SOL    HW1 7805   6.664   2.934   6.013
 2302SOL    HW2 7806   6.539   2.978   6.108
 2303SOL     OW 7807   2.747   1.660   6.565
 2303SOL    HW1 7808   2.845   1.679   6.574
 2303SOL    HW2 7809   2.733   1.561   6.556
 2304SOL     OW 7810   6.343   0.026   2.276
 2304SOL    HW1 7811   6.327   0.056   2.370
 2304SOL    HW2 7812   6.416   6.981   2.275
 2305SOL     OW 7813   2.973   6.880   5.405
 2305SOL    HW1 7814   3.028   6.849   5.328
 2305SOL    HW2 7815   2.904   6.945   5.374
 2306SOL     OW 7816   1.768   4.652   4.803
 2306SOL    HW1 7817   1.851   4.621   4.757
 2306SOL    HW2 7818   1.691   4.593   4.778
 2307SOL     OW 7819   6.972   3.979   4.510
 2307SOL    HW1 7820   7.018   3.969   4.422
 2307SOL    HW2 7821   7.004   3.909   4.574
 2308SOL     OW 7822   0.698   5.400   2.240
 2308SOL    HW1 7823   0.672   5.476   2.182
 2308SOL    HW2 7824   0.760   5.432   2.312
 2309SOL     OW 7825   2.209   0.568   4.774
 2309SOL    HW1 7826   2.150   0.648   4.783
 2309SOL    HW2 7827   2.216   0.542   4.678
 2310SOL     OW 7828   4.214   0.090   0.453
 2310SOL    HW1 7829   4.155   0.171   0.443
 2310SOL    HW2 7830   4.248   0.084   0.547
 2311SOL     OW 7831   2.370   5.761   0.750
 2311SOL    HW1 7832   2.469   5.758   0.760
 2311SOL    HW2 7833   2.333   5.833   0.809
 2312SOL     OW 7834   3.697   4.903   2.854
 2312SOL    HW1 7835   3.655   4.914   2.944
 2312SOL    HW2 7836   3.787   4.862   2.863
 2313SOL     OW 7837   4.904   4.800   1.765
 2313SOL    HW1 7838   4.831   4.756   1.817
 2313SOL    HW2 7839   4.963   4.851   1.827
 2314SOL     OW 7840   2.463   4.622   3.438
 2314SOL    HW1 7841   2.482   4.537   3.487
 2314SOL    HW2 7842   2.548   4.674   3.429
 2315SOL     OW 7843   4.882   2.121   6.980
 2315SOL    HW1 7844   4.862   2.189   6.909
 2315SOL    HW2 7845   4.855   2.031   6.948
 2316SOL     OW 7846   4.992   3.530   2.104
 2316SOL    HW1 7847   4.959   3.508   2.012
 2316SOL    HW2 7848   5.080   3.485   2.120
 2317SOL     OW 7849   0.766   6.290   3.674
 2317SOL    HW1 7850   0.740   6.312   3.767
 2317SOL    HW2 7851   0.709   6.341   3.610
 2318SOL     OW 7852   0.244   1.613   3.951
 2318SOL    HW1 7853   0.246   1.516   3.927
 2318SOL    HW2 7854   0.170   1.629   4.017
 2319SOL     OW 7855   1.316   4.676   1.553
 2319SOL    HW1 7856   1.323   4.655   1.455
 2319SOL    HW2 7857   1.232   4.727   1.570
 2320SOL     OW 7858   6.350   4.617   4.585
 2320SOL    HW1 7859   6.449   4.620   4.569
 2320SOL    HW2 7860   6.324   4.692   4.647
 2321SOL     OW 7861   3.743   5.159   4.370
 2321SOL    HW1 7862   3.841   5.174   4.382
 2321SOL    HW2 7863   3.723   5.148   4.272
 2322SOL     OW 7864   2.774   0.760   4.397
 2322SOL    HW1 7865   2.681   0.792   4.383
 2322SOL    HW2 7866   2.839   0.830   4.366
 2323SOL     OW 7867   4.959   3.336   1.840
 2323SOL    HW1 7868   4.961   3.269   1.915
 2323SOL    HW2 7869   5.048   3.381   1.833
 2324SOL     OW 7870   0.931   5.186   4.147
 2324SOL    HW1 7871   0.900   5.263   4.092
 2324SOL    HW2 7872   0.945   5.107   4.088
 2325SOL     OW 7873   0.158   2.648   0.521
 2325SOL    HW1 7874   0.253   2.678   0.533
 2325SOL    HW2 7875   0.152   2.593   0.438
 2326SOL     OW 7876   0.802   4.437   0.416
 2326SOL    HW1 7877   0.893   4.474   0.434
 2326SOL    HW2 7878   0.777   4.371   0.487
 2327SOL     OW 7879   5.188   1.072   3.520
 2327SOL    HW1 7880   5.227   0.982   3.499
 2327SOL    HW2 7881   5.106   1.060   3.576
 2328SOL     OW 7882   6.305   5.353   4.076
 2328SOL    HW1 7883   6.360   5.277   4.110
 2328SOL    HW2 7884   6.226   5.317   4.027
 2329SOL     OW 7885   1.208   5.804   3.561
 2329SOL    HW1 7886   1.212   5.748   3.644
 2329SOL    HW2 7887   1.299   5.838   3.539
 2330SOL     OW 7888   1.131   4.478   0.607
 2330SOL    HW1 7889   1.067   4.530   0.665
 2330SOL    HW2 7890   1.178   4.410   0.663
 2331SOL     OW 7891   1.011   4.655   5.050
 2331SOL    HW1 7892   0.947   4.627   4.978
 2331SOL    HW2 7893   0.985   4.612   5.137
 2332SOL     OW 7894   5.529   3.096   5.791
 2332SOL    HW1 7895   5.604   3.114   5.728
 2332SOL    HW2 7896   5.561   3.107   5.885
 2333SOL     OW 7897   2.771   4.811   3.545
 2333SOL    HW1 7898   2.738   4.902   3.519
 2333SOL    HW2 7899   2.848   4.820   3.609
 2334SOL     OW 7900   2.570   0.335   6.204
 2334SOL    HW1 7901   2.574   0.397   6.281
 2334SOL    HW2 7902   2.479   0.294   6.199
 2335SOL     OW 7903   4.438   4.571   4.582
 2335SOL    HW1 7904   4.347   4.543   4.612
 2335SOL    HW2 7905   4.505   4.551   4.654
 2336SOL     OW 7906   4.230   2.819   5.794
 2336SOL    HW1 7907   4.136   2.849   5.811
 2336SOL    HW2 7908   4.269   2.871   5.718
 2337SOL     OW 7909   6.236   0.352   4.631
 2337SOL    HW1 7910   6.291   0.399   4.562
 2337SOL    HW2 7911   6.227   0.255   4.606
 2338SOL     OW 7912   1.676   0.132   6.783
 2338SOL    HW1 7913   1.771   0.140   6.752
 2338SOL    HW2 7914   1.672   0.069   6.861
 2339SOL     OW 7915   4.183   5.008   0.256
 2339SOL    HW1 7916   4.083   5.010   0.244
 2339SOL    HW2 7917   4.223   5.092   0.218
 2340SOL     OW 7918   3.253   5.224   4.375
 2340SOL    HW1 7919   3.321   5.285   4.417
 2340SOL    HW2 7920   3.233   5.255   4.282
 2341SOL     OW 7921   5.854   5.198   6.558
 2341SOL    HW1 7922   5.857   5.202   6.458
 2341SOL    HW2 7923   5.883   5.286   6.596
 2342SOL     OW 7924   6.618   0.991   5.466
 2342SOL    HW1 7925   6.663   0.903   5.452
 2342SOL    HW2 7926   6.639   1.025   5.557
 2343SOL     OW 7927   0.980   0.040   0.369
 2343SOL    HW1 7928   0.902   7.011   0.403
 2343SOL    HW2 7929   1.054   0.038   0.437
 2344SOL     OW 7930   2.500   0.765   2.768
 2344SOL    HW1 7931   2.538   0.847   2.811
 2344SOL    HW2 7932   2.564   0.729   2.701
 2345SOL     OW 7933   1.115   1.990   1.952
 2345SOL    HW1 7934   1.139   2.079   1.912
 2345SOL    HW2 7935   1.016   1.978   1.948
 2346SOL     OW 7936   4.479   3.170   5.369
 2346SOL    HW1 7937   4.554   3.217   5.323
 2346SOL    HW2 7938   4.487   3.072   5.354
 2347SOL     OW 7939   2.067   3.389   1.001
 2347SOL    HW1 7940   1.986   3.331   0.993
 2347SOL    HW2 7941   2.039   3.485   1.010
 2348SOL     OW 7942   2.206   6.744   1.791
 2348SOL    HW1 7943   2.196   6.717   1.695
 2348SOL    HW2 7944   2.290   6.798   1.802
 2349SOL     OW 7945   5.172   3.842   6.949
 2349SOL    HW1 7946   5.141   3.831   6.854
 2349SOL    HW2 7947   5.109   3.900   6.999
 2350SOL     OW 7948   2.438   6.247   5.229
 2350SOL    HW1 7949   2.446   6.290   5.139
 2350SOL    HW2 7950   2.529   6.238   5.269
 2351SOL     OW 7951   1.640   5.231   2.776
 2351SOL    HW1 7952   1.547   5.234   2.812
 2351SOL    HW2 7953   1.692   5.308   2.814
 2352SOL     OW 7954   5.928   5.020   0.973
 2352SOL    HW1 7955   5.877   4.959   0.911
 2352SOL    HW2 7956   5.963   5.097   0.921
 2353SOL     OW 7957   2.462   3.584   6.088
 2353SOL    HW1 7958   2.504   3.618   6.004
 2353SOL    HW2 7959   2.402   3.507   6.066
 2354SOL     OW 7960   4.643   1.604   2.282
 2354SOL    HW1 7961   4.582   1.680   2.259
 2354SOL    HW2 7962   4.733   1.639   2.307
 2355SOL     OW 7963   0.208   1.733   1.660
 2355SOL    HW1 7964   0.216   1.676   1.578
 2355SOL    HW2 7965   0.246   1.824   1.641
 2356SOL     OW 7966   2.883   5.047   3.761
 2356SOL    HW1 7967   2.887   4.947   3.771
 2356SOL    HW2 7968   2.976   5.084   3.758
 2357SOL     OW 7969   1.336   4.778   0.734
 2357SOL    HW1 7970   1.303   4.755   0.643
 2357SOL    HW2 7971   1.321   4.702   0.796
 2358SOL     OW 7972   3.114   0.892   5.172
 2358SOL    HW1 7973   3.139   0.979   5.128
 2358SOL    HW2 7974   3.130   0.899   5.271
 2359SOL     OW 7975   2.036   2.235   5.574
 2359SOL    HW1 7976   2.110   2.168   5.586
 2359SOL    HW2 7977   1.958   2.208   5.629
 2360SOL     OW 7978   3.217   5.138   0.821
 2360SOL    HW1 7979   3.145   5.201   0.792
 2360SOL    HW2 7980   3.235   5.150   0.918
 2361SOL     OW 7981   3.681   5.864   1.060
 2361SOL    HW1 7982   3.596   5.828   1.021
 2361SOL    HW2 7983   3.659   5.921   1.139
 2362SOL     OW 7984   3.450   4.927   3.913
 2362SOL    HW1 7985   3.508   4.871   3.972
 2362SOL    HW2 7986   3.446   5.020   3.949
 2363SOL     OW 7987   2.155   3.799   1.239
 2363SOL    HW1 7988   2.068   3.806   1.289
 2363SOL    HW2 7989   2.140   3.822   1.143
 2364SOL     OW 7990   4.008   1.383   2.285
 2364SOL    HW1 7991   3.911   1.384   2.262
 2364SOL    HW2 7992   4.047   1.474   2.270
 2365SOL     OW 7993   5.469   4.318   2.892
 2365SOL    HW1 7994   5.478   4.303   2.990
 2365SOL    HW2 7995   5.536   4.263   2.843
 2366SOL     OW 7996   3.030   5.253   4.972
 2366SOL    HW1 7997   2.950   5.239   4.914
 2366SOL    HW2 7998   3.057   5.349   4.969
 2367SOL     OW 7999   5.646   5.079   5.697
 2367SOL    HW1 8000   5.645   5.007   5.628
 2367SOL    HW2 8001   5.739   5.113   5.708
 2368SOL     OW 8002   5.090   0.996   5.209
 2368SOL    HW1 8003   5.150   0.936   5.262
 2368SOL    HW2 8004   5.145   1.067   5.164
 2369SOL     OW 8005   3.804   2.072   4.164
 2369SOL    HW1 8006   3.713   2.053   4.203
 2369SOL    HW2 8007   3.825   2.003   4.095
 2370SOL     OW 8008   5.537   1.792   1.799
 2370SOL    HW1 8009   5.578   1.704   1.775
 2370SOL    HW2 8010   5.452   1.803   1.749
 2371SOL     OW 8011   1.301   6.320   1.716
 2371SOL    HW1 8012   1.360   6.360   1.646
 2371SOL    HW2 8013   1.248   6.392   1.761
 2372SOL     OW 8014   6.788   0.650   6.026
 2372SOL    HW1 8015   6.801   0.571   5.966
 2372SOL    HW2 8016   6.741   0.621   6.110
 2373SOL     OW 8017   6.141   4.588   5.862
 2373SOL    HW1 8018   6.084   4.530   5.803
 2373SOL    HW2 8019   6.203   4.530   5.916
 2374SOL     OW 8020   6.712   6.211   2.104
 2374SOL    HW1 8021   6.624   6.244   2.138
 2374SOL    HW2 8022   6.727   6.246   2.011
 2375SOL     OW 8023   1.591   0.338   3.949
 2375SOL    HW1 8024   1.616   0.286   4.030
 2375SOL    HW2 8025   1.624   0.432   3.958
 2376SOL     OW 8026   5.046   2.396   3.270
 2376SOL    HW1 8027   5.027   2.382   3.367
 2376SOL    HW2 8028   4.961   2.423   3.224
 2377SOL     OW 8029   4.109   3.943   5.819
 2377SOL    HW1 8030   4.155   4.020   5.864
 2377SOL    HW2 8031   4.018   3.973   5.788
 2378SOL     OW 8032   0.480   0.877   0.524
 2378SOL    HW1 8033   0.439   0.967   0.544
 2378SOL    HW2 8034   0.416   0.824   0.468
 2379SOL     OW 8035   0.365   5.142   2.606
 2379SOL    HW1 8036   0.408   5.067   2.557
 2379SOL    HW2 8037   0.412   5.157   2.693
 2380SOL     OW 8038   4.184   5.845   6.626
 2380SOL    HW1 8039   4.273   5.892   6.620
 2380SOL    HW2 8040   4.114   5.911   6.652
 2381SOL     OW 8041   2.093   3.414   3.906
 2381SOL    HW1 8042   2.068   3.416   3.809
 2381SOL    HW2 8043   2.164   3.345   3.921
 2382SOL     OW 8044   0.184   5.375   3.118
 2382SOL    HW1 8045   0.151   5.403   3.209
 2382SOL    HW2 8046   0.257   5.308   3.128
 2383SOL     OW 8047   4.630   4.093   5.748
 2383SOL    HW1 8048   4.596   4.185   5.728
 2383SOL    HW2 8049   4.580   4.026   5.693
 2384SOL     OW 8050   0.279   2.280   2.160
 2384SOL    HW1 8051   0.283   2.213   2.234
 2384SOL    HW2 8052   0.325   2.364   2.188
 2385SOL     OW 8053   0.251   0.931   0.066
 2385SOL    HW1 8054   0.156   0.902   0.074
 2385SOL    HW2 8055   0.283   0.915   6.996
 2386SOL     OW 8056   5.968   5.616   4.819
 2386SOL    HW1 8057   5.894   5.623   4.885
 2386SOL    HW2 8058   6.024   5.536   4.840
 2387SOL     OW 8059   0.983   0.766   3.782
 2387SOL    HW1 8060   1.053   0.833   3.807
 2387SOL    HW2 8061   1.027   0.682   3.751
 2388SOL     OW 8062   0.707   3.308   5.667
 2388SOL    HW1 8063   0.751   3.260   5.591
 2388SOL    HW2 8064   0.774   3.368   5.710
 2389SOL     OW 8065   4.170   5.416   3.381
 2389SOL    HW1 8066   4.231   5.380   3.451
 2389SOL    HW2 8067   4.139   5.342   3.322
 2390SOL     OW 8068   5.041   2.633   6.404
 2390SOL    HW1 8069   4.942   2.632   6.421
 2390SOL    HW2 8070   5.059   2.613   6.307
 2391SOL     OW 8071   3.129   3.771   6.841
 2391SOL    HW1 8072   3.122   3.751   6.743
 2391SOL    HW2 8073   3.150   3.868   6.854
 2392SOL     OW 8074   3.804   5.010   5.808
 2392SOL    HW1 8075   3.737   5.029   5.736
 2392SOL    HW2 8076   3.857   5.093   5.827
 2393SOL     OW 8077   3.778   4.208   0.420
 2393SOL    HW1 8078   3.813   4.302   0.432
 2393SOL    HW2 8079   3.684   4.211   0.386
 2394SOL     OW 8080   6.181   1.439   4.073
 2394SOL    HW1 8081   6.127   1.450   4.157
 2394SOL    HW2 8082   6.223   1.527   4.050
 2395SOL     OW 8083   1.646   2.899   3.852
 2395SOL    HW1 8084   1.562   2.897   3.798
 2395SOL    HW2 8085   1.725   2.904   3.791
 2396SOL     OW 8086   6.758   0.301   6.394
 2396SOL    HW1 8087   6.680   0.283   6.454
 2396SOL    HW2 8088   6.835   0.334   6.448
 2397SOL     OW 8089   2.151   4.625   5.173
 2397SOL    HW1 8090   2.158   4.594   5.268
 2397SOL    HW2 8091   2.170   4.723   5.169
 2398SOL     OW 8092   4.130   6.099   4.280
 2398SOL    HW1 8093   4.183   6.136   4.204
 2398SOL    HW2 8094   4.190   6.043   4.338
 2399SOL     OW 8095   3.120   1.635   2.624
 2399SOL    HW1 8096   3.063   1.706   2.581
 2399SOL    HW2 8097   3.197   1.613   2.564
 2400SOL     OW 8098   1.631   3.369   0.283
 2400SOL    HW1 8099   1.687   3.330   0.211
 2400SOL    HW2 8100   1.587   3.296   0.335
 2401SOL     OW 8101   2.009   6.235   6.903
 2401SOL    HW1 8102   1.982   6.140   6.921
 2401SOL    HW2 8103   2.047   6.242   6.811
 2402SOL     OW 8104   1.211   4.177   2.315
 2402SOL    HW1 8105   1.159   4.261   2.332
 2402SOL    HW2 8106   1.252   4.145   2.400
 2403SOL     OW 8107   3.057   3.916   5.316
 2403SOL    HW1 8108   3.005   3.999   5.296
 2403SOL    HW2 8109   3.153   3.940   5.333
 2404SOL     OW 8110   6.021   1.471   1.336
 2404SOL    HW1 8111   6.051   1.548   1.391
 2404SOL    HW2 8112   5.978   1.504   1.252
 2405SOL     OW 8113   2.090   2.932   0.565
 2405SOL    HW1 8114   2.088   2.966   0.471
 2405SOL    HW2 8115   2.175   2.962   0.609
 2406SOL     OW 8116   3.735   5.546   4.784
 2406SOL    HW1 8117   3.816   5.574   4.836
 2406SOL    HW2 8118   3.719   5.449   4.798
 2407SOL     OW 8119   2.536   1.958   3.229
 2407SOL    HW1 8120   2.463   1.943   3.162
 2407SOL    HW2 8121   2.555   1.873   3.278
 2408SOL     OW 8122   3.358   0.311   5.674
 2408SOL    HW1 8123   3.287   0.286   5.609
 2408SOL    HW2 8124   3.430   0.241   5.675
 2409SOL     OW 8125   0.738   2.913   0.142
 2409SOL    HW1 8126   0.779   2.831   0.103
 2409SOL    HW2 8127   0.639   2.913   0.125
 2410SOL     OW 8128   6.907   3.433   4.321
 2410SOL    HW1 8129   6.855   3.356   4.283
 2410SOL    HW2 8130   6.962   3.401   4.398
 2411SOL     OW 8131   3.077   1.752   6.989
 2411SOL    HW1 8132   3.019   1.792   0.037
 2411SOL    HW2 8133   3.020   1.713   6.917
 2412SOL     OW 8134   3.332   2.265   6.050
 2412SOL    HW1 8135   3.392   2.238   6.126
 2412SOL    HW2 8136   3.242   2.290   6.086
 2413SOL     OW 8137   0.327   3.894   6.823
 2413SOL    HW1 8138   0.416   3.879   6.779
 2413SOL    HW2 8139   0.256   3.844   6.772
 2414SOL     OW 8140   6.984   1.443   5.299
 2414SOL    HW1 8141   6.972   1.503   5.379
 2414SOL    HW2 8142   7.023   1.356   5.329
 2415SOL     OW 8143   3.228   4.947   6.455
 2415SOL    HW1 8144   3.178   4.903   6.381
 2415SOL    HW2 8145   3.186   5.035   6.476
 2416SOL     OW 8146   0.248   2.562   2.852
 2416SOL    HW1 8147   0.335   2.611   2.841
 2416SOL    HW2 8148   0.265   2.476   2.900
 2417SOL     OW 8149   3.575   2.217   1.198
 2417SOL    HW1 8150   3.494   2.252   1.246
 2417SOL    HW2 8151   3.574   2.117   1.201
 2418SOL     OW 8152   4.990   4.386   0.089
 2418SOL    HW1 8153   5.031   4.477   0.085
 2418SOL    HW2 8154   5.032   4.333   0.162
 2419SOL     OW 8155   3.132   0.997   3.147
 2419SOL    HW1 8156   3.205   1.040   3.094
 2419SOL    HW2 8157   3.046   1.044   3.129
 2420SOL     OW 8158   1.576   3.729   2.680
 2420SOL    HW1 8159   1.661   3.781   2.694
 2420SOL    HW2 8160   1.577   3.688   2.589
 2421SOL     OW 8161   2.816   6.985   3.484
 2421SOL    HW1 8162   2.854   6.902   3.525
 2421SOL    HW2 8163   2.832   0.039   3.544
 2422SOL     OW 8164   4.277   5.414   0.584
 2422SOL    HW1 8165   4.179   5.416   0.604
 2422SOL    HW2 8166   4.315   5.506   0.594
 2423SOL     OW 8167   2.703   5.377   3.989
 2423SOL    HW1 8168   2.788   5.347   4.033
 2423SOL    HW2 8169   2.701   5.343   3.895
 2424SOL     OW 8170   4.641   6.589   6.443
 2424SOL    HW1 8171   4.726   6.553   6.480
 2424SOL    HW2 8172   4.652   6.686   6.420
 2425SOL     OW 8173   3.815   5.691   5.156
 2425SOL    HW1 8174   3.915   5.687   5.153
 2425SOL    HW2 8175   3.778   5.598   5.159
 2426SOL     OW 8176   2.800   2.302   4.979
 2426SOL    HW1 8177   2.869   2.283   5.049
 2426SOL    HW2 8178   2.738   2.373   5.011
 2427SOL     OW 8179   4.804   1.749   0.670
 2427SOL    HW1 8180   4.811   1.773   0.573
 2427SOL    HW2 8181   4.787   1.651   0.678
 2428SOL     OW 8182   1.681   1.601   3.020
 2428SOL    HW1 8183   1.636   1.690   3.026
 2428SOL    HW2 8184   1.705   1.582   2.925
 2429SOL     OW 8185   6.367   5.845   0.913
 2429SOL    HW1 8186   6.318   5.871   0.996
 2429SOL    HW2 8187   6.453   5.897   0.907
 2430SOL     OW 8188   6.262   0.593   6.178
 2430SOL    HW1 8189   6.331   0.665   6.190
 2430SOL    HW2 8190   6.247   0.578   6.080
 2431SOL     OW 8191   1.218   3.250   2.114
 2431SOL    HW1 8192   1.221   3.161   2.068
 2431SOL    HW2 8193   1.163   3.242   2.198
 2432SOL     OW 8194   2.336   5.524   2.232
 2432SOL    HW1 8195   2.398   5.450   2.207
 2432SOL    HW2 8196   2.316   5.519   2.330
 2433SOL     OW 8197   0.286   4.229   5.280
 2433SOL    HW1 8198   0.338   4.213   5.196
 2433SOL    HW2 8199   0.343   4.206   5.359
 2434SOL     OW 8200   4.682   1.090   3.476
 2434SOL    HW1 8201   4.634   1.143   3.406
 2434SOL    HW2 8202   4.616   1.053   3.542
 2435SOL     OW 8203   6.090   6.442   6.577
 2435SOL    HW1 8204   6.183   6.474   6.559
 2435SOL    HW2 8205   6.059   6.385   6.501
 2436SOL     OW 8206   0.122   3.241   0.362
 2436SOL    HW1 8207   0.090   3.327   0.402
 2436SOL    HW2 8208   0.176   3.260   0.280
 2437SOL     OW 8209   0.157   4.030   1.200
 2437SOL    HW1 8210   0.142   4.100   1.130
 2437SOL    HW2 8211   0.254   4.008   1.206
 2438SOL     OW 8212   3.675   1.689   4.557
 2438SOL    HW1 8213   3.731   1.764   4.520
 2438SOL    HW2 8214   3.689   1.607   4.501
 2439SOL     OW 8215   0.936   5.607   1.412
 2439SOL    HW1 8216   0.837   5.618   1.425
 2439SOL    HW2 8217   0.983   5.622   1.500
 2440SOL     OW 8218   6.485   1.158   5.252
 2440SOL    HW1 8219   6.515   1.088   5.317
 2440SOL    HW2 8220   6.515   1.248   5.282
 2441SOL     OW 8221   5.990   0.945   0.854
 2441SOL    HW1 8222   6.019   0.863   0.903
 2441SOL    HW2 8223   6.071   0.997   0.826
 2442SOL     OW 8224   5.218   3.391   2.111
 2442SOL    HW1 8225   5.195   3.307   2.160
 2442SOL    HW2 8226   5.307   3.424   2.143
 2443SOL     OW 8227   0.635   3.493   1.246
 2443SOL    HW1 8228   0.649   3.442   1.161
 2443SOL    HW2 8229   0.565   3.448   1.301
 2444SOL     OW 8230   3.356   5.290   2.350
 2444SOL    HW1 8231   3.314   5.199   2.356
 2444SOL    HW2 8232   3.354   5.334   2.440
 2445SOL     OW 8233   0.712   2.129   0.777
 2445SOL    HW1 8234   0.678   2.214   0.816
 2445SOL    HW2 8235   0.760   2.148   0.692
 2446SOL     OW 8236   0.290   5.623   2.190
 2446SOL    HW1 8237   0.249   5.714   2.192
 2446SOL    HW2 8238   0.270   5.575   2.276
 2447SOL     OW 8239   1.748   6.975   0.623
 2447SOL    HW1 8240   1.734   6.911   0.547
 2447SOL    HW2 8241   1.773   6.925   0.705
 2448SOL     OW 8242   5.899   0.947   4.374
 2448SOL    HW1 8243   5.956   0.866   4.385
 2448SOL    HW2 8244   5.879   0.986   4.463
 2449SOL     OW 8245   1.874   4.254   0.895
 2449SOL    HW1 8246   1.795   4.210   0.938
 2449SOL    HW2 8247   1.862   4.253   0.795
 2450SOL     OW 8248   0.512   6.512   4.913
 2450SOL    HW1 8249   0.533   6.598   4.867
 2450SOL    HW2 8250   0.581   6.443   4.890
 2451SOL     OW 8251   2.037   6.685   5.786
 2451SOL    HW1 8252   2.060   6.618   5.857
 2451SOL    HW2 8253   2.107   6.684   5.715
 2452SOL     OW 8254   2.296   1.448   4.150
 2452SOL    HW1 8255   2.293   1.397   4.237
 2452SOL    HW2 8256   2.344   1.393   4.082
 2453SOL     OW 8257   1.457   2.103   5.787
 2453SOL    HW1 8258   1.550   2.135   5.774
 2453SOL    HW2 8259   1.393   2.170   5.750
 2454SOL     OW 8260   3.108   5.725   1.053
 2454SOL    HW1 8261   3.119   5.760   1.146
 2454SOL    HW2 8262   3.168   5.646   1.039
 2455SOL     OW 8263   4.211   2.149   0.898
 2455SOL    HW1 8264   4.183   2.240   0.929
 2455SOL    HW2 8265   4.246   2.155   0.805
 2456SOL     OW 8266   0.571   3.811   5.931
 2456SOL    HW1 8267   0.516   3.743   5.979
 2456SOL    HW2 8268   0.668   3.790   5.943
 2457SOL     OW 8269   4.009   1.878   5.510
 2457SOL    HW1 8270   4.015   1.819   5.430
 2457SOL    HW2 8271   4.079   1.851   5.576
 2458SOL     OW 8272   0.233   0.104   2.676
 2458SOL    HW1 8273   0.179   0.131   2.755
 2458SOL    HW2 8274   0.210   0.010   2.650
 2459SOL     OW 8275   1.565   6.928   0.908
 2459SOL    HW1 8276   1.598   6.991   0.979
 2459SOL    HW2 8277   1.640   6.868   0.880
 2460SOL     OW 8278   0.415   1.197   4.384
 2460SOL    HW1 8279   0.469   1.178   4.466
 2460SOL    HW2 8280   0.389   1.112   4.340
 2461SOL     OW 8281   3.769   1.529   3.946
 2461SOL    HW1 8282   3.853   1.571   3.912
 2461SOL    HW2 8283   3.741   1.456   3.885
 2462SOL     OW 8284   0.521   5.557   0.337
 2462SOL    HW1 8285   0.577   5.493   0.284
 2462SOL    HW2 8286   0.434   5.572   0.291
 2463SOL     OW 8287   6.558   0.073   7.017
 2463SOL    HW1 8288   6.521   0.158   0.033
 2463SOL    HW2 8289   6.617   0.028   0.061
 2464SOL     OW 8290   0.838   2.690   4.425
 2464SOL    HW1 8291   0.834   2.729   4.517
 2464SOL    HW2 8292   0.853   2.763   4.358
 2465SOL     OW 8293   6.803   7.019   6.325
 2465SOL    HW1 8294   6.752   6.976   6.399
 2465SOL    HW2 8295   6.808   0.094   6.341
 2466SOL     OW 8296   0.824   1.966   1.927
 2466SOL    HW1 8297   0.758   1.900   1.962
 2466SOL    HW2 8298   0.853   1.940   1.835
 2467SOL     OW 8299   5.343   3.241   5.111
 2467SOL    HW1 8300   5.388   3.327   5.137
 2467SOL    HW2 8301   5.339   3.181   5.190
 2468SOL     OW 8302   3.424   0.024   5.481
 2468SOL    HW1 8303   3.477   6.968   5.511
 2468SOL    HW2 8304   3.476   0.073   5.411
 2469SOL     OW 8305   3.372   2.011   5.913
 2469SOL    HW1 8306   3.442   2.014   5.842
 2469SOL    HW2 8307   3.337   2.103   5.930
 2470SOL     OW 8308   2.584   5.373   6.786
 2470SOL    HW1 8309   2.486   5.387   6.803
 2470SOL    HW2 8310   2.612   5.285   6.824
 2471SOL     OW 8311   2.985   5.078   2.050
 2471SOL    HW1 8312   2.998   5.155   1.988
 2471SOL    HW2 8313   2.891   5.077   2.084
 2472SOL     OW 8314   4.670   1.398   3.591
 2472SOL    HW1 8315   4.635   1.305   3.596
 2472SOL    HW2 8316   4.688   1.422   3.495
 2473SOL     OW 8317   0.679   4.026   4.071
 2473SOL    HW1 8318   0.711   4.118   4.050
 2473SOL    HW2 8319   0.705   3.964   3.997
 2474SOL     OW 8320   0.787   6.146   1.951
 2474SOL    HW1 8321   0.845   6.168   1.872
 2474SOL    HW2 8322   0.723   6.221   1.968
 2475SOL     OW 8323   4.634   1.163   0.388
 2475SOL    HW1 8324   4.640   1.064   0.383
 2475SOL    HW2 8325   4.691   1.204   0.317
 2476SOL     OW 8326   4.546   0.625   0.831
 2476SOL    HW1 8327   4.611   0.663   0.897
 2476SOL    HW2 8328   4.574   0.532   0.807
 2477SOL     OW 8329   3.804   0.172   3.415
 2477SOL    HW1 8330   3.845   0.247   3.465
 2477SOL    HW2 8331   3.705   0.171   3.431
 2478SOL     OW 8332   4.596   0.115   4.616
 2478SOL    HW1 8333   4.663   0.064   4.562
 2478SOL    HW2 8334   4.580   0.068   4.703
 2479SOL     OW 8335   5.863   3.183   1.395
 2479SOL    HW1 8336   5.937   3.117   1.408
 2479SOL    HW2 8337   5.795   3.171   1.467
 2480SOL     OW 8338   3.761   2.239   1.419
 2480SOL    HW1 8339   3.708   2.228   1.335
 2480SOL    HW2 8340   3.846   2.187   1.411
 2481SOL     OW 8341   3.155   6.678   2.094
 2481SOL    HW1 8342   3.061   6.646   2.086
 2481SOL    HW2 8343   3.205   6.619   2.157
 2482SOL     OW 8344   6.502   3.433   6.994
 2482SOL    HW1 8345   6.449   3.518   6.992
 2482SOL    HW2 8346   6.599   3.454   6.980
 2483SOL     OW 8347   1.668   2.334   0.826
 2483SOL    HW1 8348   1.570   2.319   0.841
 2483SOL    HW2 8349   1.689   2.431   0.835
 2484SOL     OW 8350   4.307   0.474   0.235
 2484SOL    HW1 8351   4.385   0.445   0.291
 2484SOL    HW2 8352   4.231   0.499   0.294
 2485SOL     OW 8353   0.560   2.229   6.225
 2485SOL    HW1 8354   0.629   2.157   6.224
 2485SOL    HW2 8355   0.583   2.295   6.297
 2486SOL     OW 8356   0.143   5.876   3.922
 2486SOL    HW1 8357   0.053   5.871   3.964
 2486SOL    HW2 8358   0.151   5.807   3.851
 2487SOL     OW 8359   4.637   6.099   6.989
 2487SOL    HW1 8360   4.548   6.059   6.964
 2487SOL    HW2 8361   4.643   6.109   0.064
 2488SOL     OW 8362   6.455   4.032   0.512
 2488SOL    HW1 8363   6.501   3.963   0.569
 2488SOL    HW2 8364   6.403   3.985   0.440
 2489SOL     OW 8365   6.153   5.077   4.358
 2489SOL    HW1 8366   6.138   5.080   4.457
 2489SOL    HW2 8367   6.086   5.136   4.313
 2490SOL     OW 8368   2.422   5.692   3.280
 2490SOL    HW1 8369   2.520   5.703   3.263
 2490SOL    HW2 8370   2.405   5.601   3.316
 2491SOL     OW 8371   3.802   4.619   1.581
 2491SOL    HW1 8372   3.754   4.534   1.560
 2491SOL    HW2 8373   3.899   4.608   1.560
 2492SOL     OW 8374   6.567   5.001   1.510
 2492SOL    HW1 8375   6.483   5.055   1.508
 2492SOL    HW2 8376   6.643   5.060   1.537
 2493SOL     OW 8377   5.310   6.999   0.979
 2493SOL    HW1 8378   5.282   6.911   0.939
 2493SOL    HW2 8379   5.388   0.011   0.928
 2494SOL     OW 8380   6.767   3.814   1.450
 2494SOL    HW1 8381   6.857   3.774   1.467
 2494SOL    HW2 8382   6.773   3.878   1.373
 2495SOL     OW 8383   0.628   4.659   1.968
 2495SOL    HW1 8384   0.689   4.715   1.911
 2495SOL    HW2 8385   0.677   4.629   2.050
 2496SOL     OW 8386   5.705   5.000   6.728
 2496SOL    HW1 8387   5.662   5.045   6.805
 2496SOL    HW2 8388   5.730   5.069   6.659
 2497SOL     OW 8389   0.392   6.841   2.046
 2497SOL    HW1 8390   0.478   6.795   2.022
 2497SOL    HW2 8391   0.413   6.929   2.088
 2498SOL     OW 8392   1.905   3.561   5.425
 2498SOL    HW1 8393   1.882   3.539   5.519
 2498SOL    HW2 8394   1.926   3.659   5.418
 2499SOL     OW 8395   0.349   3.835   1.473
 2499SOL    HW1 8396   0.337   3.856   1.376
 2499SOL    HW2 8397   0.308   3.907   1.529
 2500SOL     OW 8398   3.629   3.121   0.993
 2500SOL    HW1 8399   3.533   3.091   0.994
 2500SOL    HW2 8400   3.670   3.096   0.905
 2501SOL     OW 8401   5.961   5.436   6.616
 2501SOL    HW1 8402   5.882   5.480   6.573
 2501SOL    HW2 8403   6.008   5.501   6.675
 2502SOL     OW 8404   2.470   6.148   4.481
 2502SOL    HW1 8405   2.494   6.102   4.395
 2502SOL    HW2 8406   2.440   6.241   4.461
 2503SOL     OW 8407   3.264   6.647   5.873
 2503SOL    HW1 8408   3.189   6.666   5.935
 2503SOL    HW2 8409   3.301   6.556   5.892
 2504SOL     OW 8410   4.074   6.774   3.710
 2504SOL    HW1 8411   4.159   6.819   3.682
 2504SOL    HW2 8412   4.001   6.798   3.646
 2505SOL     OW 8413   6.997   4.433   3.929
 2505SOL    HW1 8414   0.005   4.390   4.014
 2505SOL    HW2 8415   6.962   4.363   3.867
 2506SOL     OW 8416   5.354   5.479   5.872
 2506SOL    HW1 8417   5.345   5.522   5.962
 2506SOL    HW2 8418   5.285   5.407   5.863
 2507SOL     OW 8419   7.007   3.108   1.985
 2507SOL    HW1 8420   0.006   3.031   2.045
 2507SOL    HW2 8421   6.911   3.101   1.956
 2508SOL     OW 8422   5.369   1.561   4.553
 2508SOL    HW1 8423   5.454   1.523   4.516
 2508SOL    HW2 8424   5.294   1.545   4.488
 2509SOL     OW 8425   0.258   3.404   5.815
 2509SOL    HW1 8426   0.194   3.480   5.808
 2509SOL    HW2 8427   0.333   3.416   5.750
 2510SOL     OW 8428   3.289   3.819   2.200
 2510SOL    HW1 8429   3.290   3.754   2.124
 2510SOL    HW2 8430   3.198   3.862   2.205
 2511SOL     OW 8431   2.164   0.474   4.452
 2511SOL    HW1 8432   2.201   0.478   4.359
 2511SOL    HW2 8433   2.089   0.408   4.455
 2512SOL     OW 8434   3.895   4.856   4.270
 2512SOL    HW1 8435   3.797   4.840   4.270
 2512SOL    HW2 8436   3.943   4.771   4.289
 2513SOL     OW 8437   2.538   5.457   6.074
 2513SOL    HW1 8438   2.567   5.544   6.113
 2513SOL    HW2 8439   2.617   5.412   6.032
 2514SOL     OW 8440   1.295   1.842   2.746
 2514SOL    HW1 8441   1.379   1.896   2.743
 2514SOL    HW2 8442   1.222   1.896   2.789
 2515SOL     OW 8443   1.228   1.416   1.543
 2515SOL    HW1 8444   1.311   1.444   1.493
 2515SOL    HW2 8445   1.225   1.316   1.548
 2516SOL     OW 8446   5.936   1.991   4.607
 2516SOL    HW1 8447   5.872   1.997   4.683
 2516SOL    HW2 8448   5.886   1.979   4.521
 2517SOL     OW 8449   1.312   1.655   4.085
 2517SOL    HW1 8450   1.245   1.582   4.078
 2517SOL    HW2 8451   1.271   1.741   4.058
 2518SOL     OW 8452   2.587   4.971   1.425
 2518SOL    HW1 8453   2.612   4.890   1.476
 2518SOL    HW2 8454   2.667   5.031   1.415
 2519SOL     OW 8455   0.927   1.146   0.898
 2519SOL    HW1 8456   0.865   1.139   0.976
 2519SOL    HW2 8457   0.989   1.067   0.898
 2520SOL     OW 8458   2.571   2.214   0.122
 2520SOL    HW1 8459   2.502   2.180   0.185
 2520SOL    HW2 8460   2.597   2.307   0.148
 2521SOL     OW 8461   4.826   1.057   5.261
 2521SOL    HW1 8462   4.787   1.069   5.352
 2521SOL    HW2 8463   4.922   1.027   5.270
 2522SOL     OW 8464   1.349   2.234   6.648
 2522SOL    HW1 8465   1.395   2.317   6.616
 2522SOL    HW2 8466   1.403   2.154   6.621
 2523SOL     OW 8467   1.985   5.345   6.789
 2523SOL    HW1 8468   2.065   5.308   6.743
 2523SOL    HW2 8469   1.934   5.271   6.833
 2524SOL     OW 8470   1.417   0.568   4.249
 2524SOL    HW1 8471   1.409   0.479   4.294
 2524SOL    HW2 8472   1.343   0.577   4.182
 2525SOL     OW 8473   6.722   2.584   5.701
 2525SOL    HW1 8474   6.798   2.521   5.687
 2525SOL    HW2 8475   6.735   2.634   5.787
 2526SOL     OW 8476   1.500   6.835   1.253
 2526SOL    HW1 8477   1.553   6.840   1.168
 2526SOL    HW2 8478   1.523   6.752   1.302
 2527SOL     OW 8479   4.682   5.056   5.995
 2527SOL    HW1 8480   4.636   5.121   5.935
 2527SOL    HW2 8481   4.641   4.965   5.983
 2528SOL     OW 8482   4.523   5.707   6.644
 2528SOL    HW1 8483   4.495   5.669   6.732
 2528SOL    HW2 8484   4.619   5.734   6.648
 2529SOL     OW 8485   0.562   0.080   6.453
 2529SOL    HW1 8486   0.490   0.119   6.511
 2529SOL    HW2 8487   0.542   7.007   6.436
 2530SOL     OW 8488   2.297   5.576   6.420
 2530SOL    HW1 8489   2.243   5.640   6.364
 2530SOL    HW2 8490   2.340   5.508   6.360
 2531SOL     OW 8491   6.991   5.502   6.109
 2531SOL    HW1 8492   6.968   5.510   6.206
 2531SOL    HW2 8493   0.047   5.560   6.090
 2532SOL     OW 8494   5.377   6.490   0.903
 2532SOL    HW1 8495   5.443   6.477   0.829
 2532SOL    HW2 8496   5.297   6.433   0.886
 2533SOL     OW 8497   4.906   0.714   3.818
 2533SOL    HW1 8498   4.994   0.761   3.812
 2533SOL    HW2 8499   4.860   0.741   3.902
 2534SOL     OW 8500   3.856   0.949   2.847
 2534SOL    HW1 8501   3.838   0.929   2.943
 2534SOL    HW2 8502   3.899   1.039   2.839
 2535SOL     OW 8503   3.843   2.980   6.482
 2535SOL    HW1 8504   3.875   3.073   6.466
 2535SOL    HW2 8505   3.775   2.955   6.414
 2536SOL     OW 8506   1.428   1.088   0.844
 2536SOL    HW1 8507   1.388   1.130   0.762
 2536SOL    HW2 8508   1.355   1.064   0.909
 2537SOL     OW 8509   3.841   6.962   6.907
 2537SOL    HW1 8510   3.821   7.002   6.996
 2537SOL    HW2 8511   3.933   6.921   6.909
 2538SOL     OW 8512   6.595   3.241   3.675
 2538SOL    HW1 8513   6.642   3.258   3.589
 2538SOL    HW2 8514   6.530   3.316   3.692
 2539SOL     OW 8515   5.431   2.505   5.688
 2539SOL    HW1 8516   5.525   2.481   5.710
 2539SOL    HW2 8517   5.376   2.422   5.683
 2540SOL     OW 8518   2.715   1.558   1.977
 2540SOL    HW1 8519   2.813   1.537   1.978
 2540SOL    HW2 8520   2.681   1.563   2.071
 2541SOL     OW 8521   3.826   6.521   4.346
 2541SOL    HW1 8522   3.905   6.462   4.365
 2541SOL    HW2 8523   3.852   6.616   4.362
 2542SOL     OW 8524   2.016   5.080   6.542
 2542SOL    HW1 8525   1.940   5.140   6.566
 2542SOL    HW2 8526   2.093   5.136   6.511
 2543SOL     OW 8527   1.603   1.234   3.610
 2543SOL    HW1 8528   1.698   1.264   3.620
 2543SOL    HW2 8529   1.558   1.238   3.700
 2544SOL     OW 8530   1.243   5.770   7.021
 2544SOL    HW1 8531   1.159   5.786   6.969
 2544SOL    HW2 8532   1.238   5.681   0.042
 2545SOL     OW 8533   2.836   5.879   2.746
 2545SOL    HW1 8534   2.887   5.919   2.822
 2545SOL    HW2 8535   2.747   5.848   2.778
 2546SOL     OW 8536   6.891   1.431   0.966
 2546SOL    HW1 8537   6.851   1.500   1.026
 2546SOL    HW2 8538   6.873   1.340   1.003
 2547SOL     OW 8539   0.778   3.651   4.874
 2547SOL    HW1 8540   0.829   3.642   4.960
 2547SOL    HW2 8541   0.842   3.649   4.797
 2548SOL     OW 8542   0.863   0.326   4.177
 2548SOL    HW1 8543   0.885   0.346   4.081
 2548SOL    HW2 8544   0.766   0.347   4.194
 2549SOL     OW 8545   6.417   2.394   1.307
 2549SOL    HW1 8546   6.382   2.474   1.356
 2549SOL    HW2 8547   6.353   2.318   1.319
 2550SOL     OW 8548   6.252   6.218   0.027
 2550SOL    HW1 8549   6.205   6.291   0.077
 2550SOL    HW2 8550   6.290   6.153   0.092
 2551SOL     OW 8551   1.391   3.945   6.706
 2551SOL    HW1 8552   1.294   3.949   6.730
 2551SOL    HW2 8553   1.443   3.911   6.784
 2552SOL     OW 8554   1.817   5.518   3.325
 2552SOL    HW1 8555   1.736   5.508   3.383
 2552SOL    HW2 8556   1.831   5.433   3.274
 2553SOL     OW 8557   4.033   3.635   0.121
 2553SOL    HW1 8558   4.106   3.567   0.112
 2553SOL    HW2 8559   4.036   3.697   0.042
 2554SOL     OW 8560   1.907   1.463   0.092
 2554SOL    HW1 8561   1.890   1.550   0.138
 2554SOL    HW2 8562   1.877   1.387   0.151
 2555SOL     OW 8563   6.184   1.286   6.680
 2555SOL    HW1 8564   6.124   1.225   6.731
 2555SOL    HW2 8565   6.129   1.339   6.614
 2556SOL     OW 8566   2.905   5.632   0.882
 2556SOL    HW1 8567   2.872   5.564   0.948
 2556SOL    HW2 8568   2.982   5.683   0.922
 2557SOL     OW 8569   1.978   4.034   7.014
 2557SOL    HW1 8570   2.026   4.085   6.943
 2557SOL    HW2 8571   1.884   4.067   7.021
 2558SOL     OW 8572   3.749   0.163   5.717
 2558SOL    HW1 8573   3.828   0.203   5.765
 2558SOL    HW2 8574   3.706   0.095   5.776
 2559SOL     OW 8575   0.061   5.424   5.034
 2559SOL    HW1 8576   0.081   5.389   5.125
 2559SOL    HW2 8577   0.100   5.363   4.965
 2560SOL     OW 8578   6.115   1.720   6.835
 2560SOL    HW1 8579   6.173   1.697   6.757
 2560SOL    HW2 8580   6.170   1.725   6.918
 2561SOL     OW 8581   3.419   5.385   4.551
 2561SOL    HW1 8582   3.495   5.321   4.562
 2561SOL    HW2 8583   3.451   5.478   4.568
 2562SOL     OW 8584   1.894   3.977   6.679
 2562SOL    HW1 8585   1.859   3.892   6.719
 2562SOL    HW2 8586   1.821   4.046   6.680
 2563SOL     OW 8587   2.109   0.848   0.182
 2563SOL    HW1 8588   2.112   0.753   0.151
 2563SOL    HW2 8589   2.049   0.855   0.262
 2564SOL     OW 8590   1.441   6.108   1.346
 2564SOL    HW1 8591   1.507   6.081   1.416
 2564SOL    HW2 8592   1.422   6.206   1.354
 2565SOL     OW 8593   1.449   0.515   1.621
 2565SOL    HW1 8594   1.413   0.608   1.622
 2565SOL    HW2 8595   1.381   0.453   1.583
 2566SOL     OW 8596   1.669   6.864   6.136
 2566SOL    HW1 8597   1.751   6.896   6.088
 2566SOL    HW2 8598   1.647   6.771   6.108
 2567SOL     OW 8599   0.577   6.542   0.566
 2567SOL    HW1 8600   0.508   6.606   0.598
 2567SOL    HW2 8601   0.600   6.563   0.470
 2568SOL     OW 8602   4.793   3.619   0.104
 2568SOL    HW1 8603   4.784   3.604   0.006
 2568SOL    HW2 8604   4.733   3.556   0.154
 2569SOL     OW 8605   2.744   0.650   2.988
 2569SOL    HW1 8606   2.664   0.646   3.047
 2569SOL    HW2 8607   2.768   0.746   2.970
 2570SOL     OW 8608   5.339   2.395   6.278
 2570SOL    HW1 8609   5.290   2.379   6.363
 2570SOL    HW2 8610   5.431   2.357   6.285
 2571SOL     OW 8611   1.155   3.950   4.776
 2571SOL    HW1 8612   1.224   3.918   4.712
 2571SOL    HW2 8613   1.128   3.875   4.837
 2572SOL     OW 8614   1.670   4.915   3.725
 2572SOL    HW1 8615   1.685   4.830   3.674
 2572SOL    HW2 8616   1.683   4.898   3.822
 2573SOL     OW 8617   1.254   0.142   0.765
 2573SOL    HW1 8618   1.281   0.190   0.681
 2573SOL    HW2 8619   1.159   0.113   0.757
 2574SOL     OW 8620   6.144   3.044   0.529
 2574SOL    HW1 8621   6.142   2.967   0.466
 2574SOL    HW2 8622   6.094   3.121   0.490
 2575SOL     OW 8623   0.743   5.658   6.222
 2575SOL    HW1 8624   0.806   5.592   6.182
 2575SOL    HW2 8625   0.678   5.612   6.283
 2576SOL     OW 8626   4.261   5.820   4.047
 2576SOL    HW1 8627   4.220   5.824   3.956
 2576SOL    HW2 8628   4.339   5.757   4.047
 2577SOL     OW 8629   2.166   4.297   2.213
 2577SOL    HW1 8630   2.114   4.364   2.267
 2577SOL    HW2 8631   2.251   4.338   2.182
 2578SOL     OW 8632   4.102   2.029   3.060
 2578SOL    HW1 8633   4.169   2.080   3.115
 2578SOL    HW2 8634   4.016   2.080   3.057
 2579SOL     OW 8635   1.115   6.768   3.386
 2579SOL    HW1 8636   1.166   6.685   3.363
 2579SOL    HW2 8637   1.178   6.837   3.420
 2580SOL     OW 8638   2.037   1.743   6.082
 2580SOL    HW1 8639   2.067   1.795   6.002
 2580SOL    HW2 8640   1.957   1.688   6.058
 2581SOL     OW 8641   3.491   0.785   5.056
 2581SOL    HW1 8642   3.407   0.786   5.110
 2581SOL    HW2 8643   3.511   0.877   5.023
 2582SOL     OW 8644   0.005   3.216   1.643
 2582SOL    HW1 8645   0.002   3.137   1.704
 2582SOL    HW2 8646   6.983   3.293   1.687
 2583SOL     OW 8647   5.909   0.349   0.586
 2583SOL    HW1 8648   5.854   0.420   0.631
 2583SOL    HW2 8649   5.956   0.390   0.507
 2584SOL     OW 8650   3.877   4.503   6.381
 2584SOL    HW1 8651   3.968   4.523   6.417
 2584SOL    HW2 8652   3.831   4.589   6.357
 2585SOL     OW 8653   3.197   4.516   6.395
 2585SOL    HW1 8654   3.192   4.465   6.309
 2585SOL    HW2 8655   3.176   4.612   6.379
 2586SOL     OW 8656   2.702   0.517   3.379
 2586SOL    HW1 8657   2.733   0.600   3.426
 2586SOL    HW2 8658   2.629   0.540   3.315
 2587SOL     OW 8659   6.689   1.229   3.693
 2587SOL    HW1 8660   6.685   1.219   3.792
 2587SOL    HW2 8661   6.709   1.140   3.651
 2588SOL     OW 8662   4.461   0.620   6.537
 2588SOL    HW1 8663   4.441   0.547   6.472
 2588SOL    HW2 8664   4.509   0.695   6.490
 2589SOL     OW 8665   2.142   6.684   0.394
 2589SOL    HW1 8666   2.119   6.659   0.300
 2589SOL    HW2 8667   2.233   6.723   0.397
 2590SOL     OW 8668   2.562   5.214   0.124
 2590SOL    HW1 8669   2.597   5.193   0.033
 2590SOL    HW2 8670   2.501   5.293   0.119
 2591SOL     OW 8671   6.350   5.644   3.482
 2591SOL    HW1 8672   6.292   5.612   3.407
 2591SOL    HW2 8673   6.326   5.738   3.505
 2592SOL     OW 8674   2.728   3.632   0.861
 2592SOL    HW1 8675   2.658   3.566   0.888
 2592SOL    HW2 8676   2.774   3.666   0.942
 2593SOL     OW 8677   3.372   3.762   0.785
 2593SOL    HW1 8678   3.401   3.850   0.747
 2593SOL    HW2 8679   3.303   3.776   0.855
 2594SOL     OW 8680   1.717   3.222   4.586
 2594SOL    HW1 8681   1.773   3.213   4.669
 2594SOL    HW2 8682   1.660   3.141   4.575
 2595SOL     OW 8683   1.936   1.327   2.661
 2595SOL    HW1 8684   1.975   1.236   2.649
 2595SOL    HW2 8685   1.984   1.392   2.601
 2596SOL     OW 8686   1.366   1.755   0.369
 2596SOL    HW1 8687   1.355   1.854   0.357
 2596SOL    HW2 8688   1.292   1.708   0.322
 2597SOL     OW 8689   7.016   6.477   6.878
 2597SOL    HW1 8690   6.969   6.565   6.890
 2597SOL    HW2 8691   0.090   6.490   6.889
 2598SOL     OW 8692   5.872   2.558   2.842
 2598SOL    HW1 8693   5.807   2.513   2.903
 2598SOL    HW2 8694   5.860   2.523   2.749
 2599SOL     OW 8695   3.264   5.789   1.777
 2599SOL    HW1 8696   3.305   5.725   1.842
 2599SOL    HW2 8697   3.328   5.863   1.757
 2600SOL     OW 8698   5.546   4.178   4.455
 2600SOL    HW1 8699   5.489   4.239   4.400
 2600SOL    HW2 8700   5.635   4.167   4.411
 2601SOL     OW 8701   6.643   1.459   3.567
 2601SOL    HW1 8702   6.570   1.461   3.498
 2601SOL    HW2 8703   6.648   1.368   3.608
 2602SOL     OW 8704   0.936   4.118   3.013
 2602SOL    HW1 8705   1.006   4.114   3.084
 2602SOL    HW2 8706   0.911   4.213   2.996
 2603SOL     OW 8707   2.558   6.018   2.600
 2603SOL    HW1 8708   2.554   5.949   2.528
 2603SOL    HW2 8709   2.513   5.984   2.682
 2604SOL     OW 8710   4.762   2.736   3.517
 2604SOL    HW1 8711   4.797   2.823   3.552
 2604SOL    HW2 8712   4.796   2.662   3.574
 2605SOL     OW 8713   1.837   4.071   1.948
 2605SOL    HW1 8714   1.921   4.017   1.941
 2605SOL    HW2 8715   1.861   4.167   1.963
 2606SOL     OW 8716   4.849   3.608   1.044
 2606SOL    HW1 8717   4.799   3.593   1.129
 2606SOL    HW2 8718   4.929   3.665   1.063
 2607SOL     OW 8719   2.719   2.094   1.535
 2607SOL    HW1 8720   2.792   2.066   1.598
 2607SOL    HW2 8721   2.630   2.071   1.574
 2608SOL     OW 8722   2.697   5.315   5.919
 2608SOL    HW1 8723   2.631   5.240   5.923
 2608SOL    HW2 8724   2.701   5.351   5.826
 2609SOL     OW 8725   6.965   2.566   0.665
 2609SOL    HW1 8726   0.027   2.594   0.623
 2609SOL    HW2 8727   6.896   2.637   0.650
 2610SOL     OW 8728   1.767   4.176   4.765
 2610SOL    HW1 8729   1.691   4.111   4.765
 2610SOL    HW2 8730   1.784   4.205   4.859
 2611SOL     OW 8731   5.187   0.289   6.883
 2611SOL    HW1 8732   5.219   0.349   6.810
 2611SOL    HW2 8733   5.233   0.200   6.875
 2612SOL     OW 8734   6.609   0.298   5.993
 2612SOL    HW1 8735   6.670   0.240   5.938
 2612SOL    HW2 8736   6.663   0.366   6.042
 2613SOL     OW 8737   0.933   6.828   6.747
 2613SOL    HW1 8738   1.007   6.777   6.704
 2613SOL    HW2 8739   0.845   6.796   6.711
 2614SOL     OW 8740   5.870   1.890   6.925
 2614SOL    HW1 8741   5.959   1.897   6.880
 2614SOL    HW2 8742   5.801   1.936   6.869
 2615SOL     OW 8743   0.381   3.194   6.765
 2615SOL    HW1 8744   0.410   3.123   6.701
 2615SOL    HW2 8745   0.284   3.181   6.788
 2616SOL     OW 8746   0.994   1.218   4.975
 2616SOL    HW1 8747   0.940   1.135   4.958
 2616SOL    HW2 8748   1.084   1.193   5.009
 2617SOL     OW 8749   4.998   0.522   1.413
 2617SOL    HW1 8750   4.929   0.537   1.342
 2617SOL    HW2 8751   4.975   0.575   1.494
 2618SOL     OW 8752   1.345   6.489   6.275
 2618SOL    HW1 8753   1.249   6.465   6.263
 2618SOL    HW2 8754   1.362   6.513   6.371
 2619SOL     OW 8755   4.693   1.274   2.650
 2619SOL    HW1 8756   4.645   1.361   2.653
 2619SOL    HW2 8757   4.750   1.264   2.732
 2620SOL     OW 8758   6.168   1.648   1.514
 2620SOL    HW1 8759   6.264   1.619   1.513
 2620SOL    HW2 8760   6.156   1.723   1.449
 2621SOL     OW 8761   1.652   5.985   1.516
 2621SOL    HW1 8762   1.570   5.962   1.568
 2621SOL    HW2 8763   1.670   5.912   1.449
 2622SOL     OW 8764   2.884   3.711   6.904
 2622SOL    HW1 8765   2.981   3.725   6.885
 2622SOL    HW2 8766   2.830   3.780   6.857
 2623SOL     OW 8767   0.257   6.095   3.555
 2623SOL    HW1 8768   0.163   6.086   3.585
 2623SOL    HW2 8769   0.278   6.026   3.486
 2624SOL     OW 8770   0.545   1.526   4.927
 2624SOL    HW1 8771   0.581   1.559   5.014
 2624SOL    HW2 8772   0.463   1.579   4.902
 2625SOL     OW 8773   2.707   5.044   6.667
 2625SOL    HW1 8774   2.756   5.109   6.609
 2625SOL    HW2 8775   2.734   4.951   6.643
 2626SOL     OW 8776   6.965   5.945   6.799
 2626SOL    HW1 8777   6.981   6.044   6.794
 2626SOL    HW2 8778   6.977   5.905   6.708
 2627SOL     OW 8779   1.878   0.300   6.383
 2627SOL    HW1 8780   1.878   0.201   6.388
 2627SOL    HW2 8781   1.842   0.338   6.468
 2628SOL     OW 8782   0.191   4.429   1.218
 2628SOL    HW1 8783   0.103   4.445   1.263
 2628SOL    HW2 8784   0.226   4.340   1.244
 2629SOL     OW 8785   3.270   4.002   2.521
 2629SOL    HW1 8786   3.331   4.020   2.443
 2629SOL    HW2 8787   3.175   4.017   2.493
 2630SOL     OW 8788   3.918   0.667   4.586
 2630SOL    HW1 8789   3.994   0.725   4.617
 2630SOL    HW2 8790   3.874   0.625   4.665
 2631SOL     OW 8791   5.423   0.168   0.204
 2631SOL    HW1 8792   5.417   0.253   0.152
 2631SOL    HW2 8793   5.496   0.175   0.272
 2632SOL     OW 8794   5.802   5.207   1.944
 2632SOL    HW1 8795   5.890   5.173   1.911
 2632SOL    HW2 8796   5.733   5.134   1.937
 2633SOL     OW 8797   0.165   3.248   6.237
 2633SOL    HW1 8798   0.101   3.320   6.208
 2633SOL    HW2 8799   0.236   3.237   6.168
 2634SOL     OW 8800   0.553   1.127   5.686
 2634SOL    HW1 8801   0.593   1.218   5.676
 2634SOL    HW2 8802   0.601   1.063   5.627
 2635SOL     OW 8803   4.448   5.480   3.673
 2635SOL    HW1 8804   4.421   5.409   3.609
 2635SOL    HW2 8805   4.462   5.440   3.764
 2636SOL     OW 8806   3.633   6.485   6.168
 2636SOL    HW1 8807   3.585   6.403   6.199
 2636SOL    HW2 8808   3.580   6.566   6.195
 2637SOL     OW 8809   0.654   0.944   3.214
 2637SOL    HW1 8810   0.753   0.927   3.213
 2637SOL    HW2 8811   0.637   1.038   3.244
 2638SOL     OW 8812   1.056   6.411   4.546
 2638SOL    HW1 8813   1.137   6.470   4.547
 2638SOL    HW2 8814   1.080   6.320   4.581
 2639SOL     OW 8815   4.262   4.778   4.766
 2639SOL    HW1 8816   4.281   4.733   4.853
 2639SOL    HW2 8817   4.345   4.823   4.733
 2640SOL     OW 8818   2.665   0.748   3.520
 2640SOL    HW1 8819   2.655   0.762   3.618
 2640SOL    HW2 8820   2.685   0.836   3.476
 2641SOL     OW 8821   5.560   2.075   0.149
 2641SOL    HW1 8822   5.478   2.022   0.128
 2641SOL    HW2 8823   5.599   2.111   0.064
 2642SOL     OW 8824   6.350   0.358   2.973
 2642SOL    HW1 8825   6.435   0.366   3.023
 2642SOL    HW2 8826   6.274   0.346   3.037
 2643SOL     OW 8827   2.117   4.832   4.302
 2643SOL    HW1 8828   2.200   4.813   4.248
 2643SOL    HW2 8829   2.047   4.871   4.243
 2644SOL     OW 8830   5.526   5.562   4.788
 2644SOL    HW1 8831   5.570   5.521   4.868
 2644SOL    HW2 8832   5.445   5.509   4.764
 2645SOL     OW 8833   4.991   6.007   3.520
 2645SOL    HW1 8834   5.008   5.910   3.534
 2645SOL    HW2 8835   5.016   6.032   3.427
 2646SOL     OW 8836   1.101   2.433   6.190
 2646SOL    HW1 8837   1.186   2.399   6.231
 2646SOL    HW2 8838   1.045   2.476   6.261
 2647SOL     OW 8839   4.595   6.762   2.513
 2647SOL    HW1 8840   4.592   6.699   2.436
 2647SOL    HW2 8841   4.662   6.834   2.497
 2648SOL     OW 8842   0.786   6.761   6.490
 2648SOL    HW1 8843   0.703   6.802   6.452
 2648SOL    HW2 8844   0.858   6.831   6.494
 2649SOL     OW 8845   5.181   1.448   3.590
 2649SOL    HW1 8846   5.100   1.425   3.535
 2649SOL    HW2 8847   5.243   1.504   3.535
 2650SOL     OW 8848   2.946   6.734   3.877
 2650SOL    HW1 8849   2.893   6.649   3.879
 2650SOL    HW2 8850   2.971   6.760   3.971
 2651SOL     OW 8851   4.129   2.250   3.911
 2651SOL    HW1 8852   4.153   2.313   3.838
 2651SOL    HW2 8853   4.211   2.224   3.962
 2652SOL     OW 8854   4.900   4.248   5.382
 2652SOL    HW1 8855   4.908   4.213   5.475
 2652SOL    HW2 8856   4.957   4.329   5.372
 2653SOL     OW 8857   2.219   6.044   6.679
 2653SOL    HW1 8858   2.178   6.134   6.670
 2653SOL    HW2 8859   2.282   6.028   6.602
 2654SOL     OW 8860   0.172   0.909   0.855
 2654SOL    HW1 8861   0.213   1.000   0.850
 2654SOL    HW2 8862   0.182   0.873   0.948
 2655SOL     OW 8863   5.456   6.475   2.661
 2655SOL    HW1 8864   5.494   6.404   2.602
 2655SOL    HW2 8865   5.528   6.541   2.684
 2656SOL     OW 8866   4.286   6.229   3.548
 2656SOL    HW1 8867   4.367   6.182   3.514
 2656SOL    HW2 8868   4.208   6.167   3.547
 2657SOL     OW 8869   1.199   3.709   6.911
 2657SOL    HW1 8870   1.285   3.685   6.867
 2657SOL    HW2 8871   1.162   3.792   6.868
 2658SOL     OW 8872   4.032   5.022   0.672
 2658SOL    HW1 8873   4.092   5.038   0.751
 2658SOL    HW2 8874   4.088   5.015   0.589
 2659SOL     OW 8875   0.103   2.355   5.129
 2659SOL    HW1 8876   0.162   2.325   5.054
 2659SOL    HW2 8877   0.153   2.346   5.216
 2660SOL     OW 8878   0.391   1.598   1.219
 2660SOL    HW1 8879   0.447   1.675   1.189
 2660SOL    HW2 8880   0.335   1.625   1.298
 2661SOL     OW 8881   1.609   1.292   0.922
 2661SOL    HW1 8882   1.560   1.377   0.940
 2661SOL    HW2 8883   1.544   1.218   0.908
 2662SOL     OW 8884   2.746   1.919   2.244
 2662SOL    HW1 8885   2.807   1.841   2.229
 2662SOL    HW2 8886   2.660   1.887   2.285
 2663SOL     OW 8887   3.904   0.090   0.561
 2663SOL    HW1 8888   3.978   0.034   0.601
 2663SOL    HW2 8889   3.944   0.160   0.502
 2664SOL     OW 8890   4.899   3.702   5.491
 2664SOL    HW1 8891   4.961   3.776   5.513
 2664SOL    HW2 8892   4.878   3.649   5.573
 2665SOL     OW 8893   1.857   3.214   3.898
 2665SOL    HW1 8894   1.837   3.168   3.985
 2665SOL    HW2 8895   1.949   3.252   3.901
 2666SOL     OW 8896   1.978   4.027   1.645
 2666SOL    HW1 8897   1.999   4.117   1.607
 2666SOL    HW2 8898   1.921   4.038   1.726
 2667SOL     OW 8899   6.585   2.865   5.651
 2667SOL    HW1 8900   6.620   2.891   5.561
 2667SOL    HW2 8901   6.656   2.817   5.702
 2668SOL     OW 8902   6.382   0.513   2.757
 2668SOL    HW1 8903   6.349   0.452   2.828
 2668SOL    HW2 8904   6.480   0.531   2.770
 2669SOL     OW 8905   2.474   1.077   0.581
 2669SOL    HW1 8906   2.497   0.990   0.626
 2669SOL    HW2 8907   2.401   1.061   0.515
 2670SOL     OW 8908   0.147   0.075   6.386
 2670SOL    HW1 8909   0.215   0.136   6.426
 2670SOL    HW2 8910   0.076   0.129   6.340
 2671SOL     OW 8911   5.258   4.718   6.170
 2671SOL    HW1 8912   5.241   4.625   6.138
 2671SOL    HW2 8913   5.290   4.716   6.265
 2672SOL     OW 8914   2.857   0.816   1.667
 2672SOL    HW1 8915   2.768   0.805   1.712
 2672SOL    HW2 8916   2.867   0.744   1.597
 2673SOL     OW 8917   3.857   0.140   2.614
 2673SOL    HW1 8918   3.909   0.221   2.640
 2673SOL    HW2 8919   3.771   0.137   2.665
 2674SOL     OW 8920   0.264   5.773   3.130
 2674SOL    HW1 8921   0.322   5.800   3.054
 2674SOL    HW2 8922   0.171   5.756   3.097
 2675SOL     OW 8923   4.571   1.071   5.039
 2675SOL    HW1 8924   4.517   1.091   4.957
 2675SOL    HW2 8925   4.668   1.075   5.016
 2676SOL     OW 8926   3.635   4.163   3.638
 2676SOL    HW1 8927   3.625   4.108   3.721
 2676SOL    HW2 8928   3.674   4.252   3.661
 2677SOL     OW 8929   1.700   5.893   1.200
 2677SOL    HW1 8930   1.766   5.819   1.197
 2677SOL    HW2 8931   1.610   5.857   1.225
 2678SOL     OW 8932   3.811   1.951   2.498
 2678SOL    HW1 8933   3.838   1.884   2.429
 2678SOL    HW2 8934   3.879   1.951   2.572
 2679SOL     OW 8935   2.126   3.251   2.435
 2679SOL    HW1 8936   2.132   3.287   2.528
 2679SOL    HW2 8937   2.124   3.327   2.370
 2680SOL     OW 8938   5.681   2.461   0.241
 2680SOL    HW1 8939   5.593   2.417   0.259
 2680SOL    HW2 8940   5.666   2.552   0.203
 2681SOL     OW 8941   2.062   2.512   3.568
 2681SOL    HW1 8942   2.112   2.521   3.654
 2681SOL    HW2 8943   2.018   2.422   3.563
 2682SOL     OW 8944   3.692   3.901   1.614
 2682SOL    HW1 8945   3.756   3.824   1.616
 2682SOL    HW2 8946   3.704   3.952   1.529
 2683SOL     OW 8947   2.324   4.097   1.556
 2683SOL    HW1 8948   2.236   4.083   1.602
 2683SOL    HW2 8949   2.386   4.146   1.617
 2684SOL     OW 8950   6.591   0.054   3.737
 2684SOL    HW1 8951   6.583   0.151   3.762
 2684SOL    HW2 8952   6.612   0.000   3.819
 2685SOL     OW 8953   0.412   6.180   5.581
 2685SOL    HW1 8954   0.410   6.086   5.613
 2685SOL    HW2 8955   0.417   6.181   5.481
 2686SOL     OW 8956   1.257   1.052   5.549
 2686SOL    HW1 8957   1.317   0.973   5.562
 2686SOL    HW2 8958   1.240   1.096   5.637
 2687SOL     OW 8959   4.209   1.815   1.651
 2687SOL    HW1 8960   4.245   1.880   1.584
 2687SOL    HW2 8961   4.270   1.736   1.656
 2688SOL     OW 8962   4.203   2.553   0.171
 2688SOL    HW1 8963   4.251   2.624   0.121
 2688SOL    HW2 8964   4.104   2.571   0.169
 2689SOL     OW 8965   1.025   3.557   3.204
 2689SOL    HW1 8966   1.072   3.469   3.191
 2689SOL    HW2 8967   1.062   3.624   3.139
 2690SOL     OW 8968   4.598   1.332   5.562
 2690SOL    HW1 8969   4.585   1.375   5.651
 2690SOL    HW2 8970   4.510   1.301   5.526
 2691SOL     OW 8971   0.115   4.011   5.226
 2691SOL    HW1 8972   0.155   4.094   5.267
 2691SOL    HW2 8973   0.183   3.968   5.167
 2692SOL     OW 8974   2.442   5.907   2.213
 2692SOL    HW1 8975   2.432   5.857   2.127
 2692SOL    HW2 8976   2.389   5.862   2.285
 2693SOL     OW 8977   0.955   5.969   3.200
 2693SOL    HW1 8978   1.027   6.029   3.165
 2693SOL    HW2 8979   0.963   5.961   3.299
 2694SOL     OW 8980   2.226   0.277   2.408
 2694SOL    HW1 8981   2.295   0.329   2.459
 2694SOL    HW2 8982   2.272   0.216   2.343
 2695SOL     OW 8983   0.123   4.840   3.918
 2695SOL    HW1 8984   0.184   4.920   3.913
 2695SOL    HW2 8985   0.036   4.863   3.874
 2696SOL     OW 8986   4.442   4.948   6.325
 2696SOL    HW1 8987   4.459   5.044   6.346
 2696SOL    HW2 8988   4.386   4.908   6.398
 2697SOL     OW 8989   3.874   1.908   0.155
 2697SOL    HW1 8990   3.791   1.881   0.106
 2697SOL    HW2 8991   3.894   1.841   0.227
 2698SOL     OW 8992   1.643   5.531   6.127
 2698SOL    HW1 8993   1.620   5.586   6.207
 2698SOL    HW2 8994   1.693   5.587   6.061
 2699SOL     OW 8995   2.754   6.408   2.234
 2699SOL    HW1 8996   2.658   6.434   2.228
 2699SOL    HW2 8997   2.776   6.384   2.329
 2700SOL     OW 8998   4.268   1.979   1.450
 2700SOL    HW1 8999   4.316   2.066   1.440
 2700SOL    HW2 9000   4.302   1.914   1.382
 2701SOL     OW 9001   4.896   3.786   4.703
 2701SOL    HW1 9002   4.884   3.885   4.714
 2701SOL    HW2 9003   4.863   3.739   4.785
 2702SOL     OW 9004   2.628   1.243   4.810
 2702SOL    HW1 9005   2.640   1.276   4.716
 2702SOL    HW2 9006   2.676   1.156   4.820
 2703SOL     OW 9007   2.675   6.279   2.480
 2703SOL    HW1 9008   2.656   6.362   2.532
 2703SOL    HW2 9009   2.653   6.199   2.536
 2704SOL     OW 9010   4.713   0.698   3.593
 2704SOL    HW1 9011   4.731   0.608   3.553
 2704SOL    HW2 9012   4.786   0.722   3.657
 2705SOL     OW 9013   0.764   0.629   5.328
 2705SOL    HW1 9014   0.789   0.726   5.324
 2705SOL    HW2 9015   0.696   0.615   5.400
 2706SOL     OW 9016   0.030   4.434   3.544
 2706SOL    HW1 9017   0.010   4.519   3.594
 2706SOL    HW2 9018   6.975   4.373   3.549
 2707SOL     OW 9019   4.055   1.150   3.704
 2707SOL    HW1 9020   4.122   1.190   3.641
 2707SOL    HW2 9021   4.096   1.072   3.751
 2708SOL     OW 9022   5.240   3.737   6.000
 2708SOL    HW1 9023   5.267   3.641   6.002
 2708SOL    HW2 9024   5.143   3.744   5.975
 2709SOL     OW 9025   4.573   1.677   5.590
 2709SOL    HW1 9026   4.491   1.645   5.637
 2709SOL    HW2 9027   4.548   1.716   5.502
 2710SOL     OW 9028   1.065   2.935   4.699
 2710SOL    HW1 9029   1.040   3.021   4.744
 2710SOL    HW2 9030   1.164   2.923   4.704
 2711SOL     OW 9031   4.058   0.860   1.793
 2711SOL    HW1 9032   3.992   0.804   1.843
 2711SOL    HW2 9033   4.045   0.848   1.695
 2712SOL     OW 9034   5.144   6.447   1.978
 2712SOL    HW1 9035   5.049   6.438   2.007
 2712SOL    HW2 9036   5.152   6.423   1.882
 2713SOL     OW 9037   3.715   4.920   5.307
 2713SOL    HW1 9038   3.807   4.881   5.313
 2713SOL    HW2 9039   3.721   5.020   5.319
 2714SOL     OW 9040   3.206   4.319   6.158
 2714SOL    HW1 9041   3.108   4.302   6.146
 2714SOL    HW2 9042   3.255   4.289   6.076
 2715SOL     OW 9043   4.176   6.772   6.982
 2715SOL    HW1 9044   4.157   6.870   6.970
 2715SOL    HW2 9045   4.271   6.753   6.958
 2716SOL     OW 9046   3.962   0.730   2.703
 2716SOL    HW1 9047   3.911   0.798   2.755
 2716SOL    HW2 9048   4.054   0.720   2.740
 2717SOL     OW 9049   1.166   2.204   1.807
 2717SOL    HW1 9050   1.237   2.237   1.870
 2717SOL    HW2 9051   1.210   2.164   1.726
 2718SOL     OW 9052   6.469   1.717   5.512
 2718SOL    HW1 9053   6.441   1.735   5.607
 2718SOL    HW2 9054   6.546   1.653   5.512
 2719SOL     OW 9055   1.574   5.174   3.733
 2719SOL    HW1 9056   1.583   5.214   3.642
 2719SOL    HW2 9057   1.621   5.085   3.735
 2720SOL     OW 9058   1.691   5.734   6.339
 2720SOL    HW1 9059   1.735   5.824   6.335
 2720SOL    HW2 9060   1.599   5.743   6.376
 2721SOL     OW 9061   2.422   6.924   1.608
 2721SOL    HW1 9062   2.414   6.864   1.528
 2721SOL    HW2 9063   2.518   6.934   1.633
 2722SOL     OW 9064   3.914   5.034   6.672
 2722SOL    HW1 9065   3.968   5.104   6.626
 2722SOL    HW2 9066   3.975   4.969   6.717
 2723SOL     OW 9067   3.725   5.938   6.784
 2723SOL    HW1 9068   3.657   5.942   6.712
 2723SOL    HW2 9069   3.681   5.950   6.873
 2724SOL     OW 9070   6.949   5.303   0.704
 2724SOL    HW1 9071   6.908   5.312   0.795
 2724SOL    HW2 9072   6.887   5.251   0.645
 2725SOL     OW 9073   5.805   4.535   3.701
 2725SOL    HW1 9074   5.786   4.469   3.629
 2725SOL    HW2 9075   5.739   4.525   3.775
 2726SOL     OW 9076   6.347   1.597   2.504
 2726SOL    HW1 9077   6.262   1.650   2.502
 2726SOL    HW2 9078   6.425   1.660   2.494
 2727SOL     OW 9079   1.483   5.889   3.513
 2727SOL    HW1 9080   1.564   5.889   3.571
 2727SOL    HW2 9081   1.499   5.831   3.433
 2728SOL     OW 9082   4.084   5.374   6.242
 2728SOL    HW1 9083   4.055   5.279   6.234
 2728SOL    HW2 9084   4.102   5.411   6.150
 2729SOL     OW 9085   5.961   0.359   6.606
 2729SOL    HW1 9086   5.997   0.451   6.621
 2729SOL    HW2 9087   6.020   0.310   6.542
 2730SOL     OW 9088   1.390   5.693   2.809
 2730SOL    HW1 9089   1.315   5.728   2.865
 2730SOL    HW2 9090   1.426   5.766   2.751
 2731SOL     OW 9091   3.017   3.982   4.572
 2731SOL    HW1 9092   3.098   4.041   4.567
 2731SOL    HW2 9093   3.024   3.911   4.502
 2732SOL     OW 9094   5.568   0.540   1.954
 2732SOL    HW1 9095   5.555   0.442   1.943
 2732SOL    HW2 9096   5.592   0.581   1.866
 2733SOL     OW 9097   0.708   6.376   0.053
 2733SOL    HW1 9098   0.808   6.376   0.050
 2733SOL    HW2 9099   0.676   6.294   0.100
 2734SOL     OW 9100   3.679   6.263   2.406
 2734SOL    HW1 9101   3.735   6.180   2.402
 2734SOL    HW2 9102   3.714   6.329   2.339
 2735SOL     OW 9103   0.831   1.575   1.814
 2735SOL    HW1 9104   0.849   1.501   1.750
 2735SOL    HW2 9105   0.733   1.592   1.819
 2736SOL     OW 9106   5.928   4.067   3.252
 2736SOL    HW1 9107   6.021   4.050   3.286
 2736SOL    HW2 9108   5.887   3.980   3.225
 2737SOL     OW 9109   3.209   0.527   5.324
 2737SOL    HW1 9110   3.271   0.599   5.355
 2737SOL    HW2 9111   3.116   0.549   5.353
 2738SOL     OW 9112   5.078   5.578   1.384
 2738SOL    HW1 9113   4.984   5.559   1.357
 2738SOL    HW2 9114   5.139   5.510   1.344
 2739SOL     OW 9115   6.768   5.134   1.241
 2739SOL    HW1 9116   6.788   5.148   1.338
 2739SOL    HW2 9117   6.761   5.036   1.221
 2740SOL     OW 9118   0.498   5.358   3.340
 2740SOL    HW1 9119   0.556   5.286   3.379
 2740SOL    HW2 9120   0.452   5.324   3.259
 2741SOL     OW 9121   0.576   0.166   5.387
 2741SOL    HW1 9122   0.560   0.231   5.462
 2741SOL    HW2 9123   0.502   0.098   5.385
 2742SOL     OW 9124   3.551   5.644   2.428
 2742SOL    HW1 9125   3.508   5.704   2.361
 2742SOL    HW2 9126   3.511   5.553   2.421
 2743SOL     OW 9127   4.928   1.478   2.577
 2743SOL    HW1 9128   4.885   1.513   2.661
 2743SOL    HW2 9129   4.897   1.385   2.561
 2744SOL     OW 9130   3.624   4.120   2.644
 2744SOL    HW1 9131   3.558   4.150   2.575
 2744SOL    HW2 9132   3.594   4.152   2.734
 2745SOL     OW 9133   0.755   6.063   0.321
 2745SOL    HW1 9134   0.831   6.006   0.289
 2745SOL    HW2 9135   0.692   6.008   0.376
 2746SOL     OW 9136   2.016   1.306   3.354
 2746SOL    HW1 9137   2.108   1.318   3.390
 2746SOL    HW2 9138   2.002   1.367   3.276
 2747SOL     OW 9139   3.839   3.994   1.112
 2747SOL    HW1 9140   3.872   4.067   1.171
 2747SOL    HW2 9141   3.914   3.961   1.054
 2748SOL     OW 9142   3.739   0.113   0.783
 2748SOL    HW1 9143   3.779   0.095   0.693
 2748SOL    HW2 9144   3.640   0.102   0.777
 2749SOL     OW 9145   2.989   1.658   1.168
 2749SOL    HW1 9146   2.966   1.707   1.084
 2749SOL    HW2 9147   3.085   1.674   1.190
 2750SOL     OW 9148   3.456   5.788   2.648
 2750SOL    HW1 9149   3.373   5.842   2.656
 2750SOL    HW2 9150   3.475   5.770   2.551
 2751SOL     OW 9151   6.495   5.190   1.011
 2751SOL    HW1 9152   6.413   5.135   1.020
 2751SOL    HW2 9153   6.511   5.242   1.095
 2752SOL     OW 9154   3.964   5.840   6.889
 2752SOL    HW1 9155   4.036   5.906   6.866
 2752SOL    HW2 9156   3.875   5.876   6.859
 2753SOL     OW 9157   5.455   5.922   5.246
 2753SOL    HW1 9158   5.378   5.948   5.304
 2753SOL    HW2 9159   5.477   5.825   5.262
 2754SOL     OW 9160   1.412   6.866   5.795
 2754SOL    HW1 9161   1.334   6.803   5.794
 2754SOL    HW2 9162   1.428   6.897   5.889
 2755SOL     OW 9163   4.128   0.428   2.335
 2755SOL    HW1 9164   4.190   0.473   2.271
 2755SOL    HW2 9165   4.138   0.469   2.425
 2756SOL     OW 9166   4.462   6.168   0.424
 2756SOL    HW1 9167   4.436   6.071   0.428
 2756SOL    HW2 9168   4.449   6.210   0.513
 2757SOL     OW 9169   0.581   4.686   0.778
 2757SOL    HW1 9170   0.498   4.633   0.762
 2757SOL    HW2 9171   0.587   4.711   0.874
 2758SOL     OW 9172   4.157   1.227   5.301
 2758SOL    HW1 9173   4.116   1.317   5.316
 2758SOL    HW2 9174   4.226   1.233   5.229
 2759SOL     OW 9175   4.827   5.057   4.176
 2759SOL    HW1 9176   4.911   5.008   4.153
 2759SOL    HW2 9177   4.811   5.129   4.109
 2760SOL     OW 9178   1.669   6.509   3.753
 2760SOL    HW1 9179   1.663   6.411   3.769
 2760SOL    HW2 9180   1.627   6.558   3.830
 2761SOL     OW 9181   2.804   5.044   4.009
 2761SOL    HW1 9182   2.706   5.061   4.016
 2761SOL    HW2 9183   2.831   5.041   3.913
 2762SOL     OW 9184   1.549   0.804   4.838
 2762SOL    HW1 9185   1.485   0.864   4.789
 2762SOL    HW2 9186   1.596   0.745   4.772
 2763SOL     OW 9187   5.352   1.575   2.722
 2763SOL    HW1 9188   5.344   1.569   2.622
 2763SOL    HW2 9189   5.415   1.650   2.745
 2764SOL     OW 9190   6.216   1.076   1.601
 2764SOL    HW1 9191   6.314   1.062   1.587
 2764SOL    HW2 9192   6.195   1.174   1.600
 2765SOL     OW 9193   5.311   1.967   2.865
 2765SOL    HW1 9194   5.352   1.882   2.898
 2765SOL    HW2 9195   5.324   2.039   2.933
 2766SOL     OW 9196   6.107   0.269   2.626
 2766SOL    HW1 9197   6.014   0.233   2.633
 2766SOL    HW2 9198   6.114   0.329   2.546
 2767SOL     OW 9199   5.981   4.446   5.647
 2767SOL    HW1 9200   5.885   4.469   5.633
 2767SOL    HW2 9201   6.038   4.511   5.596
 2768SOL     OW 9202   6.235   1.191   6.238
 2768SOL    HW1 9203   6.296   1.261   6.275
 2768SOL    HW2 9204   6.209   1.216   6.144
 2769SOL     OW 9205   1.329   4.588   1.288
 2769SOL    HW1 9206   1.400   4.518   1.282
 2769SOL    HW2 9207   1.271   4.584   1.206
 2770SOL     OW 9208   6.655   6.225   1.504
 2770SOL    HW1 9209   6.560   6.255   1.492
 2770SOL    HW2 9210   6.674   6.150   1.440
 2771SOL     OW 9211   4.764   1.440   0.986
 2771SOL    HW1 9212   4.733   1.455   0.892
 2771SOL    HW2 9213   4.756   1.342   1.008
 2772SOL     OW 9214   4.039   2.312   6.511
 2772SOL    HW1 9215   4.123   2.259   6.501
 2772SOL    HW2 9216   3.992   2.286   6.596
 2773SOL     OW 9217   3.273   4.230   0.936
 2773SOL    HW1 9218   3.334   4.179   0.996
 2773SOL    HW2 9219   3.240   4.170   0.864
 2774SOL     OW 9220   5.599   3.427   2.517
 2774SOL    HW1 9221   5.530   3.417   2.446
 2774SOL    HW2 9222   5.680   3.471   2.479
 2775SOL     OW 9223   6.824   6.945   2.306
 2775SOL    HW1 9224   6.867   6.856   2.294
 2775SOL    HW2 9225   6.894   7.016   2.309
 2776SOL     OW 9226   3.503   6.154   5.786
 2776SOL    HW1 9227   3.573   6.183   5.852
 2776SOL    HW2 9228   3.413   6.163   5.828
 2777SOL     OW 9229   2.698   1.346   3.260
 2777SOL    HW1 9230   2.780   1.294   3.284
 2777SOL    HW2 9231   2.617   1.291   3.280
 2778SOL     OW 9232   2.544   1.916   4.631
 2778SOL    HW1 9233   2.447   1.934   4.651
 2778SOL    HW2 9234   2.601   1.969   4.694
 2779SOL     OW 9235   6.371   1.431   0.939
 2779SOL    HW1 9236   6.358   1.413   1.036
 2779SOL    HW2 9237   6.469   1.424   0.917
 2780SOL     OW 9238   4.156   5.909   0.373
 2780SOL    HW1 9239   4.154   5.935   0.277
 2780SOL    HW2 9240   4.069   5.931   0.416
 2781SOL     OW 9241   4.823   4.705   0.333
 2781SOL    HW1 9242   4.818   4.710   0.432
 2781SOL    HW2 9243   4.733   4.723   0.294
 2782SOL     OW 9244   2.763   1.253   6.059
 2782SOL    HW1 9245   2.707   1.300   5.991
 2782SOL    HW2 9246   2.705   1.198   6.118
 2783SOL     OW 9247   0.213   4.257   6.035
 2783SOL    HW1 9248   0.114   4.267   6.042
 2783SOL    HW2 9249   0.250   4.334   5.983
 2784SOL     OW 9250   2.189   2.311   1.828
 2784SOL    HW1 9251   2.157   2.393   1.782
 2784SOL    HW2 9252   2.289   2.310   1.830
 2785SOL     OW 9253   5.804   0.939   1.597
 2785SOL    HW1 9254   5.893   0.902   1.622
 2785SOL    HW2 9255   5.806   0.968   1.501
 2786SOL     OW 9256   2.803   6.904   0.183
 2786SOL    HW1 9257   2.782   6.999   0.207
 2786SOL    HW2 9258   2.774   6.886   0.089
 2787SOL     OW 9259   2.166   2.684   5.226
 2787SOL    HW1 9260   2.092   2.708   5.288
 2787SOL    HW2 9261   2.133   2.686   5.131
 2788SOL     OW 9262   0.576   4.035   0.202
 2788SOL    HW1 9263   0.633   4.117   0.213
 2788SOL    HW2 9264   0.589   3.997   0.111
 2789SOL     OW 9265   0.097   2.337   4.310
 2789SOL    HW1 9266   0.150   2.402   4.364
 2789SOL    HW2 9267   0.004   2.372   4.297
 2790SOL     OW 9268   3.385   6.097   3.876
 2790SOL    HW1 9269   3.484   6.092   3.860
 2790SOL    HW2 9270   3.360   6.033   3.949
 2791SOL     OW 9271   2.245   2.896   2.840
 2791SOL    HW1 9272   2.235   2.817   2.780
 2791SOL    HW2 9273   2.331   2.943   2.819
 2792SOL     OW 9274   1.461   2.212   4.514
 2792SOL    HW1 9275   1.509   2.247   4.434
 2792SOL    HW2 9276   1.422   2.288   4.565
 2793SOL     OW 9277   4.915   0.855   4.153
 2793SOL    HW1 9278   4.939   0.951   4.135
 2793SOL    HW2 9279   4.969   0.821   4.230
 2794SOL     OW 9280   0.699   1.059   1.389
 2794SOL    HW1 9281   0.621   1.031   1.333
 2794SOL    HW2 9282   0.754   1.125   1.338
 2795SOL     OW 9283   1.988   4.287   1.526
 2795SOL    HW1 9284   2.066   4.289   1.463
 2795SOL    HW2 9285   1.953   4.380   1.539
 2796SOL     OW 9286   5.506   4.500   2.524
 2796SOL    HW1 9287   5.583   4.506   2.460
 2796SOL    HW2 9288   5.536   4.528   2.615
 2797SOL     OW 9289   4.555   4.581   4.815
 2797SOL    HW1 9290   4.605   4.659   4.851
 2797SOL    HW2 9291   4.469   4.570   4.865
 2798SOL     OW 9292   1.772   3.149   4.168
 2798SOL    HW1 9293   1.811   3.175   4.256
 2798SOL    HW2 9294   1.674   3.170   4.167
 2799SOL     OW 9295   6.334   5.464   5.820
 2799SOL    HW1 9296   6.271   5.389   5.840
 2799SOL    HW2 9297   6.418   5.427   5.780
 2800SOL     OW 9298   2.776   1.855   6.774
 2800SOL    HW1 9299   2.731   1.783   6.721
 2800SOL    HW2 9300   2.724   1.873   6.858
 2801SOL     OW 9301   4.494   5.383   2.356
 2801SOL    HW1 9302   4.406   5.422   2.328
 2801SOL    HW2 9303   4.523   5.425   2.442
 2802SOL     OW 9304   5.663   0.823   5.880
 2802SOL    HW1 9305   5.704   0.854   5.966
 2802SOL    HW2 9306   5.608   0.741   5.897
 2803SOL     OW 9307   2.198   5.621   5.422
 2803SOL    HW1 9308   2.157   5.531   5.431
 2803SOL    HW2 9309   2.260   5.622   5.344
 2804SOL     OW 9310   0.155   4.755   2.721
 2804SOL    HW1 9311   0.238   4.810   2.717
 2804SOL    HW2 9312   0.085   4.804   2.775
 2805SOL     OW 9313   5.040   4.079   6.378
 2805SOL    HW1 9314   4.944   4.105   6.389
 2805SOL    HW2 9315   5.077   4.123   6.296
 2806SOL     OW 9316   6.879   5.401   2.710
 2806SOL    HW1 9317   6.846   5.460   2.636
 2806SOL    HW2 9318   6.838   5.430   2.797
 2807SOL     OW 9319   4.204   4.766   4.131
 2807SOL    HW1 9320   4.196   4.793   4.227
 2807SOL    HW2 9321   4.131   4.809   4.078
 2808SOL     OW 9322   4.559   6.041   3.806
 2808SOL    HW1 9323   4.555   6.140   3.793
 2808SOL    HW2 9324   4.653   6.009   3.789
 2809SOL     OW 9325   5.505   3.282   0.782
 2809SOL    HW1 9326   5.587   3.229   0.762
 2809SOL    HW2 9327   5.492   3.289   0.881
 2810SOL     OW 9328   1.683   0.324   5.550
 2810SOL    HW1 9329   1.618   0.373   5.607
 2810SOL    HW2 9330   1.641   0.301   5.462
 2811SOL     OW 9331   0.160   1.130   4.080
 2811SOL    HW1 9332   0.149   1.227   4.101
 2811SOL    HW2 9333   0.131   1.113   3.986
 2812SOL     OW 9334   5.261   3.762   2.728
 2812SOL    HW1 9335   5.293   3.844   2.682
 2812SOL    HW2 9336   5.337   3.697   2.737
 2813SOL     OW 9337   6.344   1.718   6.410
 2813SOL    HW1 9338   6.249   1.741   6.433
 2813SOL    HW2 9339   6.405   1.758   6.478
 2814SOL     OW 9340   5.059   4.449   5.281
 2814SOL    HW1 9341   5.143   4.458   5.333
 2814SOL    HW2 9342   5.075   4.473   5.186
 2815SOL     OW 9343   0.080   1.623   5.075
 2815SOL    HW1 9344   0.063   1.562   5.152
 2815SOL    HW2 9345   0.012   1.696   5.075
 2816SOL     OW 9346   5.616   6.412   3.217
 2816SOL    HW1 9347   5.664   6.427   3.130
 2816SOL    HW2 9348   5.525   6.375   3.199
 2817SOL     OW 9349   1.484   1.368   1.407
 2817SOL    HW1 9350   1.516   1.286   1.455
 2817SOL    HW2 9351   1.537   1.447   1.437
 2818SOL     OW 9352   0.446   3.582   6.030
 2818SOL    HW1 9353   0.462   3.551   5.937
 2818SOL    HW2 9354   0.483   3.515   6.095
 2819SOL     OW 9355   5.902   3.020   0.907
 2819SOL    HW1 9356   5.920   3.075   0.989
 2819SOL    HW2 9357   5.988   2.991   0.867
 2820SOL     OW 9358   6.054   2.898   4.494
 2820SOL    HW1 9359   6.062   2.929   4.400
 2820SOL    HW2 9360   6.006   2.811   4.497
 2821SOL     OW 9361   1.282   3.318   3.798
 2821SOL    HW1 9362   1.348   3.330   3.873
 2821SOL    HW2 9363   1.250   3.224   3.796
 2822SOL     OW 9364   3.149   1.829   0.531
 2822SOL    HW1 9365   3.147   1.877   0.443
 2822SOL    HW2 9366   3.111   1.737   0.520
 2823SOL     OW 9367   2.021   6.534   3.385
 2823SOL    HW1 9368   2.032   6.436   3.368
 2823SOL    HW2 9369   1.925   6.554   3.404
 2824SOL     OW 9370   2.926   1.435   4.888
 2824SOL    HW1 9371   2.876   1.369   4.831
 2824SOL    HW2 9372   2.861   1.487   4.943
 2825SOL     OW 9373   6.498   6.082   1.268
 2825SOL    HW1 9374   6.420   6.143   1.282
 2825SOL    HW2 9375   6.539   6.101   1.179
 2826SOL     OW 9376   4.560   2.655   3.852
 2826SOL    HW1 9377   4.637   2.695   3.902
 2826SOL    HW2 9378   4.474   2.683   3.894
 2827SOL     OW 9379   5.496   0.969   6.184
 2827SOL    HW1 9380   5.584   0.982   6.137
 2827SOL    HW2 9381   5.424   1.012   6.129
 2828SOL     OW 9382   3.290   1.757   6.512
 2828SOL    HW1 9383   3.252   1.848   6.528
 2828SOL    HW2 9384   3.388   1.758   6.535
 2829SOL     OW 9385   1.946   0.134   6.683
 2829SOL    HW1 9386   1.979   0.228   6.676
 2829SOL    HW2 9387   1.922   0.100   6.592
 2830SOL     OW 9388   3.370   3.594   6.680
 2830SOL    HW1 9389   3.465   3.569   6.701
 2830SOL    HW2 9390   3.308   3.528   6.723
 2831SOL     OW 9391   5.997   5.510   4.075
 2831SOL    HW1 9392   6.017   5.440   4.006
 2831SOL    HW2 9393   6.047   5.593   4.054
 2832SOL     OW 9394   0.189   0.911   1.854
 2832SOL    HW1 9395   0.232   1.000   1.839
 2832SOL    HW2 9396   0.099   0.909   1.810
 2833SOL     OW 9397   6.074   3.173   2.452
 2833SOL    HW1 9398   6.173   3.183   2.445
 2833SOL    HW2 9399   6.051   3.077   2.467
 2834SOL     OW 9400   3.789   1.037   5.956
 2834SOL    HW1 9401   3.844   1.052   5.874
 2834SOL    HW2 9402   3.728   0.959   5.942
 2835SOL     OW 9403   0.550   6.708   3.213
 2835SOL    HW1 9404   0.616   6.704   3.138
 2835SOL    HW2 9405   0.502   6.621   3.220
 2836SOL     OW 9406   6.607   1.097   0.832
 2836SOL    HW1 9407   6.598   1.162   0.757
 2836SOL    HW2 9408   6.682   1.126   0.892
 2837SOL     OW 9409   6.478   2.873   3.948
 2837SOL    HW1 9410   6.516   2.857   4.039
 2837SOL    HW2 9411   6.396   2.930   3.955
 2838SOL     OW 9412   1.914   4.941   4.117
 2838SOL    HW1 9413   1.943   4.964   4.024
 2838SOL    HW2 9414   1.840   5.002   4.143
 2839SOL     OW 9415   5.280   2.351   1.720
 2839SOL    HW1 9416   5.321   2.268   1.682
 2839SOL    HW2 9417   5.182   2.337   1.730
 2840SOL     OW 9418   6.900   2.217   5.545
 2840SOL    HW1 9419   6.842   2.135   5.546
 2840SOL    HW2 9420   6.895   2.260   5.455
 2841SOL     OW 9421   0.671   6.441   1.546
 2841SOL    HW1 9422   0.702   6.444   1.451
 2841SOL    HW2 9423   0.750   6.440   1.607
 2842SOL     OW 9424   6.239   3.023   3.211
 2842SOL    HW1 9425   6.215   2.960   3.136
 2842SOL    HW2 9426   6.316   3.079   3.183
 2843SOL     OW 9427   4.020   2.167   4.769
 2843SOL    HW1 9428   4.021   2.205   4.677
 2843SOL    HW2 9429   4.111   2.173   4.809
 2844SOL     OW 9430   0.136   3.814   5.464
 2844SOL    HW1 9431   0.106   3.822   5.369
 2844SOL    HW2 9432   0.187   3.728   5.475
 2845SOL     OW 9433   6.566   4.092   5.394
 2845SOL    HW1 9434   6.605   4.100   5.486
 2845SOL    HW2 9435   6.566   4.182   5.350
 2846SOL     OW 9436   4.680   0.961   6.803
 2846SOL    HW1 9437   4.586   0.926   6.803
 2846SOL    HW2 9438   4.679   1.061   6.811
 2847SOL     OW 9439   4.660   4.282   3.919
 2847SOL    HW1 9440   4.613   4.296   3.831
 2847SOL    HW2 9441   4.753   4.249   3.902
 2848SOL     OW 9442   1.478   6.311   5.187
 2848SOL    HW1 9443   1.499   6.409   5.181
 2848SOL    HW2 9444   1.470   6.273   5.095
 2849SOL     OW 9445   2.136   2.921   1.613
 2849SOL    HW1 9446   2.131   3.010   1.567
 2849SOL    HW2 9447   2.178   2.932   1.703
 2850SOL     OW 9448   3.389   1.301   0.388
 2850SOL    HW1 9449   3.306   1.246   0.382
 2850SOL    HW2 9450   3.386   1.374   0.320
 2851SOL     OW 9451   2.290   4.571   6.293
 2851SOL    HW1 9452   2.250   4.489   6.251
 2851SOL    HW2 9453   2.313   4.637   6.222
 2852SOL     OW 9454   0.394   3.412   6.321
 2852SOL    HW1 9455   0.309   3.359   6.323
 2852SOL    HW2 9456   0.463   3.364   6.267
 2853SOL     OW 9457   3.549   3.071   1.322
 2853SOL    HW1 9458   3.572   3.161   1.285
 2853SOL    HW2 9459   3.633   3.018   1.336
 2854SOL     OW 9460   1.039   1.199   3.679
 2854SOL    HW1 9461   0.953   1.222   3.635
 2854SOL    HW2 9462   1.114   1.244   3.631
 2855SOL     OW 9463   3.213   0.910   5.439
 2855SOL    HW1 9464   3.125   0.866   5.456
 2855SOL    HW2 9465   3.211   1.003   5.475
 2856SOL     OW 9466   2.404   1.302   5.101
 2856SOL    HW1 9467   2.323   1.342   5.059
 2856SOL    HW2 9468   2.377   1.238   5.173
 2857SOL     OW 9469   3.279   3.631   3.159
 2857SOL    HW1 9470   3.273   3.662   3.254
 2857SOL    HW2 9471   3.260   3.707   3.097
 2858SOL     OW 9472   5.791   2.796   3.081
 2858SOL    HW1 9473   5.758   2.703   3.102
 2858SOL    HW2 9474   5.742   2.831   3.002
 2859SOL     OW 9475   5.981   6.302   0.544
 2859SOL    HW1 9476   6.019   6.394   0.536
 2859SOL    HW2 9477   6.006   6.248   0.463
 2860SOL     OW 9478   4.635   2.165   1.486
 2860SOL    HW1 9479   4.645   2.136   1.581
 2860SOL    HW2 9480   4.548   2.212   1.474
 2861SOL     OW 9481   3.200   5.297   5.719
 2861SOL    HW1 9482   3.162   5.389   5.721
 2861SOL    HW2 9483   3.180   5.254   5.630
 2862SOL     OW 9484   6.346   0.502   4.422
 2862SOL    HW1 9485   6.405   0.481   4.344
 2862SOL    HW2 9486   6.365   0.594   4.455
 2863SOL     OW 9487   6.173   1.819   0.749
 2863SOL    HW1 9488   6.209   1.726   0.756
 2863SOL    HW2 9489   6.203   1.860   0.663
 2864SOL     OW 9490   3.387   1.725   0.212
 2864SOL    HW1 9491   3.319   1.655   0.236
 2864SOL    HW2 9492   3.475   1.703   0.255
 2865SOL     OW 9493   4.253   4.911   5.352
 2865SOL    HW1 9494   4.204   4.993   5.381
 2865SOL    HW2 9495   4.237   4.896   5.254
 2866SOL     OW 9496   6.928   0.103   6.027
 2866SOL    HW1 9497   6.849   0.072   5.973
 2866SOL    HW2 9498   6.968   0.025   6.076
 2867SOL     OW 9499   6.684   4.299   3.351
 2867SOL    HW1 9500   6.657   4.204   3.337
 2867SOL    HW2 9501   6.692   4.345   3.262
 2868SOL     OW 9502   1.849   4.616   5.390
 2868SOL    HW1 9503   1.889   4.681   5.325
 2868SOL    HW2 9504   1.871   4.523   5.361
 2869SOL     OW 9505   6.080   1.461   2.828
 2869SOL    HW1 9506   6.060   1.363   2.829
 2869SOL    HW2 9507   5.994   1.512   2.827
 2870SOL     OW 9508   4.827   1.848   2.850
 2870SOL    HW1 9509   4.800   1.755   2.825
 2870SOL    HW2 9510   4.898   1.880   2.787
 2871SOL     OW 9511   2.226   1.527   5.837
 2871SOL    HW1 9512   2.269   1.615   5.816
 2871SOL    HW2 9513   2.292   1.453   5.820
 2872SOL     OW 9514   2.098   6.483   4.184
 2872SOL    HW1 9515   1.999   6.476   4.169
 2872SOL    HW2 9516   2.131   6.572   4.152
 2873SOL     OW 9517   0.051   5.311   1.886
 2873SOL    HW1 9518   0.055   5.320   1.985
 2873SOL    HW2 9519   0.066   5.216   1.860
 2874SOL     OW 9520   5.567   1.563   2.974
 2874SOL    HW1 9521   5.526   1.484   2.929
 2874SOL    HW2 9522   5.637   1.533   3.038
 2875SOL     OW 9523   2.883   4.987   0.786
 2875SOL    HW1 9524   2.791   4.960   0.759
 2875SOL    HW2 9525   2.878   5.054   0.860
 2876SOL     OW 9526   0.000   1.614   2.408
 2876SOL    HW1 9527   0.052   1.530   2.425
 2876SOL    HW2 9528   0.039   1.688   2.461
 2877SOL     OW 9529   2.392   3.317   5.974
 2877SOL    HW1 9530   2.461   3.320   5.901
 2877SOL    HW2 9531   2.369   3.222   5.994
 2878SOL     OW 9532   3.119   4.754   6.787
 2878SOL    HW1 9533   3.138   4.738   6.884
 2878SOL    HW2 9534   3.193   4.807   6.746
 2879SOL     OW 9535   5.122   4.819   6.658
 2879SOL    HW1 9536   5.028   4.818   6.625
 2879SOL    HW2 9537   5.123   4.799   6.756
 2880SOL     OW 9538   0.912   6.159   1.704
 2880SOL    HW1 9539   0.985   6.106   1.748
 2880SOL    HW2 9540   0.947   6.250   1.680
 2881SOL     OW 9541   0.335   0.241   6.557
 2881SOL    HW1 9542   0.304   0.309   6.491
 2881SOL    HW2 9543   0.369   0.287   6.639
 2882SOL     OW 9544   6.916   3.302   3.716
 2882SOL    HW1 9545   6.862   3.222   3.689
 2882SOL    HW2 9546   6.882   3.383   3.669
 2883SOL     OW 9547   4.575   6.354   2.656
 2883SOL    HW1 9548   4.637   6.315   2.724
 2883SOL    HW2 9549   4.565   6.452   2.672
 2884SOL     OW 9550   1.662   6.056   3.227
 2884SOL    HW1 9551   1.754   6.078   3.197
 2884SOL    HW2 9552   1.655   5.958   3.246
 2885SOL     OW 9553   0.462   2.144   3.580
 2885SOL    HW1 9554   0.429   2.139   3.674
 2885SOL    HW2 9555   0.493   2.238   3.561
 2886SOL     OW 9556   2.196   2.407   6.066
 2886SOL    HW1 9557   2.248   2.487   6.098
 2886SOL    HW2 9558   2.195   2.337   6.137
 2887SOL     OW 9559   2.349   1.108   4.760
 2887SOL    HW1 9560   2.253   1.131   4.778
 2887SOL    HW2 9561   2.404   1.191   4.769
 2888SOL     OW 9562   6.988   4.974   6.894
 2888SOL    HW1 9563   0.010   4.910   6.956
 2888SOL    HW2 9564   6.924   5.030   6.946
 2889SOL     OW 9565   0.270   0.273   1.360
 2889SOL    HW1 9566   0.245   0.177   1.375
 2889SOL    HW2 9567   0.318   0.308   1.441
 2890SOL     OW 9568   3.081   6.581   0.624
 2890SOL    HW1 9569   2.996   6.630   0.606
 2890SOL    HW2 9570   3.148   6.644   0.664
 2891SOL     OW 9571   2.824   5.166   4.424
 2891SOL    HW1 9572   2.900   5.146   4.485
 2891SOL    HW2 9573   2.762   5.088   4.420
 2892SOL     OW 9574   4.517   4.590   5.820
 2892SOL    HW1 9575   4.591   4.656   5.838
 2892SOL    HW2 9576   4.441   4.637   5.776
 2893SOL     OW 9577   2.522   0.509   5.907
 2893SOL    HW1 9578   2.614   0.472   5.915
 2893SOL    HW2 9579   2.518   0.573   5.830
 2894SOL     OW 9580   3.341   2.586   0.945
 2894SOL    HW1 9581   3.426   2.586   0.998
 2894SOL    HW2 9582   3.358   2.625   0.854
 2895SOL     OW 9583   3.318   3.222   6.746
 2895SOL    HW1 9584   3.284   3.258   6.833
 2895SOL    HW2 9585   3.303   3.123   6.743
 2896SOL     OW 9586   2.201   5.586   0.953
 2896SOL    HW1 9587   2.134   5.529   0.905
 2896SOL    HW2 9588   2.214   5.672   0.903
 2897SOL     OW 9589   1.437   6.473   3.540
 2897SOL    HW1 9590   1.494   6.544   3.500
 2897SOL    HW2 9591   1.455   6.465   3.638
 2898SOL     OW 9592   2.709   5.009   2.408
 2898SOL    HW1 9593   2.777   5.066   2.362
 2898SOL    HW2 9594   2.628   5.000   2.351
 2899SOL     OW 9595   6.654   0.571   0.474
 2899SOL    HW1 9596   6.703   0.573   0.562
 2899SOL    HW2 9597   6.706   0.622   0.406
 2900SOL     OW 9598   2.948   5.573   6.022
 2900SOL    HW1 9599   2.859   5.561   6.068
 2900SOL    HW2 9600   3.010   5.624   6.082
 2901SOL     OW 9601   3.187   0.306   1.252
 2901SOL    HW1 9602   3.272   0.266   1.284
 2901SOL    HW2 9603   3.206   0.393   1.205
 2902SOL     OW 9604   5.303   5.827   1.839
 2902SOL    HW1 9605   5.351   5.740   1.824
 2902SOL    HW2 9606   5.362   5.889   1.891
 2903SOL     OW 9607   2.646   2.373   1.935
 2903SOL    HW1 9608   2.654   2.440   1.862
 2903SOL    HW2 9609   2.737   2.355   1.974
 2904SOL     OW 9610   1.867   3.594   4.650
 2904SOL    HW1 9611   1.887   3.571   4.555
 2904SOL    HW2 9612   1.950   3.624   4.696
 2905SOL     OW 9613   1.082   2.290   1.191
 2905SOL    HW1 9614   1.171   2.304   1.148
 2905SOL    HW2 9615   1.024   2.369   1.174
 2906SOL     OW 9616   5.118   5.941   2.382
 2906SOL    HW1 9617   5.036   5.997   2.370
 2906SOL    HW2 9618   5.157   5.919   2.293
 2907SOL     OW 9619   6.628   0.880   4.234
 2907SOL    HW1 9620   6.609   0.911   4.327
 2907SOL    HW2 9621   6.563   0.923   4.171
 2908SOL     OW 9622   4.247   6.133   4.719
 2908SOL    HW1 9623   4.157   6.171   4.699
 2908SOL    HW2 9624   4.308   6.148   4.641
 2909SOL     OW 9625   1.117   5.886   5.531
 2909SOL    HW1 9626   1.078   5.809   5.482
 2909SOL    HW2 9627   1.144   5.857   5.623
 2910SOL     OW 9628   5.140   6.458   6.345
 2910SOL    HW1 9629   5.150   6.522   6.269
 2910SOL    HW2 9630   5.177   6.369   6.318
 2911SOL     OW 9631   1.945   4.280   3.320
 2911SOL    HW1 9632   1.925   4.377   3.311
 2911SOL    HW2 9633   2.044   4.267   3.331
 2912SOL     OW 9634   2.612   5.206   0.568
 2912SOL    HW1 9635   2.698   5.221   0.519
 2912SOL    HW2 9636   2.539   5.187   0.502
 2913SOL     OW 9637   0.855   2.840   2.721
 2913SOL    HW1 9638   0.846   2.892   2.806
 2913SOL    HW2 9639   0.949   2.805   2.714
 2914SOL     OW 9640   4.737   5.339   5.466
 2914SOL    HW1 9641   4.783   5.427   5.451
 2914SOL    HW2 9642   4.682   5.317   5.385
 2915SOL     OW 9643   4.391   1.120   4.083
 2915SOL    HW1 9644   4.442   1.169   4.012
 2915SOL    HW2 9645   4.306   1.170   4.103
 2916SOL     OW 9646   4.647   5.652   4.351
 2916SOL    HW1 9647   4.613   5.745   4.368
 2916SOL    HW2 9648   4.736   5.641   4.394
 2917SOL     OW 9649   4.401   1.241   2.546
 2917SOL    HW1 9650   4.360   1.204   2.463
 2917SOL    HW2 9651   4.487   1.287   2.523
 2918SOL     OW 9652   0.054   3.717   3.772
 2918SOL    HW1 9653   0.118   3.768   3.830
 2918SOL    HW2 9654   0.104   3.647   3.721
 2919SOL     OW 9655   6.934   6.295   0.050
 2919SOL    HW1 9656   7.013   6.236   0.068
 2919SOL    HW2 9657   6.966   6.378   0.005
 2920SOL     OW 9658   4.423   2.358   2.987
 2920SOL    HW1 9659   4.354   2.355   3.059
 2920SOL    HW2 9660   4.486   2.434   3.003
 2921SOL     OW 9661   0.466   0.167   1.746
 2921SOL    HW1 9662   0.399   0.101   1.779
 2921SOL    HW2 9663   0.497   0.225   1.821
 2922SOL     OW 9664   4.287   6.480   5.793
 2922SOL    HW1 9665   4.366   6.494   5.734
 2922SOL    HW2 9666   4.316   6.479   5.889
 2923SOL     OW 9667   6.784   4.291   0.782
 2923SOL    HW1 9668   6.685   4.293   0.798
 2923SOL    HW2 9669   6.813   4.197   0.765
 2924SOL     OW 9670   5.425   0.260   5.692
 2924SOL    HW1 9671   5.482   0.336   5.658
 2924SOL    HW2 9672   5.403   0.199   5.616
 2925SOL     OW 9673   5.542   3.694   1.318
 2925SOL    HW1 9674   5.579   3.726   1.406
 2925SOL    HW2 9675   5.591   3.612   1.289
 2926SOL     OW 9676   6.943   1.568   3.991
 2926SOL    HW1 9677   6.869   1.567   3.924
 2926SOL    HW2 9678   6.947   1.657   4.036
 2927SOL     OW 9679   0.451   2.555   2.516
 2927SOL    HW1 9680   0.533   2.585   2.564
 2927SOL    HW2 9681   0.374   2.614   2.542
 2928SOL     OW 9682   5.245   6.742   0.897
 2928SOL    HW1 9683   5.300   6.661   0.920
 2928SOL    HW2 9684   5.206   6.731   0.806
 2929SOL     OW 9685   1.136   0.156   5.773
 2929SOL    HW1 9686   1.108   0.245   5.735
 2929SOL    HW2 9687   1.115   0.153   5.870
 2930SOL     OW 9688   3.820   6.509   4.919
 2930SOL    HW1 9689   3.908   6.494   4.875
 2930SOL    HW2 9690   3.755   6.438   4.890
 2931SOL     OW 9691   3.565   5.608   6.598
 2931SOL    HW1 9692   3.514   5.545   6.540
 2931SOL    HW2 9693   3.655   5.625   6.557
 2932SOL     OW 9694   1.812   4.701   2.030
 2932SOL    HW1 9695   1.780   4.658   2.115
 2932SOL    HW2 9696   1.743   4.766   1.998
 2933SOL     OW 9697   4.792   1.444   3.342
 2933SOL    HW1 9698   4.821   1.537   3.319
 2933SOL    HW2 9699   4.872   1.392   3.375
 2934SOL     OW 9700   2.634   0.570   0.018
 2934SOL    HW1 9701   2.557   0.634   0.016
 2934SOL    HW2 9702   2.625   0.505   6.966
 2935SOL     OW 9703   6.572   1.790   1.245
 2935SOL    HW1 9704   6.472   1.781   1.235
 2935SOL    HW2 9705   6.594   1.882   1.277
 2936SOL     OW 9706   3.627   6.080   0.865
 2936SOL    HW1 9707   3.654   6.013   0.934
 2936SOL    HW2 9708   3.573   6.034   0.794
 2937SOL     OW 9709   2.494   4.135   0.387
 2937SOL    HW1 9710   2.535   4.046   0.369
 2937SOL    HW2 9711   2.406   4.142   0.340
 2938SOL     OW 9712   4.936   5.179   5.589
 2938SOL    HW1 9713   4.881   5.253   5.549
 2938SOL    HW2 9714   4.997   5.217   5.659
 2939SOL     OW 9715   0.205   6.671   5.692
 2939SOL    HW1 9716   0.154   6.645   5.774
 2939SOL    HW2 9717   0.302   6.648   5.704
 2940SOL     OW 9718   4.032   0.559   5.544
 2940SOL    HW1 9719   4.037   0.638   5.483
 2940SOL    HW2 9720   4.034   0.475   5.490
 2941SOL     OW 9721   2.729   1.655   5.489
 2941SOL    HW1 9722   2.668   1.606   5.427
 2941SOL    HW2 9723   2.678   1.681   5.571
 2942SOL     OW 9724   4.020   6.322   4.455
 2942SOL    HW1 9725   4.055   6.249   4.395
 2942SOL    HW2 9726   3.934   6.292   4.496
 2943SOL     OW 9727   5.864   3.721   2.874
 2943SOL    HW1 9728   5.875   3.756   2.781
 2943SOL    HW2 9729   5.927   3.646   2.890
 2944SOL     OW 9730   3.908   5.999   6.579
 2944SOL    HW1 9731   3.863   5.935   6.517
 2944SOL    HW2 9732   3.864   5.995   6.669
 2945SOL     OW 9733   2.938   3.723   3.348
 2945SOL    HW1 9734   2.997   3.775   3.409
 2945SOL    HW2 9735   2.867   3.676   3.401
 2946SOL     OW 9736   0.026   6.005   5.854
 2946SOL    HW1 9737   7.017   5.936   5.919
 2946SOL    HW2 9738   6.973   6.064   5.828
 2947SOL     OW 9739   0.269   5.581   0.249
 2947SOL    HW1 9740   0.184   5.604   0.297
 2947SOL    HW2 9741   0.256   5.498   0.196
 2948SOL     OW 9742   5.758   4.609   5.260
 2948SOL    HW1 9743   5.738   4.695   5.213
 2948SOL    HW2 9744   5.673   4.564   5.286
 2949SOL     OW 9745   1.304   6.186   0.815
 2949SOL    HW1 9746   1.247   6.258   0.854
 2949SOL    HW2 9747   1.298   6.104   0.873
 2950SOL     OW 9748   5.517   3.811   4.677
 2950SOL    HW1 9749   5.591   3.867   4.638
 2950SOL    HW2 9750   5.433   3.826   4.625
 2951SOL     OW 9751   6.191   1.352   1.549
 2951SOL    HW1 9752   6.143   1.417   1.491
 2951SOL    HW2 9753   6.153   1.356   1.642
 2952SOL     OW 9754   1.715   3.534   2.133
 2952SOL    HW1 9755   1.631   3.489   2.102
 2952SOL    HW2 9756   1.710   3.631   2.114
 2953SOL     OW 9757   5.628   0.648   2.851
 2953SOL    HW1 9758   5.548   0.687   2.897
 2953SOL    HW2 9759   5.704   0.643   2.916
 2954SOL     OW 9760   5.557   6.370   1.474
 2954SOL    HW1 9761   5.505   6.289   1.500
 2954SOL    HW2 9762   5.640   6.341   1.426
 2955SOL     OW 9763   6.373   3.051   0.698
 2955SOL    HW1 9764   6.301   3.099   0.647
 2955SOL    HW2 9765   6.358   2.953   0.693
 2956SOL     OW 9766   6.515   5.395   2.591
 2956SOL    HW1 9767   6.554   5.373   2.501
 2956SOL    HW2 9768   6.516   5.313   2.648
 2957SOL     OW 9769   1.359   3.985   1.437
 2957SOL    HW1 9770   1.305   3.930   1.374
 2957SOL    HW2 9771   1.322   3.976   1.530
 2958SOL     OW 9772   3.756   4.780   6.599
 2958SOL    HW1 9773   3.820   4.855   6.618
 2958SOL    HW2 9774   3.717   4.747   6.685
 2959SOL     OW 9775   4.421   5.677   6.912
 2959SOL    HW1 9776   4.464   5.619   6.981
 2959SOL    HW2 9777   4.322   5.662   6.913
 2960SOL     OW 9778   2.591   1.594   6.891
 2960SOL    HW1 9779   2.539   1.521   6.846
 2960SOL    HW2 9780   2.533   1.675   6.901
 2961SOL     OW 9781   5.556   2.573   4.785
 2961SOL    HW1 9782   5.522   2.523   4.705
 2961SOL    HW2 9783   5.567   2.510   4.861
 2962SOL     OW 9784   3.710   1.377   3.474
 2962SOL    HW1 9785   3.621   1.394   3.515
 2962SOL    HW2 9786   3.698   1.342   3.381
 2963SOL     OW 9787   2.054   2.726   4.980
 2963SOL    HW1 9788   2.114   2.681   4.915
 2963SOL    HW2 9789   1.959   2.713   4.953
 2964SOL     OW 9790   2.733   5.807   0.454
 2964SOL    HW1 9791   2.765   5.797   0.360
 2964SOL    HW2 9792   2.633   5.799   0.456
 2965SOL     OW 9793   0.960   2.590   5.808
 2965SOL    HW1 9794   0.887   2.650   5.839
 2965SOL    HW2 9795   1.016   2.638   5.741
 2966SOL     OW 9796   4.579   4.372   3.682
 2966SOL    HW1 9797   4.503   4.417   3.730
 2966SOL    HW2 9798   4.610   4.431   3.607
 2967SOL     OW 9799   6.063   2.086   4.134
 2967SOL    HW1 9800   6.147   2.117   4.177
 2967SOL    HW2 9801   5.986   2.140   4.167
 2968SOL     OW 9802   6.816   4.333   3.569
 2968SOL    HW1 9803   6.782   4.315   3.477
 2968SOL    HW2 9804   6.739   4.354   3.630
 2969SOL     OW 9805   4.696   0.956   4.421
 2969SOL    HW1 9806   4.638   0.892   4.471
 2969SOL    HW2 9807   4.792   0.933   4.437
 2970SOL     OW 9808   1.499   4.674   6.502
 2970SOL    HW1 9809   1.465   4.739   6.435
 2970SOL    HW2 9810   1.427   4.654   6.568
 2971SOL     OW 9811   4.904   3.331   3.353
 2971SOL    HW1 9812   5.003   3.317   3.353
 2971SOL    HW2 9813   4.880   3.400   3.421
 2972SOL     OW 9814   0.751   4.402   6.224
 2972SOL    HW1 9815   0.682   4.471   6.203
 2972SOL    HW2 9816   0.706   4.314   6.240
 2973SOL     OW 9817   5.353   6.450   4.268
 2973SOL    HW1 9818   5.322   6.468   4.175
 2973SOL    HW2 9819   5.452   6.461   4.274
 2974SOL     OW 9820   0.374   3.684   2.536
 2974SOL    HW1 9821   0.451   3.724   2.586
 2974SOL    HW2 9822   0.381   3.584   2.539
 2975SOL     OW 9823   0.192   1.290   4.549
 2975SOL    HW1 9824   0.274   1.273   4.494
 2975SOL    HW2 9825   0.215   1.346   4.628
 2976SOL     OW 9826   3.331   6.558   1.633
 2976SOL    HW1 9827   3.371   6.596   1.549
 2976SOL    HW2 9828   3.322   6.630   1.701
 2977SOL     OW 9829   3.740   6.441   4.093
 2977SOL    HW1 9830   3.736   6.393   4.180
 2977SOL    HW2 9831   3.681   6.521   4.096
 2978SOL     OW 9832   4.109   6.302   6.966
 2978SOL    HW1 9833   4.107   6.390   7.013
 2978SOL    HW2 9834   4.021   6.256   6.977
 2979SOL     OW 9835   3.245   1.030   3.425
 2979SOL    HW1 9836   3.172   1.001   3.486
 2979SOL    HW2 9837   3.212   1.030   3.330
 2980SOL     OW 9838   6.913   6.534   3.920
 2980SOL    HW1 9839   6.837   6.473   3.901
 2980SOL    HW2 9840   6.976   6.490   3.985
 2981SOL     OW 9841   1.581   1.294   5.226
 2981SOL    HW1 9842   1.490   1.283   5.267
 2981SOL    HW2 9843   1.641   1.222   5.260
 2982SOL     OW 9844   4.756   0.064   3.356
 2982SOL    HW1 9845   4.815   0.094   3.431
 2982SOL    HW2 9846   4.812   0.034   3.279
 2983SOL     OW 9847   6.813   0.339   2.457
 2983SOL    HW1 9848   6.837   0.436   2.456
 2983SOL    HW2 9849   6.721   0.327   2.494
 2984SOL     OW 9850   5.639   5.014   1.844
 2984SOL    HW1 9851   5.629   4.926   1.797
 2984SOL    HW2 9852   5.607   5.088   1.784
 2985SOL     OW 9853   5.986   1.886   3.319
 2985SOL    HW1 9854   6.051   1.960   3.302
 2985SOL    HW2 9855   5.934   1.907   3.403
 2986SOL     OW 9856   2.312   3.725   5.330
 2986SOL    HW1 9857   2.354   3.795   5.271
 2986SOL    HW2 9858   2.213   3.735   5.328
 2987SOL     OW 9859   4.429   2.129   4.502
 2987SOL    HW1 9860   4.439   2.092   4.594
 2987SOL    HW2 9861   4.357   2.199   4.502
 2988SOL     OW 9862   0.580   0.323   1.930
 2988SOL    HW1 9863   0.651   0.277   1.983
 2988SOL    HW2 9864   0.622   0.397   1.876
 2989SOL     OW 9865   6.752   4.842   0.866
 2989SOL    HW1 9866   6.695   4.829   0.785
 2989SOL    HW2 9867   6.842   4.799   0.850
 2990SOL     OW 9868   3.329   0.048   0.923
 2990SOL    HW1 9869   3.374   0.065   1.010
 2990SOL    HW2 9870   3.379   0.094   0.849
 2991SOL     OW 9871   6.674   4.627   0.209
 2991SOL    HW1 9872   6.682   4.572   0.292
 2991SOL    HW2 9873   6.763   4.635   0.166
 2992SOL     OW 9874   4.006   4.708   0.009
 2992SOL    HW1 9875   4.083   4.749   0.057
 2992SOL    HW2 9876   3.982   4.621   0.051
 2993SOL     OW 9877   2.159   5.717   0.511
 2993SOL    HW1 9878   2.207   5.686   0.429
 2993SOL    HW2 9879   2.198   5.673   0.592
 2994SOL     OW 9880   4.105   6.552   0.091
 2994SOL    HW1 9881   4.142   6.561   0.183
 2994SOL    HW2 9882   4.121   6.637   0.040
 2995SOL     OW 9883   2.574   0.689   5.706
 2995SOL    HW1 9884   2.599   0.658   5.614
 2995SOL    HW2 9885   2.656   0.698   5.762
 2996SOL     OW 9886   3.951   5.274   5.882
 2996SOL    HW1 9887   3.960   5.371   5.903
 2996SOL    HW2 9888   4.023   5.223   5.929
 2997SOL     OW 9889   4.842   6.665   0.545
 2997SOL    HW1 9890   4.849   6.699   0.452
 2997SOL    HW2 9891   4.782   6.725   0.598
 2998SOL     OW 9892   6.183   5.588   5.082
 2998SOL    HW1 9893   6.229   5.631   5.004
 2998SOL    HW2 9894   6.211   5.492   5.088
 2999SOL     OW 9895   3.162   6.401   2.274
 2999SOL    HW1 9896   3.115   6.479   2.316
 2999SOL    HW2 9897   3.246   6.381   2.326
 3000SOL     OW 9898   1.733   2.552   4.519
 3000SOL    HW1 9899   1.647   2.582   4.561
 3000SOL    HW2 9900   1.735   2.583   4.424
 3001SOL     OW 9901   4.434   0.048   6.634
 3001SOL    HW1 9902   4.501   0.077   6.566
 3001SOL    HW2 9903   4.405   6.978   6.616
 3002SOL     OW 9904   3.461   6.817   5.816
 3002SOL    HW1 9905   3.439   6.867   5.900
 3002SOL    HW2 9906   3.398   6.741   5.805
 3003SOL     OW 9907   2.324   6.861   6.446
 3003SOL    HW1 9908   2.312   6.913   6.361
 3003SOL    HW2 9909   2.277   6.908   6.521
 3004SOL     OW 9910   6.394   3.697   4.905
 3004SOL    HW1 9911   6.392   3.602   4.938
 3004SOL    HW2 9912   6.304   3.721   4.868
 3005SOL     OW 9913   4.680   2.500   1.871
 3005SOL    HW1 9914   4.690   2.582   1.815
 3005SOL    HW2 9915   4.584   2.472   1.873
 3006SOL     OW 9916   5.086   0.912   1.196
 3006SOL    HW1 9917   5.112   0.914   1.099
 3006SOL    HW2 9918   5.104   0.821   1.233
 3007SOL     OW 9919   6.612   5.882   1.843
 3007SOL    HW1 9920   6.650   5.935   1.767
 3007SOL    HW2 9921   6.683   5.864   1.911
 3008SOL     OW 9922   4.115   5.503   5.976
 3008SOL    HW1 9923   4.072   5.593   5.976
 3008SOL    HW2 9924   4.184   5.499   5.904
 3009SOL     OW 9925   1.213   1.252   2.844
 3009SOL    HW1 9926   1.304   1.293   2.847
 3009SOL    HW2 9927   1.147   1.320   2.813
 3010SOL     OW 9928   3.237   6.785   2.466
 3010SOL    HW1 9929   3.328   6.744   2.475
 3010SOL    HW2 9930   3.245   6.885   2.474
 3011SOL     OW 9931   5.743   0.536   6.812
 3011SOL    HW1 9932   5.831   0.568   6.850
 3011SOL    HW2 9933   5.671   0.547   6.881
 3012SOL     OW 9934   0.086   4.875   2.406
 3012SOL    HW1 9935   0.155   4.820   2.359
 3012SOL    HW2 9936   0.080   4.965   2.362
 3013SOL     OW 9937   5.720   4.475   2.364
 3013SOL    HW1 9938   5.723   4.481   2.264
 3013SOL    HW2 9939   5.810   4.452   2.399
 3014SOL     OW 9940   4.725   0.816   5.193
 3014SOL    HW1 9941   4.803   0.791   5.135
 3014SOL    HW2 9942   4.732   0.913   5.217
 3015SOL     OW 9943   3.132   2.238   6.743
 3015SOL    HW1 9944   3.093   2.178   6.812
 3015SOL    HW2 9945   3.231   2.240   6.752
 3016SOL     OW 9946   3.381   6.030   3.453
 3016SOL    HW1 9947   3.472   6.070   3.443
 3016SOL    HW2 9948   3.336   6.026   3.364
 3017SOL     OW 9949   6.560   6.048   0.971
 3017SOL    HW1 9950   6.566   6.148   0.963
 3017SOL    HW2 9951   6.652   6.011   0.984
 3018SOL     OW 9952   3.755   0.101   6.381
 3018SOL    HW1 9953   3.819   0.135   6.313
 3018SOL    HW2 9954   3.804   0.065   6.460
 3019SOL     OW 9955   5.207   6.645   2.167
 3019SOL    HW1 9956   5.189   6.582   2.092
 3019SOL    HW2 9957   5.121   6.666   2.214
 3020SOL     OW 9958   1.870   1.346   0.860
 3020SOL    HW1 9959   1.909   1.414   0.921
 3020SOL    HW2 9960   1.774   1.331   0.883
 3021SOL     OW 9961   3.679   1.056   6.216
 3021SOL    HW1 9962   3.745   1.063   6.141
 3021SOL    HW2 9963   3.690   1.134   6.278
 3022SOL     OW 9964   5.647   6.751   2.170
 3022SOL    HW1 9965   5.658   6.789   2.262
 3022SOL    HW2 9966   5.560   6.702   2.164
 3023SOL     OW 9967   5.823   0.284   1.448
 3023SOL    HW1 9968   5.846   0.360   1.509
 3023SOL    HW2 9969   5.726   0.259   1.461
 3024SOL     OW 9970   3.267   6.461   6.815
 3024SOL    HW1 9971   3.177   6.420   6.802
 3024SOL    HW2 9972   3.270   6.510   6.902
 3025SOL     OW 9973   1.845   2.218   1.639
 3025SOL    HW1 9974   1.894   2.223   1.552
 3025SOL    HW2 9975   1.897   2.160   1.703
 3026SOL     OW 9976   1.919   4.580   0.682
 3026SOL    HW1 9977   1.968   4.531   0.610
 3026SOL    HW2 9978   1.944   4.676   0.681
 3027SOL     OW 9979   1.758   1.552   4.058
 3027SOL    HW1 9980   1.793   1.462   4.032
 3027SOL    HW2 9981   1.698   1.544   4.137
 3028SOL     OW 9982   2.047   0.715   4.495
 3028SOL    HW1 9983   2.063   0.806   4.455
 3028SOL    HW2 9984   2.086   0.645   4.435
 3029SOL     OW 9985   4.769   6.117   5.642
 3029SOL    HW1 9986   4.723   6.028   5.651
 3029SOL    HW2 9987   4.785   6.156   5.732
 3030SOL     OW 9988   1.456   1.750   6.169
 3030SOL    HW1 9989   1.497   1.732   6.080
 3030SOL    HW2 9990   1.486   1.840   6.203
 3031SOL     OW 9991   1.568   5.114   6.781
 3031SOL    HW1 9992   1.619   5.146   6.861
 3031SOL    HW2 9993   1.625   5.124   6.700
 3032SOL     OW 9994   3.954   0.355   5.771
 3032SOL    HW1 9995   3.935   0.389   5.863
 3032SOL    HW2 9996   3.988   0.430   5.714
 3033SOL     OW 9997   5.148   4.965   6.181
 3033SOL    HW1 9998   5.205   4.882   6.186
 3033SOL    HW2 9999   5.164   5.021   6.262
 3034SOL     OW10000   2.144   0.141   4.138
 3034SOL    HW110001   2.235   0.172   4.108
 3034SOL    HW210002   2.074   0.197   4.095
 3035SOL     OW10003   6.595   6.865   6.548
 3035SOL    HW110004   6.513   6.918   6.526
 3035SOL    HW210005   6.628   6.890   6.639
 3036SOL     OW10006   1.314   4.593   6.107
 3036SOL    HW110007   1.414   4.586   6.115
 3036SOL    HW210008   1.289   4.610   6.012
 3037SOL     OW10009   6.563   6.552   5.597
 3037SOL    HW110010   6.569   6.464   5.549
 3037SOL    HW210011   6.523   6.537   5.688
 3038SOL     OW10012   5.594   0.107   5.824
 3038SOL    HW110013   5.524   0.163   5.780
 3038SOL    HW210014   5.563   0.012   5.827
 3039SOL     OW10015   0.666   5.083   0.617
 3039SOL    HW110016   0.665   4.990   0.579
 3039SOL    HW210017   0.597   5.139   0.572
 3040SOL     OW10018   2.195   2.210   6.548
 3040SOL    HW110019   2.235   2.227   6.638
 3040SOL    HW210020   2.139   2.127   6.552
 3041SOL     OW10021   1.754   1.963   5.974
 3041SOL    HW110022   1.729   2.025   5.900
 3041SOL    HW210023   1.752   1.869   5.941
 3042SOL     OW10024   5.082   0.166   2.112
 3042SOL    HW110025   5.115   0.083   2.066
 3042SOL    HW210026   5.139   0.244   2.086
 3043SOL     OW10027   0.096   5.096   0.334
 3043SOL    HW110028   0.133   5.035   0.404
 3043SOL    HW210029   0.021   5.051   0.287
 3044SOL     OW10030   3.441   3.921   5.819
 3044SOL    HW110031   3.347   3.945   5.845
 3044SOL    HW210032   3.440   3.837   5.764
 3045SOL     OW10033   5.460   1.897   3.702
 3045SOL    HW110034   5.436   1.991   3.728
 3045SOL    HW210035   5.539   1.867   3.756
 3046SOL     OW10036   2.572   1.990   5.627
 3046SOL    HW110037   2.578   1.941   5.714
 3046SOL    HW210038   2.623   2.076   5.633
 3047SOL     OW10039   6.936   4.429   2.155
 3047SOL    HW110040   6.884   4.388   2.229
 3047SOL    HW210041   0.005   4.451   2.187
 3048SOL     OW10042   2.964   2.628   1.703
 3048SOL    HW110043   3.042   2.690   1.702
 3048SOL    HW210044   2.987   2.546   1.756
 3049SOL     OW10045   0.882   0.295   1.818
 3049SOL    HW110046   0.850   0.202   1.804
 3049SOL    HW210047   0.972   0.306   1.774
 3050SOL     OW10048   3.035   5.505   3.454
 3050SOL    HW110049   3.006   5.410   3.444
 3050SOL    HW210050   2.968   5.554   3.509
 3051SOL     OW10051   2.545   4.660   5.521
 3051SOL    HW110052   2.455   4.665   5.564
 3051SOL    HW210053   2.579   4.566   5.527
 3052SOL     OW10054   4.625   6.616   2.741
 3052SOL    HW110055   4.723   6.601   2.742
 3052SOL    HW210056   4.599   6.667   2.659
 3053SOL     OW10057   4.224   6.429   0.934
 3053SOL    HW110058   4.231   6.336   0.969
 3053SOL    HW210059   4.189   6.489   1.006
 3054SOL     OW10060   2.129   3.296   6.133
 3054SOL    HW110061   2.190   3.350   6.074
 3054SOL    HW210062   2.169   3.288   6.224
 3055SOL     OW10063   5.736   5.989   2.609
 3055SOL    HW110064   5.835   6.008   2.612
 3055SOL    HW210065   5.721   5.890   2.613
 3056SOL     OW10066   6.465   1.046   1.300
 3056SOL    HW110067   6.379   1.095   1.311
 3056SOL    HW210068   6.540   1.111   1.289
 3057SOL     OW10069   6.231   5.902   2.539
 3057SOL    HW110070   6.202   5.955   2.459
 3057SOL    HW210071   6.265   5.813   2.509
 3058SOL     OW10072   6.242   4.965   1.613
 3058SOL    HW110073   6.288   5.044   1.572
 3058SOL    HW210074   6.306   4.916   1.672
 3059SOL     OW10075   1.887   2.722   4.632
 3059SOL    HW110076   1.984   2.701   4.631
 3059SOL    HW210077   1.836   2.648   4.588
 3060SOL     OW10078   6.573   6.884   0.758
 3060SOL    HW110079   6.506   6.944   0.714
 3060SOL    HW210080   6.618   6.828   0.689
 3061SOL     OW10081   0.246   0.900   6.030
 3061SOL    HW110082   0.215   0.994   6.041
 3061SOL    HW210083   0.167   0.839   6.026
 3062SOL     OW10084   3.022   5.924   6.080
 3062SOL    HW110085   2.942   5.904   6.023
 3062SOL    HW210086   2.992   5.968   6.164
 3063SOL     OW10087   1.852   5.167   0.977
 3063SOL    HW110088   1.884   5.188   0.884
 3063SOL    HW210089   1.880   5.239   1.039
 3064SOL     OW10090   6.786   5.080   3.288
 3064SOL    HW110091   6.831   4.995   3.263
 3064SOL    HW210092   6.688   5.063   3.301
 3065SOL     OW10093   2.015   1.015   1.100
 3065SOL    HW110094   1.919   0.986   1.100
 3065SOL    HW210095   2.045   1.028   1.005
 3066SOL     OW10096   5.284   5.400   0.958
 3066SOL    HW110097   5.239   5.447   1.034
 3066SOL    HW210098   5.377   5.435   0.948
 3067SOL     OW10099   5.127   6.466   3.320
 3067SOL    HW110100   5.031   6.452   3.294
 3067SOL    HW210101   5.132   6.494   3.415
 3068SOL     OW10102   6.175   4.797   0.461
 3068SOL    HW110103   6.117   4.844   0.394
 3068SOL    HW210104   6.134   4.804   0.552
 3069SOL     OW10105   1.214   5.482   3.704
 3069SOL    HW110106   1.229   5.385   3.687
 3069SOL    HW210107   1.117   5.504   3.691
 3070SOL     OW10108   4.096   1.852   4.230
 3070SOL    HW110109   4.118   1.755   4.221
 3070SOL    HW210110   4.013   1.873   4.178
 3071SOL     OW10111   6.043   0.195   3.762
 3071SOL    HW110112   6.049   0.175   3.860
 3071SOL    HW210113   6.135   0.197   3.723
 3072SOL     OW10114   0.701   0.207   2.142
 3072SOL    HW110115   0.795   0.237   2.161
 3072SOL    HW210116   0.657   0.179   2.228
 3073SOL     OW10117   1.545   3.017   4.502
 3073SOL    HW110118   1.524   2.987   4.409
 3073SOL    HW210119   1.462   3.016   4.557
 3074SOL     OW10120   4.812   3.282   5.806
 3074SOL    HW110121   4.864   3.226   5.871
 3074SOL    HW210122   4.724   3.307   5.847
 3075SOL     OW10123   1.093   5.586   1.642
 3075SOL    HW110124   1.182   5.624   1.669
 3075SOL    HW210125   1.024   5.612   1.710
 3076SOL     OW10126   0.337   0.120   5.146
 3076SOL    HW110127   0.431   0.154   5.149
 3076SOL    HW210128   0.330   0.046   5.079
 3077SOL     OW10129   4.727   5.196   3.760
 3077SOL    HW110130   4.672   5.255   3.819
 3077SOL    HW210131   4.820   5.191   3.795
 3078SOL     OW10132   2.129   3.017   0.298
 3078SOL    HW110133   2.054   3.082   0.307
 3078SOL    HW210134   2.139   2.990   0.202
 3079SOL     OW10135   5.860   2.740   6.254
 3079SOL    HW110136   5.875   2.819   6.194
 3079SOL    HW210137   5.805   2.768   6.332
 3080SOL     OW10138   6.298   5.839   0.671
 3080SOL    HW110139   6.202   5.865   0.671
 3080SOL    HW210140   6.332   5.835   0.765
 3081SOL     OW10141   6.582   5.358   5.756
 3081SOL    HW110142   6.588   5.333   5.853
 3081SOL    HW210143   6.672   5.348   5.714
 3082SOL     OW10144   2.168   6.978   2.502
 3082SOL    HW110145   2.260   6.945   2.480
 3082SOL    HW210146   2.100   6.925   2.452
 3083SOL     OW10147   3.609   0.621   2.065
 3083SOL    HW110148   3.552   0.663   2.135
 3083SOL    HW210149   3.560   0.622   1.977
 3084SOL     OW10150   4.884   6.605   4.868
 3084SOL    HW110151   4.876   6.513   4.907
 3084SOL    HW210152   4.796   6.651   4.874
 3085SOL     OW10153   0.624   5.819   1.490
 3085SOL    HW110154   0.658   5.910   1.512
 3085SOL    HW210155   0.589   5.775   1.573
 3086SOL     OW10156   5.956   1.321   4.384
 3086SOL    HW110157   5.998   1.320   4.474
 3086SOL    HW210158   5.981   1.406   4.337
 3087SOL     OW10159   5.559   3.144   2.876
 3087SOL    HW110160   5.644   3.197   2.869
 3087SOL    HW210161   5.519   3.132   2.785
 3088SOL     OW10162   2.958   4.190   5.968
 3088SOL    HW110163   3.037   4.202   5.908
 3088SOL    HW210164   2.979   4.120   6.036
 3089SOL     OW10165   1.867   2.377   0.609
 3089SOL    HW110166   1.800   2.361   0.681
 3089SOL    HW210167   1.829   2.440   0.541
 3090SOL     OW10168   0.823   1.341   1.332
 3090SOL    HW110169   0.889   1.403   1.291
 3090SOL    HW210170   0.848   1.325   1.428
 3091SOL     OW10171   2.499   0.324   0.625
 3091SOL    HW110172   2.536   0.236   0.596
 3091SOL    HW210173   2.574   0.385   0.651
 3092SOL     OW10174   4.397   6.191   1.064
 3092SOL    HW110175   4.315   6.167   1.115
 3092SOL    HW210176   4.453   6.110   1.051
 3093SOL     OW10177   5.207   6.050   3.843
 3093SOL    HW110178   5.189   6.062   3.745
 3093SOL    HW210179   5.215   5.953   3.864
 3094SOL     OW10180   3.149   5.156   5.478
 3094SOL    HW110181   3.211   5.215   5.427
 3094SOL    HW210182   3.135   5.071   5.428
 3095SOL     OW10183   2.961   4.868   4.344
 3095SOL    HW110184   3.047   4.909   4.373
 3095SOL    HW210185   2.940   4.896   4.251
 3096SOL     OW10186   0.334   0.785   5.207
 3096SOL    HW110187   0.418   0.818   5.250
 3096SOL    HW210188   0.345   0.690   5.178
 3097SOL     OW10189   1.545   2.790   0.208
 3097SOL    HW110190   1.618   2.781   0.276
 3097SOL    HW210191   1.479   2.716   0.221
 3098SOL     OW10192   3.898   2.152   0.312
 3098SOL    HW110193   3.887   2.229   0.250
 3098SOL    HW210194   3.909   2.068   0.259
 3099SOL     OW10195   1.316   6.135   5.012
 3099SOL    HW110196   1.371   6.063   5.053
 3099SOL    HW210197   1.220   6.122   5.037
 3100SOL     OW10198   6.482   6.473   0.188
 3100SOL    HW110199   6.516   6.558   0.147
 3100SOL    HW210200   6.406   6.494   0.250
 3101SOL     OW10201   4.445   6.902   0.979
 3101SOL    HW110202   4.473   6.994   0.954
 3101SOL    HW210203   4.350   6.904   1.012
 3102SOL     OW10204   1.222   5.411   0.779
 3102SOL    HW110205   1.312   5.370   0.767
 3102SOL    HW210206   1.218   5.498   0.730
 3103SOL     OW10207   4.133   3.669   2.070
 3103SOL    HW110208   4.209   3.717   2.026
 3103SOL    HW210209   4.104   3.592   2.012
 3104SOL     OW10210   6.820   5.179   3.817
 3104SOL    HW110211   6.863   5.176   3.907
 3104SOL    HW210212   6.721   5.165   3.826
 3105SOL     OW10213   6.717   6.375   3.917
 3105SOL    HW110214   6.638   6.414   3.964
 3105SOL    HW210215   6.687   6.323   3.838
 3106SOL     OW10216   6.748   2.660   4.651
 3106SOL    HW110217   6.707   2.579   4.694
 3106SOL    HW210218   6.751   2.648   4.552
 3107SOL     OW10219   3.095   0.005   4.007
 3107SOL    HW110220   3.148   0.064   4.068
 3107SOL    HW210221   3.052   6.956   4.061
 3108SOL     OW10222   3.342   0.250   3.337
 3108SOL    HW110223   3.357   0.176   3.271
 3108SOL    HW210224   3.246   0.277   3.335
 3109SOL     OW10225   4.661   5.777   3.284
 3109SOL    HW110226   4.609   5.747   3.205
 3109SOL    HW210227   4.617   5.857   3.325
 3110SOL     OW10228   0.967   3.060   2.201
 3110SOL    HW110229   1.027   3.122   2.252
 3110SOL    HW210230   0.973   2.968   2.240
 3111SOL     OW10231   6.402   4.917   3.893
 3111SOL    HW110232   6.458   4.953   3.967
 3111SOL    HW210233   6.454   4.848   3.842
 3112SOL     OW10234   3.132   3.685   6.568
 3112SOL    HW110235   3.148   3.740   6.485
 3112SOL    HW210236   3.218   3.642   6.596
 3113SOL     OW10237   3.866   0.343   3.661
 3113SOL    HW110238   3.808   0.401   3.604
 3113SOL    HW210239   3.946   0.394   3.691
 3114SOL     OW10240   5.592   5.338   0.971
 3114SOL    HW110241   5.562   5.282   1.048
 3114SOL    HW210242   5.664   5.289   0.921
 3115SOL     OW10243   2.724   3.246   1.789
 3115SOL    HW110244   2.808   3.286   1.753
 3115SOL    HW210245   2.740   3.208   1.880
 3116SOL     OW10246   6.776   1.811   7.019
 3116SOL    HW110247   6.807   1.884   0.055
 3116SOL    HW210248   6.677   1.799   0.004
 3117SOL     OW10249   4.079   3.818   5.130
 3117SOL    HW110250   4.124   3.763   5.059
 3117SOL    HW210251   4.148   3.855   5.193
 3118SOL     OW10252   6.085   4.976   0.261
 3118SOL    HW110253   6.139   4.937   0.187
 3118SOL    HW210254   6.115   5.070   0.278
 3119SOL     OW10255   2.078   4.687   5.926
 3119SOL    HW110256   2.027   4.648   5.849
 3119SOL    HW210257   2.014   4.711   5.999
 3120SOL     OW10258   2.766   5.701   5.458
 3120SOL    HW110259   2.762   5.699   5.358
 3120SOL    HW210260   2.679   5.670   5.495
 3121SOL     OW10261   0.596   6.205   2.911
 3121SOL    HW110262   0.656   6.271   2.866
 3121SOL    HW210263   0.509   6.201   2.861
 3122SOL     OW10264   2.832   5.225   0.984
 3122SOL    HW110265   2.772   5.303   1.003
 3122SOL    HW210266   2.895   5.213   1.061
 3123SOL     OW10267   4.041   6.799   4.745
 3123SOL    HW110268   4.097   6.854   4.684
 3123SOL    HW210269   4.091   6.784   4.831
 3124SOL     OW10270   3.452   6.962   6.089
 3124SOL    HW110271   3.408   7.007   6.167
 3124SOL    HW210272   3.507   0.005   6.039
 3125SOL     OW10273   6.610   1.973   5.809
 3125SOL    HW110274   6.690   2.015   5.852
 3125SOL    HW210275   6.566   1.911   5.874
 3126SOL     OW10276   3.864   6.646   0.424
 3126SOL    HW110277   3.809   6.712   0.475
 3126SOL    HW210278   3.804   6.580   0.380
 3127SOL     OW10279   1.130   1.498   3.556
 3127SOL    HW110280   1.041   1.475   3.597
 3127SOL    HW210281   1.178   1.561   3.617
 3128SOL     OW10282   1.411   1.196   0.192
 3128SOL    HW110283   1.329   1.249   0.215
 3128SOL    HW210284   1.387   1.100   0.178
 3129SOL     OW10285   1.556   2.737   4.051
 3129SOL    HW110286   1.584   2.812   3.992
 3129SOL    HW210287   1.512   2.665   3.997
 3130SOL     OW10288   1.819   5.473   2.822
 3130SOL    HW110289   1.843   5.464   2.918
 3130SOL    HW210290   1.899   5.456   2.765
 3131SOL     OW10291   0.109   3.253   3.549
 3131SOL    HW110292   0.049   3.250   3.629
 3131SOL    HW210293   0.157   3.165   3.540
 3132SOL     OW10294   4.657   6.275   5.056
 3132SOL    HW110295   4.743   6.288   5.007
 3132SOL    HW210296   4.674   6.221   5.139
 3133SOL     OW10297   2.436   1.615   3.077
 3133SOL    HW110298   2.506   1.636   3.145
 3133SOL    HW210299   2.478   1.571   2.998
 3134SOL     OW10300   5.123   3.210   2.331
 3134SOL    HW110301   5.099   3.118   2.361
 3134SOL    HW210302   5.043   3.269   2.335
 3135SOL     OW10303   2.810   1.712   3.082
 3135SOL    HW110304   2.879   1.774   3.120
 3135SOL    HW210305   2.838   1.684   2.991
 3136SOL     OW10306   6.226   6.585   5.206
 3136SOL    HW110307   6.220   6.491   5.240
 3136SOL    HW210308   6.134   6.624   5.199
 3137SOL     OW10309   6.562   1.882   4.613
 3137SOL    HW110310   6.608   1.874   4.702
 3137SOL    HW210311   6.623   1.927   4.548
 3138SOL     OW10312   5.032   1.619   4.808
 3138SOL    HW110313   5.125   1.603   4.839
 3138SOL    HW210314   5.033   1.683   4.731
 3139SOL     OW10315   4.990   6.420   5.818
 3139SOL    HW110316   4.923   6.491   5.839
 3139SOL    HW210317   5.003   6.362   5.898
 3140SOL     OW10318   6.461   6.377   6.386
 3140SOL    HW110319   6.528   6.385   6.460
 3140SOL    HW210320   6.384   6.438   6.404
 3141SOL     OW10321   0.929   5.158   0.574
 3141SOL    HW110322   0.830   5.163   0.574
 3141SOL    HW210323   0.967   5.241   0.533
 3142SOL     OW10324   3.463   6.925   6.582
 3142SOL    HW110325   3.527   6.865   6.534
 3142SOL    HW210326   3.448   6.890   6.675
 3143SOL     OW10327   6.927   1.726   0.252
 3143SOL    HW110328   6.981   1.754   0.173
 3143SOL    HW210329   6.977   1.746   0.336
 3144SOL     OW10330   1.833   3.270   6.216
 3144SOL    HW110331   1.923   3.281   6.174
 3144SOL    HW210332   1.771   3.227   6.150
 3145SOL     OW10333   3.979   6.315   3.855
 3145SOL    HW110334   3.943   6.224   3.876
 3145SOL    HW210335   3.906   6.382   3.859
 3146SOL     OW10336   2.234   0.858   3.584
 3146SOL    HW110337   2.145   0.814   3.573
 3146SOL    HW210338   2.302   0.789   3.611
 3147SOL     OW10339   3.481   3.984   0.686
 3147SOL    HW110340   3.440   4.074   0.677
 3147SOL    HW210341   3.554   3.973   0.618
 3148SOL     OW10342   3.518   5.704   4.999
 3148SOL    HW110343   3.592   5.765   4.968
 3148SOL    HW210344   3.541   5.610   4.975
 3149SOL     OW10345   3.369   6.414   5.939
 3149SOL    HW110346   3.317   6.329   5.937
 3149SOL    HW210347   3.385   6.441   6.034
 3150SOL     OW10348   6.636   6.862   4.253
 3150SOL    HW110349   6.732   6.837   4.237
 3150SOL    HW210350   6.616   6.947   4.204
 3151SOL     OW10351   3.481   0.290   0.250
 3151SOL    HW110352   3.405   0.266   0.189
 3151SOL    HW210353   3.567   0.285   0.199
 3152SOL     OW10354   1.548   4.851   0.099
 3152SOL    HW110355   1.633   4.804   0.075
 3152SOL    HW210356   1.538   4.856   0.198
 3153SOL     OW10357   0.152   4.142   2.663
 3153SOL    HW110358   0.096   4.220   2.694
 3153SOL    HW210359   0.206   4.169   2.583
 3154SOL     OW10360   5.769   2.279   6.577
 3154SOL    HW110361   5.825   2.255   6.657
 3154SOL    HW210362   5.673   2.285   6.604
 3155SOL     OW10363   4.663   6.205   0.258
 3155SOL    HW110364   4.680   6.301   0.238
 3155SOL    HW210365   4.581   6.197   0.315
 3156SOL     OW10366   3.534   3.548   3.072
 3156SOL    HW110367   3.584   3.492   3.138
 3156SOL    HW210368   3.443   3.569   3.108
 3157SOL     OW10369   2.169   2.249   4.275
 3157SOL    HW110370   2.100   2.245   4.203
 3157SOL    HW210371   2.137   2.309   4.348
 3158SOL     OW10372   4.119   5.951   1.231
 3158SOL    HW110373   4.103   5.882   1.302
 3158SOL    HW210374   4.159   5.906   1.150
 3159SOL     OW10375   5.786   4.309   0.679
 3159SOL    HW110376   5.723   4.381   0.649
 3159SOL    HW210377   5.872   4.317   0.628
 3160SOL     OW10378   5.613   4.790   0.592
 3160SOL    HW110379   5.655   4.745   0.514
 3160SOL    HW210380   5.514   4.799   0.578
 3161SOL     OW10381   0.627   2.035   2.422
 3161SOL    HW110382   0.611   2.037   2.323
 3161SOL    HW210383   0.579   2.111   2.465
 3162SOL     OW10384   6.238   6.601   5.756
 3162SOL    HW110385   6.264   6.676   5.695
 3162SOL    HW210386   6.317   6.572   5.809
 3163SOL     OW10387   2.601   4.468   5.214
 3163SOL    HW110388   2.700   4.470   5.204
 3163SOL    HW210389   2.560   4.433   5.130
 3164SOL     OW10390   6.087   5.670   6.326
 3164SOL    HW110391   6.176   5.650   6.287
 3164SOL    HW210392   6.091   5.664   6.426
 3165SOL     OW10393   0.053   2.974   1.301
 3165SOL    HW110394   7.001   3.033   1.274
 3165SOL    HW210395   0.052   2.963   1.401
 3166SOL     OW10396   5.443   2.920   6.567
 3166SOL    HW110397   5.531   2.892   6.529
 3166SOL    HW210398   5.413   2.853   6.635
 3167SOL     OW10399   0.759   4.194   2.259
 3167SOL    HW110400   0.810   4.209   2.174
 3167SOL    HW210401   0.800   4.119   2.310
 3168SOL     OW10402   5.226   3.143   0.673
 3168SOL    HW110403   5.212   3.051   0.636
 3168SOL    HW210404   5.323   3.157   0.692
 3169SOL     OW10405   1.876   1.784   4.830
 3169SOL    HW110406   1.913   1.760   4.920
 3169SOL    HW210407   1.886   1.707   4.768
 3170SOL     OW10408   4.524   0.814   5.914
 3170SOL    HW110409   4.450   0.873   5.948
 3170SOL    HW210410   4.486   0.727   5.885
 3171SOL     OW10411   6.047   6.844   3.346
 3171SOL    HW110412   6.142   6.819   3.327
 3171SOL    HW210413   5.996   6.849   3.260
 3172SOL     OW10414   5.777   0.391   5.723
 3172SOL    HW110415   5.737   0.380   5.632
 3172SOL    HW210416   5.812   0.303   5.755
 3173SOL     OW10417   1.919   1.305   1.536
 3173SOL    HW110418   1.904   1.383   1.475
 3173SOL    HW210419   2.017   1.285   1.542
 3174SOL     OW10420   1.784   3.819   6.200
 3174SOL    HW110421   1.836   3.817   6.115
 3174SOL    HW210422   1.764   3.725   6.228
 3175SOL     OW10423   6.730   5.762   1.186
 3175SOL    HW110424   6.758   5.845   1.139
 3175SOL    HW210425   6.794   5.688   1.165
 3176SOL     OW10426   1.431   5.963   6.212
 3176SOL    HW110427   1.418   6.053   6.172
 3176SOL    HW210428   1.491   5.908   6.153
 3177SOL     OW10429   0.784   0.085   4.289
 3177SOL    HW110430   0.785   0.068   4.388
 3177SOL    HW210431   0.811   0.180   4.272
 3178SOL     OW10432   1.966   3.226   0.717
 3178SOL    HW110433   1.931   3.216   0.624
 3178SOL    HW210434   2.065   3.230   0.716
 3179SOL     OW10435   1.046   2.309   3.297
 3179SOL    HW110436   0.964   2.364   3.286
 3179SOL    HW210437   1.119   2.347   3.240
 3180SOL     OW10438   5.351   1.230   6.097
 3180SOL    HW110439   5.446   1.254   6.079
 3180SOL    HW210440   5.332   1.139   6.060
 3181SOL     OW10441   0.408   1.878   3.647
 3181SOL    HW110442   0.447   1.953   3.594
 3181SOL    HW210443   0.326   1.844   3.602
 3182SOL     OW10444   1.478   4.902   5.444
 3182SOL    HW110445   1.474   4.999   5.469
 3182SOL    HW210446   1.536   4.892   5.363
 3183SOL     OW10447   4.732   3.035   1.080
 3183SOL    HW110448   4.768   3.127   1.070
 3183SOL    HW210449   4.728   3.011   1.177
 3184SOL     OW10450   1.915   1.528   3.224
 3184SOL    HW110451   1.993   1.558   3.169
 3184SOL    HW210452   1.832   1.574   3.192
 3185SOL     OW10453   0.571   6.658   6.108
 3185SOL    HW110454   0.579   6.706   6.195
 3185SOL    HW210455   0.661   6.657   6.062
 3186SOL     OW10456   3.398   0.503   1.710
 3186SOL    HW110457   3.327   0.569   1.684
 3186SOL    HW210458   3.472   0.505   1.643
 3187SOL     OW10459   2.944   4.521   0.227
 3187SOL    HW110460   3.004   4.442   0.219
 3187SOL    HW210461   2.888   4.513   0.309
 3188SOL     OW10462   4.752   0.432   3.371
 3188SOL    HW110463   4.704   0.394   3.450
 3188SOL    HW210464   4.693   0.497   3.324
 3189SOL     OW10465   6.877   0.043   1.704
 3189SOL    HW110466   6.829   0.069   1.620
 3189SOL    HW210467   6.813   0.001   1.767
 3190SOL     OW10468   0.726   6.495   1.284
 3190SOL    HW110469   0.787   6.569   1.254
 3190SOL    HW210470   0.754   6.410   1.241
 3191SOL     OW10471   2.884   0.434   0.965
 3191SOL    HW110472   2.917   0.462   0.874
 3191SOL    HW210473   2.940   0.359   0.999
 3192SOL     OW10474   6.005   2.429   3.915
 3192SOL    HW110475   6.028   2.395   4.006
 3192SOL    HW210476   6.017   2.357   3.847
 3193SOL     OW10477   4.765   4.374   0.434
 3193SOL    HW110478   4.844   4.430   0.461
 3193SOL    HW210479   4.760   4.369   0.334
 3194SOL     OW10480   2.015   4.523   5.668
 3194SOL    HW110481   1.920   4.540   5.645
 3194SOL    HW210482   2.074   4.585   5.615
 3195SOL     OW10483   0.846   3.682   3.001
 3195SOL    HW110484   0.835   3.596   2.951
 3195SOL    HW210485   0.905   3.744   2.949
 3196SOL     OW10486   0.259   6.401   5.486
 3196SOL    HW110487   0.286   6.313   5.526
 3196SOL    HW210488   0.259   6.471   5.558
 3197SOL     OW10489   0.722   4.158   4.328
 3197SOL    HW110490   0.789   4.106   4.275
 3197SOL    HW210491   0.636   4.163   4.278
 3198SOL     OW10492   5.430   6.886   0.176
 3198SOL    HW110493   5.411   6.850   0.267
 3198SOL    HW210494   5.433   6.986   0.179
 3199SOL     OW10495   3.573   1.753   2.848
 3199SOL    HW110496   3.616   1.704   2.925
 3199SOL    HW210497   3.491   1.703   2.819
 3200SOL     OW10498   0.095   1.993   0.790
 3200SOL    HW110499   0.186   2.033   0.776
 3200SOL    HW210500   0.043   2.048   0.855
 3201SOL     OW10501   4.851   4.339   3.257
 3201SOL    HW110502   4.789   4.383   3.323
 3201SOL    HW210503   4.911   4.275   3.304
 3202SOL     OW10504   1.228   5.842   2.206
 3202SOL    HW110505   1.281   5.808   2.284
 3202SOL    HW210506   1.139   5.874   2.237
 3203SOL     OW10507   4.982   0.336   1.014
 3203SOL    HW110508   4.945   0.377   0.931
 3203SOL    HW210509   5.071   0.378   1.035
 3204SOL     OW10510   6.406   6.326   1.546
 3204SOL    HW110511   6.414   6.425   1.549
 3204SOL    HW210512   6.314   6.298   1.572
 3205SOL     OW10513   1.346   4.072   3.314
 3205SOL    HW110514   1.347   3.973   3.299
 3205SOL    HW210515   1.425   4.098   3.369
 3206SOL     OW10516   1.498   6.362   0.094
 3206SOL    HW110517   1.521   6.371   0.191
 3206SOL    HW210518   1.565   6.303   0.049
 3207SOL     OW10519   0.967   1.393   2.767
 3207SOL    HW110520   0.904   1.317   2.781
 3207SOL    HW210521   0.942   1.443   2.684
 3208SOL     OW10522   6.075   0.583   4.632
 3208SOL    HW110523   6.135   0.506   4.609
 3208SOL    HW210524   5.994   0.549   4.680
 3209SOL     OW10525   2.362   0.166   2.810
 3209SOL    HW110526   2.331   0.256   2.840
 3209SOL    HW210527   2.284   0.103   2.810
 3210SOL     OW10528   0.586   4.833   2.219
 3210SOL    HW110529   0.651   4.873   2.154
 3210SOL    HW210530   0.602   4.734   2.226
 3211SOL     OW10531   1.048   3.876   2.661
 3211SOL    HW110532   1.147   3.875   2.673
 3211SOL    HW210533   1.026   3.885   2.564
 3212SOL     OW10534   4.835   3.154   5.188
 3212SOL    HW110535   4.923   3.199   5.173
 3212SOL    HW210536   4.768   3.221   5.219
 3213SOL     OW10537   4.797   0.134   1.475
 3213SOL    HW110538   4.732   0.098   1.407
 3213SOL    HW210539   4.851   0.059   1.512
 3214SOL     OW10540   4.094   4.283   6.454
 3214SOL    HW110541   3.998   4.291   6.426
 3214SOL    HW210542   4.132   4.198   6.419
 3215SOL     OW10543   6.085   1.159   6.929
 3215SOL    HW110544   6.100   1.060   6.935
 3215SOL    HW210545   5.987   1.178   6.934
 3216SOL     OW10546   6.493   6.598   5.192
 3216SOL    HW110547   6.512   6.512   5.144
 3216SOL    HW210548   6.395   6.619   5.184
 3217SOL     OW10549   6.625   3.852   0.621
 3217SOL    HW110550   6.652   3.757   0.604
 3217SOL    HW210551   6.624   3.870   0.719
 3218SOL     OW10552   3.446   0.805   2.239
 3218SOL    HW110553   3.458   0.784   2.336
 3218SOL    HW210554   3.500   0.886   2.216
 3219SOL     OW10555   0.070   6.876   4.182
 3219SOL    HW110556   0.092   6.911   4.273
 3219SOL    HW210557   0.152   6.872   4.126
 3220SOL     OW10558   5.686   2.910   6.789
 3220SOL    HW110559   5.633   2.953   6.716
 3220SOL    HW210560   5.782   2.904   6.762
 3221SOL     OW10561   3.539   6.959   2.241
 3221SOL    HW110562   3.561   0.000   2.314
 3221SOL    HW210563   3.540   7.007   2.153
 3222SOL     OW10564   6.513   3.747   2.373
 3222SOL    HW110565   6.575   3.809   2.324
 3222SOL    HW210566   6.565   3.673   2.415
 3223SOL     OW10567   2.597   4.608   3.887
 3223SOL    HW110568   2.598   4.577   3.982
 3223SOL    HW210569   2.683   4.656   3.867
 3224SOL     OW10570   3.520   5.819   1.608
 3224SOL    HW110571   3.499   5.902   1.659
 3224SOL    HW210572   3.541   5.745   1.673
 3225SOL     OW10573   1.753   3.039   1.157
 3225SOL    HW110574   1.720   2.945   1.166
 3225SOL    HW210575   1.676   3.102   1.165
 3226SOL     OW10576   0.426   0.762   3.881
 3226SOL    HW110577   0.517   0.798   3.862
 3226SOL    HW210578   0.427   0.713   3.968
 3227SOL     OW10579   1.836   1.468   5.208
 3227SOL    HW110580   1.909   1.441   5.145
 3227SOL    HW210581   1.749   1.430   5.177
 3228SOL     OW10582   4.903   3.251   4.597
 3228SOL    HW110583   4.983   3.199   4.628
 3228SOL    HW210584   4.882   3.323   4.663
 3229SOL     OW10585   4.286   1.629   5.085
 3229SOL    HW110586   4.216   1.578   5.035
 3229SOL    HW210587   4.337   1.685   5.020
 3230SOL     OW10588   1.643   0.684   4.284
 3230SOL    HW110589   1.563   0.638   4.245
 3230SOL    HW210590   1.616   0.735   4.366
 3231SOL     OW10591   4.875   5.037   0.061
 3231SOL    HW110592   4.937   5.111   0.034
 3231SOL    HW210593   4.881   5.023   0.160
 3232SOL     OW10594   2.250   4.298   3.461
 3232SOL    HW110595   2.222   4.240   3.538
 3232SOL    HW210596   2.202   4.385   3.465
 3233SOL     OW10597   1.568   3.626   0.342
 3233SOL    HW110598   1.594   3.531   0.326
 3233SOL    HW210599   1.626   3.665   0.413
 3234SOL     OW10600   6.620   2.385   5.208
 3234SOL    HW110601   6.612   2.442   5.289
 3234SOL    HW210602   6.661   2.297   5.232
 3235SOL     OW10603   5.525   0.845   2.531
 3235SOL    HW110604   5.499   0.879   2.440
 3235SOL    HW210605   5.468   0.890   2.600
 3236SOL     OW10606   0.361   3.201   1.352
 3236SOL    HW110607   0.397   3.226   1.442
 3236SOL    HW210608   0.362   3.101   1.343
 3237SOL     OW10609   3.016   6.565   4.394
 3237SOL    HW110610   2.961   6.521   4.465
 3237SOL    HW210611   3.027   6.503   4.317
 3238SOL     OW10612   6.352   6.143   6.235
 3238SOL    HW110613   6.378   6.062   6.287
 3238SOL    HW210614   6.399   6.223   6.273
 3239SOL     OW10615   0.800   5.916   5.485
 3239SOL    HW110616   0.838   5.949   5.398
 3239SOL    HW210617   0.823   5.820   5.497
 3240SOL     OW10618   6.979   2.067   4.948
 3240SOL    HW110619   6.884   2.046   4.926
 3240SOL    HW210620   6.994   2.166   4.936
 3241SOL     OW10621   4.842   7.012   5.172
 3241SOL    HW110622   4.899   7.009   5.090
 3241SOL    HW210623   4.812   0.082   5.189
 3242SOL     OW10624   3.261   6.684   0.784
 3242SOL    HW110625   3.358   6.707   0.792
 3242SOL    HW210626   3.238   6.610   0.846
 3243SOL     OW10627   3.319   5.361   1.303
 3243SOL    HW110628   3.298   5.446   1.350
 3243SOL    HW210629   3.335   5.379   1.206
 3244SOL     OW10630   1.252   6.298   5.647
 3244SOL    HW110631   1.159   6.285   5.681
 3244SOL    HW210632   1.252   6.294   5.547
 3245SOL     OW10633   3.154   2.017   5.635
 3245SOL    HW110634   3.185   1.932   5.592
 3245SOL    HW210635   3.212   2.037   5.714
 3246SOL     OW10636   5.738   6.414   3.496
 3246SOL    HW110637   5.677   6.411   3.417
 3246SOL    HW210638   5.729   6.503   3.542
 3247SOL     OW10639   6.488   2.405   5.606
 3247SOL    HW110640   6.546   2.398   5.687
 3247SOL    HW210641   6.475   2.314   5.566
 3248SOL     OW10642   5.282   3.841   3.013
 3248SOL    HW110643   5.291   3.780   2.934
 3248SOL    HW210644   5.369   3.886   3.030
 3249SOL     OW10645   2.965   4.618   5.585
 3249SOL    HW110646   2.903   4.604   5.662
 3249SOL    HW210647   2.913   4.629   5.501
 3250SOL     OW10648   4.850   5.112   1.312
 3250SOL    HW110649   4.798   5.141   1.393
 3250SOL    HW210650   4.825   5.170   1.234
 3251SOL     OW10651   3.649   0.612   3.627
 3251SOL    HW110652   3.630   0.677   3.701
 3251SOL    HW210653   3.637   0.658   3.539
 3252SOL     OW10654   3.099   2.191   3.487
 3252SOL    HW110655   3.090   2.216   3.583
 3252SOL    HW210656   3.014   2.213   3.438
 3253SOL     OW10657   4.642   4.356   0.936
 3253SOL    HW110658   4.639   4.370   1.035
 3253SOL    HW210659   4.554   4.319   0.906
 3254SOL     OW10660   5.972   4.397   2.473
 3254SOL    HW110661   5.993   4.459   2.549
 3254SOL    HW210662   6.054   4.383   2.418
 3255SOL     OW10663   4.337   4.985   1.065
 3255SOL    HW110664   4.280   5.035   1.130
 3255SOL    HW210665   4.432   4.983   1.097
 3256SOL     OW10666   5.966   6.215   5.574
 3256SOL    HW110667   6.040   6.200   5.509
 3256SOL    HW210668   5.994   6.282   5.643
 3257SOL     OW10669   2.291   1.829   1.067
 3257SOL    HW110670   2.287   1.919   1.023
 3257SOL    HW210671   2.249   1.834   1.157
 3258SOL     OW10672   5.069   6.632   1.420
 3258SOL    HW110673   4.977   6.668   1.405
 3258SOL    HW210674   5.070   6.574   1.501
 3259SOL     OW10675   5.998   6.332   2.903
 3259SOL    HW110676   6.013   6.331   2.804
 3259SOL    HW210677   6.011   6.240   2.940
 3260SOL     OW10678   1.431   1.747   0.992
 3260SOL    HW110679   1.501   1.804   1.037
 3260SOL    HW210680   1.429   1.768   0.895
 3261SOL     OW10681   4.342   6.869   3.632
 3261SOL    HW110682   4.330   6.967   3.650
 3261SOL    HW210683   4.428   6.839   3.672
 3262SOL     OW10684   3.961   1.288   3.972
 3262SOL    HW110685   4.043   1.345   3.961
 3262SOL    HW210686   3.907   1.292   3.889
 3263SOL     OW10687   3.962   4.847   2.805
 3263SOL    HW110688   3.963   4.900   2.720
 3263SOL    HW210689   4.037   4.780   2.803
 3264SOL     OW10690   4.600   4.594   6.314
 3264SOL    HW110691   4.610   4.691   6.336
 3264SOL    HW210692   4.632   4.578   6.220
 3265SOL     OW10693   5.297   0.080   6.421
 3265SOL    HW110694   5.388   0.043   6.444
 3265SOL    HW210695   5.288   0.088   6.322
 3266SOL     OW10696   1.042   3.012   6.643
 3266SOL    HW110697   0.974   2.941   6.624
 3266SOL    HW210698   0.995   3.098   6.665
 3267SOL     OW10699   5.151   3.043   2.070
 3267SOL    HW110700   5.211   3.031   1.991
 3267SOL    HW210701   5.199   3.014   2.153
 3268SOL     OW10702   1.719   4.622   6.981
 3268SOL    HW110703   1.766   4.544   6.939
 3268SOL    HW210704   1.651   4.589   0.022
 3269SOL     OW10705   4.731   3.604   0.687
 3269SOL    HW110706   4.813   3.574   0.638
 3269SOL    HW210707   4.698   3.528   0.744
 3270SOL     OW10708   0.511   5.284   4.474
 3270SOL    HW110709   0.553   5.341   4.403
 3270SOL    HW210710   0.482   5.197   4.434
 3271SOL     OW10711   5.002   0.429   2.085
 3271SOL    HW110712   4.980   0.332   2.095
 3271SOL    HW210713   5.100   0.443   2.101
 3272SOL     OW10714   5.074   6.815   0.090
 3272SOL    HW110715   5.164   6.784   0.060
 3272SOL    HW210716   5.071   6.915   0.087
 3273SOL     OW10717   1.369   1.103   3.185
 3273SOL    HW110718   1.323   1.190   3.201
 3273SOL    HW210719   1.453   1.100   3.239
 3274SOL     OW10720   2.879   1.582   6.883
 3274SOL    HW110721   2.781   1.561   6.888
 3274SOL    HW210722   2.894   1.657   6.818
 3275SOL     OW10723   4.071   0.812   6.892
 3275SOL    HW110724   4.012   0.883   6.930
 3275SOL    HW210725   4.117   0.764   6.966
 3276SOL     OW10726   2.219   6.361   0.485
 3276SOL    HW110727   2.156   6.363   0.407
 3276SOL    HW210728   2.263   6.450   0.495
 3277SOL     OW10729   0.034   6.358   6.010
 3277SOL    HW110730   0.065   6.319   5.924
 3277SOL    HW210731   0.104   6.343   6.081
 3278SOL     OW10732   1.151   1.305   0.188
 3278SOL    HW110733   1.116   1.237   0.252
 3278SOL    HW210734   1.084   1.320   0.116
 3279SOL     OW10735   1.881   6.178   0.956
 3279SOL    HW110736   1.906   6.154   1.050
 3279SOL    HW210737   1.794   6.227   0.957
 3280SOL     OW10738   2.785   6.437   4.526
 3280SOL    HW110739   2.694   6.471   4.504
 3280SOL    HW210740   2.828   6.399   4.444
 3281SOL     OW10741   2.530   6.358   0.559
 3281SOL    HW110742   2.454   6.294   0.573
 3281SOL    HW210743   2.546   6.370   0.461
 3282SOL     OW10744   1.914   5.750   2.405
 3282SOL    HW110745   1.857   5.729   2.484
 3282SOL    HW210746   1.883   5.835   2.363
 3283SOL     OW10747   2.013   6.923   4.093
 3283SOL    HW110748   1.986   6.891   4.002
 3283SOL    HW210749   2.055   7.013   4.085
 3284SOL     OW10750   1.390   5.101   6.003
 3284SOL    HW110751   1.433   5.022   5.958
 3284SOL    HW210752   1.458   5.174   6.013
 3285SOL     OW10753   0.177   2.594   4.477
 3285SOL    HW110754   0.127   2.609   4.392
 3285SOL    HW210755   0.157   2.667   4.542
 3286SOL     OW10756   4.288   4.896   6.574
 3286SOL    HW110757   4.219   4.850   6.518
 3286SOL    HW210758   4.318   4.835   6.647
 3287SOL     OW10759   0.603   3.777   1.552
 3287SOL    HW110760   0.519   3.774   1.497
 3287SOL    HW210761   0.637   3.684   1.565
 3288SOL     OW10762   1.102   6.892   6.222
 3288SOL    HW110763   1.046   6.973   6.232
 3288SOL    HW210764   1.079   6.845   6.136
 3289SOL     OW10765   1.232   5.860   4.126
 3289SOL    HW110766   1.307   5.799   4.100
 3289SOL    HW210767   1.152   5.805   4.150
 3290SOL     OW10768   0.305   4.967   3.360
 3290SOL    HW110769   0.246   5.011   3.293
 3290SOL    HW210770   0.401   4.985   3.338
 3291SOL     OW10771   1.694   0.431   2.031
 3291SOL    HW110772   1.695   0.335   2.059
 3291SOL    HW210773   1.739   0.487   2.101
 3292SOL     OW10774   0.647   5.748   4.944
 3292SOL    HW110775   0.568   5.688   4.958
 3292SOL    HW210776   0.728   5.694   4.923
 3293SOL     OW10777   6.004   1.004   3.091
 3293SOL    HW110778   6.023   0.932   3.024
 3293SOL    HW210779   6.087   1.022   3.145
 3294SOL     OW10780   0.446   6.310   0.929
 3294SOL    HW110781   0.518   6.320   0.860
 3294SOL    HW210782   0.389   6.230   0.906
 3295SOL     OW10783   2.038   2.019   5.973
 3295SOL    HW110784   2.052   2.117   5.966
 3295SOL    HW210785   1.943   1.997   5.949
 3296SOL     OW10786   0.514   6.555   2.140
 3296SOL    HW110787   0.577   6.583   2.213
 3296SOL    HW210788   0.537   6.604   2.056
 3297SOL     OW10789   2.933   1.406   5.762
 3297SOL    HW110790   2.923   1.309   5.736
 3297SOL    HW210791   2.990   1.413   5.844
 3298SOL     OW10792   6.932   4.299   2.723
 3298SOL    HW110793   6.885   4.225   2.674
 3298SOL    HW210794   6.891   4.387   2.698
 3299SOL     OW10795   0.703   1.814   4.606
 3299SOL    HW110796   0.629   1.845   4.665
 3299SOL    HW210797   0.751   1.893   4.569
 3300SOL     OW10798   6.712   6.881   5.365
 3300SOL    HW110799   6.774   6.826   5.421
 3300SOL    HW210800   6.690   6.832   5.280
 3301SOL     OW10801   6.924   4.063   2.346
 3301SOL    HW110802   6.934   3.992   2.415
 3301SOL    HW210803   7.013   4.083   2.305
 3302SOL     OW10804   1.032   6.110   5.382
 3302SOL    HW110805   1.060   6.035   5.442
 3302SOL    HW210806   1.110   6.168   5.362
 3303SOL     OW10807   2.998   3.379   3.835
 3303SOL    HW110808   2.969   3.330   3.917
 3303SOL    HW210809   3.058   3.320   3.781
 3304SOL     OW10810   1.264   0.566   3.309
 3304SOL    HW110811   1.172   0.554   3.272
 3304SOL    HW210812   1.294   0.660   3.296
 3305SOL     OW10813   0.412   2.766   0.313
 3305SOL    HW110814   0.410   2.728   0.406
 3305SOL    HW210815   0.352   2.712   0.254
 3306SOL     OW10816   1.362   3.078   2.362
 3306SOL    HW110817   1.268   3.048   2.347
 3306SOL    HW210818   1.366   3.178   2.359
 3307SOL     OW10819   0.802   6.946   0.554
 3307SOL    HW110820   0.823   6.850   0.540
 3307SOL    HW210821   0.790   6.965   0.651
 3308SOL     OW10822   4.842   6.350   0.838
 3308SOL    HW110823   4.836   6.373   0.741
 3308SOL    HW210824   4.757   6.308   0.868
 3309SOL     OW10825   1.900   5.339   2.525
 3309SOL    HW110826   1.973   5.328   2.458
 3309SOL    HW210827   1.915   5.277   2.602
 3310SOL     OW10828   1.565   6.747   2.265
 3310SOL    HW110829   1.653   6.769   2.222
 3310SOL    HW210830   1.521   6.673   2.214
 3311SOL     OW10831   3.851   5.832   0.848
 3311SOL    HW110832   3.778   5.867   0.906
 3311SOL    HW210833   3.816   5.814   0.756
 3312SOL     OW10834   2.139   2.802   6.539
 3312SOL    HW110835   2.223   2.795   6.593
 3312SOL    HW210836   2.127   2.719   6.484
 3313SOL     OW10837   6.489   6.189   4.809
 3313SOL    HW110838   6.481   6.261   4.740
 3313SOL    HW210839   6.406   6.186   4.865
 3314SOL     OW10840   1.045   4.533   6.730
 3314SOL    HW110841   1.039   4.610   6.793
 3314SOL    HW210842   0.986   4.549   6.651
 3315SOL     OW10843   6.772   3.048   3.728
 3315SOL    HW110844   6.797   2.983   3.657
 3315SOL    HW210845   6.687   3.094   3.705
 3316SOL     OW10846   3.831   1.510   0.147
 3316SOL    HW110847   3.876   1.439   0.093
 3316SOL    HW210848   3.892   1.540   0.220
 3317SOL     OW10849   4.290   2.662   1.721
 3317SOL    HW110850   4.367   2.630   1.667
 3317SOL    HW210851   4.290   2.762   1.724
 3318SOL     OW10852   2.738   5.403   5.652
 3318SOL    HW110853   2.808   5.376   5.586
 3318SOL    HW210854   2.656   5.348   5.638
 3319SOL     OW10855   6.805   6.704   6.823
 3319SOL    HW110856   6.747   6.623   6.812
 3319SOL    HW210857   6.747   6.785   6.824
 3320SOL     OW10858   0.485   6.948   0.412
 3320SOL    HW110859   0.398   6.962   0.365
 3320SOL    HW210860   0.537   6.876   0.366
 3321SOL     OW10861   4.119   3.372   4.058
 3321SOL    HW110862   4.060   3.306   4.013
 3321SOL    HW210863   4.178   3.416   3.990
 3322SOL     OW10864   4.262   1.618   2.012
 3322SOL    HW110865   4.168   1.595   1.987
 3322SOL    HW210866   4.325   1.579   1.945
 3323SOL     OW10867   2.129   4.522   0.219
 3323SOL    HW110868   2.195   4.472   0.163
 3323SOL    HW210869   2.036   4.498   0.190
 3324SOL     OW10870   6.346   3.320   1.645
 3324SOL    HW110871   6.254   3.353   1.665
 3324SOL    HW210872   6.413   3.385   1.680
 3325SOL     OW10873   1.259   4.783   6.297
 3325SOL    HW110874   1.241   4.871   6.252
 3325SOL    HW210875   1.289   4.717   6.229
 3326SOL     OW10876   5.758   0.862   2.054
 3326SOL    HW110877   5.754   0.833   1.958
 3326SOL    HW210878   5.720   0.791   2.112
 3327SOL     OW10879   4.705   5.801   1.912
 3327SOL    HW110880   4.804   5.806   1.901
 3327SOL    HW210881   4.683   5.755   1.998
 3328SOL     OW10882   6.385   6.710   4.177
 3328SOL    HW110883   6.351   6.657   4.255
 3328SOL    HW210884   6.474   6.750   4.200
 3329SOL     OW10885   5.160   0.728   5.871
 3329SOL    HW110886   5.204   0.710   5.783
 3329SOL    HW210887   5.184   0.656   5.936
 3330SOL     OW10888   6.734   6.674   2.848
 3330SOL    HW110889   6.718   6.772   2.845
 3330SOL    HW210890   6.649   6.626   2.825
 3331SOL     OW10891   1.527   4.054   2.901
 3331SOL    HW110892   1.438   4.019   2.929
 3331SOL    HW210893   1.580   4.081   2.982
 3332SOL     OW10894   3.232   5.272   0.422
 3332SOL    HW110895   3.142   5.229   0.411
 3332SOL    HW210896   3.287   5.215   0.483
 3333SOL     OW10897   2.012   3.115   1.213
 3333SOL    HW110898   1.921   3.098   1.175
 3333SOL    HW210899   2.081   3.105   1.141
 3334SOL     OW10900   1.292   2.530   2.184
 3334SOL    HW110901   1.376   2.584   2.186
 3334SOL    HW210902   1.304   2.450   2.126
 3335SOL     OW10903   3.474   4.191   5.455
 3335SOL    HW110904   3.521   4.266   5.502
 3335SOL    HW210905   3.404   4.153   5.515
 3336SOL     OW10906   3.963   5.806   5.822
 3336SOL    HW110907   3.992   5.787   5.916
 3336SOL    HW210908   3.973   5.903   5.803
 3337SOL     OW10909   3.595   2.901   3.819
 3337SOL    HW110910   3.613   2.901   3.721
 3337SOL    HW210911   3.497   2.910   3.835
 3338SOL     OW10912   2.847   2.762   1.494
 3338SOL    HW110913   2.862   2.710   1.578
 3338SOL    HW210914   2.780   2.716   1.437
 3339SOL     OW10915   1.002   0.094   6.878
 3339SOL    HW110916   1.028   0.078   6.973
 3339SOL    HW210917   0.982   0.007   6.834
 3340SOL     OW10918   4.055   1.633   6.045
 3340SOL    HW110919   3.988   1.666   6.112
 3340SOL    HW210920   4.040   1.679   5.957
 3341SOL     OW10921   1.252   4.213   1.251
 3341SOL    HW110922   1.201   4.293   1.283
 3341SOL    HW210923   1.253   4.144   1.323
 3342SOL     OW10924   6.312   0.607   2.083
 3342SOL    HW110925   6.294   0.627   1.987
 3342SOL    HW210926   6.346   0.513   2.092
 3343SOL     OW10927   3.715   5.526   0.935
 3343SOL    HW110928   3.710   5.622   0.908
 3343SOL    HW210929   3.736   5.470   0.856
 3344SOL     OW10930   1.543   3.390   2.007
 3344SOL    HW110931   1.447   3.397   1.979
 3344SOL    HW210932   1.597   3.357   1.929
 3345SOL     OW10933   5.735   5.566   1.064
 3345SOL    HW110934   5.669   5.604   1.129
 3345SOL    HW210935   5.689   5.500   1.004
 3346SOL     OW10936   1.394   0.845   0.477
 3346SOL    HW110937   1.307   0.801   0.455
 3346SOL    HW210938   1.459   0.830   0.403
 3347SOL     OW10939   0.879   3.979   5.726
 3347SOL    HW110940   0.927   4.066   5.737
 3347SOL    HW210941   0.927   3.908   5.778
 3348SOL     OW10942   3.525   4.210   6.225
 3348SOL    HW110943   3.618   4.174   6.218
 3348SOL    HW210944   3.520   4.275   6.300
 3349SOL     OW10945   1.738   5.396   1.920
 3349SOL    HW110946   1.817   5.410   1.860
 3349SOL    HW210947   1.768   5.396   2.015
 3350SOL     OW10948   2.050   5.106   4.853
 3350SOL    HW110949   2.109   5.173   4.898
 3350SOL    HW210950   2.049   5.021   4.907
 3351SOL     OW10951   5.576   0.275   1.960
 3351SOL    HW110952   5.593   0.199   1.897
 3351SOL    HW210953   5.529   0.241   2.041
 3352SOL     OW10954   5.225   1.273   6.895
 3352SOL    HW110955   5.141   1.220   6.884
 3352SOL    HW210956   5.304   1.212   6.893
 3353SOL     OW10957   3.946   1.165   6.514
 3353SOL    HW110958   3.965   1.166   6.416
 3353SOL    HW210959   3.857   1.125   6.531
 3354SOL     OW10960   2.260   3.359   0.403
 3354SOL    HW110961   2.305   3.287   0.352
 3354SOL    HW210962   2.187   3.399   0.347
 3355SOL     OW10963   0.964   0.781   4.397
 3355SOL    HW110964   0.972   0.872   4.438
 3355SOL    HW210965   0.893   0.730   4.445
 3356SOL     OW10966   2.781   0.693   6.200
 3356SOL    HW110967   2.819   0.740   6.280
 3356SOL    HW210968   2.845   0.622   6.171
 3357SOL     OW10969   2.975   3.331   3.007
 3357SOL    HW110970   3.000   3.271   3.083
 3357SOL    HW210971   2.971   3.278   2.923
 3358SOL     OW10972   0.300   1.904   1.104
 3358SOL    HW110973   0.359   1.840   1.153
 3358SOL    HW210974   0.322   1.997   1.132
 3359SOL     OW10975   1.006   0.092   4.066
 3359SOL    HW110976   0.941   0.111   4.139
 3359SOL    HW210977   1.038   7.021   4.073
 3360SOL     OW10978   2.191   5.290   4.272
 3360SOL    HW110979   2.194   5.330   4.181
 3360SOL    HW210980   2.128   5.343   4.329
 3361SOL     OW10981   6.841   6.545   4.953
 3361SOL    HW110982   6.896   6.463   4.938
 3361SOL    HW210983   6.874   6.618   4.894
 3362SOL     OW10984   3.865   0.401   4.457
 3362SOL    HW110985   3.917   0.476   4.498
 3362SOL    HW210986   3.771   0.403   4.489
 3363SOL     OW10987   5.386   3.901   0.295
 3363SOL    HW110988   5.466   3.897   0.355
 3363SOL    HW210989   5.310   3.852   0.339
 3364SOL     OW10990   1.686   3.629   1.715
 3364SOL    HW110991   1.780   3.603   1.693
 3364SOL    HW210992   1.686   3.721   1.755
 3365SOL     OW10993   1.117   2.734   2.695
 3365SOL    HW110994   1.166   2.821   2.705
 3365SOL    HW210995   1.183   2.659   2.700
 3366SOL     OW10996   6.436   2.699   4.372
 3366SOL    HW110997   6.502   2.623   4.371
 3366SOL    HW210998   6.476   2.778   4.417
 3367SOL     OW10999   3.321   2.919   3.855
 3367SOL    HW111000   3.239   2.867   3.879
 3367SOL    HW211001   3.296   3.016   3.843
 3368SOL     OW11002   2.351   0.953   3.368
 3368SOL    HW111003   2.445   0.983   3.381
 3368SOL    HW211004   2.304   0.952   3.456
 3369SOL     OW11005   5.295   2.903   1.209
 3369SOL    HW111006   5.241   2.884   1.291
 3369SOL    HW211007   5.249   2.971   1.153
 3370SOL     OW11008   0.926   5.698   3.138
 3370SOL    HW111009   0.958   5.781   3.183
 3370SOL    HW211010   0.840   5.717   3.091
 3371SOL     OW11011   2.452   2.960   1.222
 3371SOL    HW111012   2.416   3.014   1.298
 3371SOL    HW211013   2.382   2.950   1.152
 3372SOL     OW11014   5.819   3.021   3.807
 3372SOL    HW111015   5.809   2.991   3.902
 3372SOL    HW211016   5.831   3.120   3.805
 3373SOL     OW11017   0.083   4.464   0.707
 3373SOL    HW111018   0.079   4.482   0.609
 3373SOL    HW211019   0.019   4.391   0.730
 3374SOL     OW11020   0.786   5.882   4.150
 3374SOL    HW111021   0.794   5.968   4.098
 3374SOL    HW211022   0.706   5.887   4.210
 3375SOL     OW11023   0.599   6.263   5.852
 3375SOL    HW111024   0.590   6.257   5.752
 3375SOL    HW211025   0.531   6.327   5.887
 3376SOL     OW11026   3.076   3.061   5.062
 3376SOL    HW111027   2.994   3.011   5.089
 3376SOL    HW211028   3.123   3.011   4.989
 3377SOL     OW11029   6.540   5.267   4.409
 3377SOL    HW111030   6.613   5.317   4.362
 3377SOL    HW211031   6.580   5.191   4.461
 3378SOL     OW11032   1.063   5.831   0.545
 3378SOL    HW111033   1.010   5.795   0.469
 3378SOL    HW211034   1.046   5.929   0.556
 3379SOL     OW11035   5.884   4.133   4.059
 3379SOL    HW111036   5.947   4.199   4.101
 3379SOL    HW211037   5.906   4.041   4.090
 3380SOL     OW11038   2.205   5.559   1.447
 3380SOL    HW111039   2.124   5.509   1.479
 3380SOL    HW211040   2.285   5.526   1.496
 3381SOL     OW11041   3.025   3.779   6.068
 3381SOL    HW111042   3.074   3.772   5.981
 3381SOL    HW211043   3.045   3.699   6.124
 3382SOL     OW11044   6.932   3.918   6.927
 3382SOL    HW111045   6.978   3.878   7.006
 3382SOL    HW211046   6.847   3.869   6.910
 3383SOL     OW11047   3.393   5.455   0.821
 3383SOL    HW111048   3.450   5.536   0.809
 3383SOL    HW211049   3.449   5.373   0.814
 3384SOL     OW11050   2.857   2.883   6.444
 3384SOL    HW111051   2.946   2.874   6.397
 3384SOL    HW211052   2.857   2.825   6.525
 3385SOL     OW11053   6.137   2.529   4.611
 3385SOL    HW111054   6.055   2.585   4.611
 3385SOL    HW211055   6.154   2.494   4.703
 3386SOL     OW11056   0.642   6.354   4.706
 3386SOL    HW111057   0.728   6.361   4.756
 3386SOL    HW211058   0.654   6.296   4.625
 3387SOL     OW11059   6.175   0.677   2.725
 3387SOL    HW111060   6.250   0.612   2.738
 3387SOL    HW211061   6.134   0.662   2.635
 3388SOL     OW11062   0.204   3.660   0.692
 3388SOL    HW111063   0.252   3.732   0.743
 3388SOL    HW211064   0.194   3.579   0.750
 3389SOL     OW11065   6.499   5.410   6.500
 3389SOL    HW111066   6.457   5.320   6.509
 3389SOL    HW211067   6.535   5.421   6.407
 3390SOL     OW11068   3.020   4.910   0.121
 3390SOL    HW111069   2.981   4.943   0.207
 3390SOL    HW211070   3.103   4.859   0.140
 3391SOL     OW11071   4.849   3.901   5.251
 3391SOL    HW111072   4.852   3.939   5.343
 3391SOL    HW211073   4.774   3.943   5.200
 3392SOL     OW11074   5.218   6.555   5.845
 3392SOL    HW111075   5.300   6.498   5.847
 3392SOL    HW211076   5.137   6.497   5.836
 3393SOL     OW11077   3.634   6.406   0.364
 3393SOL    HW111078   3.628   6.383   0.267
 3393SOL    HW211079   3.575   6.484   0.384
 3394SOL     OW11080   3.236   5.142   1.100
 3394SOL    HW111081   3.244   5.197   1.184
 3394SOL    HW211082   3.161   5.077   1.110
 3395SOL     OW11083   2.033   6.607   2.860
 3395SOL    HW111084   2.038   6.706   2.849
 3395SOL    HW211085   2.058   6.582   2.953
 3396SOL     OW11086   5.140   0.452   4.474
 3396SOL    HW111087   5.055   0.459   4.527
 3396SOL    HW211088   5.165   0.356   4.464
 3397SOL     OW11089   2.309   6.214   0.832
 3397SOL    HW111090   2.381   6.193   0.898
 3397SOL    HW211091   2.319   6.156   0.752
 3398SOL     OW11092   6.610   1.170   6.759
 3398SOL    HW111093   6.552   1.204   6.685
 3398SOL    HW211094   6.702   1.210   6.751
 3399SOL     OW11095   0.032   6.334   1.914
 3399SOL    HW111096   0.018   6.323   1.816
 3399SOL    HW211097   0.128   6.357   1.932
 3400SOL     OW11098   3.322   2.796   5.194
 3400SOL    HW111099   3.417   2.784   5.222
 3400SOL    HW211100   3.317   2.802   5.094
 3401SOL     OW11101   0.417   3.223   4.253
 3401SOL    HW111102   0.365   3.158   4.309
 3401SOL    HW211103   0.442   3.179   4.167
 3402SOL     OW11104   5.468   3.457   0.358
 3402SOL    HW111105   5.469   3.546   0.403
 3402SOL    HW211106   5.426   3.465   0.268
 3403SOL     OW11107   5.565   6.656   5.181
 3403SOL    HW111108   5.600   6.569   5.144
 3403SOL    HW211109   5.482   6.682   5.132
 3404SOL     OW11110   5.262   5.045   3.451
 3404SOL    HW111111   5.349   5.002   3.475
 3404SOL    HW211112   5.216   4.990   3.380
 3405SOL     OW11113   4.174   6.088   0.811
 3405SOL    HW111114   4.230   6.164   0.778
 3405SOL    HW211115   4.079   6.118   0.820
 3406SOL     OW11116   3.563   5.146   1.134
 3406SOL    HW111117   3.632   5.141   1.206
 3406SOL    HW211118   3.513   5.232   1.141
 3407SOL     OW11119   1.506   2.884   0.560
 3407SOL    HW111120   1.602   2.900   0.582
 3407SOL    HW211121   1.489   2.786   0.554
 3408SOL     OW11122   4.232   6.626   4.273
 3408SOL    HW111123   4.155   6.564   4.253
 3408SOL    HW211124   4.314   6.572   4.292
 3409SOL     OW11125   4.296   1.666   0.027
 3409SOL    HW111126   4.298   1.613   0.112
 3409SOL    HW211127   4.259   1.610   6.977
 3410SOL     OW11128   6.825   0.709   2.726
 3410SOL    HW111129   6.908   0.749   2.688
 3410SOL    HW211130   6.775   0.660   2.655
 3411SOL     OW11131   5.792   3.150   5.652
 3411SOL    HW111132   5.890   3.165   5.661
 3411SOL    HW211133   5.775   3.086   5.577
 3412SOL     OW11134   5.690   2.847   4.203
 3412SOL    HW111135   5.619   2.917   4.207
 3412SOL    HW211136   5.769   2.881   4.153
 3413SOL     OW11137   6.709   2.652   0.952
 3413SOL    HW111138   6.717   2.709   1.033
 3413SOL    HW211139   6.672   2.562   0.978
 3414SOL     OW11140   3.826   3.186   2.076
 3414SOL    HW111141   3.763   3.187   1.998
 3414SOL    HW211142   3.899   3.120   2.060
 3415SOL     OW11143   2.182   1.289   6.259
 3415SOL    HW111144   2.223   1.373   6.223
 3415SOL    HW211145   2.244   1.249   6.326
 3416SOL     OW11146   5.966   6.922   6.108
 3416SOL    HW111147   5.908   6.967   6.041
 3416SOL    HW211148   6.034   6.865   6.060
 3417SOL     OW11149   6.345   0.752   2.350
 3417SOL    HW111150   6.282   0.829   2.359
 3417SOL    HW211151   6.323   0.699   2.268
 3418SOL     OW11152   4.244   5.893   0.968
 3418SOL    HW111153   4.207   5.957   0.901
 3418SOL    HW211154   4.342   5.908   0.980
 3419SOL     OW11155   3.088   4.794   5.091
 3419SOL    HW111156   3.069   4.799   5.189
 3419SOL    HW211157   3.012   4.749   5.044
 3420SOL     OW11158   4.128   0.807   2.089
 3420SOL    HW111159   4.162   0.725   2.134
 3420SOL    HW211160   4.118   0.789   1.991
 3421SOL     OW11161   0.396   1.922   4.885
 3421SOL    HW111162   0.339   1.991   4.930
 3421SOL    HW211163   0.415   1.951   4.791
 3422SOL     OW11164   3.731   5.954   2.056
 3422SOL    HW111165   3.826   5.925   2.072
 3422SOL    HW211166   3.670   5.898   2.111
 3423SOL     OW11167   2.251   4.397   6.069
 3423SOL    HW111168   2.303   4.475   6.034
 3423SOL    HW211169   2.302   4.313   6.052
 3424SOL     OW11170   5.577   0.336   2.331
 3424SOL    HW111171   5.641   0.408   2.307
 3424SOL    HW211172   5.539   0.353   2.422
 3425SOL     OW11173   6.071   2.632   6.099
 3425SOL    HW111174   6.057   2.678   6.011
 3425SOL    HW211175   5.996   2.656   6.161
 3426SOL     OW11176   6.665   5.350   0.167
 3426SOL    HW111177   6.614   5.418   0.114
 3426SOL    HW211178   6.601   5.297   0.223
 3427SOL     OW11179   1.676   1.225   6.063
 3427SOL    HW111180   1.621   1.177   6.131
 3427SOL    HW211181   1.772   1.199   6.073
 3428SOL     OW11182   4.918   6.961   4.495
 3428SOL    HW111183   4.920   0.031   4.458
 3428SOL    HW211184   4.998   6.947   4.553
 3429SOL     OW11185   4.071   6.227   0.568
 3429SOL    HW111186   4.121   6.207   0.483
 3429SOL    HW211187   4.081   6.324   0.590
 3430SOL     OW11188   3.016   4.328   6.502
 3430SOL    HW111189   2.942   4.321   6.435
 3430SOL    HW211190   3.086   4.392   6.469
 3431SOL     OW11191   0.770   4.661   3.024
 3431SOL    HW111192   0.687   4.687   2.974
 3431SOL    HW211193   0.780   4.718   3.105
 3432SOL     OW11194   0.432   5.299   6.975
 3432SOL    HW111195   0.378   5.215   6.978
 3432SOL    HW211196   0.387   5.365   6.915
 3433SOL     OW11197   0.959   1.088   0.282
 3433SOL    HW111198   0.880   1.138   0.248
 3433SOL    HW211199   0.998   1.033   0.208
 3434SOL     OW11200   3.962   2.248   1.834
 3434SOL    HW111201   3.967   2.152   1.807
 3434SOL    HW211202   3.873   2.268   1.874
 3435SOL     OW11203   2.137   2.546   1.090
 3435SOL    HW111204   2.210   2.608   1.121
 3435SOL    HW211205   2.134   2.546   0.990
 3436SOL     OW11206   4.019   6.403   6.010
 3436SOL    HW111207   3.970   6.489   6.001
 3436SOL    HW211208   4.025   6.358   5.920
 3437SOL     OW11209   1.538   6.889   0.344
 3437SOL    HW111210   1.518   6.847   0.432
 3437SOL    HW211211   1.580   6.821   0.283
 3438SOL     OW11212   2.068   4.102   0.537
 3438SOL    HW111213   2.143   4.126   0.597
 3438SOL    HW211214   2.098   4.031   0.473
 3439SOL     OW11215   2.955   5.448   0.535
 3439SOL    HW111216   2.900   5.459   0.453
 3439SOL    HW211217   2.963   5.536   0.583
 3440SOL     OW11218   3.883   3.681   5.949
 3440SOL    HW111219   3.887   3.772   5.907
 3440SOL    HW211220   3.788   3.650   5.951
 3441SOL     OW11221   6.644   4.791   4.822
 3441SOL    HW111222   6.579   4.835   4.760
 3441SOL    HW211223   6.731   4.777   4.774
 3442SOL     OW11224   1.239   2.242   0.522
 3442SOL    HW111225   1.158   2.192   0.552
 3442SOL    HW211226   1.318   2.214   0.577
 3443SOL     OW11227   0.705   5.920   2.497
 3443SOL    HW111228   0.633   5.988   2.508
 3443SOL    HW211229   0.670   5.842   2.444
 3444SOL     OW11230   0.649   4.146   6.247
 3444SOL    HW111231   0.564   4.103   6.277
 3444SOL    HW211232   0.726   4.099   6.289
 3445SOL     OW11233   5.307   5.383   4.782
 3445SOL    HW111234   5.231   5.442   4.809
 3445SOL    HW211235   5.295   5.292   4.822
 3446SOL     OW11236   4.826   1.785   0.399
 3446SOL    HW111237   4.740   1.798   0.351
 3446SOL    HW211238   4.873   1.704   0.364
 3447SOL     OW11239   4.645   1.360   6.403
 3447SOL    HW111240   4.650   1.386   6.307
 3447SOL    HW211241   4.653   1.442   6.460
 3448SOL     OW11242   1.202   5.142   5.808
 3448SOL    HW111243   1.227   5.204   5.734
 3448SOL    HW211244   1.272   5.146   5.880
 3449SOL     OW11245   1.222   3.794   5.634
 3449SOL    HW111246   1.319   3.772   5.645
 3449SOL    HW211247   1.212   3.887   5.600
 3450SOL     OW11248   2.572   6.719   2.237
 3450SOL    HW111249   2.545   6.635   2.283
 3450SOL    HW211250   2.670   6.735   2.251
 3451SOL     OW11251   2.237   2.203   0.297
 3451SOL    HW111252   2.175   2.217   0.374
 3451SOL    HW211253   2.321   2.159   0.329
 3452SOL     OW11254   4.331   1.583   6.554
 3452SOL    HW111255   4.350   1.486   6.538
 3452SOL    HW211256   4.383   1.614   6.633
 3453SOL     OW11257   4.901   6.344   6.112
 3453SOL    HW111258   4.851   6.345   6.199
 3453SOL    HW211259   4.949   6.257   6.103
 3454SOL     OW11260   1.243   2.982   2.733
 3454SOL    HW111261   1.331   2.966   2.688
 3454SOL    HW211262   1.251   3.059   2.796
 3455SOL     OW11263   0.894   4.051   6.361
 3455SOL    HW111264   0.922   4.094   6.447
 3455SOL    HW211265   0.972   4.048   6.298
 3456SOL     OW11266   4.107   5.213   3.193
 3456SOL    HW111267   4.057   5.136   3.154
 3456SOL    HW211268   4.197   5.220   3.150
 3457SOL     OW11269   3.959   4.475   0.141
 3457SOL    HW111270   3.963   4.481   0.241
 3457SOL    HW211271   3.884   4.414   0.114
 3458SOL     OW11272   4.886   1.715   1.339
 3458SOL    HW111273   4.975   1.700   1.382
 3458SOL    HW211274   4.839   1.791   1.384
 3459SOL     OW11275   6.502   6.556   2.191
 3459SOL    HW111276   6.481   6.459   2.187
 3459SOL    HW211277   6.497   6.587   2.286
 3460SOL     OW11278   3.654   1.487   5.445
 3460SOL    HW111279   3.741   1.444   5.420
 3460SOL    HW211280   3.626   1.550   5.372
 3461SOL     OW11281   4.580   4.471   4.149
 3461SOL    HW111282   4.614   4.425   4.067
 3461SOL    HW211283   4.545   4.562   4.124
 3462SOL     OW11284   1.186   5.054   6.194
 3462SOL    HW111285   1.092   5.086   6.180
 3462SOL    HW211286   1.246   5.096   6.125
 3463SOL     OW11287   5.675   3.930   0.394
 3463SOL    HW111288   5.672   3.975   0.483
 3463SOL    HW211289   5.688   3.998   0.322
 3464SOL     OW11290   0.299   4.572   3.594
 3464SOL    HW111291   0.386   4.523   3.595
 3464SOL    HW211292   0.262   4.576   3.687
 3465SOL     OW11293   0.736   3.189   2.091
 3465SOL    HW111294   0.816   3.149   2.138
 3465SOL    HW211295   0.759   3.205   1.995
 3466SOL     OW11296   6.408   3.448   3.640
 3466SOL    HW111297   6.447   3.505   3.712
 3466SOL    HW211298   6.364   3.505   3.571
 3467SOL     OW11299   1.761   2.563   6.076
 3467SOL    HW111300   1.835   2.608   6.126
 3467SOL    HW211301   1.700   2.632   6.036
 3468SOL     OW11302   4.654   6.035   1.813
 3468SOL    HW111303   4.566   6.068   1.848
 3468SOL    HW211304   4.677   5.948   1.855
 3469SOL     OW11305   5.465   4.522   0.548
 3469SOL    HW111306   5.411   4.528   0.632
 3469SOL    HW211307   5.411   4.555   0.471
 3470SOL     OW11308   5.989   4.974   1.511
 3470SOL    HW111309   6.084   4.959   1.541
 3470SOL    HW211310   5.983   4.962   1.413
 3471SOL     OW11311   4.313   6.613   4.595
 3471SOL    HW111312   4.285   6.598   4.500
 3471SOL    HW211313   4.347   6.707   4.605
 3472SOL     OW11314   4.266   0.905   4.409
 3472SOL    HW111315   4.246   0.817   4.451
 3472SOL    HW211316   4.287   0.972   4.480
 3473SOL     OW11317   4.408   6.531   3.715
 3473SOL    HW111318   4.380   6.555   3.807
 3473SOL    HW211319   4.468   6.603   3.679
 3474SOL     OW11320   4.768   4.694   0.608
 3474SOL    HW111321   4.785   4.607   0.654
 3474SOL    HW211322   4.698   4.744   0.658
 3475SOL     OW11323   1.519   5.254   5.095
 3475SOL    HW111324   1.488   5.349   5.084
 3475SOL    HW211325   1.536   5.214   5.005
 3476SOL     OW11326   4.270   1.834   3.720
 3476SOL    HW111327   4.364   1.868   3.734
 3476SOL    HW211328   4.212   1.865   3.796
 3477SOL     OW11329   4.785   4.972   2.066
 3477SOL    HW111330   4.846   4.893   2.069
 3477SOL    HW211331   4.719   4.967   2.141
 3478SOL     OW11332   3.508   4.202   0.394
 3478SOL    HW111333   3.472   4.204   0.487
 3478SOL    HW211334   3.488   4.289   0.349
 3479SOL     OW11335   1.663   0.349   0.754
 3479SOL    HW111336   1.630   0.257   0.730
 3479SOL    HW211337   1.594   0.395   0.810
 3480SOL     OW11338   1.439   0.012   4.043
 3480SOL    HW111339   1.490   6.953   4.022
 3480SOL    HW211340   1.498   0.075   4.095
 3481SOL     OW11341   2.099   6.237   0.256
 3481SOL    HW111342   2.066   6.285   0.175
 3481SOL    HW211343   2.198   6.225   0.250
 3482SOL     OW11344   0.325   2.874   1.216
 3482SOL    HW111345   0.383   2.860   1.296
 3482SOL    HW211346   0.240   2.918   1.244
 3483SOL     OW11347   3.625   1.091   0.727
 3483SOL    HW111348   3.537   1.133   0.752
 3483SOL    HW211349   3.640   1.011   0.784
 3484SOL     OW11350   3.737   3.975   3.345
 3484SOL    HW111351   3.715   3.912   3.270
 3484SOL    HW211352   3.652   4.010   3.384
 3485SOL     OW11353   5.862   1.990   5.269
 3485SOL    HW111354   5.863   2.090   5.272
 3485SOL    HW211355   5.810   1.955   5.347
 3486SOL     OW11356   5.553   0.661   3.221
 3486SOL    HW111357   5.599   0.749   3.204
 3486SOL    HW211358   5.514   0.662   3.313
 3487SOL     OW11359   0.742   0.061   0.812
 3487SOL    HW111360   0.818   0.125   0.802
 3487SOL    HW211361   0.739   0.026   0.905
 3488SOL     OW11362   6.253   4.064   4.245
 3488SOL    HW111363   6.268   3.967   4.227
 3488SOL    HW211364   6.266   4.082   4.343
 3489SOL     OW11365   2.602   5.600   0.030
 3489SOL    HW111366   2.661   5.655   0.089
 3489SOL    HW211367   2.618   5.625   6.958
 3490SOL     OW11368   4.807   3.865   0.380
 3490SOL    HW111369   4.843   3.774   0.360
 3490SOL    HW211370   4.802   3.878   0.479
 3491SOL     OW11371   5.950   2.688   5.059
 3491SOL    HW111372   6.032   2.713   5.006
 3491SOL    HW211373   5.868   2.706   5.004
 3492SOL     OW11374   6.377   4.835   6.902
 3492SOL    HW111375   6.371   4.743   6.863
 3492SOL    HW211376   6.430   4.894   6.840
 3493SOL     OW11377   6.681   4.796   1.623
 3493SOL    HW111378   6.613   4.863   1.595
 3493SOL    HW211379   6.768   4.816   1.578
 3494SOL     OW11380   2.731   6.265   1.215
 3494SOL    HW111381   2.818   6.240   1.171
 3494SOL    HW211382   2.727   6.365   1.225
 3495SOL     OW11383   5.620   4.356   6.601
 3495SOL    HW111384   5.540   4.410   6.628
 3495SOL    HW211385   5.688   4.360   6.674
 3496SOL     OW11386   0.955   5.367   0.849
 3496SOL    HW111387   0.896   5.353   0.769
 3496SOL    HW211388   1.049   5.379   0.820
 3497SOL     OW11389   4.145   6.914   4.513
 3497SOL    HW111390   4.241   6.891   4.525
 3497SOL    HW211391   4.131   6.955   4.423
 3498SOL     OW11392   0.991   1.787   0.269
 3498SOL    HW111393   1.040   1.701   0.279
 3498SOL    HW211394   1.003   1.842   0.351
 3499SOL     OW11395   0.007   4.271   4.159
 3499SOL    HW111396   7.003   4.321   4.241
 3499SOL    HW211397   6.980   4.184   4.154
 3500SOL     OW11398   5.547   2.960   0.931
 3500SOL    HW111399   5.593   3.000   0.852
 3500SOL    HW211400   5.475   2.898   0.900
 3501SOL     OW11401   0.478   4.727   2.752
 3501SOL    HW111402   0.475   4.727   2.652
 3501SOL    HW211403   0.432   4.645   2.787
 3502SOL     OW11404   0.534   5.049   1.748
 3502SOL    HW111405   0.525   4.975   1.681
 3502SOL    HW211406   0.505   5.016   1.838
 3503SOL     OW11407   3.537   6.744   3.338
 3503SOL    HW111408   3.596   6.691   3.278
 3503SOL    HW211409   3.593   6.809   3.390
 3504SOL     OW11410   2.146   2.973   2.549
 3504SOL    HW111411   2.145   3.003   2.645
 3504SOL    HW211412   2.167   3.052   2.490
 3505SOL     OW11413   4.647   6.704   4.827
 3505SOL    HW111414   4.608   6.782   4.777
 3505SOL    HW211415   4.575   6.637   4.846
 3506SOL     OW11416   6.236   4.663   2.505
 3506SOL    HW111417   6.177   4.709   2.440
 3506SOL    HW211418   6.308   4.613   2.456
 3507SOL     OW11419   0.071   0.343   5.794
 3507SOL    HW111420   0.099   0.258   5.838
 3507SOL    HW211421   0.066   0.329   5.695
 3508SOL     OW11422   6.321   4.611   6.735
 3508SOL    HW111423   6.352   4.526   6.691
 3508SOL    HW211424   6.231   4.635   6.700
 3509SOL     OW11425   5.557   6.934   6.782
 3509SOL    HW111426   5.616   6.966   6.856
 3509SOL    HW211427   5.568   6.835   6.771
 3510SOL     OW11428   1.598   1.355   2.007
 3510SOL    HW111429   1.677   1.350   2.068
 3510SOL    HW211430   1.607   1.288   1.934
 3511SOL     OW11431   0.761   1.023   4.745
 3511SOL    HW111432   0.736   0.968   4.824
 3511SOL    HW211433   0.680   1.072   4.711
 3512SOL     OW11434   3.929   2.836   1.113
 3512SOL    HW111435   3.986   2.776   1.170
 3512SOL    HW211436   3.981   2.864   1.032
 3513SOL     OW11437   6.050   4.402   1.530
 3513SOL    HW111438   6.036   4.493   1.568
 3513SOL    HW211439   5.972   4.376   1.473
 3514SOL     OW11440   2.148   6.267   1.990
 3514SOL    HW111441   2.148   6.367   1.978
 3514SOL    HW211442   2.233   6.239   2.035
 3515SOL     OW11443   3.842   5.889   3.217
 3515SOL    HW111444   3.889   5.882   3.129
 3515SOL    HW211445   3.863   5.808   3.272
 3516SOL     OW11446   2.031   0.582   0.226
 3516SOL    HW111447   1.960   0.628   0.280
 3516SOL    HW211448   2.093   0.533   0.288
 3517SOL     OW11449   0.587   0.724   6.793
 3517SOL    HW111450   0.647   0.649   6.818
 3517SOL    HW211451   0.597   0.744   6.695
 3518SOL     OW11452   4.114   3.630   6.205
 3518SOL    HW111453   4.213   3.643   6.206
 3518SOL    HW211454   4.088   3.576   6.125
 3519SOL     OW11455   3.429   6.673   0.517
 3519SOL    HW111456   3.411   6.737   0.592
 3519SOL    HW211457   3.390   6.584   0.539
 3520SOL     OW11458   3.598   4.898   1.616
 3520SOL    HW111459   3.519   4.866   1.564
 3520SOL    HW211460   3.638   4.978   1.571
 3521SOL     OW11461   6.624   2.423   6.410
 3521SOL    HW111462   6.710   2.444   6.364
 3521SOL    HW211463   6.588   2.336   6.375
 3522SOL     OW11464   2.706   0.468   0.715
 3522SOL    HW111465   2.720   0.565   0.695
 3522SOL    HW211466   2.792   0.427   0.743
 3523SOL     OW11467   2.458   4.748   5.287
 3523SOL    HW111468   2.489   4.762   5.381
 3523SOL    HW211469   2.506   4.670   5.247
 3524SOL     OW11470   2.486   1.028   2.925
 3524SOL    HW111471   2.395   0.996   2.900
 3524SOL    HW211472   2.487   1.050   3.023
 3525SOL     OW11473   1.535   3.209   3.269
 3525SOL    HW111474   1.525   3.306   3.289
 3525SOL    HW211475   1.615   3.173   3.318
 3526SOL     OW11476   3.366   6.586   3.179
 3526SOL    HW111477   3.316   6.646   3.116
 3526SOL    HW211478   3.369   6.629   3.269
 3527SOL     OW11479   5.470   3.654   0.127
 3527SOL    HW111480   5.427   3.568   0.099
 3527SOL    HW211481   5.408   3.730   0.108
 3528SOL     OW11482   2.015   6.831   4.654
 3528SOL    HW111483   1.916   6.817   4.662
 3528SOL    HW211484   2.052   6.855   4.744
 3529SOL     OW11485   3.971   5.410   0.497
 3529SOL    HW111486   4.023   5.490   0.466
 3529SOL    HW211487   3.956   5.349   0.419
 3530SOL     OW11488   1.799   6.455   2.795
 3530SOL    HW111489   1.807   6.432   2.698
 3530SOL    HW211490   1.879   6.508   2.824
 3531SOL     OW11491   5.428   4.633   0.039
 3531SOL    HW111492   5.472   4.697   0.102
 3531SOL    HW211493   5.496   4.571   0.001
 3532SOL     OW11494   1.888   6.552   1.097
 3532SOL    HW111495   1.941   6.487   1.152
 3532SOL    HW211496   1.938   6.638   1.090
 3533SOL     OW11497   1.443   0.873   3.550
 3533SOL    HW111498   1.415   0.949   3.492
 3533SOL    HW211499   1.390   0.792   3.525
 3534SOL     OW11500   5.385   0.352   5.018
 3534SOL    HW111501   5.326   0.304   4.953
 3534SOL    HW211502   5.330   0.408   5.079
 3535SOL     OW11503   4.876   6.734   0.269
 3535SOL    HW111504   4.848   6.822   0.308
 3535SOL    HW211505   4.950   6.748   0.204
 3536SOL     OW11506   1.302   3.250   2.859
 3536SOL    HW111507   1.362   3.293   2.792
 3536SOL    HW211508   1.354   3.227   2.941
 3537SOL     OW11509   2.935   4.977   1.411
 3537SOL    HW111510   3.014   5.030   1.379
 3537SOL    HW211511   2.930   4.980   1.510
 3538SOL     OW11512   3.883   0.864   3.924
 3538SOL    HW111513   3.792   0.825   3.909
 3538SOL    HW211514   3.936   0.859   3.839
 3539SOL     OW11515   4.825   5.610   5.418
 3539SOL    HW111516   4.773   5.661   5.350
 3539SOL    HW211517   4.912   5.580   5.379
 3540SOL     OW11518   3.755   4.732   6.330
 3540SOL    HW111519   3.715   4.808   6.279
 3540SOL    HW211520   3.737   4.744   6.427
 3541SOL     OW11521   0.890   2.566   2.204
 3541SOL    HW111522   0.887   2.495   2.134
 3541SOL    HW211523   0.818   2.550   2.271
 3542SOL     OW11524   5.979   1.722   0.088
 3542SOL    HW111525   5.904   1.779   0.052
 3542SOL    HW211526   5.947   1.628   0.096
 3543SOL     OW11527   0.442   2.473   3.582
 3543SOL    HW111528   0.385   2.491   3.501
 3543SOL    HW211529   0.451   2.557   3.635
 3544SOL     OW11530   2.664   4.170   6.765
 3544SOL    HW111531   2.744   4.159   6.824
 3544SOL    HW211532   2.690   4.150   6.670
 3545SOL     OW11533   3.729   6.714   0.670
 3545SOL    HW111534   3.788   6.726   0.750
 3545SOL    HW211535   3.641   6.757   0.687
 3546SOL     OW11536   6.451   4.865   1.326
 3546SOL    HW111537   6.503   4.845   1.242
 3546SOL    HW211538   6.504   4.927   1.384
 3547SOL     OW11539   0.780   3.855   4.308
 3547SOL    HW111540   0.738   3.926   4.366
 3547SOL    HW211541   0.762   3.876   4.212
 3548SOL     OW11542   6.418   0.205   5.675
 3548SOL    HW111543   6.513   0.223   5.651
 3548SOL    HW211544   6.401   0.235   5.769
 3549SOL     OW11545   2.086   6.292   6.633
 3549SOL    HW111546   1.991   6.281   6.604
 3549SOL    HW211547   2.125   6.375   6.593
 3550SOL     OW11548   5.849   1.894   6.081
 3550SOL    HW111549   5.942   1.929   6.070
 3550SOL    HW211550   5.814   1.921   6.171
 3551SOL     OW11551   5.565   1.831   5.012
 3551SOL    HW111552   5.609   1.782   5.087
 3551SOL    HW211553   5.528   1.917   5.047
 3552SOL     OW11554   6.892   0.041   2.933
 3552SOL    HW111555   6.822   0.099   2.975
 3552SOL    HW211556   6.907   6.984   2.989
 3553SOL     OW11557   6.514   5.871   6.288
 3553SOL    HW111558   6.576   5.925   6.232
 3553SOL    HW211559   6.545   5.871   6.383
 3554SOL     OW11560   4.731   4.640   6.609
 3554SOL    HW111561   4.787   4.581   6.667
 3554SOL    HW211562   4.789   4.709   6.566
 3555SOL     OW11563   2.856   1.211   5.206
 3555SOL    HW111564   2.785   1.270   5.166
 3555SOL    HW211565   2.856   1.123   5.159
 3556SOL     OW11566   6.414   0.908   0.110
 3556SOL    HW111567   6.504   0.913   0.153
 3556SOL    HW211568   6.419   0.942   0.016
 3557SOL     OW11569   4.767   6.690   1.819
 3557SOL    HW111570   4.755   6.681   1.918
 3557SOL    HW211571   4.698   6.754   1.783
 3558SOL     OW11572   3.854   5.527   2.668
 3558SOL    HW111573   3.863   5.447   2.609
 3558SOL    HW211574   3.843   5.609   2.612
 3559SOL     OW11575   3.927   6.556   6.833
 3559SOL    HW111576   3.885   6.618   6.768
 3559SOL    HW211577   4.003   6.602   6.879
 3560SOL     OW11578   2.178   6.098   4.439
 3560SOL    HW111579   2.271   6.095   4.474
 3560SOL    HW211580   2.176   6.141   4.349
 3561SOL     OW11581   3.916   3.039   5.667
 3561SOL    HW111582   3.990   3.015   5.605
 3561SOL    HW211583   3.922   2.984   5.750
 3562SOL     OW11584   2.567   1.300   0.446
 3562SOL    HW111585   2.516   1.385   0.464
 3562SOL    HW211586   2.538   1.230   0.511
 3563SOL     OW11587   0.233   2.531   6.861
 3563SOL    HW111588   0.284   2.615   6.875
 3563SOL    HW211589   0.154   2.529   6.922
 3564SOL     OW11590   6.704   3.844   3.082
 3564SOL    HW111591   6.797   3.879   3.072
 3564SOL    HW211592   6.642   3.920   3.102
 3565SOL     OW11593   5.010   6.586   5.571
 3565SOL    HW111594   4.928   6.642   5.585
 3565SOL    HW211595   5.030   6.534   5.655
 3566SOL     OW11596   1.045   0.637   5.698
 3566SOL    HW111597   1.085   0.703   5.762
 3566SOL    HW211598   1.106   0.625   5.621
 3567SOL     OW11599   6.981   4.445   6.948
 3567SOL    HW111600   0.021   4.508   6.902
 3567SOL    HW211601   6.995   4.353   6.912
 3568SOL     OW11602   3.870   3.544   5.665
 3568SOL    HW111603   3.793   3.540   5.729
 3568SOL    HW211604   3.880   3.454   5.621
 3569SOL     OW11605   1.632   0.141   3.499
 3569SOL    HW111606   1.601   0.085   3.422
 3569SOL    HW211607   1.646   0.235   3.468
 3570SOL     OW11608   5.801   1.948   4.379
 3570SOL    HW111609   5.874   1.894   4.338
 3570SOL    HW211610   5.740   1.889   4.431
 3571SOL     OW11611   6.213   5.536   4.639
 3571SOL    HW111612   6.194   5.515   4.543
 3571SOL    HW211613   6.150   5.485   4.697
 3572SOL     OW11614   6.041   6.837   5.528
 3572SOL    HW111615   6.053   6.744   5.563
 3572SOL    HW211616   6.107   6.855   5.456
 3573SOL     OW11617   0.215   2.365   1.149
 3573SOL    HW111618   0.190   2.461   1.135
 3573SOL    HW211619   0.266   2.332   1.069
 3574SOL     OW11620   6.088   3.835   6.953
 3574SOL    HW111621   6.121   3.912   6.897
 3574SOL    HW211622   6.068   3.868   0.022
 3575SOL     OW11623   6.312   6.999   1.993
 3575SOL    HW111624   6.365   6.914   1.991
 3575SOL    HW211625   6.300   0.005   2.088
 3576SOL     OW11626   6.624   0.453   6.943
 3576SOL    HW111627   6.612   0.469   6.845
 3576SOL    HW211628   6.715   0.483   6.971
 3577SOL     OW11629   2.286   3.905   0.039
 3577SOL    HW111630   2.277   3.810   0.068
 3577SOL    HW211631   2.367   3.915   7.005
 3578SOL     OW11632   3.534   4.334   1.713
 3578SOL    HW111633   3.525   4.433   1.723
 3578SOL    HW211634   3.627   4.312   1.683
 3579SOL     OW11635   1.832   4.111   5.311
 3579SOL    HW111636   1.899   4.058   5.363
 3579SOL    HW211637   1.741   4.093   5.348
 3580SOL     OW11638   6.336   2.960   1.032
 3580SOL    HW111639   6.342   2.871   1.077
 3580SOL    HW211640   6.428   2.994   1.013
 3581SOL     OW11641   6.601   0.548   3.571
 3581SOL    HW111642   6.695   0.524   3.546
 3581SOL    HW211643   6.596   0.646   3.590
 3582SOL     OW11644   0.396   6.999   5.407
 3582SOL    HW111645   0.427   6.917   5.454
 3582SOL    HW211646   0.296   6.999   5.400
 3583SOL     OW11647   0.793   5.353   1.958
 3583SOL    HW111648   0.700   5.343   1.922
 3583SOL    HW211649   0.790   5.350   2.058
 3584SOL     OW11650   5.955   0.218   5.363
 3584SOL    HW111651   6.009   0.255   5.438
 3584SOL    HW211652   5.968   0.275   5.281
 3585SOL     OW11653   2.065   4.913   3.569
 3585SOL    HW111654   2.023   4.982   3.511
 3585SOL    HW211655   2.146   4.875   3.523
 3586SOL     OW11656   0.916   0.578   5.934
 3586SOL    HW111657   0.987   0.538   5.991
 3586SOL    HW211658   0.943   0.572   5.838
 3587SOL     OW11659   3.316   6.682   6.449
 3587SOL    HW111660   3.363   6.652   6.532
 3587SOL    HW211661   3.226   6.719   6.474
 3588SOL     OW11662   2.521   2.319   5.384
 3588SOL    HW111663   2.542   2.359   5.294
 3588SOL    HW211664   2.463   2.239   5.371
 3589SOL     OW11665   3.765   7.002   4.564
 3589SOL    HW111666   3.832   6.929   4.555
 3589SOL    HW211667   3.732   0.006   4.474
 3590SOL     OW11668   1.185   5.395   6.697
 3590SOL    HW111669   1.209   5.480   6.744
 3590SOL    HW211670   1.192   5.318   6.761
 3591SOL     OW11671   5.226   2.231   5.173
 3591SOL    HW111672   5.192   2.291   5.246
 3591SOL    HW211673   5.156   2.164   5.149
 3592SOL     OW11674   5.644   2.051   1.752
 3592SOL    HW111675   5.617   1.956   1.766
 3592SOL    HW211676   5.586   2.093   1.682
 3593SOL     OW11677   0.943   5.804   4.583
 3593SOL    HW111678   0.946   5.786   4.485
 3593SOL    HW211679   0.987   5.729   4.633
 3594SOL     OW11680   3.884   1.855   4.432
 3594SOL    HW111681   3.954   1.848   4.361
 3594SOL    HW211682   3.859   1.951   4.445
 3595SOL     OW11683   1.924   6.544   5.223
 3595SOL    HW111684   1.860   6.620   5.223
 3595SOL    HW211685   1.995   6.560   5.291
 3596SOL     OW11686   0.467   3.558   3.505
 3596SOL    HW111687   0.433   3.525   3.417
 3596SOL    HW211688   0.565   3.542   3.511
 3597SOL     OW11689   3.697   6.987   3.867
 3597SOL    HW111690   3.795   6.973   3.852
 3597SOL    HW211691   3.684   0.026   3.944
 3598SOL     OW11692   1.639   0.248   0.011
 3598SOL    HW111693   1.716   0.285   0.062
 3598SOL    HW211694   1.664   0.238   6.938
 3599SOL     OW11695   6.906   1.808   4.441
 3599SOL    HW111696   6.909   1.764   4.530
 3599SOL    HW211697   6.980   1.875   4.434
 3600SOL     OW11698   6.268   0.357   1.169
 3600SOL    HW111699   6.363   0.332   1.189
 3600SOL    HW211700   6.207   0.307   1.230
 3601SOL     OW11701   5.728   3.562   5.941
 3601SOL    HW111702   5.673   3.479   5.941
 3601SOL    HW211703   5.686   3.630   6.001
 3602SOL     OW11704   2.862   1.854   1.459
 3602SOL    HW111705   2.854   1.951   1.436
 3602SOL    HW211706   2.861   1.800   1.375
 3603SOL     OW11707   4.129   5.327   4.879
 3603SOL    HW111708   4.179   5.355   4.797
 3603SOL    HW211709   4.172   5.247   4.920
 3604SOL     OW11710   6.450   4.376   3.468
 3604SOL    HW111711   6.545   4.350   3.451
 3604SOL    HW211712   6.389   4.310   3.425
 3605SOL     OW11713   5.935   2.886   6.717
 3605SOL    HW111714   5.973   2.945   6.646
 3605SOL    HW211715   5.973   2.912   6.806
 3606SOL     OW11716   1.742   4.143   3.062
 3606SOL    HW111717   1.784   4.189   3.141
 3606SOL    HW211718   1.813   4.120   2.996
 3607SOL     OW11719   4.321   0.009   0.188
 3607SOL    HW111720   4.301   0.074   0.261
 3607SOL    HW211721   4.237   6.986   0.160
 3608SOL     OW11722   0.763   2.907   3.302
 3608SOL    HW111723   0.851   2.874   3.267
 3608SOL    HW211724   0.780   2.982   3.367
 3609SOL     OW11725   6.985   0.196   4.264
 3609SOL    HW111726   6.979   0.128   4.338
 3609SOL    HW211727   6.956   0.154   4.178
 3610SOL     OW11728   1.868   5.402   5.792
 3610SOL    HW111729   1.894   5.331   5.857
 3610SOL    HW211730   1.949   5.443   5.752
 3611SOL     OW11731   4.218   5.624   5.339
 3611SOL    HW111732   4.291   5.663   5.395
 3611SOL    HW211733   4.131   5.630   5.388
 3612SOL     OW11734   2.028   6.386   1.286
 3612SOL    HW111735   2.095   6.365   1.215
 3612SOL    HW211736   1.970   6.306   1.303
 3613SOL     OW11737   4.877   5.003   6.176
 3613SOL    HW111738   4.969   4.991   6.139
 3613SOL    HW211739   4.818   5.041   6.105
 3614SOL     OW11740   3.972   3.251   4.747
 3614SOL    HW111741   3.921   3.323   4.701
 3614SOL    HW211742   3.958   3.257   4.846
 3615SOL     OW11743   5.794   6.472   6.000
 3615SOL    HW111744   5.747   6.390   5.968
 3615SOL    HW211745   5.890   6.452   6.017
 3616SOL     OW11746   6.023   0.711   4.392
 3616SOL    HW111747   6.060   0.665   4.474
 3616SOL    HW211748   5.984   0.643   4.330
 3617SOL     OW11749   0.084   0.394   0.141
 3617SOL    HW111750   0.146   0.324   0.176
 3617SOL    HW211751   7.013   0.362   0.148
 3618SOL     OW11752   2.807   6.357   6.340
 3618SOL    HW111753   2.849   6.270   6.365
 3618SOL    HW211754   2.792   6.359   6.241
 3619SOL     OW11755   5.239   4.024   3.864
 3619SOL    HW111756   5.159   4.069   3.823
 3619SOL    HW211757   5.306   4.004   3.793
 3620SOL     OW11758   6.060   1.294   4.955
 3620SOL    HW111759   6.018   1.255   5.037
 3620SOL    HW211760   6.157   1.271   4.952
 3621SOL     OW11761   1.609   3.049   5.654
 3621SOL    HW111762   1.613   2.950   5.647
 3621SOL    HW211763   1.702   3.086   5.659
 3622SOL     OW11764   0.471   3.696   1.136
 3622SOL    HW111765   0.452   3.703   1.038
 3622SOL    HW211766   0.555   3.644   1.151
 3623SOL     OW11767   6.829   5.090   4.103
 3623SOL    HW111768   6.890   5.013   4.120
 3623SOL    HW211769   6.868   5.174   4.140
 3624SOL     OW11770   1.989   0.918   2.106
 3624SOL    HW111771   2.030   0.933   2.016
 3624SOL    HW211772   2.009   0.996   2.165
 3625SOL     OW11773   0.853   3.416   4.293
 3625SOL    HW111774   0.777   3.433   4.356
 3625SOL    HW211775   0.825   3.349   4.225
 3626SOL     OW11776   2.571   4.220   5.434
 3626SOL    HW111777   2.613   4.138   5.395
 3626SOL    HW211778   2.638   4.294   5.436
 3627SOL     OW11779   3.374   3.358   3.743
 3627SOL    HW111780   3.456   3.302   3.747
 3627SOL    HW211781   3.392   3.447   3.785
 3628SOL     OW11782   2.905   5.854   3.303
 3628SOL    HW111783   2.925   5.947   3.270
 3628SOL    HW211784   2.988   5.799   3.300
 3629SOL     OW11785   5.219   3.189   5.515
 3629SOL    HW111786   5.267   3.266   5.473
 3629SOL    HW211787   5.247   3.181   5.611
 3630SOL     OW11788   5.613   1.241   4.877
 3630SOL    HW111789   5.616   1.218   4.974
 3630SOL    HW211790   5.632   1.339   4.866
 3631SOL     OW11791   2.238   1.346   3.489
 3631SOL    HW111792   2.223   1.441   3.462
 3631SOL    HW211793   2.269   1.343   3.584
 3632SOL     OW11794   4.006   6.914   6.375
 3632SOL    HW111795   3.951   6.940   6.454
 3632SOL    HW211796   4.065   6.837   6.400
 3633SOL     OW11797   1.216   3.330   5.412
 3633SOL    HW111798   1.279   3.405   5.432
 3633SOL    HW211799   1.264   3.259   5.360
 3634SOL     OW11800   3.284   5.028   6.143
 3634SOL    HW111801   3.247   5.119   6.160
 3634SOL    HW211802   3.377   5.036   6.107
 3635SOL     OW11803   1.718   1.002   5.059
 3635SOL    HW111804   1.764   1.042   5.138
 3635SOL    HW211805   1.728   0.902   5.061
 3636SOL     OW11806   1.365   6.132   6.820
 3636SOL    HW111807   1.288   6.079   6.784
 3636SOL    HW211808   1.419   6.075   6.882
 3637SOL     OW11809   4.786   1.187   1.504
 3637SOL    HW111810   4.778   1.135   1.589
 3637SOL    HW211811   4.796   1.284   1.526
 3638SOL     OW11812   6.244   4.911   3.587
 3638SOL    HW111813   6.301   4.832   3.564
 3638SOL    HW211814   6.232   4.917   3.686
 3639SOL     OW11815   2.609   5.938   0.132
 3639SOL    HW111816   2.527   5.978   0.172
 3639SOL    HW211817   2.593   5.918   0.036
 3640SOL     OW11818   2.128   6.662   1.538
 3640SOL    HW111819   2.041   6.624   1.505
 3640SOL    HW211820   2.187   6.683   1.460
 3641SOL     OW11821   2.486   0.757   4.451
 3641SOL    HW111822   2.550   0.712   4.514
 3641SOL    HW211823   2.411   0.797   4.503
 3642SOL     OW11824   6.128   6.382   2.144
 3642SOL    HW111825   6.136   6.417   2.051
 3642SOL    HW211826   6.146   6.457   2.209
 3643SOL     OW11827   3.735   5.279   5.645
 3643SOL    HW111828   3.762   5.340   5.720
 3643SOL    HW211829   3.710   5.333   5.565
 3644SOL     OW11830   6.955   0.339   0.857
 3644SOL    HW111831   6.977   0.349   0.955
 3644SOL    HW211832   0.015   0.351   0.803
 3645SOL     OW11833   3.841   6.577   2.693
 3645SOL    HW111834   3.837   6.657   2.634
 3645SOL    HW211835   3.887   6.602   2.779
 3646SOL     OW11836   6.758   5.494   4.336
 3646SOL    HW111837   6.831   5.482   4.402
 3646SOL    HW211838   6.795   5.492   4.243
 3647SOL     OW11839   2.620   2.378   1.494
 3647SOL    HW111840   2.682   2.307   1.526
 3647SOL    HW211841   2.664   2.429   1.419
 3648SOL     OW11842   3.035   6.440   3.166
 3648SOL    HW111843   3.056   6.375   3.239
 3648SOL    HW211844   3.012   6.529   3.206
 3649SOL     OW11845   3.249   3.202   2.291
 3649SOL    HW111846   3.326   3.245   2.244
 3649SOL    HW211847   3.187   3.272   2.326
 3650SOL     OW11848   5.285   6.914   1.520
 3650SOL    HW111849   5.253   6.820   1.534
 3650SOL    HW211850   5.208   6.977   1.530
 3651SOL     OW11851   1.049   6.290   2.687
 3651SOL    HW111852   1.075   6.234   2.609
 3651SOL    HW211853   1.081   6.247   2.772
 3652SOL     OW11854   4.892   5.148   2.862
 3652SOL    HW111855   4.907   5.053   2.889
 3652SOL    HW211856   4.920   5.160   2.767
 3653SOL     OW11857   6.495   3.182   4.863
 3653SOL    HW111858   6.531   3.095   4.896
 3653SOL    HW211859   6.563   3.228   4.807
 3654SOL     OW11860   1.154   6.095   1.783
 3654SOL    HW111861   1.202   6.018   1.741
 3654SOL    HW211862   1.189   6.180   1.746
 3655SOL     OW11863   0.009   1.198   3.835
 3655SOL    HW111864   7.007   1.284   3.792
 3655SOL    HW211865   0.017   1.127   3.765
 3656SOL     OW11866   2.540   1.527   2.845
 3656SOL    HW111867   2.558   1.439   2.802
 3656SOL    HW211868   2.476   1.579   2.787
 3657SOL     OW11869   4.437   4.909   2.447
 3657SOL    HW111870   4.526   4.941   2.416
 3657SOL    HW211871   4.367   4.977   2.426
 3658SOL     OW11872   2.139   5.482   5.676
 3658SOL    HW111873   2.155   5.451   5.769
 3658SOL    HW211874   2.211   5.547   5.649
 3659SOL     OW11875   1.132   3.801   0.254
 3659SOL    HW111876   1.132   3.894   0.216
 3659SOL    HW211877   1.099   3.738   0.184
 3660SOL     OW11878   3.949   4.763   0.663
 3660SOL    HW111879   3.961   4.861   0.679
 3660SOL    HW211880   4.038   4.721   0.646
 3661SOL     OW11881   5.187   1.567   1.145
 3661SOL    HW111882   5.270   1.569   1.089
 3661SOL    HW211883   5.137   1.653   1.134
 3662SOL     OW11884   2.482   6.148   4.912
 3662SOL    HW111885   2.547   6.154   4.836
 3662SOL    HW211886   2.448   6.055   4.919
 3663SOL     OW11887   1.610   3.537   5.670
 3663SOL    HW111888   1.699   3.540   5.718
 3663SOL    HW211889   1.542   3.497   5.730
 3664SOL     OW11890   3.894   0.075   1.755
 3664SOL    HW111891   3.877   0.015   1.677
 3664SOL    HW211892   3.917   0.020   1.835
 3665SOL     OW11893   1.696   0.483   5.287
 3665SOL    HW111894   1.765   0.491   5.359
 3665SOL    HW211895   1.693   0.388   5.254
 3666SOL     OW11896   0.928   4.705   4.325
 3666SOL    HW111897   0.995   4.760   4.375
 3666SOL    HW211898   0.959   4.610   4.320
 3667SOL     OW11899   0.380   1.323   6.576
 3667SOL    HW111900   0.432   1.277   6.504
 3667SOL    HW211901   0.351   1.255   6.644
 3668SOL     OW11902   1.512   5.451   1.794
 3668SOL    HW111903   1.582   5.418   1.857
 3668SOL    HW211904   1.464   5.374   1.754
 3669SOL     OW11905   5.715   1.827   3.818
 3669SOL    HW111906   5.749   1.770   3.744
 3669SOL    HW211907   5.769   1.911   3.824
 3670SOL     OW11908   2.389   5.347   6.276
 3670SOL    HW111909   2.443   5.384   6.201
 3670SOL    HW211910   2.450   5.321   6.351
 3671SOL     OW11911   1.631   0.609   3.295
 3671SOL    HW111912   1.654   0.553   3.374
 3671SOL    HW211913   1.687   0.692   3.295
 3672SOL     OW11914   6.712   0.097   0.489
 3672SOL    HW111915   6.672   0.135   0.572
 3672SOL    HW211916   6.812   0.108   0.493
 3673SOL     OW11917   4.291   0.613   6.821
 3673SOL    HW111918   4.377   0.617   6.770
 3673SOL    HW211919   4.214   0.619   6.758
 3674SOL     OW11920   1.148   6.402   0.939
 3674SOL    HW111921   1.055   6.369   0.955
 3674SOL    HW211922   1.145   6.501   0.920
 3675SOL     OW11923   1.779   1.996   4.516
 3675SOL    HW111924   1.764   2.093   4.498
 3675SOL    HW211925   1.870   1.970   4.485
 3676SOL     OW11926   1.795   5.055   2.943
 3676SOL    HW111927   1.772   4.961   2.915
 3676SOL    HW211928   1.756   5.119   2.877
 3677SOL     OW11929   6.670   6.816   3.607
 3677SOL    HW111930   6.753   6.784   3.653
 3677SOL    HW211931   6.639   6.901   3.651
 3678SOL     OW11932   1.529   1.691   3.471
 3678SOL    HW111933   1.518   1.614   3.535
 3678SOL    HW211934   1.624   1.698   3.442
 3679SOL     OW11935   0.063   0.698   1.492
 3679SOL    HW111936   7.014   0.647   1.446
 3679SOL    HW211937   0.137   0.636   1.517
 3680SOL     OW11938   5.800   4.646   4.790
 3680SOL    HW111939   5.834   4.554   4.809
 3680SOL    HW211940   5.875   4.703   4.757
 3681SOL     OW11941   5.761   6.401   4.845
 3681SOL    HW111942   5.819   6.407   4.764
 3681SOL    HW211943   5.817   6.385   4.926
 3682SOL     OW11944   0.612   2.424   6.419
 3682SOL    HW111945   0.635   2.363   6.494
 3682SOL    HW211946   0.628   2.519   6.447
 3683SOL     OW11947   5.378   6.179   3.594
 3683SOL    HW111948   5.290   6.226   3.598
 3683SOL    HW211949   5.431   6.198   3.676
 3684SOL     OW11950   1.843   3.237   0.957
 3684SOL    HW111951   1.811   3.175   1.029
 3684SOL    HW211952   1.858   3.186   0.873
 3685SOL     OW11953   6.528   6.974   6.177
 3685SOL    HW111954   6.480   6.903   6.125
 3685SOL    HW211955   6.624   6.948   6.189
 3686SOL     OW11956   6.436   4.492   1.556
 3686SOL    HW111957   6.380   4.555   1.504
 3686SOL    HW211958   6.438   4.520   1.652
 3687SOL     OW11959   3.236   1.304   6.992
 3687SOL    HW111960   3.331   1.327   7.013
 3687SOL    HW211961   3.176   1.354   0.030
 3688SOL     OW11962   6.780   3.425   0.183
 3688SOL    HW111963   6.839   3.476   0.246
 3688SOL    HW211964   6.697   3.397   0.231
 3689SOL     OW11965   2.986   6.997   3.734
 3689SOL    HW111966   3.004   6.984   3.832
 3689SOL    HW211967   3.012   6.915   3.684
 3690SOL     OW11968   4.093   5.899   5.441
 3690SOL    HW111969   4.016   5.962   5.431
 3690SOL    HW211970   4.060   5.811   5.476
 3691SOL     OW11971   3.169   2.706   6.642
 3691SOL    HW111972   3.105   2.694   6.566
 3691SOL    HW211973   3.168   2.624   6.699
 3692SOL     OW11974   0.980   0.207   6.293
 3692SOL    HW111975   0.910   0.258   6.343
 3692SOL    HW211976   1.020   0.138   6.353
 3693SOL     OW11977   2.300   1.913   3.520
 3693SOL    HW111978   2.209   1.911   3.561
 3693SOL    HW211979   2.359   1.848   3.568
 3694SOL     OW11980   2.169   5.650   2.522
 3694SOL    HW111981   2.103   5.722   2.505
 3694SOL    HW211982   2.122   5.562   2.530
 3695SOL     OW11983   1.788   2.576   1.247
 3695SOL    HW111984   1.754   2.600   1.338
 3695SOL    HW211985   1.831   2.486   1.250
 3696SOL     OW11986   3.141   5.845   5.817
 3696SOL    HW111987   3.207   5.798   5.758
 3696SOL    HW211988   3.154   5.815   5.912
 3697SOL     OW11989   5.528   0.144   4.178
 3697SOL    HW111990   5.559   0.050   4.194
 3697SOL    HW211991   5.524   0.193   4.265
 3698SOL     OW11992   2.935   0.150   6.079
 3698SOL    HW111993   3.005   0.092   6.036
 3698SOL    HW211994   2.858   0.161   6.016
 3699SOL     OW11995   1.309   4.488   2.462
 3699SOL    HW111996   1.286   4.407   2.515
 3699SOL    HW211997   1.233   4.553   2.467
 3700SOL     OW11998   0.254   0.560   3.258
 3700SOL    HW111999   0.290   0.653   3.258
 3700SOL    HW212000   0.260   0.521   3.350
 3701SOL     OW12001   5.501   0.384   3.366
 3701SOL    HW112002   5.519   0.463   3.424
 3701SOL    HW212003   5.561   0.388   3.286
 3702SOL     OW12004   4.605   0.804   6.422
 3702SOL    HW112005   4.601   0.904   6.422
 3702SOL    HW212006   4.618   0.771   6.328
 3703SOL     OW12007   4.181   4.338   0.298
 3703SOL    HW112008   4.263   4.334   0.241
 3703SOL    HW212009   4.116   4.269   0.267
 3704SOL     OW12010   2.376   0.213   2.123
 3704SOL    HW112011   2.373   0.303   2.079
 3704SOL    HW212012   2.463   0.203   2.172
 3705SOL     OW12013   5.711   1.297   4.516
 3705SOL    HW112014   5.793   1.292   4.458
 3705SOL    HW212015   5.633   1.258   4.466
 3706SOL     OW12016   2.442   2.547   3.562
 3706SOL    HW112017   2.412   2.530   3.656
 3706SOL    HW212018   2.372   2.516   3.498
 3707SOL     OW12019   4.324   2.293   5.270
 3707SOL    HW112020   4.298   2.235   5.347
 3707SOL    HW212021   4.259   2.281   5.195
 3708SOL     OW12022   6.292   0.042   5.877
 3708SOL    HW112023   6.290   0.142   5.878
 3708SOL    HW212024   6.227   0.008   5.809
 3709SOL     OW12025   4.996   0.657   0.463
 3709SOL    HW112026   4.945   0.697   0.539
 3709SOL    HW212027   4.979   0.710   0.380
 3710SOL     OW12028   6.916   4.666   0.074
 3710SOL    HW112029   6.998   4.722   0.068
 3710SOL    HW212030   6.928   4.583   0.019
 3711SOL     OW12031   6.793   5.132   2.416
 3711SOL    HW112032   6.740   5.215   2.402
 3711SOL    HW212033   6.827   5.099   2.328
 3712SOL     OW12034   1.460   0.356   0.484
 3712SOL    HW112035   1.474   0.303   0.567
 3712SOL    HW212036   1.481   0.300   0.404
 3713SOL     OW12037   3.745   5.591   6.113
 3713SOL    HW112038   3.842   5.579   6.134
 3713SOL    HW212039   3.692   5.520   6.159
 3714SOL     OW12040   4.453   1.684   5.318
 3714SOL    HW112041   4.387   1.647   5.253
 3714SOL    HW212042   4.535   1.626   5.318
 3715SOL     OW12043   5.588   4.148   4.084
 3715SOL    HW112044   5.556   4.083   4.153
 3715SOL    HW212045   5.682   4.124   4.058
 3716SOL     OW12046   0.549   2.011   4.393
 3716SOL    HW112047   0.617   1.967   4.335
 3716SOL    HW212048   0.519   2.096   4.351
 3717SOL     OW12049   6.185   0.305   6.817
 3717SOL    HW112050   6.218   0.257   6.735
 3717SOL    HW212051   6.086   0.309   6.815
 3718SOL     OW12052   0.976   5.664   0.311
 3718SOL    HW112053   0.991   5.586   0.372
 3718SOL    HW212054   0.927   5.634   0.230
 3719SOL     OW12055   3.713   5.191   6.806
 3719SOL    HW112056   3.762   5.134   6.740
 3719SOL    HW212057   3.776   5.220   6.878
 3720SOL     OW12058   0.052   1.930   5.918
 3720SOL    HW112059   0.033   2.015   5.870
 3720SOL    HW212060   0.009   1.933   6.009
 3721SOL     OW12061   4.536   3.677   0.522
 3721SOL    HW112062   4.592   3.663   0.604
 3721SOL    HW212063   4.439   3.666   0.545
 3722SOL     OW12064   5.876   6.232   1.038
 3722SOL    HW112065   5.784   6.193   1.030
 3722SOL    HW212066   5.921   6.231   0.949
 3723SOL     OW12067   4.420   1.561   0.535
 3723SOL    HW112068   4.423   1.463   0.515
 3723SOL    HW212069   4.341   1.580   0.593
 3724SOL     OW12070   0.070   4.555   5.716
 3724SOL    HW112071   0.128   4.550   5.797
 3724SOL    HW212072   0.104   4.492   5.646
 3725SOL     OW12073   6.418   0.053   0.990
 3725SOL    HW112074   6.386   0.036   0.896
 3725SOL    HW212075   6.371   7.014   1.052
 3726SOL     OW12076   6.011   3.654   2.004
 3726SOL    HW112077   5.928   3.654   1.948
 3726SOL    HW212078   6.054   3.744   1.999
 3727SOL     OW12079   2.452   2.708   5.103
 3727SOL    HW112080   2.433   2.798   5.064
 3727SOL    HW212081   2.439   2.710   5.202
 3728SOL     OW12082   0.572   3.363   6.703
 3728SOL    HW112083   0.621   3.365   6.616
 3728SOL    HW212084   0.502   3.291   6.700
 3729SOL     OW12085   0.527   2.443   3.093
 3729SOL    HW112086   0.458   2.513   3.111
 3729SOL    HW212087   0.519   2.411   2.999
 3730SOL     OW12088   2.230   0.505   0.986
 3730SOL    HW112089   2.275   0.477   0.901
 3730SOL    HW212090   2.297   0.506   1.060
 3731SOL     OW12091   3.205   6.191   6.334
 3731SOL    HW112092   3.137   6.183   6.262
 3731SOL    HW212093   3.163   6.230   6.416
 3732SOL     OW12094   2.110   3.823   4.568
 3732SOL    HW112095   2.039   3.884   4.531
 3732SOL    HW212096   2.143   3.859   4.655
 3733SOL     OW12097   3.400   2.976   0.949
 3733SOL    HW112098   3.380   2.936   1.039
 3733SOL    HW212099   3.315   2.982   0.896
 3734SOL     OW12100   5.115   6.703   3.779
 3734SOL    HW112101   5.190   6.673   3.837
 3734SOL    HW212102   5.111   6.646   3.697
 3735SOL     OW12103   3.330   1.661   1.921
 3735SOL    HW112104   3.362   1.635   1.830
 3735SOL    HW212105   3.297   1.755   1.919
 3736SOL     OW12106   4.655   1.258   6.116
 3736SOL    HW112107   4.657   1.168   6.074
 3736SOL    HW212108   4.728   1.315   6.078
 3737SOL     OW12109   3.695   6.427   3.586
 3737SOL    HW112110   3.782   6.453   3.546
 3737SOL    HW212111   3.680   6.477   3.671
 3738SOL     OW12112   0.386   0.138   4.226
 3738SOL    HW112113   0.327   0.175   4.297
 3738SOL    HW212114   0.396   0.039   4.240
 3739SOL     OW12115   1.155   3.519   2.016
 3739SOL    HW112116   1.189   3.546   1.925
 3739SOL    HW212117   1.184   3.426   2.036
 3740SOL     OW12118   5.479   0.798   0.062
 3740SOL    HW112119   5.466   0.890   0.099
 3740SOL    HW212120   5.448   0.796   6.990
 3741SOL     OW12121   3.397   2.221   6.823
 3741SOL    HW112122   3.434   2.182   6.907
 3741SOL    HW212123   3.392   2.321   6.832
 3742SOL     OW12124   3.403   3.423   5.367
 3742SOL    HW112125   3.344   3.464   5.437
 3742SOL    HW212126   3.349   3.405   5.284
 3743SOL     OW12127   0.735   5.613   5.805
 3743SOL    HW112128   0.762   5.540   5.868
 3743SOL    HW212129   0.721   5.575   5.714
 3744SOL     OW12130   0.077   5.435   3.373
 3744SOL    HW112131   7.006   5.435   3.406
 3744SOL    HW212132   0.114   5.528   3.381
 3745SOL     OW12133   5.147   5.900   1.653
 3745SOL    HW112134   5.226   5.877   1.709
 3745SOL    HW212135   5.117   5.993   1.673
 3746SOL     OW12136   4.262   1.298   2.279
 3746SOL    HW112137   4.181   1.354   2.261
 3746SOL    HW212138   4.242   1.203   2.258
 3747SOL     OW12139   2.409   0.120   0.864
 3747SOL    HW112140   2.313   0.134   0.839
 3747SOL    HW212141   2.459   0.084   0.785
 3748SOL     OW12142   5.416   0.859   2.271
 3748SOL    HW112143   5.399   0.934   2.207
 3748SOL    HW212144   5.476   0.791   2.228
 3749SOL     OW12145   1.867   0.253   4.280
 3749SOL    HW112146   1.881   0.251   4.181
 3749SOL    HW212147   1.946   0.212   4.326
 3750SOL     OW12148   0.322   4.417   6.550
 3750SOL    HW112149   0.243   4.366   6.583
 3750SOL    HW212150   0.297   4.513   6.536
 3751SOL     OW12151   1.551   4.136   1.559
 3751SOL    HW112152   1.508   4.088   1.483
 3751SOL    HW212153   1.578   4.070   1.629
 3752SOL     OW12154   5.534   6.211   0.398
 3752SOL    HW112155   5.559   6.258   0.482
 3752SOL    HW212156   5.615   6.203   0.339
 3753SOL     OW12157   0.134   0.011   2.954
 3753SOL    HW112158   0.130   6.975   2.874
 3753SOL    HW212159   0.194   6.993   3.023
 3754SOL     OW12160   2.160   1.553   1.529
 3754SOL    HW112161   2.107   1.554   1.613
 3754SOL    HW212162   2.226   1.478   1.531
 3755SOL     OW12163   3.159   5.350   4.129
 3755SOL    HW112164   3.159   5.446   4.100
 3755SOL    HW212165   3.067   5.324   4.158
 3756SOL     OW12166   1.389   6.710   0.500
 3756SOL    HW112167   1.396   6.622   0.452
 3756SOL    HW212168   1.294   6.739   0.502
 3757SOL     OW12169   0.767   4.407   1.084
 3757SOL    HW112170   0.855   4.414   1.038
 3757SOL    HW212171   0.703   4.356   1.027
 3758SOL     OW12172   2.052   6.810   3.832
 3758SOL    HW112173   2.024   6.763   3.749
 3758SOL    HW212174   2.149   6.792   3.849
 3759SOL     OW12175   5.250   0.190   4.095
 3759SOL    HW112176   5.344   0.187   4.129
 3759SOL    HW212177   5.241   0.127   4.018
 3760SOL     OW12178   0.956   1.129   2.968
 3760SOL    HW112179   0.963   1.089   3.059
 3760SOL    HW212180   1.039   1.181   2.947
 3761SOL     OW12181   4.202   2.069   5.451
 3761SOL    HW112182   4.125   2.011   5.478
 3761SOL    HW212183   4.279   2.054   5.513
 3762SOL     OW12184   0.450   3.039   4.021
 3762SOL    HW112185   0.476   3.081   3.934
 3762SOL    HW212186   0.454   2.939   4.012
 3763SOL     OW12187   0.718   5.152   6.816
 3763SOL    HW112188   0.692   5.247   6.797
 3763SOL    HW212189   0.645   5.090   6.787
 3764SOL     OW12190   2.909   0.751   2.687
 3764SOL    HW112191   2.845   0.806   2.741
 3764SOL    HW212192   3.003   0.777   2.710
 3765SOL     OW12193   5.345   2.752   2.818
 3765SOL    HW112194   5.281   2.812   2.771
 3765SOL    HW212195   5.350   2.664   2.770
 3766SOL     OW12196   1.422   2.999   1.958
 3766SOL    HW112197   1.322   2.993   1.963
 3766SOL    HW212198   1.449   3.048   1.875
 3767SOL     OW12199   1.575   5.837   5.995
 3767SOL    HW112200   1.625   5.767   5.944
 3767SOL    HW212201   1.494   5.865   5.944
 3768SOL     OW12202   1.589   6.861   2.725
 3768SOL    HW112203   1.567   6.896   2.634
 3768SOL    HW212204   1.504   6.835   2.772
 3769SOL     OW12205   5.372   5.612   4.457
 3769SOL    HW112206   5.316   5.631   4.377
 3769SOL    HW212207   5.463   5.653   4.445
 3770SOL     OW12208   2.599   0.524   1.738
 3770SOL    HW112209   2.512   0.524   1.690
 3770SOL    HW212210   2.612   0.612   1.784
 3771SOL     OW12211   6.724   5.745   5.725
 3771SOL    HW112212   6.719   5.646   5.743
 3771SOL    HW212213   6.807   5.764   5.672
 3772SOL     OW12214   1.196   6.072   2.060
 3772SOL    HW112215   1.211   5.977   2.090
 3772SOL    HW212216   1.156   6.071   1.969
 3773SOL     OW12217   5.311   5.376   6.721
 3773SOL    HW112218   5.247   5.453   6.729
 3773SOL    HW212219   5.260   5.293   6.698
 3774SOL     OW12220   6.543   4.547   2.063
 3774SOL    HW112221   6.529   4.602   1.980
 3774SOL    HW212222   6.635   4.508   2.060
 3775SOL     OW12223   4.923   4.996   5.020
 3775SOL    HW112224   4.836   5.042   5.036
 3775SOL    HW212225   4.992   5.065   4.995
 3776SOL     OW12226   4.448   3.059   6.666
 3776SOL    HW112227   4.358   3.093   6.694
 3776SOL    HW212228   4.492   3.127   6.607
 3777SOL     OW12229   3.162   4.836   4.054
 3777SOL    HW112230   3.073   4.796   4.074
 3777SOL    HW212231   3.178   4.836   3.955
 3778SOL     OW12232   3.428   5.150   6.495
 3778SOL    HW112233   3.446   5.131   6.591
 3778SOL    HW212234   3.370   5.077   6.457
 3779SOL     OW12235   6.689   4.785   6.911
 3779SOL    HW112236   6.610   4.839   6.940
 3779SOL    HW212237   6.749   4.769   6.990
 3780SOL     OW12238   6.163   3.873   2.063
 3780SOL    HW112239   6.214   3.959   2.059
 3780SOL    HW212240   6.150   3.846   2.159
 3781SOL     OW12241   1.260   6.281   5.352
 3781SOL    HW112242   1.190   6.331   5.301
 3781SOL    HW212243   1.350   6.299   5.313
 3782SOL     OW12244   4.150   5.085   0.908
 3782SOL    HW112245   4.058   5.101   0.945
 3782SOL    HW212246   4.205   5.036   0.975
 3783SOL     OW12247   4.590   5.465   4.979
 3783SOL    HW112248   4.634   5.408   4.909
 3783SOL    HW212249   4.588   5.416   5.066
 3784SOL     OW12250   5.174   3.054   5.271
 3784SOL    HW112251   5.108   2.984   5.299
 3784SOL    HW212252   5.197   3.113   5.349
 3785SOL     OW12253   1.101   2.406   2.994
 3785SOL    HW112254   1.076   2.503   2.992
 3785SOL    HW212255   1.177   2.393   3.058
 3786SOL     OW12256   2.055   3.386   4.707
 3786SOL    HW112257   2.082   3.434   4.624
 3786SOL    HW212258   2.069   3.445   4.786
 3787SOL     OW12259   5.237   6.404   3.996
 3787SOL    HW112260   5.290   6.323   4.019
 3787SOL    HW212261   5.262   6.437   3.905
 3788SOL     OW12262   4.981   3.249   6.189
 3788SOL    HW112263   4.912   3.176   6.191
 3788SOL    HW212264   5.047   3.230   6.117
 3789SOL     OW12265   2.302   2.842   1.005
 3789SOL    HW112266   2.355   2.811   0.926
 3789SOL    HW212267   2.219   2.888   0.973
 3790SOL     OW12268   0.912   6.433   1.649
 3790SOL    HW112269   0.922   6.516   1.704
 3790SOL    HW212270   0.944   6.450   1.556
 3791SOL     OW12271   4.972   0.814   5.022
 3791SOL    HW112272   5.023   0.868   5.089
 3791SOL    HW212273   5.007   0.833   4.931
 3792SOL     OW12274   0.079   0.443   4.354
 3792SOL    HW112275   0.017   0.369   4.328
 3792SOL    HW212276   0.050   0.483   4.441
 3793SOL     OW12277   3.890   4.460   0.493
 3793SOL    HW112278   3.980   4.475   0.452
 3793SOL    HW212279   3.838   4.546   0.493
 3794SOL     OW12280   1.834   5.191   6.299
 3794SOL    HW112281   1.806   5.164   6.392
 3794SOL    HW212282   1.754   5.218   6.246
 3795SOL     OW12283   3.047   6.216   1.146
 3795SOL    HW112284   3.118   6.160   1.104
 3795SOL    HW212285   3.075   6.312   1.145
 3796SOL     OW12286   4.826   1.205   0.212
 3796SOL    HW112287   4.796   1.113   0.186
 3796SOL    HW212288   4.824   1.264   0.131
 3797SOL     OW12289   0.439   3.332   1.640
 3797SOL    HW112290   0.378   3.400   1.602
 3797SOL    HW212291   0.505   3.376   1.701
 3798SOL     OW12292   1.248   5.303   4.072
 3798SOL    HW112293   1.169   5.310   4.010
 3798SOL    HW212294   1.231   5.230   4.138
 3799SOL     OW12295   0.120   1.081   3.608
 3799SOL    HW112296   0.151   1.148   3.541
 3799SOL    HW212297   0.145   0.989   3.577
 3800SOL     OW12298   5.529   2.372   3.281
 3800SOL    HW112299   5.443   2.401   3.239
 3800SOL    HW212300   5.516   2.358   3.379
 3801SOL     OW12301   5.715   0.907   0.789
 3801SOL    HW112302   5.807   0.926   0.825
 3801SOL    HW212303   5.655   0.879   0.864
 3802SOL     OW12304   6.675   3.417   1.718
 3802SOL    HW112305   6.647   3.512   1.699
 3802SOL    HW212306   6.675   3.402   1.817
 3803SOL     OW12307   4.001   3.895   4.660
 3803SOL    HW112308   4.043   3.817   4.613
 3803SOL    HW212309   4.071   3.944   4.711
 3804SOL     OW12310   3.809   6.435   3.207
 3804SOL    HW112311   3.766   6.509   3.156
 3804SOL    HW212312   3.842   6.469   3.295
 3805SOL     OW12313   2.524   2.093   6.597
 3805SOL    HW112314   2.539   2.165   6.664
 3805SOL    HW212315   2.571   2.116   6.512
 3806SOL     OW12316   2.356   5.377   1.635
 3806SOL    HW112317   2.313   5.412   1.719
 3806SOL    HW212318   2.312   5.291   1.608
 3807SOL     OW12319   1.648   4.131   3.611
 3807SOL    HW112320   1.604   4.041   3.615
 3807SOL    HW212321   1.660   4.158   3.515
 3808SOL     OW12322   2.905   6.498   5.625
 3808SOL    HW112323   2.859   6.575   5.580
 3808SOL    HW212324   3.004   6.505   5.612
 3809SOL     OW12325   5.879   1.513   2.009
 3809SOL    HW112326   5.897   1.598   1.960
 3809SOL    HW212327   5.960   1.485   2.060
 3810SOL     OW12328   4.522   2.086   3.020
 3810SOL    HW112329   4.476   2.174   3.006
 3810SOL    HW212330   4.619   2.095   2.996
 3811SOL     OW12331   6.860   5.724   5.282
 3811SOL    HW112332   6.840   5.647   5.221
 3811SOL    HW212333   6.959   5.739   5.285
 3812SOL     OW12334   4.477   5.542   0.382
 3812SOL    HW112335   4.495   5.546   0.283
 3812SOL    HW212336   4.406   5.475   0.400
 3813SOL     OW12337   6.078   4.440   6.987
 3813SOL    HW112338   6.044   4.530   7.012
 3813SOL    HW212339   6.164   4.449   6.936
 3814SOL     OW12340   0.066   0.067   4.888
 3814SOL    HW112341   0.055   0.157   4.930
 3814SOL    HW212342   7.016   0.006   4.920
 3815SOL     OW12343   6.060   3.471   6.206
 3815SOL    HW112344   6.081   3.494   6.301
 3815SOL    HW212345   6.010   3.546   6.163
 3816SOL     OW12346   6.429   6.395   0.887
 3816SOL    HW112347   6.526   6.415   0.896
 3816SOL    HW212348   6.379   6.434   0.964
 3817SOL     OW12349   4.207   3.677   1.546
 3817SOL    HW112350   4.153   3.752   1.507
 3817SOL    HW212351   4.303   3.705   1.551
 3818SOL     OW12352   5.540   5.990   2.267
 3818SOL    HW112353   5.469   6.011   2.334
 3818SOL    HW212354   5.613   6.057   2.275
 3819SOL     OW12355   6.187   3.256   3.664
 3819SOL    HW112356   6.175   3.192   3.588
 3819SOL    HW212357   6.267   3.313   3.648
 3820SOL     OW12358   3.294   6.388   5.190
 3820SOL    HW112359   3.378   6.442   5.188
 3820SOL    HW212360   3.217   6.447   5.217
 3821SOL     OW12361   1.531   0.130   0.656
 3821SOL    HW112362   1.597   0.057   0.637
 3821SOL    HW212363   1.465   0.098   0.725
 3822SOL     OW12364   4.939   6.929   2.203
 3822SOL    HW112365   5.022   6.985   2.205
 3822SOL    HW212366   4.957   6.841   2.247
 3823SOL     OW12367   5.473   6.439   5.748
 3823SOL    HW112368   5.543   6.400   5.687
 3823SOL    HW212369   5.516   6.506   5.809
 3824SOL     OW12370   2.531   2.726   0.761
 3824SOL    HW112371   2.446   2.687   0.727
 3824SOL    HW212372   2.609   2.678   0.721
 3825SOL     OW12373   0.534   4.880   5.883
 3825SOL    HW112374   0.499   4.938   5.957
 3825SOL    HW212375   0.579   4.800   5.923
 3826SOL     OW12376   5.459   3.875   3.720
 3826SOL    HW112377   5.525   3.873   3.796
 3826SOL    HW212378   5.378   3.823   3.746
 3827SOL     OW12379   6.818   2.022   0.165
 3827SOL    HW112380   6.877   1.981   0.234
 3827SOL    HW212381   6.789   2.113   0.196
 3828SOL     OW12382   3.779   3.100   3.544
 3828SOL    HW112383   3.877   3.112   3.564
 3828SOL    HW212384   3.733   3.189   3.548
 3829SOL     OW12385   0.596   3.778   2.162
 3829SOL    HW112386   0.651   3.792   2.079
 3829SOL    HW212387   0.582   3.680   2.176
 3830SOL     OW12388   6.091   0.455   3.484
 3830SOL    HW112389   6.034   0.447   3.566
 3830SOL    HW212390   6.182   0.490   3.510
 3831SOL     OW12391   4.534   2.319   3.258
 3831SOL    HW112392   4.633   2.310   3.248
 3831SOL    HW212393   4.514   2.380   3.335
 3832SOL     OW12394   6.813   0.360   3.766
 3832SOL    HW112395   6.726   0.317   3.791
 3832SOL    HW212396   6.833   0.341   3.670
 3833SOL     OW12397   1.475   2.781   5.365
 3833SOL    HW112398   1.396   2.760   5.308
 3833SOL    HW212399   1.526   2.697   5.386
 3834SOL     OW12400   5.023   4.493   0.843
 3834SOL    HW112401   5.083   4.553   0.791
 3834SOL    HW212402   4.958   4.449   0.781
 3835SOL     OW12403   4.091   5.695   5.105
 3835SOL    HW112404   4.148   5.654   5.177
 3835SOL    HW212405   4.115   5.791   5.095
 3836SOL     OW12406   6.726   5.970   5.305
 3836SOL    HW112407   6.749   5.899   5.237
 3836SOL    HW212408   6.810   6.004   5.346
 3837SOL     OW12409   4.291   4.567   6.008
 3837SOL    HW112410   4.196   4.547   6.032
 3837SOL    HW212411   4.294   4.607   5.916
 3838SOL     OW12412   0.441   0.552   4.131
 3838SOL    HW112413   0.385   0.486   4.081
 3838SOL    HW212414   0.385   0.596   4.202
 3839SOL     OW12415   5.181   0.437   3.981
 3839SOL    HW112416   5.089   0.451   4.016
 3839SOL    HW212417   5.222   0.357   4.025
 3840SOL     OW12418   3.091   1.022   6.601
 3840SOL    HW112419   3.005   1.070   6.583
 3840SOL    HW212420   3.076   0.924   6.600
 3841SOL     OW12421   6.027   4.309   4.218
 3841SOL    HW112422   6.084   4.231   4.244
 3841SOL    HW212423   6.028   4.377   4.291
 3842SOL     OW12424   2.029   4.072   5.681
 3842SOL    HW112425   1.956   4.026   5.732
 3842SOL    HW212426   2.033   4.168   5.707
 3843SOL     OW12427   5.066   2.062   6.461
 3843SOL    HW112428   4.976   2.055   6.417
 3843SOL    HW212429   5.103   1.970   6.475
 3844SOL     OW12430   0.195   0.391   0.709
 3844SOL    HW112431   0.255   0.332   0.763
 3844SOL    HW212432   0.222   0.487   0.721
 3845SOL     OW12433   1.898   5.370   0.554
 3845SOL    HW112434   1.874   5.336   0.463
 3845SOL    HW212435   1.927   5.294   0.611
 3846SOL     OW12436   0.503   2.689   2.877
 3846SOL    HW112437   0.575   2.633   2.837
 3846SOL    HW212438   0.531   2.720   2.968
 3847SOL     OW12439   0.158   2.098   0.003
 3847SOL    HW112440   0.241   2.137   0.043
 3847SOL    HW212441   0.096   2.172   7.001
 3848SOL     OW12442   5.753   4.101   2.015
 3848SOL    HW112443   5.802   4.127   2.098
 3848SOL    HW212444   5.818   4.092   1.939
 3849SOL     OW12445   6.336   5.075   6.214
 3849SOL    HW112446   6.260   5.102   6.156
 3849SOL    HW212447   6.368   4.984   6.187
 3850SOL     OW12448   2.855   2.325   1.632
 3850SOL    HW112449   2.918   2.367   1.566
 3850SOL    HW212450   2.886   2.344   1.725
 3851SOL     OW12451   0.267   6.405   2.759
 3851SOL    HW112452   0.279   6.498   2.725
 3851SOL    HW212453   0.198   6.357   2.705
 3852SOL     OW12454   1.692   0.170   5.001
 3852SOL    HW112455   1.645   0.258   4.994
 3852SOL    HW212456   1.697   0.128   4.910
 3853SOL     OW12457   3.071   0.353   3.300
 3853SOL    HW112458   3.009   0.400   3.237
 3853SOL    HW212459   3.018   0.294   3.360
 3854SOL     OW12460   0.530   2.487   1.673
 3854SOL    HW112461   0.599   2.553   1.702
 3854SOL    HW212462   0.539   2.404   1.727
 3855SOL     OW12463   3.700   0.037   0.396
 3855SOL    HW112464   3.621   0.090   0.426
 3855SOL    HW212465   3.764   0.026   0.472
 3856SOL     OW12466   0.398   2.515   6.619
 3856SOL    HW112467   0.356   2.503   6.529
 3856SOL    HW212468   0.334   2.487   6.690
 3857SOL     OW12469   2.280   0.273   6.168
 3857SOL    HW112470   2.255   0.220   6.248
 3857SOL    HW212471   2.215   0.255   6.094
 3858SOL     OW12472   5.001   0.498   4.212
 3858SOL    HW112473   5.063   0.466   4.284
 3858SOL    HW212474   4.966   0.589   4.235
 3859SOL     OW12475   6.038   6.846   1.303
 3859SOL    HW112476   5.973   6.913   1.337
 3859SOL    HW212477   5.997   6.755   1.307
 3860SOL     OW12478   1.645   6.745   4.120
 3860SOL    HW112479   1.725   6.739   4.180
 3860SOL    HW212480   1.672   6.783   4.032
 3861SOL     OW12481   2.873   5.385   1.657
 3861SOL    HW112482   2.925   5.421   1.579
 3861SOL    HW212483   2.933   5.329   1.714
 3862SOL     OW12484   1.874   0.796   4.163
 3862SOL    HW112485   1.930   0.853   4.222
 3862SOL    HW212486   1.791   0.769   4.212
 3863SOL     OW12487   3.267   0.115   0.460
 3863SOL    HW112488   3.228   0.171   0.386
 3863SOL    HW212489   3.242   0.019   0.446
 3864SOL     OW12490   2.170   0.358   4.949
 3864SOL    HW112491   2.122   0.386   5.032
 3864SOL    HW212492   2.179   0.436   4.887
 3865SOL     OW12493   4.203   1.612   0.720
 3865SOL    HW112494   4.217   1.703   0.760
 3865SOL    HW212495   4.107   1.601   0.696
 3866SOL     OW12496   2.755   1.872   6.389
 3866SOL    HW112497   2.734   1.828   6.476
 3866SOL    HW212498   2.720   1.816   6.314
 3867SOL     OW12499   0.674   2.832   2.148
 3867SOL    HW112500   0.722   2.760   2.098
 3867SOL    HW212501   0.666   2.806   2.244
 3868SOL     OW12502   4.447   0.875   0.166
 3868SOL    HW112503   4.363   0.927   0.154
 3868SOL    HW212504   4.456   0.808   0.092
 3869SOL     OW12505   4.899   1.888   4.210
 3869SOL    HW112506   4.801   1.883   4.231
 3869SOL    HW212507   4.917   1.842   4.123
 3870SOL     OW12508   0.170   0.691   4.899
 3870SOL    HW112509   0.149   0.788   4.887
 3870SOL    HW212510   0.235   0.679   4.973
 3871SOL     OW12511   2.841   5.950   4.204
 3871SOL    HW112512   2.858   5.892   4.284
 3871SOL    HW212513   2.821   6.043   4.234
 3872SOL     OW12514   3.174   3.455   5.540
 3872SOL    HW112515   3.148   3.520   5.469
 3872SOL    HW212516   3.113   3.465   5.619
 3873SOL     OW12517   4.205   1.863   0.472
 3873SOL    HW112518   4.196   1.961   0.451
 3873SOL    HW212519   4.298   1.845   0.502
 3874SOL     OW12520   2.376   1.108   0.172
 3874SOL    HW112521   2.282   1.134   0.150
 3874SOL    HW212522   2.377   1.052   0.255
 3875SOL     OW12523   0.996   1.989   6.275
 3875SOL    HW112524   0.962   2.080   6.298
 3875SOL    HW212525   1.094   1.984   6.291
 3876SOL     OW12526   3.860   5.234   2.186
 3876SOL    HW112527   3.800   5.186   2.250
 3876SOL    HW212528   3.813   5.315   2.151
 3877SOL     OW12529   6.898   1.771   6.746
 3877SOL    HW112530   6.829   1.757   6.816
 3877SOL    HW212531   6.982   1.723   6.771
 3878SOL     OW12532   5.503   0.755   4.509
 3878SOL    HW112533   5.590   0.726   4.549
 3878SOL    HW212534   5.501   0.732   4.411
 3879SOL     OW12535   5.965   5.855   0.500
 3879SOL    HW112536   5.867   5.877   0.492
 3879SOL    HW212537   5.998   5.882   0.590
 3880SOL     OW12538   4.458   4.706   4.070
 3880SOL    HW112539   4.364   4.733   4.093
 3880SOL    HW212540   4.507   4.785   4.032
 3881SOL     OW12541   0.544   3.389   0.200
 3881SOL    HW112542   0.627   3.416   0.152
 3881SOL    HW212543   0.567   3.343   0.286
 3882SOL     OW12544   0.629   2.075   6.493
 3882SOL    HW112545   0.550   2.019   6.518
 3882SOL    HW212546   0.664   2.045   6.405
 3883SOL     OW12547   5.091   5.769   3.520
 3883SOL    HW112548   5.084   5.694   3.454
 3883SOL    HW212549   5.146   5.739   3.599
 3884SOL     OW12550   0.440   4.390   2.110
 3884SOL    HW112551   0.417   4.299   2.075
 3884SOL    HW212552   0.536   4.410   2.091
 3885SOL     OW12553   5.348   5.710   2.801
 3885SOL    HW112554   5.275   5.731   2.867
 3885SOL    HW212555   5.341   5.773   2.723
 3886SOL     OW12556   2.815   6.228   5.608
 3886SOL    HW112557   2.894   6.172   5.581
 3886SOL    HW212558   2.843   6.324   5.613
 3887SOL     OW12559   0.938   6.479   2.371
 3887SOL    HW112560   1.007   6.413   2.344
 3887SOL    HW212561   0.980   6.552   2.425
 3888SOL     OW12562   5.721   5.153   4.218
 3888SOL    HW112563   5.680   5.061   4.213
 3888SOL    HW212564   5.766   5.174   4.132
 3889SOL     OW12565   4.935   3.999   0.938
 3889SOL    HW112566   5.004   3.944   0.986
 3889SOL    HW212567   4.977   4.043   0.859
 3890SOL     OW12568   5.543   3.269   4.432
 3890SOL    HW112569   5.616   3.277   4.499
 3890SOL    HW212570   5.471   3.335   4.453
 3891SOL     OW12571   5.690   5.717   3.478
 3891SOL    HW112572   5.601   5.729   3.434
 3891SOL    HW212573   5.734   5.634   3.444
 3892SOL     OW12574   6.999   2.309   1.240
 3892SOL    HW112575   0.063   2.313   1.191
 3892SOL    HW212576   6.957   2.400   1.241
 3893SOL     OW12577   3.942   3.887   2.784
 3893SOL    HW112578   4.003   3.809   2.800
 3893SOL    HW212579   3.942   3.946   2.865
 3894SOL     OW12580   4.464   0.943   5.536
 3894SOL    HW112581   4.403   0.903   5.605
 3894SOL    HW212582   4.559   0.919   5.558
 3895SOL     OW12583   1.188   0.600   4.105
 3895SOL    HW112584   1.121   0.675   4.103
 3895SOL    HW212585   1.178   0.545   4.022
 3896SOL     OW12586   1.235   1.085   6.691
 3896SOL    HW112587   1.260   1.029   6.769
 3896SOL    HW212588   1.244   1.032   6.607
 3897SOL     OW12589   4.328   6.518   1.268
 3897SOL    HW112590   4.422   6.507   1.234
 3897SOL    HW212591   4.327   6.507   1.368
 3898SOL     OW12592   3.972   2.861   0.483
 3898SOL    HW112593   3.978   2.875   0.582
 3898SOL    HW212594   3.900   2.919   0.445
 3899SOL     OW12595   2.977   0.014   5.723
 3899SOL    HW112596   3.046   6.995   5.666
 3899SOL    HW212597   2.925   0.081   5.669
 3900SOL     OW12598   5.164   3.709   3.212
 3900SOL    HW112599   5.197   3.764   3.136
 3900SOL    HW212600   5.164   3.763   3.296
 3901SOL     OW12601   2.653   0.265   7.009
 3901SOL    HW112602   2.554   0.280   7.016
 3901SOL    HW212603   2.689   0.318   6.932
 3902SOL     OW12604   6.078   3.165   2.888
 3902SOL    HW112605   6.151   3.212   2.840
 3902SOL    HW212606   6.113   3.079   2.927
 3903SOL     OW12607   3.292   4.500   6.660
 3903SOL    HW112608   3.241   4.574   6.702
 3903SOL    HW212609   3.266   4.493   6.563
 3904SOL     OW12610   1.322   0.581   0.406
 3904SOL    HW112611   1.235   0.565   0.452
 3904SOL    HW212612   1.391   0.519   0.443
 3905SOL     OW12613   6.576   5.631   5.122
 3905SOL    HW112614   6.662   5.612   5.074
 3905SOL    HW212615   6.596   5.665   5.214
 3906SOL     OW12616   6.922   6.217   5.218
 3906SOL    HW112617   6.954   6.159   5.293
 3906SOL    HW212618   6.902   6.309   5.252
 3907SOL     OW12619   6.787   1.877   3.884
 3907SOL    HW112620   6.712   1.944   3.878
 3907SOL    HW212621   6.820   1.872   3.978
 3908SOL     OW12622   2.236   2.886   6.237
 3908SOL    HW112623   2.184   2.948   6.295
 3908SOL    HW212624   2.173   2.838   6.176
 3909SOL     OW12625   5.832   5.228   3.972
 3909SOL    HW112626   5.915   5.207   3.919
 3909SOL    HW212627   5.791   5.313   3.938
 3910SOL     OW12628   4.122   3.684   2.850
 3910SOL    HW112629   4.147   3.589   2.836
 3910SOL    HW212630   4.205   3.740   2.855
 3911SOL     OW12631   6.468   2.102   5.611
 3911SOL    HW112632   6.481   2.056   5.699
 3911SOL    HW212633   6.514   2.050   5.539
 3912SOL     OW12634   5.344   2.750   6.744
 3912SOL    HW112635   5.400   2.671   6.721
 3912SOL    HW212636   5.375   2.788   6.831
 3913SOL     OW12637   0.871   6.707   1.155
 3913SOL    HW112638   0.905   6.721   1.248
 3913SOL    HW212639   0.948   6.712   1.091
 3914SOL     OW12640   3.151   5.558   5.486
 3914SOL    HW112641   3.249   5.577   5.492
 3914SOL    HW212642   3.116   5.534   5.577
 3915SOL     OW12643   6.384   5.907   1.466
 3915SOL    HW112644   6.285   5.905   1.453
 3915SOL    HW212645   6.427   5.956   1.390
 3916SOL     OW12646   0.971   0.129   2.877
 3916SOL    HW112647   1.038   0.183   2.928
 3916SOL    HW212648   0.916   0.189   2.819
 3917SOL     OW12649   1.873   0.334   0.161
 3917SOL    HW112650   1.917   0.422   0.181
 3917SOL    HW212651   1.847   0.289   0.246
 3918SOL     OW12652   5.686   3.588   0.992
 3918SOL    HW112653   5.719   3.509   0.940
 3918SOL    HW212654   5.587   3.597   0.978
 3919SOL     OW12655   3.290   6.434   0.554
 3919SOL    HW112656   3.209   6.484   0.585
 3919SOL    HW212657   3.326   6.379   0.630
 3920SOL     OW12658   2.000   1.648   6.710
 3920SOL    HW112659   2.001   1.676   6.614
 3920SOL    HW212660   2.093   1.643   6.745
 3921SOL     OW12661   1.294   3.765   1.912
 3921SOL    HW112662   1.279   3.767   2.011
 3921SOL    HW212663   1.335   3.852   1.884
 3922SOL     OW12664   1.223   4.651   1.006
 3922SOL    HW112665   1.318   4.681   1.012
 3922SOL    HW212666   1.163   4.730   0.999
 3923SOL     OW12667   6.632   0.325   0.322
 3923SOL    HW112668   6.616   0.387   0.399
 3923SOL    HW212669   6.642   0.232   0.356
 3924SOL     OW12670   6.887   4.763   4.671
 3924SOL    HW112671   6.942   4.717   4.740
 3924SOL    HW212672   6.876   4.702   4.592
 3925SOL     OW12673   1.586   5.240   2.250
 3925SOL    HW112674   1.565   5.233   2.348
 3925SOL    HW212675   1.543   5.322   2.213
 3926SOL     OW12676   4.077   4.767   2.257
 3926SOL    HW112677   4.020   4.729   2.330
 3926SOL    HW212678   4.026   4.768   2.171
 3927SOL     OW12679   0.632   3.197   5.918
 3927SOL    HW112680   0.707   3.142   5.954
 3927SOL    HW212681   0.660   3.237   5.830
 3928SOL     OW12682   5.361   5.922   6.287
 3928SOL    HW112683   5.310   5.926   6.201
 3928SOL    HW212684   5.302   5.884   6.358
 3929SOL     OW12685   1.118   1.929   4.777
 3929SOL    HW112686   1.111   2.008   4.838
 3929SOL    HW212687   1.189   1.945   4.708
 3930SOL     OW12688   2.152   1.527   3.852
 3930SOL    HW112689   2.242   1.529   3.808
 3930SOL    HW212690   2.112   1.618   3.850
 3931SOL     OW12691   5.372   0.959   1.976
 3931SOL    HW112692   5.329   1.034   1.925
 3931SOL    HW212693   5.359   0.874   1.926
 3932SOL     OW12694   1.772   1.998   3.711
 3932SOL    HW112695   1.717   1.942   3.773
 3932SOL    HW212696   1.828   2.061   3.765
 3933SOL     OW12697   0.742   6.940   5.177
 3933SOL    HW112698   0.763   6.885   5.258
 3933SOL    HW212699   0.643   6.947   5.167
 3934SOL     OW12700   5.597   0.179   6.639
 3934SOL    HW112701   5.639   0.220   6.720
 3934SOL    HW212702   5.669   0.141   6.579
 3935SOL     OW12703   4.662   0.908   0.508
 3935SOL    HW112704   4.668   0.906   0.607
 3935SOL    HW212705   4.606   0.831   0.476
 3936SOL     OW12706   0.109   5.117   3.242
 3936SOL    HW112707   0.039   5.048   3.226
 3936SOL    HW212708   0.108   5.183   3.167
 3937SOL     OW12709   0.235   1.468   2.465
 3937SOL    HW112710   0.278   1.558   2.464
 3937SOL    HW212711   0.276   1.410   2.394
 3938SOL     OW12712   0.027   2.354   2.150
 3938SOL    HW112713   6.981   2.285   2.170
 3938SOL    HW212714   0.118   2.312   2.155
 3939SOL     OW12715   2.700   1.760   1.787
 3939SOL    HW112716   2.719   1.717   1.699
 3939SOL    HW212717   2.700   1.690   1.859
 3940SOL     OW12718   4.463   2.877   1.078
 3940SOL    HW112719   4.475   2.963   1.128
 3940SOL    HW212720   4.550   2.828   1.075
 3941SOL     OW12721   4.588   4.227   6.574
 3941SOL    HW112722   4.513   4.281   6.535
 3941SOL    HW212723   4.593   4.242   6.672
 3942SOL     OW12724   6.796   6.691   6.440
 3942SOL    HW112725   6.861   6.685   6.515
 3942SOL    HW212726   6.714   6.739   6.471
 3943SOL     OW12727   0.366   3.410   4.459
 3943SOL    HW112728   0.308   3.390   4.537
 3943SOL    HW212729   0.354   3.339   4.389
 3944SOL     OW12730   5.043   2.468   4.755
 3944SOL    HW112731   5.089   2.447   4.669
 3944SOL    HW212732   4.994   2.555   4.747
 3945SOL     OW12733   0.355   0.602   0.336
 3945SOL    HW112734   0.286   0.673   0.324
 3945SOL    HW212735   0.311   0.512   0.338
 3946SOL     OW12736   4.324   4.641   3.259
 3946SOL    HW112737   4.355   4.566   3.200
 3946SOL    HW212738   4.399   4.669   3.319
 3947SOL     OW12739   5.960   5.445   6.924
 3947SOL    HW112740   5.890   5.512   6.900
 3947SOL    HW212741   6.049   5.476   6.890
 3948SOL     OW12742   6.320   4.305   0.997
 3948SOL    HW112743   6.278   4.346   1.078
 3948SOL    HW212744   6.249   4.277   0.933
 3949SOL     OW12745   5.365   6.357   3.206
 3949SOL    HW112746   5.292   6.396   3.262
 3949SOL    HW212747   5.335   6.353   3.110
 3950SOL     OW12748   1.496   6.259   0.343
 3950SOL    HW112749   1.465   6.168   0.371
 3950SOL    HW212750   1.596   6.259   0.338
 3951SOL     OW12751   5.647   0.050   1.817
 3951SOL    HW112752   5.728   0.017   1.866
 3951SOL    HW212753   5.629   7.013   1.740
 3952SOL     OW12754   6.077   2.257   0.147
 3952SOL    HW112755   6.140   2.184   0.119
 3952SOL    HW212756   5.998   2.218   0.193
 3953SOL     OW12757   3.528   4.148   2.908
 3953SOL    HW112758   3.572   4.115   2.991
 3953SOL    HW212759   3.437   4.106   2.899
 3954SOL     OW12760   3.667   4.779   5.631
 3954SOL    HW112761   3.651   4.715   5.556
 3954SOL    HW212762   3.629   4.868   5.608
 3955SOL     OW12763   4.119   0.823   4.713
 3955SOL    HW112764   4.130   0.916   4.678
 3955SOL    HW212765   4.141   0.821   4.810
 3956SOL     OW12766   1.747   1.124   1.352
 3956SOL    HW112767   1.790   1.204   1.394
 3956SOL    HW212768   1.810   1.046   1.357
 3957SOL     OW12769   3.753   0.859   4.874
 3957SOL    HW112770   3.658   0.854   4.843
 3957SOL    HW212771   3.769   0.785   4.940
 3958SOL     OW12772   5.553   0.489   5.570
 3958SOL    HW112773   5.631   0.546   5.595
 3958SOL    HW212774   5.568   0.450   5.479
 3959SOL     OW12775   4.629   5.565   0.679
 3959SOL    HW112776   4.689   5.638   0.647
 3959SOL    HW212777   4.537   5.601   0.694
 3960SOL     OW12778   5.490   2.442   4.551
 3960SOL    HW112779   5.494   2.501   4.471
 3960SOL    HW212780   5.516   2.349   4.525
 3961SOL     OW12781   5.835   6.229   3.660
 3961SOL    HW112782   5.811   6.135   3.635
 3961SOL    HW212783   5.785   6.293   3.602
 3962SOL     OW12784   6.840   5.536   5.077
 3962SOL    HW112785   6.769   5.467   5.071
 3962SOL    HW212786   6.928   5.496   5.051
 3963SOL     OW12787   4.463   6.614   2.055
 3963SOL    HW112788   4.483   6.527   2.009
 3963SOL    HW212789   4.375   6.650   2.022
 3964SOL     OW12790   5.549   3.313   3.300
 3964SOL    HW112791   5.474   3.263   3.341
 3964SOL    HW212792   5.578   3.387   3.361
 3965SOL     OW12793   4.815   4.069   4.537
 3965SOL    HW112794   4.727   4.114   4.525
 3965SOL    HW212795   4.861   4.106   4.618
 3966SOL     OW12796   2.620   6.103   6.511
 3966SOL    HW112797   2.587   6.134   6.421
 3966SOL    HW212798   2.645   6.183   6.566
 3967SOL     OW12799   2.088   4.603   2.761
 3967SOL    HW112800   2.187   4.592   2.754
 3967SOL    HW212801   2.065   4.700   2.748
 3968SOL     OW12802   4.069   6.898   0.700
 3968SOL    HW112803   4.073   6.848   0.614
 3968SOL    HW212804   4.002   6.855   0.761
 3969SOL     OW12805   0.738   5.194   2.464
 3969SOL    HW112806   0.748   5.293   2.473
 3969SOL    HW212807   0.806   5.148   2.521
 3970SOL     OW12808   5.238   6.199   2.739
 3970SOL    HW112809   5.215   6.266   2.668
 3970SOL    HW212810   5.305   6.239   2.801
 3971SOL     OW12811   2.429   5.891   3.937
 3971SOL    HW112812   2.497   5.963   3.923
 3971SOL    HW212813   2.476   5.806   3.962
 3972SOL     OW12814   2.241   3.641   0.175
 3972SOL    HW112815   2.199   3.555   0.143
 3972SOL    HW212816   2.326   3.620   0.222
 3973SOL     OW12817   1.319   5.795   0.369
 3973SOL    HW112818   1.258   5.790   0.448
 3973SOL    HW212819   1.315   5.886   0.330
 3974SOL     OW12820   2.080   0.798   4.829
 3974SOL    HW112821   1.991   0.772   4.791
 3974SOL    HW212822   2.073   0.803   4.929
 3975SOL     OW12823   5.608   2.296   6.322
 3975SOL    HW112824   5.657   2.304   6.409
 3975SOL    HW212825   5.656   2.347   6.251
 3976SOL     OW12826   2.375   5.265   2.342
 3976SOL    HW112827   2.471   5.294   2.341
 3976SOL    HW212828   2.365   5.182   2.287
 3977SOL     OW12829   1.183   3.504   6.670
 3977SOL    HW112830   1.205   3.424   6.614
 3977SOL    HW212831   1.268   3.549   6.698
 3978SOL     OW12832   6.548   4.706   3.778
 3978SOL    HW112833   6.477   4.637   3.770
 3978SOL    HW212834   6.629   4.667   3.822
 3979SOL     OW12835   3.879   0.023   6.608
 3979SOL    HW112836   3.952   0.088   6.590
 3979SOL    HW212837   3.885   7.015   6.703
 3980SOL     OW12838   5.659   6.367   5.563
 3980SOL    HW112839   5.752   6.334   5.579
 3980SOL    HW212840   5.621   6.323   5.481
 3981SOL     OW12841   4.500   6.649   0.400
 3981SOL    HW112842   4.480   6.747   0.394
 3981SOL    HW212843   4.470   6.614   0.488
 3982SOL     OW12844   3.058   6.185   2.671
 3982SOL    HW112845   3.102   6.254   2.613
 3982SOL    HW212846   3.098   6.187   2.762
 3983SOL     OW12847   3.589   5.800   3.781
 3983SOL    HW112848   3.517   5.802   3.711
 3983SOL    HW212849   3.621   5.893   3.798
 3984SOL     OW12850   6.614   2.663   3.002
 3984SOL    HW112851   6.696   2.605   2.995
 3984SOL    HW212852   6.557   2.650   2.921
 3985SOL     OW12853   4.185   5.518   6.901
 3985SOL    HW112854   4.200   5.425   6.867
 3985SOL    HW212855   4.131   5.569   6.835
 3986SOL     OW12856   4.804   0.503   2.292
 3986SOL    HW112857   4.847   0.483   2.203
 3986SOL    HW212858   4.832   0.433   2.358
 3987SOL     OW12859   3.516   5.117   4.661
 3987SOL    HW112860   3.582   5.062   4.611
 3987SOL    HW212861   3.474   5.062   4.733
 3988SOL     OW12862   4.344   5.666   0.704
 3988SOL    HW112863   4.283   5.669   0.783
 3988SOL    HW212864   4.328   5.746   0.647
 3989SOL     OW12865   5.517   2.154   0.410
 3989SOL    HW112866   5.502   2.132   0.314
 3989SOL    HW212867   5.527   2.069   0.463
 3990SOL     OW12868   6.359   2.067   2.350
 3990SOL    HW112869   6.288   2.090   2.417
 3990SOL    HW212870   6.408   2.150   2.323
 3991SOL     OW12871   7.023   0.570   3.067
 3991SOL    HW112872   0.095   0.579   3.097
 3991SOL    HW212873   6.997   0.652   3.016
 3992SOL     OW12874   2.796   1.587   1.316
 3992SOL    HW112875   2.718   1.639   1.282
 3992SOL    HW212876   2.877   1.608   1.260
 3993SOL     OW12877   1.467   2.944   1.319
 3993SOL    HW112878   1.520   3.016   1.365
 3993SOL    HW212879   1.527   2.892   1.258
 3994SOL     OW12880   2.654   6.161   4.697
 3994SOL    HW112881   2.574   6.144   4.638
 3994SOL    HW212882   2.734   6.117   4.656
 3995SOL     OW12883   1.819   2.656   5.186
 3995SOL    HW112884   1.795   2.616   5.098
 3995SOL    HW212885   1.842   2.584   5.251
 3996SOL     OW12886   0.197   6.225   5.089
 3996SOL    HW112887   0.109   6.196   5.052
 3996SOL    HW212888   0.199   6.208   5.188
 3997SOL     OW12889   5.224   0.179   4.466
 3997SOL    HW112890   5.202   0.092   4.510
 3997SOL    HW212891   5.323   0.192   4.462
 3998SOL     OW12892   4.505   2.224   3.611
 3998SOL    HW112893   4.571   2.295   3.635
 3998SOL    HW212894   4.498   2.217   3.511
 3999SOL     OW12895   5.179   2.427   4.524
 3999SOL    HW112896   5.273   2.454   4.547
 3999SOL    HW212897   5.182   2.347   4.464
 4000SOL     OW12898   4.031   0.153   3.781
 4000SOL    HW112899   4.111   0.126   3.728
 4000SOL    HW212900   3.967   0.204   3.723
 4001SOL     OW12901   1.095   2.403   3.784
 4001SOL    HW112902   1.175   2.373   3.731
 4001SOL    HW212903   1.022   2.336   3.773
 4002SOL     OW12904   2.242   3.753   1.777
 4002SOL    HW112905   2.297   3.739   1.695
 4002SOL    HW212906   2.253   3.674   1.838
 4003SOL     OW12907   3.892   1.684   4.880
 4003SOL    HW112908   3.890   1.632   4.794
 4003SOL    HW212909   3.889   1.782   4.859
 4004SOL     OW12910   6.958   1.784   5.708
 4004SOL    HW112911   7.001   1.844   5.776
 4004SOL    HW212912   6.908   1.711   5.756
 4005SOL     OW12913   5.887   5.238   5.616
 4005SOL    HW112914   5.880   5.312   5.682
 4005SOL    HW212915   5.983   5.213   5.604
 4006SOL     OW12916   3.613   6.422   2.624
 4006SOL    HW112917   3.690   6.468   2.669
 4006SOL    HW212918   3.647   6.369   2.546
 4007SOL     OW12919   6.703   2.071   6.469
 4007SOL    HW112920   6.644   2.101   6.543
 4007SOL    HW212921   6.791   2.117   6.476
 4008SOL     OW12922   2.624   2.466   5.078
 4008SOL    HW112923   2.666   2.482   5.168
 4008SOL    HW212924   2.566   2.544   5.054
 4009SOL     OW12925   3.545   3.051   2.706
 4009SOL    HW112926   3.489   3.037   2.787
 4009SOL    HW212927   3.515   2.989   2.633
 4010SOL     OW12928   1.813   2.799   6.329
 4010SOL    HW112929   1.867   2.883   6.327
 4010SOL    HW212930   1.857   2.733   6.390
 4011SOL     OW12931   1.013   2.744   1.098
 4011SOL    HW112932   1.058   2.763   1.184
 4011SOL    HW212933   0.979   2.829   1.058
 4012SOL     OW12934   6.285   3.113   3.939
 4012SOL    HW112935   6.261   3.141   3.846
 4012SOL    HW212936   6.208   3.130   4.000
 4013SOL     OW12937   4.302   2.168   3.231
 4013SOL    HW112938   4.394   2.204   3.244
 4013SOL    HW212939   4.250   2.180   3.315
 4014SOL     OW12940   5.485   6.012   1.990
 4014SOL    HW112941   5.502   5.978   2.083
 4014SOL    HW212942   5.403   6.070   1.991
 4015SOL     OW12943   4.607   3.379   6.890
 4015SOL    HW112944   4.594   3.438   6.810
 4015SOL    HW212945   4.661   3.299   6.864
 4016SOL     OW12946   3.210   6.328   4.790
 4016SOL    HW112947   3.220   6.255   4.858
 4016SOL    HW212948   3.299   6.371   4.775
 4017SOL     OW12949   6.529   6.523   6.857
 4017SOL    HW112950   6.453   6.561   6.910
 4017SOL    HW212951   6.582   6.460   6.915
 4018SOL     OW12952   2.532   6.430   0.278
 4018SOL    HW112953   2.510   6.468   0.188
 4018SOL    HW212954   2.599   6.489   0.323
 4019SOL     OW12955   5.147   5.312   3.191
 4019SOL    HW112956   5.231   5.258   3.180
 4019SOL    HW212957   5.127   5.360   3.106
 4020SOL     OW12958   5.069   2.310   5.350
 4020SOL    HW112959   5.085   2.315   5.449
 4020SOL    HW212960   4.971   2.309   5.332
 4021SOL     OW12961   4.240   4.782   0.122
 4021SOL    HW112962   4.335   4.783   0.089
 4021SOL    HW212963   4.228   4.856   0.189
 4022SOL     OW12964   5.458   0.655   0.800
 4022SOL    HW112965   5.539   0.624   0.750
 4022SOL    HW212966   5.379   0.656   0.738
 4023SOL     OW12967   6.800   0.439   5.820
 4023SOL    HW112968   6.866   0.498   5.773
 4023SOL    HW212969   6.755   0.381   5.752
 4024SOL     OW12970   4.186   4.843   4.396
 4024SOL    HW112971   4.198   4.760   4.450
 4024SOL    HW212972   4.120   4.903   4.441
 4025SOL     OW12973   1.363   4.267   3.111
 4025SOL    HW112974   1.276   4.314   3.095
 4025SOL    HW212975   1.358   4.216   3.196
 4026SOL     OW12976   4.925   0.254   4.829
 4026SOL    HW112977   4.902   0.316   4.753
 4026SOL    HW212978   5.024   0.251   4.841
 4027SOL     OW12979   4.317   5.047   1.949
 4027SOL    HW112980   4.295   5.030   1.853
 4027SOL    HW212981   4.239   5.087   1.996
 4028SOL     OW12982   2.419   6.475   3.563
 4028SOL    HW112983   2.391   6.473   3.467
 4028SOL    HW212984   2.339   6.464   3.622
 4029SOL     OW12985   1.755   3.835   4.094
 4029SOL    HW112986   1.732   3.822   4.190
 4029SOL    HW212987   1.720   3.924   4.063
 4030SOL     OW12988   1.216   1.321   6.223
 4030SOL    HW112989   1.250   1.406   6.264
 4030SOL    HW212990   1.147   1.281   6.283
 4031SOL     OW12991   5.748   5.825   4.063
 4031SOL    HW112992   5.738   5.801   3.966
 4031SOL    HW212993   5.746   5.741   4.118
 4032SOL     OW12994   4.277   6.979   4.885
 4032SOL    HW112995   4.197   0.015   4.889
 4032SOL    HW212996   4.265   6.902   4.947
 4033SOL     OW12997   3.408   3.634   5.757
 4033SOL    HW112998   3.435   3.677   5.670
 4033SOL    HW212999   3.394   3.536   5.743
 4034SOL     OW13000   5.867   2.964   4.751
 4034SOL    HW113001   5.886   2.952   4.654
 4034SOL    HW213002   5.785   2.911   4.776
 4035SOL     OW13003   0.617   5.184   0.900
 4035SOL    HW113004   0.518   5.184   0.912
 4035SOL    HW213005   0.639   5.189   0.803
 4036SOL     OW13006   6.441   6.279   2.170
 4036SOL    HW113007   6.363   6.244   2.117
 4036SOL    HW213008   6.426   6.261   2.267
 4037SOL     OW13009   6.826   4.202   6.291
 4037SOL    HW113010   6.731   4.197   6.260
 4037SOL    HW213011   6.883   4.241   6.219
 4038SOL     OW13012   6.540   5.023   3.411
 4038SOL    HW113013   6.542   5.102   3.472
 4038SOL    HW213014   6.566   4.941   3.462
 4039SOL     OW13015   3.903   6.135   1.170
 4039SOL    HW113016   3.980   6.076   1.195
 4039SOL    HW213017   3.917   6.171   1.078
 4040SOL     OW13018   3.627   6.206   0.572
 4040SOL    HW113019   3.636   6.273   0.498
 4040SOL    HW213020   3.642   6.251   0.660
 4041SOL     OW13021   0.917   0.002   3.260
 4041SOL    HW113022   0.961   0.092   3.264
 4041SOL    HW213023   0.986   6.956   3.240
 4042SOL     OW13024   5.918   5.467   1.971
 4042SOL    HW113025   5.872   5.378   1.960
 4042SOL    HW213026   5.992   5.475   1.904
 4043SOL     OW13027   6.340   4.095   2.044
 4043SOL    HW113028   6.354   4.160   1.969
 4043SOL    HW213029   6.376   4.133   2.128
 4044SOL     OW13030   6.566   5.485   3.439
 4044SOL    HW113031   6.533   5.439   3.356
 4044SOL    HW213032   6.492   5.537   3.480
 4045SOL     OW13033   2.335   4.644   5.998
 4045SOL    HW113034   2.399   4.711   5.962
 4045SOL    HW213035   2.250   4.646   5.946
 4046SOL     OW13036   0.172   3.078   0.594
 4046SOL    HW113037   0.262   3.038   0.579
 4046SOL    HW213038   0.142   3.125   0.511
 4047SOL     OW13039   3.024   3.800   2.305
 4047SOL    HW113040   2.968   3.772   2.227
 4047SOL    HW213041   3.003   3.744   2.385
 4048SOL     OW13042   4.540   2.534   1.153
 4048SOL    HW113043   4.441   2.521   1.147
 4048SOL    HW213044   4.582   2.453   1.194
 4049SOL     OW13045   6.944   0.910   5.691
 4049SOL    HW113046   6.944   1.010   5.688
 4049SOL    HW213047   6.936   0.874   5.598
 4050SOL     OW13048   2.355   0.841   1.670
 4050SOL    HW113049   2.355   0.843   1.570
 4050SOL    HW213050   2.287   0.775   1.702
 4051SOL     OW13051   1.195   4.196   0.973
 4051SOL    HW113052   1.262   4.239   0.912
 4051SOL    HW213053   1.233   4.193   1.066
 4052SOL     OW13054   1.307   6.516   1.453
 4052SOL    HW113055   1.372   6.483   1.522
 4052SOL    HW213056   1.305   6.615   1.455
 4053SOL     OW13057   3.396   4.928   3.371
 4053SOL    HW113058   3.447   4.843   3.356
 4053SOL    HW213059   3.453   4.992   3.423
 4054SOL     OW13060   5.016   1.460   6.896
 4054SOL    HW113061   4.985   1.505   6.812
 4054SOL    HW213062   5.110   1.428   6.882
 4055SOL     OW13063   4.693   2.716   0.972
 4055SOL    HW113064   4.629   2.748   0.903
 4055SOL    HW213065   4.669   2.622   0.998
 4056SOL     OW13066   3.806   2.631   0.792
 4056SOL    HW113067   3.842   2.582   0.871
 4056SOL    HW213068   3.747   2.706   0.823
 4057SOL     OW13069   6.250   2.391   0.310
 4057SOL    HW113070   6.173   2.358   0.255
 4057SOL    HW213071   6.334   2.386   0.256
 4058SOL     OW13072   1.568   1.857   4.322
 4058SOL    HW113073   1.600   1.848   4.416
 4058SOL    HW213074   1.486   1.914   4.319
 4059SOL     OW13075   6.337   2.308   5.248
 4059SOL    HW113076   6.429   2.330   5.215
 4059SOL    HW213077   6.303   2.226   5.202
 4060SOL     OW13078   3.245   5.807   5.357
 4060SOL    HW113079   3.306   5.871   5.405
 4060SOL    HW213080   3.150   5.829   5.379
 4061SOL     OW13081   2.293   2.719   1.513
 4061SOL    HW113082   2.317   2.755   1.423
 4061SOL    HW213083   2.258   2.793   1.570
 4062SOL     OW13084   3.869   6.380   2.246
 4062SOL    HW113085   3.915   6.465   2.220
 4062SOL    HW213086   3.898   6.306   2.186
 4063SOL     OW13087   2.456   4.809   6.603
 4063SOL    HW113088   2.485   4.775   6.692
 4063SOL    HW213089   2.535   4.814   6.541
 4064SOL     OW13090   6.119   6.790   4.153
 4064SOL    HW113091   6.096   6.775   4.057
 4064SOL    HW213092   6.209   6.751   4.172
 4065SOL     OW13093   0.121   4.608   6.542
 4065SOL    HW113094   0.047   4.608   6.475
 4065SOL    HW213095   0.129   4.699   6.583
 4066SOL     OW13096   5.944   5.380   1.261
 4066SOL    HW113097   5.887   5.455   1.228
 4066SOL    HW213098   5.885   5.303   1.288
 4067SOL     OW13099   5.720   1.126   1.786
 4067SOL    HW113100   5.739   1.049   1.725
 4067SOL    HW213101   5.695   1.092   1.876
 4068SOL     OW13102   5.305   1.553   4.843
 4068SOL    HW113103   5.326   1.549   4.745
 4068SOL    HW213104   5.349   1.633   4.883
 4069SOL     OW13105   0.263   6.150   0.410
 4069SOL    HW113106   0.220   6.173   0.498
 4069SOL    HW213107   0.354   6.191   0.406
 4070SOL     OW13108   6.966   3.378   3.375
 4070SOL    HW113109   7.005   3.351   3.287
 4070SOL    HW213110   7.012   3.327   3.448
 4071SOL     OW13111   2.645   0.522   3.845
 4071SOL    HW113112   2.674   0.477   3.760
 4071SOL    HW213113   2.548   0.503   3.861
 4072SOL     OW13114   0.866   0.003   3.619
 4072SOL    HW113115   0.885   6.981   3.532
 4072SOL    HW213116   0.858   6.959   3.692
 4073SOL     OW13117   2.438   4.999   1.800
 4073SOL    HW113118   2.535   4.991   1.779
 4073SOL    HW213119   2.398   4.908   1.809
 4074SOL     OW13120   0.823   2.632   0.113
 4074SOL    HW113121   0.858   2.622   0.206
 4074SOL    HW213122   0.733   2.589   0.106
 4075SOL     OW13123   5.413   0.198   3.550
 4075SOL    HW113124   5.431   0.273   3.486
 4075SOL    HW213125   5.326   0.214   3.597
 4076SOL     OW13126   2.051   2.561   3.043
 4076SOL    HW113127   2.136   2.508   3.042
 4076SOL    HW213128   2.072   2.656   3.067
 4077SOL     OW13129   3.262   0.884   0.859
 4077SOL    HW113130   3.166   0.855   0.859
 4077SOL    HW213131   3.321   0.803   0.869
 4078SOL     OW13132   4.995   3.719   2.806
 4078SOL    HW113133   5.089   3.752   2.801
 4078SOL    HW213134   4.994   3.620   2.790
 4079SOL     OW13135   6.264   0.100   4.492
 4079SOL    HW113136   6.266   0.118   4.394
 4079SOL    HW213137   6.193   0.033   4.512
 4080SOL     OW13138   3.663   2.901   3.233
 4080SOL    HW113139   3.689   2.870   3.141
 4080SOL    HW213140   3.593   2.971   3.226
 4081SOL     OW13141   2.815   2.148   6.761
 4081SOL    HW113142   2.799   2.049   6.755
 4081SOL    HW213143   2.809   2.188   6.670
 4082SOL     OW13144   1.130   2.003   5.638
 4082SOL    HW113145   1.162   1.962   5.553
 4082SOL    HW213146   1.186   1.970   5.714
 4083SOL     OW13147   5.974   5.423   2.691
 4083SOL    HW113148   6.041   5.488   2.657
 4083SOL    HW213149   5.989   5.334   2.647
 4084SOL     OW13150   5.262   0.352   2.020
 4084SOL    HW113151   5.339   0.304   2.064
 4084SOL    HW213152   5.291   0.386   1.931
 4085SOL     OW13153   2.362   4.496   2.734
 4085SOL    HW113154   2.459   4.521   2.734
 4085SOL    HW213155   2.337   4.459   2.824
 4086SOL     OW13156   5.525   4.906   5.486
 4086SOL    HW113157   5.498   4.823   5.534
 4086SOL    HW213158   5.491   4.903   5.392
 4087SOL     OW13159   2.088   0.975   1.804
 4087SOL    HW113160   2.042   0.903   1.752
 4087SOL    HW213161   2.023   1.049   1.822
 4088SOL     OW13162   0.302   1.785   5.903
 4088SOL    HW113163   0.327   1.734   5.821
 4088SOL    HW213164   0.207   1.816   5.897
 4089SOL     OW13165   1.128   0.894   2.409
 4089SOL    HW113166   1.201   0.825   2.415
 4089SOL    HW213167   1.119   0.940   2.497
 4090SOL     OW13168   2.690   2.735   5.666
 4090SOL    HW113169   2.634   2.816   5.646
 4090SOL    HW213170   2.670   2.663   5.599
 4091SOL     OW13171   3.346   6.018   2.264
 4091SOL    HW113172   3.251   6.050   2.263
 4091SOL    HW213173   3.385   6.035   2.355
 4092SOL     OW13174   5.470   2.150   6.115
 4092SOL    HW113175   5.543   2.188   6.171
 4092SOL    HW213176   5.509   2.100   6.038
 4093SOL     OW13177   5.566   3.985   3.475
 4093SOL    HW113178   5.508   3.965   3.554
 4093SOL    HW213179   5.569   3.905   3.414
 4094SOL     OW13180   6.744   6.996   0.185
 4094SOL    HW113181   6.809   0.035   0.227
 4094SOL    HW213182   6.681   6.961   0.254
 4095SOL     OW13183   2.003   5.148   0.697
 4095SOL    HW113184   1.945   5.078   0.656
 4095SOL    HW213185   2.088   5.107   0.729
 4096SOL     OW13186   0.424   0.362   6.785
 4096SOL    HW113187   0.382   0.343   6.873
 4096SOL    HW213188   0.518   0.395   6.799
 4097SOL     OW13189   0.495   3.975   5.271
 4097SOL    HW113190   0.477   3.925   5.356
 4097SOL    HW213191   0.590   3.960   5.244
 4098SOL     OW13192   0.972   5.853   2.236
 4098SOL    HW113193   0.926   5.893   2.315
 4098SOL    HW213194   0.910   5.853   2.157
 4099SOL     OW13195   6.781   3.365   5.494
 4099SOL    HW113196   6.861   3.408   5.537
 4099SOL    HW213197   6.760   3.413   5.409
 4100SOL     OW13198   2.357   0.658   2.994
 4100SOL    HW113199   2.428   0.691   2.932
 4100SOL    HW213200   2.298   0.594   2.945
 4101SOL     OW13201   6.572   5.950   6.566
 4101SOL    HW113202   6.633   6.003   6.507
 4101SOL    HW213203   6.622   5.915   6.644
 4102SOL     OW13204   1.257   5.999   0.197
 4102SOL    HW113205   1.285   6.087   0.158
 4102SOL    HW213206   1.258   5.929   0.125
 4103SOL     OW13207   2.094   5.857   2.896
 4103SOL    HW113208   2.147   5.797   2.956
 4103SOL    HW213209   1.996   5.839   2.908
 4104SOL     OW13210   1.651   5.945   5.186
 4104SOL    HW113211   1.618   5.880   5.117
 4104SOL    HW213212   1.727   5.997   5.149
 4105SOL     OW13213   3.988   6.978   1.988
 4105SOL    HW113214   3.927   7.010   2.060
 4105SOL    HW213215   4.035   6.895   2.018
 4106SOL     OW13216   1.166   7.018   2.374
 4106SOL    HW113217   1.179   6.924   2.345
 4106SOL    HW213218   1.128   7.019   2.467
 4107SOL     OW13219   1.880   0.758   0.738
 4107SOL    HW113220   1.975   0.727   0.749
 4107SOL    HW213221   1.879   0.843   0.686
 4108SOL     OW13222   6.331   6.237   5.546
 4108SOL    HW113223   6.404   6.276   5.490
 4108SOL    HW213224   6.369   6.205   5.632
 4109SOL     OW13225   5.308   6.343   4.800
 4109SOL    HW113226   5.253   6.348   4.883
 4109SOL    HW213227   5.370   6.265   4.805
 4110SOL     OW13228   4.518   3.051   0.341
 4110SOL    HW113229   4.546   3.133   0.392
 4110SOL    HW213230   4.530   3.068   0.243
 4111SOL     OW13231   5.420   4.909   4.087
 4111SOL    HW113232   5.518   4.921   4.076
 4111SOL    HW213233   5.394   4.933   4.181
 4112SOL     OW13234   4.606   5.938   4.392
 4112SOL    HW113235   4.674   5.999   4.433
 4112SOL    HW213236   4.578   5.974   4.303
 4113SOL     OW13237   4.329   5.115   4.957
 4113SOL    HW113238   4.404   5.157   5.009
 4113SOL    HW213239   4.364   5.082   4.870
 4114SOL     OW13240   0.290   1.166   1.811
 4114SOL    HW113241   0.233   1.190   1.890
 4114SOL    HW213242   0.376   1.216   1.815
 4115SOL     OW13243   4.156   5.897   3.768
 4115SOL    HW113244   4.204   5.982   3.746
 4115SOL    HW213245   4.071   5.891   3.715
 4116SOL     OW13246   5.899   3.312   3.465
 4116SOL    HW113247   5.957   3.264   3.400
 4116SOL    HW213248   5.819   3.256   3.487
 4117SOL     OW13249   0.462   1.295   3.408
 4117SOL    HW113250   0.467   1.221   3.341
 4117SOL    HW213251   0.485   1.382   3.363
 4118SOL     OW13252   1.309   0.172   1.337
 4118SOL    HW113253   1.370   0.106   1.382
 4118SOL    HW213254   1.238   0.123   1.287
 4119SOL     OW13255   6.770   0.470   4.524
 4119SOL    HW113256   6.788   0.531   4.447
 4119SOL    HW213257   6.689   0.501   4.573
 4120SOL     OW13258   2.123   0.598   6.011
 4120SOL    HW113259   2.206   0.581   6.064
 4120SOL    HW213260   2.043   0.579   6.068
 4121SOL     OW13261   6.707   0.950   2.303
 4121SOL    HW113262   6.653   0.988   2.227
 4121SOL    HW213263   6.659   0.966   2.389
 4122SOL     OW13264   0.876   5.108   3.339
 4122SOL    HW113265   0.816   5.160   3.400
 4122SOL    HW213266   0.877   5.151   3.249
 4123SOL     OW13267   5.592   4.454   1.412
 4123SOL    HW113268   5.578   4.402   1.496
 4123SOL    HW213269   5.531   4.420   1.341
 4124SOL     OW13270   6.316   6.631   6.673
 4124SOL    HW113271   6.408   6.601   6.699
 4124SOL    HW213272   6.323   6.717   6.622
 4125SOL     OW13273   7.000   2.727   6.825
 4125SOL    HW113274   0.044   2.793   6.790
 4125SOL    HW213275   6.976   2.751   6.920
 4126SOL     OW13276   1.119   3.813   4.248
 4126SOL    HW113277   1.066   3.756   4.311
 4126SOL    HW213278   1.098   3.786   4.154
 4127SOL     OW13279   5.435   2.361   4.129
 4127SOL    HW113280   5.350   2.396   4.089
 4127SOL    HW213281   5.483   2.435   4.176
 4128SOL     OW13282   6.527   2.760   6.494
 4128SOL    HW113283   6.443   2.816   6.493
 4128SOL    HW213284   6.515   2.684   6.557
 4129SOL     OW13285   3.063   1.440   0.936
 4129SOL    HW113286   3.044   1.443   1.034
 4129SOL    HW213287   3.001   1.502   0.888
 4130SOL     OW13288   5.856   2.569   0.541
 4130SOL    HW113289   5.905   2.649   0.574
 4130SOL    HW213290   5.876   2.491   0.600
 4131SOL     OW13291   4.484   6.499   3.328
 4131SOL    HW113292   4.556   6.530   3.389
 4131SOL    HW213293   4.502   6.532   3.235
 4132SOL     OW13294   6.846   4.518   3.255
 4132SOL    HW113295   6.926   4.461   3.236
 4132SOL    HW213296   6.780   4.508   3.180
 4133SOL     OW13297   5.433   6.298   2.921
 4133SOL    HW113298   5.519   6.261   2.956
 4133SOL    HW213299   5.451   6.384   2.872
 4134SOL     OW13300   1.643   3.543   1.411
 4134SOL    HW113301   1.621   3.569   1.505
 4134SOL    HW213302   1.724   3.485   1.410
 4135SOL     OW13303   6.076   1.262   0.912
 4135SOL    HW113304   6.143   1.194   0.883
 4135SOL    HW213305   6.110   1.353   0.889
 4136SOL     OW13306   0.627   4.644   0.352
 4136SOL    HW113307   0.677   4.560   0.375
 4136SOL    HW213308   0.644   4.667   0.256
 4137SOL     OW13309   0.355   3.230   6.027
 4137SOL    HW113310   0.306   3.277   5.954
 4137SOL    HW213311   0.453   3.245   6.017
 4138SOL     OW13312   4.659   6.861   6.429
 4138SOL    HW113313   4.745   6.884   6.475
 4138SOL    HW213314   4.644   6.926   6.354
 4139SOL     OW13315   1.715   4.359   2.621
 4139SOL    HW113316   1.807   4.358   2.581
 4139SOL    HW213317   1.722   4.357   2.721
 4140SOL     OW13318   2.137   6.976   6.623
 4140SOL    HW113319   2.071   0.017   6.662
 4140SOL    HW213320   2.089   6.893   6.594
 4141SOL     OW13321   4.943   1.145   6.300
 4141SOL    HW113322   4.856   1.150   6.350
 4141SOL    HW213323   4.925   1.116   6.206
 4142SOL     OW13324   6.325   5.480   1.121
 4142SOL    HW113325   6.282   5.479   1.031
 4142SOL    HW213326   6.420   5.510   1.113
 4143SOL     OW13327   5.678   4.076   6.523
 4143SOL    HW113328   5.744   4.079   6.447
 4143SOL    HW213329   5.646   4.169   6.543
 4144SOL     OW13330   4.514   0.650   1.547
 4144SOL    HW113331   4.577   0.728   1.546
 4144SOL    HW213332   4.553   0.576   1.602
 4145SOL     OW13333   5.547   0.244   1.384
 4145SOL    HW113334   5.498   0.159   1.364
 4145SOL    HW213335   5.489   0.322   1.360
 4146SOL     OW13336   4.308   0.089   1.599
 4146SOL    HW113337   4.264   0.124   1.682
 4146SOL    HW213338   4.406   0.104   1.603
 4147SOL     OW13339   4.662   5.024   6.944
 4147SOL    HW113340   4.621   5.113   6.922
 4147SOL    HW213341   4.729   5.036   7.017
 4148SOL     OW13342   2.668   1.436   5.821
 4148SOL    HW113343   2.755   1.452   5.774
 4148SOL    HW213344   2.659   1.502   5.896
 4149SOL     OW13345   1.475   3.788   5.973
 4149SOL    HW113346   1.380   3.807   5.949
 4149SOL    HW213347   1.483   3.780   6.072
 4150SOL     OW13348   5.501   1.464   0.259
 4150SOL    HW113349   5.426   1.428   0.203
 4150SOL    HW213350   5.462   1.507   0.341
 4151SOL     OW13351   2.553   5.712   4.777
 4151SOL    HW113352   2.464   5.736   4.817
 4151SOL    HW213353   2.622   5.775   4.811
 4152SOL     OW13354   2.846   3.705   1.101
 4152SOL    HW113355   2.774   3.742   1.159
 4152SOL    HW213356   2.908   3.648   1.156
 4153SOL     OW13357   6.829   5.521   2.136
 4153SOL    HW113358   6.870   5.583   2.069
 4153SOL    HW213359   6.822   5.567   2.224
 4154SOL     OW13360   0.408   6.819   3.779
 4154SOL    HW113361   0.503   6.849   3.770
 4154SOL    HW213362   0.374   6.788   3.690
 4155SOL     OW13363   6.614   0.750   2.068
 4155SOL    HW113364   6.549   0.822   2.094
 4155SOL    HW213365   6.588   0.665   2.113
 4156SOL     OW13366   0.393   4.707   5.465
 4156SOL    HW113367   0.440   4.764   5.397
 4156SOL    HW213368   0.330   4.644   5.418
 4157SOL     OW13369   5.214   6.271   0.692
 4157SOL    HW113370   5.153   6.245   0.767
 4157SOL    HW213371   5.281   6.198   0.675
 4158SOL     OW13372   0.922   2.939   0.956
 4158SOL    HW113373   0.830   2.978   0.965
 4158SOL    HW213374   0.981   3.004   0.907
 4159SOL     OW13375   3.003   0.720   4.120
 4159SOL    HW113376   3.037   0.684   4.207
 4159SOL    HW213377   3.064   0.692   4.046
 4160SOL     OW13378   1.494   6.597   6.081
 4160SOL    HW113379   1.423   6.575   6.148
 4160SOL    HW213380   1.572   6.535   6.094
 4161SOL     OW13381   3.596   3.154   3.083
 4161SOL    HW113382   3.564   3.224   3.019
 4161SOL    HW213383   3.676   3.109   3.045
 4162SOL     OW13384   5.321   5.710   1.198
 4162SOL    HW113385   5.268   5.746   1.121
 4162SOL    HW213386   5.296   5.760   1.282
 4163SOL     OW13387   3.769   5.557   1.586
 4163SOL    HW113388   3.795   5.621   1.514
 4163SOL    HW213389   3.693   5.500   1.554
 4164SOL     OW13390   5.266   1.706   6.688
 4164SOL    HW113391   5.355   1.663   6.674
 4164SOL    HW213392   5.245   1.766   6.610
 4165SOL     OW13393   3.669   1.513   4.325
 4165SOL    HW113394   3.745   1.462   4.286
 4165SOL    HW213395   3.619   1.560   4.252
 4166SOL     OW13396   6.554   1.997   1.557
 4166SOL    HW113397   6.565   1.898   1.566
 4166SOL    HW213398   6.597   2.028   1.472
 4167SOL     OW13399   3.695   5.368   4.540
 4167SOL    HW113400   3.701   5.307   4.461
 4167SOL    HW213401   3.707   5.463   4.509
 4168SOL     OW13402   5.731   4.493   0.460
 4168SOL    HW113403   5.715   4.440   0.377
 4168SOL    HW213404   5.644   4.524   0.498
 4169SOL     OW13405   5.225   3.548   6.690
 4169SOL    HW113406   5.319   3.526   6.714
 4169SOL    HW213407   5.210   3.530   6.593
 4170SOL     OW13408   1.103   2.364   5.434
 4170SOL    HW113409   1.016   2.315   5.438
 4170SOL    HW213410   1.113   2.422   5.515
 4171SOL     OW13411   0.412   1.600   6.135
 4171SOL    HW113412   0.412   1.620   6.037
 4171SOL    HW213413   0.502   1.623   6.173
 4172SOL     OW13414   2.758   2.277   6.499
 4172SOL    HW113415   2.839   2.230   6.464
 4172SOL    HW213416   2.730   2.349   6.435
 4173SOL     OW13417   4.785   1.702   5.753
 4173SOL    HW113418   4.706   1.707   5.693
 4173SOL    HW213419   4.764   1.642   5.831
 4174SOL     OW13420   4.298   6.106   4.045
 4174SOL    HW113421   4.264   6.156   3.965
 4174SOL    HW213422   4.291   6.008   4.030
 4175SOL     OW13423   1.743   4.657   6.367
 4175SOL    HW113424   1.668   4.613   6.415
 4175SOL    HW213425   1.802   4.704   6.433
 4176SOL     OW13426   4.869   6.820   5.729
 4176SOL    HW113427   4.830   6.820   5.637
 4176SOL    HW213428   4.931   6.898   5.738
 4177SOL     OW13429   4.577   4.785   2.881
 4177SOL    HW113430   4.589   4.781   2.980
 4177SOL    HW213431   4.581   4.692   2.843
 4178SOL     OW13432   3.805   6.321   1.363
 4178SOL    HW113433   3.728   6.358   1.312
 4178SOL    HW213434   3.844   6.243   1.314
 4179SOL     OW13435   4.474   2.476   0.033
 4179SOL    HW113436   4.484   2.543   6.983
 4179SOL    HW213437   4.387   2.491   0.080
 4180SOL     OW13438   3.851   3.640   0.318
 4180SOL    HW113439   3.922   3.642   0.248
 4180SOL    HW213440   3.891   3.611   0.405
 4181SOL     OW13441   5.547   6.634   5.947
 4181SOL    HW113442   5.486   6.712   5.963
 4181SOL    HW213443   5.639   6.656   5.979
 4182SOL     OW13444   0.864   6.166   5.680
 4182SOL    HW113445   0.847   6.154   5.777
 4182SOL    HW213446   0.814   6.096   5.628
 4183SOL     OW13447   4.459   1.907   0.568
 4183SOL    HW113448   4.478   2.005   0.578
 4183SOL    HW213449   4.504   1.873   0.485
 4184SOL     OW13450   3.643   5.662   3.112
 4184SOL    HW113451   3.653   5.603   3.192
 4184SOL    HW213452   3.725   5.654   3.055
 4185SOL     OW13453   4.858   3.894   3.273
 4185SOL    HW113454   4.937   3.933   3.225
 4185SOL    HW213455   4.774   3.929   3.233
 4186SOL     OW13456   1.743   5.729   6.999
 4186SOL    HW113457   1.715   5.718   0.071
 4186SOL    HW213458   1.831   5.684   6.985
 4187SOL     OW13459   2.530   3.635   5.826
 4187SOL    HW113460   2.536   3.535   5.837
 4187SOL    HW213461   2.468   3.657   5.751
 4188SOL     OW13462   4.633   0.089   6.856
 4188SOL    HW113463   4.723   0.057   6.828
 4188SOL    HW213464   4.589   0.137   6.779
 4189SOL     OW13465   4.524   4.740   3.451
 4189SOL    HW113466   4.503   4.831   3.415
 4189SOL    HW213467   4.555   4.747   3.545
 4190SOL     OW13468   5.935   6.576   1.421
 4190SOL    HW113469   6.007   6.550   1.357
 4190SOL    HW213470   5.853   6.602   1.370
 4191SOL     OW13471   4.297   3.482   6.703
 4191SOL    HW113472   4.379   3.538   6.717
 4191SOL    HW213473   4.220   3.524   6.751
 4192SOL     OW13474   1.612   3.599   6.551
 4192SOL    HW113475   1.577   3.655   6.477
 4192SOL    HW213476   1.676   3.531   6.515
 4193SOL     OW13477   0.347   0.258   7.016
 4193SOL    HW113478   0.321   0.166   6.987
 4193SOL    HW213479   0.314   0.275   0.085
 4194SOL     OW13480   4.915   1.407   6.034
 4194SOL    HW113481   4.964   1.408   5.947
 4194SOL    HW213482   4.979   1.420   6.109
 4195SOL     OW13483   2.914   6.839   0.989
 4195SOL    HW113484   2.994   6.872   0.939
 4195SOL    HW213485   2.833   6.848   0.932
 4196SOL     OW13486   6.427   2.548   2.749
 4196SOL    HW113487   6.362   2.482   2.788
 4196SOL    HW213488   6.517   2.506   2.741
 4197SOL     OW13489   3.177   1.027   6.923
 4197SOL    HW113490   3.168   1.126   6.938
 4197SOL    HW213491   3.120   0.978   6.989
 4198SOL     OW13492   5.999   2.280   2.102
 4198SOL    HW113493   5.928   2.311   2.039
 4198SOL    HW213494   6.088   2.286   2.057
 4199SOL     OW13495   0.191   3.749   6.623
 4199SOL    HW113496   0.259   3.678   6.601
 4199SOL    HW213497   0.111   3.706   6.664
 4200SOL     OW13498   4.791   1.762   3.753
 4200SOL    HW113499   4.820   1.804   3.667
 4200SOL    HW213500   4.697   1.728   3.744
 4201SOL     OW13501   6.182   6.676   4.601
 4201SOL    HW113502   6.137   6.598   4.645
 4201SOL    HW213503   6.219   6.648   4.512
 4202SOL     OW13504   4.550   3.992   1.692
 4202SOL    HW113505   4.632   4.029   1.648
 4202SOL    HW213506   4.502   4.065   1.740
 4203SOL     OW13507   5.720   4.279   5.701
 4203SOL    HW113508   5.722   4.338   5.782
 4203SOL    HW213509   5.726   4.183   5.730
 4204SOL     OW13510   1.676   4.131   6.629
 4204SOL    HW113511   1.614   4.172   6.696
 4204SOL    HW213512   1.674   4.184   6.544
 4205SOL     OW13513   4.422   6.513   6.565
 4205SOL    HW113514   4.506   6.539   6.518
 4205SOL    HW213515   4.384   6.430   6.524
 4206SOL     OW13516   2.369   1.698   4.048
 4206SOL    HW113517   2.326   1.609   4.062
 4206SOL    HW213518   2.299   1.768   4.034
 4207SOL     OW13519   0.831   2.516   2.954
 4207SOL    HW113520   0.776   2.438   2.925
 4207SOL    HW213521   0.805   2.544   3.046
 4208SOL     OW13522   2.065   1.862   3.620
 4208SOL    HW113523   1.979   1.908   3.643
 4208SOL    HW213524   2.046   1.773   3.580
 4209SOL     OW13525   6.911   5.708   1.946
 4209SOL    HW113526   6.987   5.772   1.958
 4209SOL    HW213527   6.881   5.709   1.851
 4210SOL     OW13528   2.894   4.341   5.397
 4210SOL    HW113529   2.904   4.408   5.323
 4210SOL    HW213530   2.981   4.333   5.446
 4211SOL     OW13531   3.579   2.763   5.256
 4211SOL    HW113532   3.628   2.832   5.310
 4211SOL    HW213533   3.617   2.673   5.276
 4212SOL     OW13534   6.894   1.953   2.665
 4212SOL    HW113535   6.890   1.953   2.565
 4212SOL    HW213536   6.815   1.904   2.701
 4213SOL     OW13537   3.684   0.314   3.884
 4213SOL    HW113538   3.616   0.256   3.841
 4213SOL    HW213539   3.759   0.332   3.820
 4214SOL     OW13540   6.654   5.786   3.351
 4214SOL    HW113541   6.595   5.848   3.300
 4214SOL    HW213542   6.605   5.701   3.370
 4215SOL     OW13543   6.071   0.029   5.707
 4215SOL    HW113544   6.074   0.128   5.694
 4215SOL    HW213545   6.071   7.008   5.617
 4216SOL     OW13546   2.556   5.456   1.990
 4216SOL    HW113547   2.571   5.405   1.905
 4216SOL    HW213548   2.629   5.524   2.001
 4217SOL     OW13549   1.257   0.209   3.074
 4217SOL    HW113550   1.293   0.229   3.165
 4217SOL    HW213551   1.222   0.294   3.033
 4218SOL     OW13552   2.334   1.140   1.647
 4218SOL    HW113553   2.310   1.045   1.664
 4218SOL    HW213554   2.425   1.145   1.606
 4219SOL     OW13555   3.607   4.910   3.119
 4219SOL    HW113556   3.638   4.882   3.209
 4219SOL    HW213557   3.507   4.912   3.117
 4220SOL     OW13558   5.895   1.947   1.217
 4220SOL    HW113559   5.811   1.964   1.166
 4220SOL    HW213560   5.873   1.894   1.300
 4221SOL     OW13561   0.722   6.010   0.835
 4221SOL    HW113562   0.769   6.095   0.857
 4221SOL    HW213563   0.673   5.977   0.915
 4222SOL     OW13564   4.909   3.315   4.320
 4222SOL    HW113565   4.905   3.412   4.294
 4222SOL    HW213566   4.897   3.307   4.419
 4223SOL     OW13567   3.335   3.804   2.953
 4223SOL    HW113568   3.424   3.759   2.954
 4223SOL    HW213569   3.306   3.819   2.858
 4224SOL     OW13570   4.540   4.833   4.573
 4224SOL    HW113571   4.561   4.830   4.476
 4224SOL    HW213572   4.493   4.749   4.600
 4225SOL     OW13573   1.164   1.678   5.782
 4225SOL    HW113574   1.209   1.744   5.843
 4225SOL    HW213575   1.227   1.604   5.762
 4226SOL     OW13576   0.478   5.297   5.134
 4226SOL    HW113577   0.564   5.248   5.152
 4226SOL    HW213578   0.402   5.248   5.177
 4227SOL     OW13579   4.961   5.369   1.812
 4227SOL    HW113580   4.884   5.334   1.865
 4227SOL    HW213581   5.034   5.301   1.812
 4228SOL     OW13582   1.438   4.611   4.270
 4228SOL    HW113583   1.497   4.692   4.270
 4228SOL    HW213584   1.344   4.638   4.250
 4229SOL     OW13585   5.337   5.477   5.447
 4229SOL    HW113586   5.352   5.541   5.522
 4229SOL    HW213587   5.393   5.395   5.460
 4230SOL     OW13588   6.802   1.176   1.806
 4230SOL    HW113589   6.782   1.080   1.823
 4230SOL    HW213590   6.878   1.183   1.740
 4231SOL     OW13591   0.343   1.356   6.211
 4231SOL    HW113592   0.341   1.451   6.181
 4231SOL    HW213593   0.439   1.326   6.219
 4232SOL     OW13594   1.611   4.850   4.297
 4232SOL    HW113595   1.675   4.868   4.371
 4232SOL    HW213596   1.614   4.926   4.232
 4233SOL     OW13597   5.062   5.530   2.378
 4233SOL    HW113598   5.156   5.497   2.372
 4233SOL    HW213599   5.001   5.453   2.397
 4234SOL     OW13600   3.575   5.025   5.587
 4234SOL    HW113601   3.596   5.066   5.498
 4234SOL    HW213602   3.519   5.088   5.640
 4235SOL     OW13603   6.985   5.970   6.274
 4235SOL    HW113604   0.053   6.010   6.270
 4235SOL    HW213605   6.944   5.992   6.363
 4236SOL     OW13606   0.618   5.599   3.271
 4236SOL    HW113607   0.627   5.694   3.303
 4236SOL    HW213608   0.534   5.560   3.309
 4237SOL     OW13609   0.280   4.574   4.199
 4237SOL    HW113610   0.236   4.564   4.109
 4237SOL    HW213611   0.372   4.611   4.187
 4238SOL     OW13612   3.258   6.286   2.033
 4238SOL    HW113613   3.352   6.255   2.046
 4238SOL    HW213614   3.223   6.323   2.119
 4239SOL     OW13615   4.396   1.397   3.958
 4239SOL    HW113616   4.421   1.452   4.037
 4239SOL    HW213617   4.477   1.348   3.925
 4240SOL     OW13618   5.639   6.657   1.600
 4240SOL    HW113619   5.638   6.579   1.537
 4240SOL    HW213620   5.721   6.654   1.656
 4241SOL     OW13621   6.672   4.012   0.268
 4241SOL    HW113622   6.631   4.023   0.358
 4241SOL    HW213623   6.633   4.080   0.205
 4242SOL     OW13624   2.940   2.162   2.955
 4242SOL    HW113625   2.856   2.170   3.008
 4242SOL    HW213626   3.019   2.167   3.017
 4243SOL     OW13627   4.505   1.463   2.701
 4243SOL    HW113628   4.486   1.442   2.796
 4243SOL    HW213629   4.425   1.441   2.645
 4244SOL     OW13630   3.190   2.976   4.733
 4244SOL    HW113631   3.272   2.978   4.675
 4244SOL    HW213632   3.125   3.045   4.701
 4245SOL     OW13633   6.069   0.223   0.082
 4245SOL    HW113634   6.022   0.210   7.018
 4245SOL    HW213635   6.086   0.321   0.096
 4246SOL     OW13636   0.085   3.823   0.090
 4246SOL    HW113637   0.026   3.867   0.159
 4246SOL    HW213638   0.181   3.836   0.115
 4247SOL     OW13639   0.617   5.614   5.248
 4247SOL    HW113640   0.634   5.699   5.297
 4247SOL    HW213641   0.704   5.569   5.229
 4248SOL     OW13642   2.258   3.788   5.995
 4248SOL    HW113643   2.338   3.740   6.034
 4248SOL    HW213644   2.227   3.858   6.059
 4249SOL     OW13645   5.245   4.444   5.507
 4249SOL    HW113646   5.278   4.537   5.522
 4249SOL    HW213647   5.290   4.381   5.570
 4250SOL     OW13648   1.696   4.490   3.299
 4250SOL    HW113649   1.664   4.514   3.390
 4250SOL    HW213650   1.762   4.559   3.267
 4251SOL     OW13651   5.387   4.231   0.461
 4251SOL    HW113652   5.401   4.308   0.523
 4251SOL    HW213653   5.462   4.228   0.394
 4252SOL     OW13654   0.196   5.641   5.491
 4252SOL    HW113655   0.267   5.594   5.439
 4252SOL    HW213656   0.144   5.574   5.544
 4253SOL     OW13657   3.930   6.315   2.713
 4253SOL    HW113658   3.890   6.404   2.692
 4253SOL    HW213659   3.934   6.259   2.630
 4254SOL     OW13660   3.046   4.117   1.678
 4254SOL    HW113661   2.952   4.145   1.660
 4254SOL    HW213662   3.059   4.022   1.650
 4255SOL     OW13663   1.039   2.358   4.296
 4255SOL    HW113664   1.010   2.376   4.390
 4255SOL    HW213665   1.082   2.441   4.258
 4256SOL     OW13666   1.908   1.151   1.894
 4256SOL    HW113667   1.865   1.073   1.939
 4256SOL    HW213668   1.837   1.214   1.863
 4257SOL     OW13669   4.221   2.213   4.925
 4257SOL    HW113670   4.223   2.308   4.958
 4257SOL    HW213671   4.311   2.171   4.938
 4258SOL     OW13672   5.200   6.517   2.714
 4258SOL    HW113673   5.186   6.530   2.813
 4258SOL    HW213674   5.297   6.506   2.695
 4259SOL     OW13675   1.756   2.929   0.659
 4259SOL    HW113676   1.778   2.883   0.746
 4259SOL    HW213677   1.814   3.010   0.648
 4260SOL     OW13678   3.931   5.916   3.600
 4260SOL    HW113679   3.915   6.014   3.604
 4260SOL    HW213680   3.981   5.893   3.517
 4261SOL     OW13681   1.603   1.348   3.112
 4261SOL    HW113682   1.598   1.445   3.089
 4261SOL    HW213683   1.650   1.298   3.040
 4262SOL     OW13684   0.112   6.385   6.411
 4262SOL    HW113685   0.025   6.366   6.456
 4262SOL    HW213686   0.134   6.312   6.346
 4263SOL     OW13687   4.056   5.293   6.550
 4263SOL    HW113688   3.957   5.302   6.541
 4263SOL    HW213689   4.102   5.364   6.497
 4264SOL     OW13690   0.135   0.388   1.077
 4264SOL    HW113691   0.135   0.305   1.133
 4264SOL    HW213692   0.226   0.430   1.080
 4265SOL     OW13693   1.024   2.933   0.172
 4265SOL    HW113694   0.928   2.934   0.199
 4265SOL    HW213695   1.060   2.840   0.182
 4266SOL     OW13696   3.115   4.351   1.370
 4266SOL    HW113697   3.052   4.365   1.447
 4266SOL    HW213698   3.208   4.339   1.405
 4267SOL     OW13699   2.000   4.203   6.160
 4267SOL    HW113700   2.039   4.182   6.070
 4267SOL    HW213701   2.012   4.301   6.179
 4268SOL     OW13702   1.813   0.650   0.367
 4268SOL    HW113703   1.743   0.717   0.342
 4268SOL    HW213704   1.791   0.610   0.455
 4269SOL     OW13705   3.053   3.584   0.923
 4269SOL    HW113706   2.980   3.652   0.929
 4269SOL    HW213707   3.016   3.497   0.893
 4270SOL     OW13708   4.051   2.645   6.044
 4270SOL    HW113709   4.068   2.651   6.142
 4270SOL    HW213710   4.025   2.551   6.020
 4271SOL     OW13711   1.147   6.986   0.576
 4271SOL    HW113712   1.131   6.902   0.524
 4271SOL    HW213713   1.214   6.967   0.648
 4272SOL     OW13714   0.234   4.257   3.544
 4272SOL    HW113715   0.322   4.248   3.497
 4272SOL    HW213716   0.206   4.353   3.545
 4273SOL     OW13717   5.825   6.117   4.720
 4273SOL    HW113718   5.853   6.213   4.719
 4273SOL    HW213719   5.826   6.083   4.814
 4274SOL     OW13720   1.907   0.234   4.007
 4274SOL    HW113721   1.901   0.210   3.910
 4274SOL    HW213722   1.916   0.333   4.016
 4275SOL     OW13723   1.508   7.004   6.561
 4275SOL    HW113724   1.553   0.015   6.478
 4275SOL    HW213725   1.524   0.044   6.636
 4276SOL     OW13726   1.968   4.397   2.430
 4276SOL    HW113727   2.065   4.400   2.450
 4276SOL    HW213728   1.929   4.489   2.436
 4277SOL     OW13729   0.865   5.554   4.961
 4277SOL    HW113730   0.887   5.489   5.033
 4277SOL    HW213731   0.880   5.512   4.872
 4278SOL     OW13732   0.821   6.605   5.693
 4278SOL    HW113733   0.771   6.553   5.624
 4278SOL    HW213734   0.852   6.692   5.653
 4279SOL     OW13735   2.977   5.903   3.960
 4279SOL    HW113736   2.959   5.833   3.892
 4279SOL    HW213737   2.939   5.875   4.049
 4280SOL     OW13738   4.838   3.271   3.902
 4280SOL    HW113739   4.874   3.343   3.843
 4280SOL    HW213740   4.740   3.286   3.918
 4281SOL     OW13741   2.636   3.978   5.302
 4281SOL    HW113742   2.675   3.894   5.339
 4281SOL    HW213743   2.547   3.958   5.260
 4282SOL     OW13744   0.825   3.269   1.009
 4282SOL    HW113745   0.898   3.328   1.045
 4282SOL    HW213746   0.861   3.213   0.935
 4283SOL     OW13747   2.222   0.497   4.170
 4283SOL    HW113748   2.288   0.422   4.169
 4283SOL    HW213749   2.270   0.584   4.165
 4284SOL     OW13750   6.073   1.612   3.266
 4284SOL    HW113751   6.094   1.626   3.170
 4284SOL    HW213752   6.012   1.684   3.298
 4285SOL     OW13753   0.869   6.518   4.732
 4285SOL    HW113754   0.802   6.582   4.693
 4285SOL    HW213755   0.932   6.488   4.660
 4286SOL     OW13756   5.787   5.688   7.018
 4286SOL    HW113757   5.781   5.699   6.918
 4286SOL    HW213758   5.740   5.604   0.021
 4287SOL     OW13759   3.737   6.214   5.151
 4287SOL    HW113760   3.784   6.244   5.234
 4287SOL    HW213761   3.799   6.156   5.098
 4288SOL     OW13762   1.490   6.596   3.116
 4288SOL    HW113763   1.563   6.663   3.107
 4288SOL    HW213764   1.502   6.523   3.048
 4289SOL     OW13765   5.975   3.608   0.548
 4289SOL    HW113766   6.061   3.565   0.573
 4289SOL    HW213767   5.912   3.538   0.514
 4290SOL     OW13768   2.254   1.160   2.526
 4290SOL    HW113769   2.214   1.112   2.604
 4290SOL    HW213770   2.327   1.104   2.486
 4291SOL     OW13771   6.651   4.621   1.237
 4291SOL    HW113772   6.695   4.707   1.211
 4291SOL    HW213773   6.551   4.633   1.235
 4292SOL     OW13774   5.876   5.978   5.900
 4292SOL    HW113775   5.904   5.907   5.836
 4292SOL    HW213776   5.892   5.946   5.994
 4293SOL     OW13777   0.277   2.452   6.360
 4293SOL    HW113778   0.200   2.499   6.404
 4293SOL    HW213779   0.300   2.370   6.412
 4294SOL     OW13780   4.956   2.361   6.076
 4294SOL    HW113781   4.860   2.369   6.048
 4294SOL    HW213782   4.991   2.452   6.101
 4295SOL     OW13783   3.656   6.286   4.817
 4295SOL    HW113784   3.683   6.195   4.848
 4295SOL    HW213785   3.590   6.278   4.742
 4296SOL     OW13786   2.335   1.020   1.953
 4296SOL    HW113787   2.268   0.997   1.882
 4296SOL    HW213788   2.427   1.022   1.913
 4297SOL     OW13789   5.665   0.956   6.811
 4297SOL    HW113790   5.599   0.899   6.762
 4297SOL    HW213791   5.746   0.968   6.754
 4298SOL     OW13792   2.758   5.200   1.464
 4298SOL    HW113793   2.689   5.267   1.439
 4298SOL    HW213794   2.811   5.235   1.542
 4299SOL     OW13795   1.078   4.424   6.161
 4299SOL    HW113796   1.029   4.410   6.247
 4299SOL    HW213797   1.146   4.496   6.173
 4300SOL     OW13798   5.583   0.161   6.088
 4300SOL    HW113799   5.568   0.073   6.132
 4300SOL    HW213800   5.592   0.148   5.989
 4301SOL     OW13801   2.829   1.491   0.426
 4301SOL    HW113802   2.764   1.416   0.442
 4301SOL    HW213803   2.907   1.457   0.374
 4302SOL     OW13804   1.346   6.529   6.973
 4302SOL    HW113805   1.392   6.618   6.971
 4302SOL    HW213806   1.399   6.466   0.007
 4303SOL     OW13807   0.088   3.912   1.838
 4303SOL    HW113808   0.012   3.915   1.902
 4303SOL    HW213809   0.146   3.832   1.858
 4304SOL     OW13810   3.352   2.919   4.951
 4304SOL    HW113811   3.442   2.882   4.926
 4304SOL    HW213812   3.297   2.931   4.869
 4305SOL     OW13813   5.934   1.095   5.138
 4305SOL    HW113814   5.993   1.130   5.211
 4305SOL    HW213815   5.838   1.102   5.168
 4306SOL     OW13816   6.528   6.111   6.800
 4306SOL    HW113817   6.521   6.089   6.702
 4306SOL    HW213818   6.503   6.207   6.814
 4307SOL     OW13819   5.094   3.621   0.181
 4307SOL    HW113820   5.153   3.552   0.140
 4307SOL    HW213821   5.009   3.629   0.127
 4308SOL     OW13822   4.185   6.742   4.980
 4308SOL    HW113823   4.163   6.750   5.077
 4308SOL    HW213824   4.252   6.670   4.967
 4309SOL     OW13825   1.299   1.008   1.108
 4309SOL    HW113826   1.253   1.055   1.183
 4309SOL    HW213827   1.397   1.000   1.128
 4310SOL     OW13828   1.642   0.711   2.846
 4310SOL    HW113829   1.618   0.614   2.854
 4310SOL    HW213830   1.608   0.761   2.925
 4311SOL     OW13831   1.591   5.793   4.314
 4311SOL    HW113832   1.599   5.738   4.397
 4311SOL    HW213833   1.563   5.734   4.238
 4312SOL     OW13834   1.435   5.493   1.430
 4312SOL    HW113835   1.376   5.478   1.351
 4312SOL    HW213836   1.489   5.411   1.449
 4313SOL     OW13837   4.978   0.406   1.818
 4313SOL    HW113838   5.010   0.428   1.910
 4313SOL    HW213839   5.004   0.312   1.795
 4314SOL     OW13840   5.420   3.434   2.980
 4314SOL    HW113841   5.322   3.443   2.997
 4314SOL    HW213842   5.437   3.353   2.924
 4315SOL     OW13843   2.249   1.517   2.011
 4315SOL    HW113844   2.259   1.603   2.061
 4315SOL    HW213845   2.233   1.443   2.076
 4316SOL     OW13846   0.499   0.998   2.238
 4316SOL    HW113847   0.513   0.935   2.162
 4316SOL    HW213848   0.404   0.993   2.268
 4317SOL     OW13849   4.094   0.516   3.667
 4317SOL    HW113850   4.149   0.551   3.742
 4317SOL    HW213851   4.140   0.533   3.580
 4318SOL     OW13852   6.992   3.135   4.301
 4318SOL    HW113853   0.045   3.188   4.263
 4318SOL    HW213854   7.022   3.085   4.382
 4319SOL     OW13855   2.622   3.391   5.798
 4319SOL    HW113856   2.664   3.304   5.824
 4319SOL    HW213857   2.632   3.405   5.700
 4320SOL     OW13858   0.672   5.990   3.103
 4320SOL    HW113859   0.765   5.987   3.138
 4320SOL    HW213860   0.656   6.077   3.058
 4321SOL     OW13861   0.272   0.981   4.634
 4321SOL    HW113862   0.208   1.056   4.650
 4321SOL    HW213863   0.229   0.894   4.661
 4322SOL     OW13864   5.674   1.124   0.665
 4322SOL    HW113865   5.691   1.038   0.713
 4322SOL    HW213866   5.759   1.158   0.626
 4323SOL     OW13867   6.790   2.332   3.423
 4323SOL    HW113868   6.757   2.311   3.515
 4323SOL    HW213869   6.712   2.350   3.363
 4324SOL     OW13870   6.171   3.122   5.886
 4324SOL    HW113871   6.263   3.091   5.864
 4324SOL    HW213872   6.172   3.175   5.971
 4325SOL     OW13873   1.855   1.596   5.453
 4325SOL    HW113874   1.777   1.658   5.441
 4325SOL    HW213875   1.852   1.525   5.383
 4326SOL     OW13876   6.194   2.207   5.562
 4326SOL    HW113877   6.185   2.271   5.485
 4326SOL    HW213878   6.289   2.178   5.571
 4327SOL     OW13879   5.271   0.534   3.083
 4327SOL    HW113880   5.261   0.573   3.174
 4327SOL    HW213881   5.342   0.463   3.084
 4328SOL     OW13882   5.424   5.289   0.642
 4328SOL    HW113883   5.452   5.224   0.713
 4328SOL    HW213884   5.331   5.320   0.661
 4329SOL     OW13885   4.291   1.676   6.171
 4329SOL    HW113886   4.295   1.614   6.249
 4329SOL    HW213887   4.208   1.657   6.118
 4330SOL     OW13888   0.791   0.372   6.440
 4330SOL    HW113889   0.865   0.432   6.470
 4330SOL    HW213890   0.709   0.426   6.423
 4331SOL     OW13891   5.371   2.760   0.480
 4331SOL    HW113892   5.455   2.812   0.496
 4331SOL    HW213893   5.393   2.675   0.432
 4332SOL     OW13894   5.227   3.495   1.575
 4332SOL    HW113895   5.246   3.460   1.666
 4332SOL    HW213896   5.171   3.429   1.524
 4333SOL     OW13897   5.392   1.837   5.307
 4333SOL    HW113898   5.446   1.774   5.251
 4333SOL    HW213899   5.422   1.830   5.403
 4334SOL     OW13900   4.561   0.199   1.910
 4334SOL    HW113901   4.500   0.249   1.972
 4334SOL    HW213902   4.645   0.174   1.959
 4335SOL     OW13903   3.531   4.353   5.696
 4335SOL    HW113904   3.538   4.320   5.790
 4335SOL    HW213905   3.616   4.400   5.671
 4336SOL     OW13906   1.596   6.414   4.553
 4336SOL    HW113907   1.524   6.363   4.599
 4336SOL    HW213908   1.641   6.354   4.486
 4337SOL     OW13909   0.925   5.133   0.276
 4337SOL    HW113910   0.958   5.044   0.247
 4337SOL    HW213911   1.003   5.191   0.303
 4338SOL     OW13912   6.641   6.239   3.688
 4338SOL    HW113913   6.709   6.166   3.697
 4338SOL    HW213914   6.576   6.214   3.616
 4339SOL     OW13915   6.121   0.683   6.383
 4339SOL    HW113916   6.152   0.778   6.385
 4339SOL    HW213917   6.141   0.644   6.293
 4340SOL     OW13918   4.905   3.165   2.063
 4340SOL    HW113919   4.993   3.119   2.050
 4340SOL    HW213920   4.831   3.098   2.053
 4341SOL     OW13921   0.823   3.669   0.096
 4341SOL    HW113922   0.912   3.624   0.086
 4341SOL    HW213923   0.751   3.605   0.069
 4342SOL     OW13924   6.669   2.399   2.717
 4342SOL    HW113925   6.641   2.303   2.705
 4342SOL    HW213926   6.689   2.439   2.628
 4343SOL     OW13927   2.217   1.811   1.329
 4343SOL    HW113928   2.229   1.746   1.404
 4343SOL    HW213929   2.249   1.902   1.358
 4344SOL     OW13930   2.163   3.823   3.136
 4344SOL    HW113931   2.165   3.884   3.056
 4344SOL    HW213932   2.143   3.730   3.105
 4345SOL     OW13933   2.419   1.317   5.877
 4345SOL    HW113934   2.507   1.351   5.845
 4345SOL    HW213935   2.404   1.225   5.840
 4346SOL     OW13936   0.492   2.901   1.429
 4346SOL    HW113937   0.517   2.990   1.468
 4346SOL    HW213938   0.456   2.842   1.501
 4347SOL     OW13939   6.011   6.057   2.671
 4347SOL    HW113940   5.998   6.156   2.660
 4347SOL    HW213941   6.101   6.031   2.635
 4348SOL     OW13942   1.066   4.165   6.964
 4348SOL    HW113943   1.155   4.197   6.997
 4348SOL    HW213944   1.001   4.165   0.016
 4349SOL     OW13945   0.286   0.378   2.585
 4349SOL    HW113946   0.266   0.298   2.640
 4349SOL    HW213947   0.231   0.376   2.502
 4350SOL     OW13948   4.897   1.032   3.615
 4350SOL    HW113949   4.803   1.051   3.587
 4350SOL    HW213950   4.905   1.042   3.714
 4351SOL     OW13951   2.758   6.016   0.658
 4351SOL    HW113952   2.760   5.964   0.572
 4351SOL    HW213953   2.679   5.988   0.712
 4352SOL     OW13954   6.336   1.366   2.651
 4352SOL    HW113955   6.258   1.379   2.713
 4352SOL    HW213956   6.335   1.436   2.581
 4353SOL     OW13957   2.994   5.459   1.198
 4353SOL    HW113958   3.079   5.467   1.145
 4353SOL    HW213959   2.932   5.533   1.173
 4354SOL     OW13960   1.908   0.576   1.068
 4354SOL    HW113961   1.978   0.555   0.999
 4354SOL    HW213962   1.857   0.493   1.088
 4355SOL     OW13963   4.688   1.118   0.852
 4355SOL    HW113964   4.591   1.131   0.876
 4355SOL    HW213965   4.744   1.120   0.934
 4356SOL     OW13966   3.461   4.416   0.266
 4356SOL    HW113967   3.521   4.459   0.199
 4356SOL    HW213968   3.388   4.480   0.291
 4357SOL     OW13969   6.691   0.558   6.608
 4357SOL    HW113970   6.645   0.479   6.568
 4357SOL    HW213971   6.698   0.630   6.539
 4358SOL     OW13972   6.512   1.083   1.594
 4358SOL    HW113973   6.541   1.006   1.650
 4358SOL    HW213974   6.546   1.072   1.501
 4359SOL     OW13975   6.716   2.603   4.360
 4359SOL    HW113976   6.714   2.661   4.278
 4359SOL    HW213977   6.798   2.546   4.358
 4360SOL     OW13978   2.349   3.076   1.463
 4360SOL    HW113979   2.400   3.076   1.549
 4360SOL    HW213980   2.259   3.116   1.478
 4361SOL     OW13981   5.298   1.628   2.032
 4361SOL    HW113982   5.350   1.558   2.081
 4361SOL    HW213983   5.342   1.717   2.045
 4362SOL     OW13984   5.711   4.208   3.360
 4362SOL    HW113985   5.796   4.176   3.317
 4362SOL    HW213986   5.662   4.130   3.398
 4363SOL     OW13987   4.875   1.060   6.046
 4363SOL    HW113988   4.922   1.131   5.992
 4363SOL    HW213989   4.884   0.972   6.000
 4364SOL     OW13990   3.530   3.577   5.077
 4364SOL    HW113991   3.435   3.591   5.103
 4364SOL    HW213992   3.538   3.494   5.022
 4365SOL     OW13993   3.298   1.488   1.245
 4365SOL    HW113994   3.271   1.394   1.224
 4365SOL    HW213995   3.287   1.505   1.343
 4366SOL     OW13996   5.115   5.061   1.297
 4366SOL    HW113997   5.016   5.067   1.295
 4366SOL    HW213998   5.152   5.095   1.210
 4367SOL     OW13999   0.519   6.194   0.479
 4367SOL    HW114000   0.561   6.260   0.541
 4367SOL    HW214001   0.525   6.103   0.519
 4368SOL     OW14002   4.857   3.866   1.903
 4368SOL    HW114003   4.831   3.959   1.930
 4368SOL    HW214004   4.890   3.817   1.983
 4369SOL     OW14005   3.448   5.650   1.957
 4369SOL    HW114006   3.512   5.701   1.900
 4369SOL    HW214007   3.456   5.552   1.938
 4370SOL     OW14008   5.529   4.619   2.793
 4370SOL    HW114009   5.543   4.527   2.831
 4370SOL    HW214010   5.577   4.686   2.850
 4371SOL     OW14011   0.254   2.197   1.861
 4371SOL    HW114012   0.155   2.204   1.848
 4371SOL    HW214013   0.274   2.176   1.957
 4372SOL     OW14014   4.610   0.297   3.566
 4372SOL    HW114015   4.551   0.365   3.611
 4372SOL    HW214016   4.637   0.228   3.632
 4373SOL     OW14017   6.702   1.753   6.090
 4373SOL    HW114018   6.763   1.716   6.160
 4373SOL    HW214019   6.635   1.814   6.133
 4374SOL     OW14020   3.579   1.963   1.313
 4374SOL    HW114021   3.514   1.890   1.293
 4374SOL    HW214022   3.573   1.988   1.410
 4375SOL     OW14023   3.601   6.609   3.787
 4375SOL    HW114024   3.698   6.629   3.789
 4375SOL    HW214025   3.551   6.687   3.749
 4376SOL     OW14026   6.599   2.098   4.220
 4376SOL    HW114027   6.597   2.195   4.197
 4376SOL    HW214028   6.564   2.045   4.143
 4377SOL     OW14029   6.389   5.143   6.485
 4377SOL    HW114030   6.301   5.146   6.532
 4377SOL    HW214031   6.374   5.122   6.388
 4378SOL     OW14032   2.373   1.542   3.665
 4378SOL    HW114033   2.367   1.535   3.566
 4378SOL    HW214034   2.469   1.547   3.693
 4379SOL     OW14035   2.971   1.756   5.319
 4379SOL    HW114036   2.905   1.831   5.315
 4379SOL    HW214037   2.922   1.670   5.338
 4380SOL     OW14038   0.585   2.045   2.145
 4380SOL    HW114039   0.637   2.114   2.096
 4380SOL    HW214040   0.508   2.015   2.087
 4381SOL     OW14041   1.805   6.009   6.718
 4381SOL    HW114042   1.734   5.940   6.703
 4381SOL    HW214043   1.811   6.069   6.639
 4382SOL     OW14044   0.390   4.419   4.648
 4382SOL    HW114045   0.457   4.359   4.604
 4382SOL    HW214046   0.363   4.379   4.735
 4383SOL     OW14047   6.452   3.668   6.781
 4383SOL    HW114048   6.545   3.663   6.743
 4383SOL    HW214049   6.393   3.604   6.731
 4384SOL     OW14050   5.602   6.838   3.818
 4384SOL    HW114051   5.578   6.842   3.721
 4384SOL    HW214052   5.647   6.924   3.845
 4385SOL     OW14053   4.704   1.973   5.521
 4385SOL    HW114054   4.761   2.005   5.446
 4385SOL    HW214055   4.744   1.890   5.560
 4386SOL     OW14056   1.888   3.769   5.051
 4386SOL    HW114057   1.955   3.839   5.074
 4386SOL    HW214058   1.873   3.710   5.129
 4387SOL     OW14059   5.792   2.100   0.695
 4387SOL    HW114060   5.812   2.032   0.765
 4387SOL    HW214061   5.796   2.058   0.604
 4388SOL     OW14062   4.841   3.858   6.863
 4388SOL    HW114063   4.835   3.916   6.944
 4388SOL    HW214064   4.852   3.915   6.782
 4389SOL     OW14065   0.936   2.910   0.624
 4389SOL    HW114066   1.012   2.845   0.628
 4389SOL    HW214067   0.857   2.873   0.673
 4390SOL     OW14068   0.120   1.457   0.445
 4390SOL    HW114069   0.161   1.522   0.509
 4390SOL    HW214070   0.069   1.388   0.496
 4391SOL     OW14071   1.283   5.965   0.976
 4391SOL    HW114072   1.275   5.941   1.073
 4391SOL    HW214073   1.309   5.884   0.924
 4392SOL     OW14074   1.096   3.050   5.463
 4392SOL    HW114075   1.114   2.998   5.380
 4392SOL    HW214076   1.182   3.085   5.500
 4393SOL     OW14077   5.096   0.813   1.760
 4393SOL    HW114078   5.149   0.898   1.767
 4393SOL    HW214079   5.056   0.792   1.850
 4394SOL     OW14080   1.044   0.475   2.694
 4394SOL    HW114081   1.026   0.573   2.692
 4394SOL    HW214082   1.054   0.441   2.600
 4395SOL     OW14083   2.279   4.448   1.782
 4395SOL    HW114084   2.180   4.452   1.795
 4395SOL    HW214085   2.301   4.479   1.689
 4396SOL     OW14086   3.053   1.158   2.758
 4396SOL    HW114087   3.118   1.083   2.748
 4396SOL    HW214088   3.102   1.244   2.766
 4397SOL     OW14089   3.406   1.908   4.637
 4397SOL    HW114090   3.357   1.973   4.695
 4397SOL    HW214091   3.459   1.845   4.694
 4398SOL     OW14092   2.035   3.098   5.431
 4398SOL    HW114093   1.970   3.138   5.367
 4398SOL    HW214094   2.102   3.043   5.381
 4399SOL     OW14095   2.538   6.504   1.981
 4399SOL    HW114096   2.519   6.430   1.917
 4399SOL    HW214097   2.511   6.476   2.073
 4400SOL     OW14098   1.660   5.693   4.551
 4400SOL    HW114099   1.754   5.716   4.523
 4400SOL    HW214100   1.663   5.646   4.639
 4401SOL     OW14101   3.454   6.644   6.715
 4401SOL    HW114102   3.389   6.576   6.750
 4401SOL    HW214103   3.503   6.685   6.792
 4402SOL     OW14104   1.783   0.525   3.045
 4402SOL    HW114105   1.872   0.570   3.051
 4402SOL    HW214106   1.726   0.553   3.123
 4403SOL     OW14107   0.378   4.917   1.938
 4403SOL    HW114108   0.386   4.819   1.953
 4403SOL    HW214109   0.352   4.962   2.023
 4404SOL     OW14110   0.044   6.900   6.065
 4404SOL    HW114111   0.133   6.884   6.108
 4404SOL    HW214112   7.016   6.814   6.065
 4405SOL     OW14113   1.912   5.616   2.164
 4405SOL    HW114114   1.928   5.652   2.256
 4405SOL    HW214115   1.892   5.518   2.170
 4406SOL     OW14116   5.458   4.133   2.372
 4406SOL    HW114117   5.506   4.169   2.451
 4406SOL    HW214118   5.483   4.037   2.359
 4407SOL     OW14119   6.169   6.542   1.302
 4407SOL    HW114120   6.228   6.551   1.382
 4407SOL    HW214121   6.218   6.574   1.221
 4408SOL     OW14122   3.934   1.036   6.996
 4408SOL    HW114123   3.864   1.068   6.933
 4408SOL    HW214124   3.892   0.985   0.047
 4409SOL     OW14125   3.033   0.628   3.425
 4409SOL    HW114126   3.068   0.542   3.387
 4409SOL    HW214127   3.028   0.622   3.524
 4410SOL     OW14128   0.274   6.883   0.778
 4410SOL    HW114129   0.324   6.932   0.707
 4410SOL    HW214130   0.180   6.917   0.783
 4411SOL     OW14131   4.068   4.545   5.331
 4411SOL    HW114132   4.125   4.521   5.253
 4411SOL    HW214133   3.993   4.479   5.339
 4412SOL     OW14134   4.357   6.314   1.726
 4412SOL    HW114135   4.425   6.306   1.799
 4412SOL    HW214136   4.389   6.264   1.645
 4413SOL     OW14137   4.947   5.818   3.971
 4413SOL    HW114138   4.947   5.907   4.017
 4413SOL    HW214139   4.892   5.825   3.887
 4414SOL     OW14140   5.380   4.007   1.661
 4414SOL    HW114141   5.326   3.932   1.624
 4414SOL    HW214142   5.453   3.971   1.719
 4415SOL     OW14143   1.888   3.089   1.974
 4415SOL    HW114144   1.940   3.075   2.059
 4415SOL    HW214145   1.843   3.004   1.949
 4416SOL     OW14146   5.155   2.690   3.361
 4416SOL    HW114147   5.151   2.715   3.264
 4416SOL    HW214148   5.136   2.592   3.371
 4417SOL     OW14149   6.889   3.893   2.003
 4417SOL    HW114150   6.838   3.879   1.919
 4417SOL    HW214151   6.890   3.990   2.027
 4418SOL     OW14152   6.358   6.756   5.559
 4418SOL    HW114153   6.454   6.731   5.545
 4418SOL    HW214154   6.331   6.825   5.492
 4419SOL     OW14155   6.858   5.487   6.854
 4419SOL    HW114156   6.875   5.530   6.943
 4419SOL    HW214157   6.835   5.557   6.787
 4420SOL     OW14158   3.632   1.891   0.960
 4420SOL    HW114159   3.697   1.916   1.032
 4420SOL    HW214160   3.657   1.938   0.875
 4421SOL     OW14161   1.722   2.928   0.014
 4421SOL    HW114162   1.745   2.900   6.945
 4421SOL    HW214163   1.662   2.860   0.056
 4422SOL     OW14164   6.482   3.393   6.171
 4422SOL    HW114165   6.493   3.443   6.257
 4422SOL    HW214166   6.537   3.436   6.100
 4423SOL     OW14167   6.274   4.459   5.289
 4423SOL    HW114168   6.297   4.476   5.385
 4423SOL    HW214169   6.180   4.491   5.272
 4424SOL     OW14170   4.828   5.824   2.725
 4424SOL    HW114171   4.897   5.798   2.658
 4424SOL    HW214172   4.859   5.906   2.774
 4425SOL     OW14173   0.978   5.331   1.371
 4425SOL    HW114174   0.905   5.302   1.433
 4425SOL    HW214175   0.975   5.430   1.359
 4426SOL     OW14176   0.386   0.929   4.395
 4426SOL    HW114177   0.351   0.943   4.487
 4426SOL    HW214178   0.396   0.831   4.377
 4427SOL     OW14179   2.340   5.709   2.014
 4427SOL    HW114180   2.243   5.732   2.010
 4427SOL    HW214181   2.356   5.644   2.088
 4428SOL     OW14182   6.188   5.518   3.307
 4428SOL    HW114183   6.134   5.535   3.225
 4428SOL    HW214184   6.128   5.491   3.382
 4429SOL     OW14185   3.133   6.217   3.319
 4429SOL    HW114186   3.187   6.162   3.255
 4429SOL    HW214187   3.166   6.202   3.412
 4430SOL     OW14188   5.861   3.776   5.408
 4430SOL    HW114189   5.937   3.840   5.407
 4430SOL    HW214190   5.789   3.808   5.347
 4431SOL     OW14191   4.052   6.485   4.659
 4431SOL    HW114192   4.114   6.561   4.676
 4431SOL    HW214193   4.070   6.447   4.568
 4432SOL     OW14194   0.797   3.723   6.054
 4432SOL    HW114195   0.871   3.789   6.064
 4432SOL    HW214196   0.751   3.710   6.142
 4433SOL     OW14197   0.520   1.174   4.681
 4433SOL    HW114198   0.496   1.197   4.775
 4433SOL    HW214199   0.473   1.089   4.654
 4434SOL     OW14200   6.985   0.420   2.208
 4434SOL    HW114201   7.005   0.345   2.145
 4434SOL    HW214202   0.045   0.446   2.256
 4435SOL     OW14203   2.320   3.744   0.852
 4435SOL    HW114204   2.348   3.840   0.854
 4435SOL    HW214205   2.369   3.696   0.779
 4436SOL     OW14206   4.427   2.444   1.851
 4436SOL    HW114207   4.382   2.529   1.823
 4436SOL    HW214208   4.378   2.366   1.812
 4437SOL     OW14209   6.512   4.142   0.083
 4437SOL    HW114210   6.416   4.165   0.064
 4437SOL    HW214211   6.569   4.222   0.067
 4438SOL     OW14212   4.201   0.817   4.956
 4438SOL    HW114213   4.245   0.778   5.037
 4438SOL    HW214214   4.155   0.903   4.981
 4439SOL     OW14215   2.611   5.802   2.894
 4439SOL    HW114216   2.535   5.865   2.881
 4439SOL    HW214217   2.618   5.777   2.991
 4440SOL     OW14218   1.432   4.324   6.303
 4440SOL    HW114219   1.413   4.260   6.377
 4440SOL    HW214220   1.379   4.407   6.316
 4441SOL     OW14221   6.852   2.528   1.233
 4441SOL    HW114222   6.838   2.545   1.136
 4441SOL    HW214223   6.815   2.605   1.286
 4442SOL     OW14224   1.909   5.349   0.230
 4442SOL    HW114225   1.976   5.422   0.219
 4442SOL    HW214226   1.943   5.266   0.185
 4443SOL     OW14227   0.454   5.653   5.825
 4443SOL    HW114228   0.548   5.622   5.812
 4443SOL    HW214229   0.439   5.675   5.921
 4444SOL     OW14230   5.952   5.438   0.510
 4444SOL    HW114231   6.024   5.496   0.470
 4444SOL    HW214232   5.975   5.342   0.496
 4445SOL     OW14233   1.421   4.514   0.351
 4445SOL    HW114234   1.485   4.532   0.427
 4445SOL    HW214235   1.364   4.435   0.374
 4446SOL     OW14236   4.394   1.826   1.261
 4446SOL    HW114237   4.486   1.786   1.264
 4446SOL    HW214238   4.337   1.772   1.199
 4447SOL     OW14239   4.058   5.766   6.083
 4447SOL    HW114240   3.988   5.834   6.107
 4447SOL    HW214241   4.109   5.741   6.165
 4448SOL     OW14242   3.759   6.543   1.592
 4448SOL    HW114243   3.722   6.454   1.621
 4448SOL    HW214244   3.848   6.529   1.550
 4449SOL     OW14245   3.671   1.715   5.830
 4449SOL    HW114246   3.620   1.659   5.765
 4449SOL    HW214247   3.671   1.671   5.920
 4450SOL     OW14248   2.372   6.509   0.069
 4450SOL    HW114249   2.285   6.465   0.047
 4450SOL    HW214250   2.359   6.608   0.075
 4451SOL     OW14251   4.365   5.279   3.494
 4451SOL    HW114252   4.444   5.325   3.454
 4451SOL    HW214253   4.371   5.181   3.479
 4452SOL     OW14254   5.006   5.887   4.362
 4452SOL    HW114255   5.101   5.890   4.329
 4452SOL    HW214256   4.978   5.791   4.373
 4453SOL     OW14257   7.013   4.731   0.501
 4453SOL    HW114258   6.919   4.725   0.536
 4453SOL    HW214259   0.047   4.778   0.568
 4454SOL     OW14260   1.432   2.580   0.314
 4454SOL    HW114261   1.437   2.558   0.411
 4454SOL    HW214262   1.456   2.500   0.260
 4455SOL     OW14263   1.802   0.467   4.427
 4455SOL    HW114264   1.762   0.545   4.379
 4455SOL    HW214265   1.837   0.401   4.360
 4456SOL     OW14266   2.295   6.689   3.793
 4456SOL    HW114267   2.324   6.762   3.731
 4456SOL    HW214268   2.255   6.615   3.740
 4457SOL     OW14269   1.625   1.883   4.718
 4457SOL    HW114270   1.692   1.833   4.773
 4457SOL    HW214271   1.670   1.920   4.636
 4458SOL     OW14272   0.916   3.227   6.234
 4458SOL    HW114273   0.983   3.163   6.270
 4458SOL    HW214274   0.929   3.317   6.275
 4459SOL     OW14275   0.888   2.979   2.971
 4459SOL    HW114276   0.797   3.006   3.002
 4459SOL    HW214277   0.939   3.060   2.942
 4460SOL     OW14278   0.436   2.607   4.550
 4460SOL    HW114279   0.485   2.678   4.499
 4460SOL    HW214280   0.341   2.604   4.521
 4461SOL     OW14281   2.055   0.559   0.784
 4461SOL    HW114282   2.102   0.591   0.866
 4461SOL    HW214283   2.083   0.465   0.764
 4462SOL     OW14284   6.316   4.224   2.832
 4462SOL    HW114285   6.415   4.221   2.818
 4462SOL    HW214286   6.273   4.271   2.755
 4463SOL     OW14287   5.668   1.807   0.171
 4463SOL    HW114288   5.691   1.813   0.268
 4463SOL    HW214289   5.669   1.899   0.131
 4464SOL     OW14290   0.266   4.045   1.621
 4464SOL    HW114291   0.220   4.015   1.704
 4464SOL    HW214292   0.331   4.118   1.643
 4465SOL     OW14293   3.683   5.120   1.944
 4465SOL    HW114294   3.602   5.086   1.896
 4465SOL    HW214295   3.656   5.157   2.033
 4466SOL     OW14296   0.684   2.818   2.430
 4466SOL    HW114297   0.697   2.914   2.404
 4466SOL    HW214298   0.611   2.812   2.498
 4467SOL     OW14299   5.318   4.720   2.930
 4467SOL    HW114300   5.291   4.811   2.898
 4467SOL    HW214301   5.390   4.684   2.871
 4468SOL     OW14302   1.643   3.093   1.530
 4468SOL    HW114303   1.721   3.041   1.564
 4468SOL    HW214304   1.675   3.162   1.465
 4469SOL     OW14305   2.000   5.712   1.353
 4469SOL    HW114306   2.091   5.685   1.386
 4469SOL    HW214307   1.998   5.705   1.253
 4470SOL     OW14308   0.831   0.256   2.694
 4470SOL    HW114309   0.734   0.234   2.679
 4470SOL    HW214310   0.850   0.348   2.661
 4471SOL     OW14311   1.275   0.142   6.325
 4471SOL    HW114312   1.314   0.223   6.282
 4471SOL    HW214313   1.271   0.156   6.424
 4472SOL     OW14314   1.901   2.799   0.911
 4472SOL    HW114315   1.929   2.814   1.006
 4472SOL    HW214316   1.981   2.776   0.856
 4473SOL     OW14317   0.495   3.716   4.776
 4473SOL    HW114318   0.557   3.647   4.814
 4473SOL    HW214319   0.404   3.676   4.765
 4474SOL     OW14320   2.943   5.996   1.305
 4474SOL    HW114321   2.897   6.070   1.255
 4474SOL    HW214322   2.875   5.941   1.354
 4475SOL     OW14323   1.311   3.962   0.582
 4475SOL    HW114324   1.324   3.907   0.665
 4475SOL    HW214325   1.357   3.918   0.505
 4476SOL     OW14326   5.677   0.893   3.680
 4476SOL    HW114327   5.683   0.830   3.758
 4476SOL    HW214328   5.594   0.947   3.686
 4477SOL     OW14329   0.088   0.956   4.912
 4477SOL    HW114330   0.065   0.994   5.002
 4477SOL    HW214331   0.024   0.992   4.844
 4478SOL     OW14332   1.543   0.249   1.803
 4478SOL    HW114333   1.600   0.272   1.882
 4478SOL    HW214334   1.461   0.306   1.803
 4479SOL     OW14335   2.108   2.101   6.930
 4479SOL    HW114336   2.072   2.154   7.007
 4479SOL    HW214337   2.100   2.003   6.951
 4480SOL     OW14338   0.697   6.919   3.367
 4480SOL    HW114339   0.695   6.823   3.340
 4480SOL    HW214340   0.790   6.955   3.355
 4481SOL     OW14341   1.923   3.841   5.374
 4481SOL    HW114342   1.882   3.852   5.465
 4481SOL    HW214343   2.001   3.903   5.364
 4482SOL     OW14344   1.963   0.021   1.530
 4482SOL    HW114345   1.937   6.991   1.450
 4482SOL    HW214346   1.920   0.111   1.525
 4483SOL     OW14347   1.359   3.567   0.629
 4483SOL    HW114348   1.433   3.635   0.629
 4483SOL    HW214349   1.317   3.565   0.539
 4484SOL     OW14350   2.680   1.022   6.817
 4484SOL    HW114351   2.606   1.084   6.844
 4484SOL    HW214352   2.740   1.068   6.751
 4485SOL     OW14353   6.876   2.778   5.086
 4485SOL    HW114354   6.967   2.745   5.108
 4485SOL    HW214355   6.874   2.878   5.090
 4486SOL     OW14356   4.837   4.688   4.313
 4486SOL    HW114357   4.861   4.673   4.218
 4486SOL    HW214358   4.840   4.601   4.363
 4487SOL     OW14359   0.597   2.913   6.792
 4487SOL    HW114360   0.556   2.853   6.860
 4487SOL    HW214361   0.682   2.873   6.759
 4488SOL     OW14362   0.123   3.784   3.447
 4488SOL    HW114363   0.119   3.704   3.507
 4488SOL    HW214364   0.180   3.854   3.489
 4489SOL     OW14365   3.619   6.106   6.381
 4489SOL    HW114366   3.678   6.026   6.367
 4489SOL    HW214367   3.675   6.183   6.411
 4490SOL     OW14368   5.264   1.422   1.850
 4490SOL    HW114369   5.245   1.491   1.919
 4490SOL    HW214370   5.300   1.467   1.768
 4491SOL     OW14371   1.144   3.311   3.180
 4491SOL    HW114372   1.227   3.345   3.135
 4491SOL    HW214373   1.072   3.297   3.112
 4492SOL     OW14374   6.824   1.516   2.252
 4492SOL    HW114375   6.762   1.452   2.297
 4492SOL    HW214376   6.885   1.556   2.319
 4493SOL     OW14377   5.058   1.422   5.811
 4493SOL    HW114378   5.134   1.487   5.812
 4493SOL    HW214379   4.992   1.449   5.741
 4494SOL     OW14380   1.502   0.730   2.192
 4494SOL    HW114381   1.592   0.762   2.160
 4494SOL    HW214382   1.461   0.671   2.123
 4495SOL     OW14383   4.146   6.645   1.088
 4495SOL    HW114384   4.206   6.596   1.151
 4495SOL    HW214385   4.175   6.741   1.083
 4496SOL     OW14386   2.644   6.433   5.363
 4496SOL    HW114387   2.596   6.375   5.429
 4496SOL    HW214388   2.697   6.502   5.412
 4497SOL     OW14389   4.205   0.749   6.107
 4497SOL    HW114390   4.229   0.809   6.031
 4497SOL    HW214391   4.154   0.800   6.175
 4498SOL     OW14392   0.725   4.887   4.726
 4498SOL    HW114393   0.730   4.984   4.701
 4498SOL    HW214394   0.734   4.831   4.644
 4499SOL     OW14395   5.819   0.984   2.667
 4499SOL    HW114396   5.745   1.048   2.647
 4499SOL    HW214397   5.786   0.890   2.654
 4500SOL     OW14398   3.917   6.010   0.438
 4500SOL    HW114399   3.932   6.050   0.528
 4500SOL    HW214400   3.885   6.081   0.374
 4501SOL     OW14401   5.987   0.674   2.473
 4501SOL    HW114402   5.918   0.696   2.542
 4501SOL    HW214403   6.000   0.753   2.413
 4502SOL     OW14404   0.664   4.056   6.739
 4502SOL    HW114405   0.603   4.076   6.815
 4502SOL    HW214406   0.623   4.088   6.654
 4503SOL     OW14407   3.345   1.547   2.449
 4503SOL    HW114408   3.417   1.508   2.507
 4503SOL    HW214409   3.379   1.631   2.407
 4504SOL     OW14410   0.656   2.257   3.238
 4504SOL    HW114411   0.690   2.192   3.169
 4504SOL    HW214412   0.587   2.316   3.197
 4505SOL     OW14413   5.933   3.262   3.792
 4505SOL    HW114414   6.011   3.240   3.734
 4505SOL    HW214415   5.901   3.354   3.771
 4506SOL     OW14416   4.238   3.978   6.798
 4506SOL    HW114417   4.280   4.014   6.881
 4506SOL    HW214418   4.183   4.049   6.755
 4507SOL     OW14419   6.325   2.288   3.558
 4507SOL    HW114420   6.348   2.192   3.542
 4507SOL    HW214421   6.253   2.316   3.495
 4508SOL     OW14422   6.684   4.919   0.435
 4508SOL    HW114423   6.625   4.925   0.516
 4508SOL    HW214424   6.630   4.885   0.357
 4509SOL     OW14425   5.747   2.185   2.216
 4509SOL    HW114426   5.837   2.213   2.183
 4509SOL    HW214427   5.676   2.220   2.155
 4510SOL     OW14428   4.428   1.658   4.312
 4510SOL    HW114429   4.367   1.698   4.381
 4510SOL    HW214430   4.429   1.558   4.322
 4511SOL     OW14431   0.004   4.858   6.626
 4511SOL    HW114432   7.004   4.901   6.713
 4511SOL    HW214433   6.944   4.833   6.578
 4512SOL     OW14434   3.140   2.842   5.565
 4512SOL    HW114435   3.216   2.780   5.583
 4512SOL    HW214436   3.170   2.916   5.504
 4513SOL     OW14437   0.230   0.215   0.285
 4513SOL    HW114438   0.235   0.115   0.285
 4513SOL    HW214439   0.274   0.250   0.368
 4514SOL     OW14440   4.889   4.850   6.499
 4514SOL    HW114441   4.906   4.948   6.514
 4514SOL    HW214442   4.822   4.839   6.426
 4515SOL     OW14443   4.034   0.887   6.267
 4515SOL    HW114444   4.054   0.984   6.250
 4515SOL    HW214445   3.935   0.874   6.271
 4516SOL     OW14446   3.022   2.593   5.882
 4516SOL    HW114447   3.024   2.693   5.879
 4516SOL    HW214448   3.059   2.556   5.797
 4517SOL     OW14449   4.574   0.531   4.281
 4517SOL    HW114450   4.624   0.617   4.293
 4517SOL    HW214451   4.583   0.500   4.186
 4518SOL     OW14452   0.121   6.477   0.609
 4518SOL    HW114453   0.079   6.486   0.519
 4518SOL    HW214454   0.049   6.476   0.679
 4519SOL     OW14455   4.854   6.748   6.917
 4519SOL    HW114456   4.941   6.772   6.961
 4519SOL    HW214457   4.801   6.688   6.978
 4520SOL     OW14458   4.571   5.270   5.231
 4520SOL    HW114459   4.485   5.318   5.218
 4520SOL    HW214460   4.560   5.202   5.304
 4521SOL     OW14461   4.346   2.188   4.056
 4521SOL    HW114462   4.419   2.138   4.009
 4521SOL    HW214463   4.312   2.133   4.132
 4522SOL     OW14464   5.885   3.928   3.600
 4522SOL    HW114465   5.808   3.894   3.546
 4522SOL    HW214466   5.910   3.860   3.669
 4523SOL     OW14467   6.857   2.977   6.020
 4523SOL    HW114468   6.907   3.001   5.937
 4523SOL    HW214469   6.884   3.039   6.094
 4524SOL     OW14470   1.927   3.858   2.240
 4524SOL    HW114471   1.999   3.800   2.201
 4524SOL    HW214472   1.957   3.953   2.240
 4525SOL     OW14473   3.872   2.724   5.591
 4525SOL    HW114474   3.890   2.717   5.689
 4525SOL    HW214475   3.784   2.681   5.571
 4526SOL     OW14476   1.383   0.350   5.341
 4526SOL    HW114477   1.379   0.446   5.315
 4526SOL    HW214478   1.320   0.334   5.418
 4527SOL     OW14479   0.294   1.515   3.271
 4527SOL    HW114480   0.373   1.485   3.218
 4527SOL    HW214481   0.216   1.527   3.211
 4528SOL     OW14482   5.289   0.620   4.617
 4528SOL    HW114483   5.368   0.672   4.585
 4528SOL    HW214484   5.246   0.573   4.539
 4529SOL     OW14485   2.123   1.804   3.919
 4529SOL    HW114486   2.073   1.836   4.000
 4529SOL    HW214487   2.126   1.878   3.852
 4530SOL     OW14488   3.782   5.865   6.366
 4530SOL    HW114489   3.796   5.775   6.407
 4530SOL    HW214490   3.803   5.861   6.269
 4531SOL     OW14491   1.458   6.587   5.257
 4531SOL    HW114492   1.371   6.610   5.300
 4531SOL    HW214493   1.533   6.614   5.317
 4532SOL     OW14494   6.617   1.422   2.434
 4532SOL    HW114495   6.531   1.421   2.486
 4532SOL    HW214496   6.674   1.346   2.464
 4533SOL     OW14497   2.932   6.790   1.437
 4533SOL    HW114498   2.954   6.821   1.530
 4533SOL    HW214499   2.859   6.723   1.441
 4534SOL     OW14500   5.546   1.426   4.170
 4534SOL    HW114501   5.572   1.383   4.083
 4534SOL    HW214502   5.532   1.356   4.239
 4535SOL     OW14503   2.327   0.389   6.785
 4535SOL    HW114504   2.345   0.352   6.876
 4535SOL    HW214505   2.300   0.485   6.792
 4536SOL     OW14506   3.707   1.067   5.608
 4536SOL    HW114507   3.753   0.978   5.613
 4536SOL    HW214508   3.664   1.077   5.518
 4537SOL     OW14509   3.340   3.092   3.220
 4537SOL    HW114510   3.421   3.148   3.204
 4537SOL    HW214511   3.258   3.148   3.214
 4538SOL     OW14512   0.804   2.324   0.555
 4538SOL    HW114513   0.706   2.344   0.547
 4538SOL    HW214514   0.845   2.389   0.620
 4539SOL     OW14515   1.620   5.609   4.841
 4539SOL    HW114516   1.623   5.705   4.868
 4539SOL    HW214517   1.587   5.554   4.917
 4540SOL     OW14518   1.526   1.798   6.990
 4540SOL    HW114519   1.540   1.774   0.062
 4540SOL    HW214520   1.614   1.796   6.941
 4541SOL     OW14521   3.981   3.107   6.849
 4541SOL    HW114522   3.925   3.183   6.818
 4541SOL    HW214523   3.923   3.031   6.878
 4542SOL     OW14524   0.458   1.598   6.587
 4542SOL    HW114525   0.555   1.619   6.603
 4542SOL    HW214526   0.446   1.499   6.584
 4543SOL     OW14527   3.935   1.853   0.619
 4543SOL    HW114528   3.921   1.754   0.627
 4543SOL    HW214529   4.033   1.872   0.614
 4544SOL     OW14530   4.541   6.750   0.757
 4544SOL    HW114531   4.570   6.818   0.689
 4544SOL    HW214532   4.496   6.796   0.834
 4545SOL     OW14533   2.449   2.893   5.642
 4545SOL    HW114534   2.445   2.985   5.681
 4545SOL    HW214535   2.409   2.893   5.551
 4546SOL     OW14536   3.903   0.276   6.054
 4546SOL    HW114537   3.941   0.347   6.113
 4546SOL    HW214538   3.969   0.255   5.981
 4547SOL     OW14539   0.601   0.358   0.090
 4547SOL    HW114540   0.593   0.324   0.183
 4547SOL    HW214541   0.510   0.362   0.048
 4548SOL     OW14542   3.246   1.121   2.033
 4548SOL    HW114543   3.149   1.135   2.053
 4548SOL    HW214544   3.268   1.024   2.042
 4549SOL     OW14545   0.151   3.531   4.115
 4549SOL    HW114546   0.110   3.449   4.076
 4549SOL    HW214547   0.093   3.610   4.097
 4550SOL     OW14548   1.898   5.759   5.253
 4550SOL    HW114549   1.894   5.770   5.154
 4550SOL    HW214550   1.855   5.838   5.296
 4551SOL     OW14551   3.328   2.508   5.832
 4551SOL    HW114552   3.332   2.441   5.906
 4551SOL    HW214553   3.333   2.600   5.870
 4552SOL     OW14554   4.201   1.029   0.112
 4552SOL    HW114555   4.181   1.104   0.176
 4552SOL    HW214556   4.137   1.034   0.035
 4553SOL     OW14557   0.445   6.423   0.288
 4553SOL    HW114558   0.528   6.465   0.251
 4553SOL    HW214559   0.470   6.355   0.357
 4554SOL     OW14560   5.871   0.093   3.097
 4554SOL    HW114561   5.891   0.146   3.180
 4554SOL    HW214562   5.886   7.020   3.114
 4555SOL     OW14563   0.699   0.832   1.613
 4555SOL    HW114564   0.696   0.831   1.513
 4555SOL    HW214565   0.614   0.870   1.649
 4556SOL     OW14566   5.254   4.668   4.109
 4556SOL    HW114567   5.243   4.616   4.024
 4556SOL    HW214568   5.319   4.742   4.095
 4557SOL     OW14569   6.984   4.862   4.163
 4557SOL    HW114570   0.005   4.823   4.243
 4557SOL    HW214571   0.028   4.881   4.092
 4558SOL     OW14572   1.433   3.991   5.098
 4558SOL    HW114573   1.394   4.080   5.120
 4558SOL    HW214574   1.481   3.995   5.010
 4559SOL     OW14575   0.208   3.178   4.001
 4559SOL    HW114576   0.152   3.123   3.938
 4559SOL    HW214577   0.288   3.124   4.028
 4560SOL     OW14578   6.146   4.424   2.959
 4560SOL    HW114579   6.245   4.412   2.959
 4560SOL    HW214580   6.124   4.520   2.978
 4561SOL     OW14581   4.587   2.038   3.992
 4561SOL    HW114582   4.676   2.081   4.011
 4561SOL    HW214583   4.559   1.982   4.070
 4562SOL     OW14584   3.607   1.103   0.445
 4562SOL    HW114585   3.612   1.078   0.541
 4562SOL    HW214586   3.533   1.169   0.431
 4563SOL     OW14587   0.899   4.246   1.626
 4563SOL    HW114588   0.943   4.299   1.554
 4563SOL    HW214589   0.806   4.222   1.598
 4564SOL     OW14590   2.144   4.164   2.605
 4564SOL    HW114591   2.104   4.228   2.671
 4564SOL    HW214592   2.233   4.197   2.576
 4565SOL     OW14593   1.869   6.987   5.724
 4565SOL    HW114594   1.873   6.982   5.823
 4565SOL    HW214595   1.776   6.967   5.693
 4566SOL     OW14596   6.997   4.483   2.958
 4566SOL    HW114597   7.002   4.443   2.867
 4566SOL    HW214598   6.976   4.411   3.025
 4567SOL     OW14599   6.979   6.958   6.550
 4567SOL    HW114600   0.010   0.002   6.501
 4567SOL    HW214601   7.004   6.867   6.520
 4568SOL     OW14602   1.043   5.333   3.880
 4568SOL    HW114603   0.943   5.331   3.873
 4568SOL    HW214604   1.079   5.399   3.813
 4569SOL     OW14605   1.500   1.826   3.000
 4569SOL    HW114606   1.406   1.793   2.993
 4569SOL    HW214607   1.505   1.899   3.069
 4570SOL     OW14608   5.129   4.953   1.541
 4570SOL    HW114609   5.046   4.983   1.588
 4570SOL    HW214610   5.133   4.995   1.451
 4571SOL     OW14611   2.703   3.916   5.827
 4571SOL    HW114612   2.658   3.829   5.808
 4571SOL    HW214613   2.644   3.991   5.797
 4572SOL     OW14614   4.027   3.042   1.987
 4572SOL    HW114615   4.016   3.046   1.888
 4572SOL    HW214616   4.119   3.010   2.009
 4573SOL     OW14617   2.917   4.976   0.352
 4573SOL    HW114618   2.916   5.052   0.417
 4573SOL    HW214619   2.979   4.904   0.385
 4574SOL     OW14620   4.855   0.926   2.037
 4574SOL    HW114621   4.840   0.999   1.971
 4574SOL    HW214622   4.820   0.954   2.126
 4575SOL     OW14623   6.828   0.834   5.446
 4575SOL    HW114624   6.853   0.841   5.349
 4575SOL    HW214625   6.834   0.738   5.475
 4576SOL     OW14626   3.420   3.836   6.815
 4576SOL    HW114627   3.331   3.840   6.859
 4576SOL    HW214628   3.421   3.761   6.749
 4577SOL     OW14629   0.548   1.712   1.731
 4577SOL    HW114630   0.568   1.655   1.651
 4577SOL    HW214631   0.516   1.802   1.700
 4578SOL     OW14632   1.687   1.168   2.895
 4578SOL    HW114633   1.750   1.174   2.818
 4578SOL    HW214634   1.599   1.131   2.864
 4579SOL     OW14635   4.506   0.871   3.597
 4579SOL    HW114636   4.511   0.893   3.695
 4579SOL    HW214637   4.577   0.804   3.575
 4580SOL     OW14638   0.409   1.150   0.572
 4580SOL    HW114639   0.358   1.134   0.657
 4580SOL    HW214640   0.502   1.179   0.595
 4581SOL     OW14641   2.626   0.572   1.046
 4581SOL    HW114642   2.565   0.551   1.123
 4581SOL    HW214643   2.635   0.491   0.988
 4582SOL     OW14644   6.871   0.403   3.449
 4582SOL    HW114645   6.915   0.429   3.363
 4582SOL    HW214646   6.863   0.304   3.454
 4583SOL     OW14647   1.796   6.962   0.224
 4583SOL    HW114648   1.878   7.006   0.260
 4583SOL    HW214649   1.732   6.945   0.299
 4584SOL     OW14650   0.136   1.642   4.507
 4584SOL    HW114651   0.130   1.663   4.410
 4584SOL    HW214652   0.218   1.684   4.545
 4585SOL     OW14653   1.832   2.955   3.149
 4585SOL    HW114654   1.927   2.930   3.128
 4585SOL    HW214655   1.831   3.021   3.224
 4586SOL     OW14656   6.209   4.657   6.200
 4586SOL    HW114657   6.208   4.742   6.254
 4586SOL    HW214658   6.168   4.583   6.254
 4587SOL     OW14659   4.036   4.200   5.591
 4587SOL    HW114660   3.967   4.137   5.628
 4587SOL    HW214661   4.021   4.211   5.492
 4588SOL     OW14662   3.344   4.002   6.569
 4588SOL    HW114663   3.352   4.004   6.669
 4588SOL    HW214664   3.395   4.078   6.530
 4589SOL     OW14665   5.749   6.189   2.331
 4589SOL    HW114666   5.701   6.200   2.418
 4589SOL    HW214667   5.841   6.227   2.339
 4590SOL     OW14668   3.380   5.677   1.139
 4590SOL    HW114669   3.466   5.669   1.190
 4590SOL    HW214670   3.330   5.757   1.172
 4591SOL     OW14671   2.438   0.897   5.106
 4591SOL    HW114672   2.475   0.896   5.013
 4591SOL    HW214673   2.398   0.987   5.125
 4592SOL     OW14674   2.592   1.734   3.505
 4592SOL    HW114675   2.675   1.789   3.518
 4592SOL    HW214676   2.605   1.671   3.429
 4593SOL     OW14677   1.248   6.612   4.536
 4593SOL    HW114678   1.212   6.704   4.522
 4593SOL    HW214679   1.318   6.615   4.607
 4594SOL     OW14680   1.923   6.222   3.902
 4594SOL    HW114681   1.824   6.216   3.885
 4594SOL    HW214682   1.952   6.318   3.895
 4595SOL     OW14683   5.437   1.548   6.331
 4595SOL    HW114684   5.413   1.543   6.427
 4595SOL    HW214685   5.525   1.594   6.321
 4596SOL     OW14686   0.949   1.065   2.243
 4596SOL    HW114687   0.981   0.973   2.261
 4596SOL    HW214688   0.923   1.109   2.329
 4597SOL     OW14689   2.435   5.801   0.479
 4597SOL    HW114690   2.371   5.817   0.554
 4597SOL    HW214691   2.455   5.704   0.472
 4598SOL     OW14692   0.822   4.022   0.482
 4598SOL    HW114693   0.881   3.998   0.559
 4598SOL    HW214694   0.773   3.941   0.451
 4599SOL     OW14695   3.477   6.620   2.031
 4599SOL    HW114696   3.471   6.609   2.130
 4599SOL    HW214697   3.571   6.604   2.001
 4600SOL     OW14698   0.222   6.842   6.316
 4600SOL    HW114699   0.174   6.928   6.336
 4600SOL    HW214700   0.175   6.766   6.360
 4601SOL     OW14701   1.990   0.512   5.584
 4601SOL    HW114702   1.949   0.421   5.576
 4601SOL    HW214703   2.010   0.547   5.493
 4602SOL     OW14704   3.378   1.832   6.239
 4602SOL    HW114705   3.337   1.766   6.302
 4602SOL    HW214706   3.410   1.912   6.290
 4603SOL     OW14707   3.896   0.013   0.984
 4603SOL    HW114708   3.960   0.077   1.026
 4603SOL    HW214709   3.851   0.058   0.907
 4604SOL     OW14710   0.014   0.061   3.600
 4604SOL    HW114711   0.062   0.102   3.678
 4604SOL    HW214712   0.055   0.093   3.515
 4605SOL     OW14713   4.049   0.873   1.485
 4605SOL    HW114714   3.952   0.895   1.481
 4605SOL    HW214715   4.101   0.954   1.513
 4606SOL     OW14716   6.895   6.449   5.392
 4606SOL    HW114717   6.857   6.536   5.423
 4606SOL    HW214718   6.975   6.466   5.335
 4607SOL     OW14719   1.894   1.477   0.607
 4607SOL    HW114720   1.865   1.402   0.667
 4607SOL    HW214721   1.835   1.556   0.622
 4608SOL     OW14722   0.027   2.974   4.510
 4608SOL    HW114723   6.955   2.974   4.541
 4608SOL    HW214724   0.080   2.909   4.564
 4609SOL     OW14725   5.137   5.648   6.752
 4609SOL    HW114726   5.216   5.702   6.781
 4609SOL    HW214727   5.118   5.666   6.655
 4610SOL     OW14728   5.159   4.999   0.570
 4610SOL    HW114729   5.134   5.043   0.656
 4610SOL    HW214730   5.125   5.053   0.493
 4611SOL     OW14731   0.095   1.196   6.408
 4611SOL    HW114732   0.014   1.253   6.394
 4611SOL    HW214733   0.178   1.249   6.387
 4612SOL     OW14734   2.355   1.416   2.525
 4612SOL    HW114735   2.440   1.390   2.479
 4612SOL    HW214736   2.299   1.335   2.540
 4613SOL     OW14737   1.362   5.228   1.810
 4613SOL    HW114738   1.278   5.232   1.757
 4613SOL    HW214739   1.344   5.184   1.898
 4614SOL     OW14740   7.018   4.708   3.672
 4614SOL    HW114741   0.076   4.757   3.641
 4614SOL    HW214742   6.968   4.765   3.738
 4615SOL     OW14743   1.705   4.312   6.396
 4615SOL    HW114744   1.613   4.320   6.358
 4615SOL    HW214745   1.752   4.234   6.355
 4616SOL     OW14746   1.362   3.669   6.418
 4616SOL    HW114747   1.380   3.750   6.361
 4616SOL    HW214748   1.272   3.678   6.461
 4617SOL     OW14749   0.136   2.966   3.635
 4617SOL    HW114750   0.084   2.961   3.549
 4617SOL    HW214751   0.233   2.951   3.616
 4618SOL     OW14752   2.302   3.472   5.719
 4618SOL    HW114753   2.252   3.484   5.633
 4618SOL    HW214754   2.333   3.377   5.727
 4619SOL     OW14755   4.398   5.956   6.278
 4619SOL    HW114756   4.394   5.960   6.377
 4619SOL    HW214757   4.492   5.940   6.249
 4620SOL     OW14758   0.644   4.363   1.347
 4620SOL    HW114759   0.672   4.272   1.379
 4620SOL    HW214760   0.689   4.382   1.259
 4621SOL     OW14761   3.256   0.406   2.728
 4621SOL    HW114762   3.203   0.321   2.726
 4621SOL    HW214763   3.299   0.420   2.639
 4622SOL     OW14764   5.426   7.002   0.477
 4622SOL    HW114765   5.464   0.061   0.436
 4622SOL    HW214766   5.440   7.006   0.576
 4623SOL     OW14767   3.496   5.016   2.483
 4623SOL    HW114768   3.404   5.021   2.445
 4623SOL    HW214769   3.492   4.977   2.575
 4624SOL     OW14770   5.101   1.504   1.438
 4624SOL    HW114771   5.106   1.604   1.443
 4624SOL    HW214772   5.133   1.473   1.348
 4625SOL     OW14773   1.487   6.076   1.769
 4625SOL    HW114774   1.542   6.043   1.846
 4625SOL    HW214775   1.489   6.176   1.768
 4626SOL     OW14776   4.189   3.150   1.582
 4626SOL    HW114777   4.112   3.117   1.528
 4626SOL    HW214778   4.227   3.233   1.540
 4627SOL     OW14779   5.423   6.996   4.696
 4627SOL    HW114780   5.459   6.904   4.681
 4627SOL    HW214781   5.460   0.034   4.628
 4628SOL     OW14782   5.932   4.295   3.119
 4628SOL    HW114783   5.896   4.207   3.149
 4628SOL    HW214784   5.984   4.284   3.034
 4629SOL     OW14785   1.551   5.545   6.897
 4629SOL    HW114786   1.584   5.628   6.941
 4629SOL    HW214787   1.528   5.477   6.967
 4630SOL     OW14788   1.934   3.558   1.540
 4630SOL    HW114789   1.993   3.540   1.619
 4630SOL    HW214790   1.964   3.503   1.462
 4631SOL     OW14791   6.716   0.890   3.070
 4631SOL    HW114792   6.805   0.898   3.026
 4631SOL    HW214793   6.721   0.822   3.143
 4632SOL     OW14794   2.771   5.149   3.028
 4632SOL    HW114795   2.824   5.065   3.020
 4632SOL    HW214796   2.725   5.168   2.941
 4633SOL     OW14797   4.727   2.367   4.560
 4633SOL    HW114798   4.710   2.344   4.656
 4633SOL    HW214799   4.712   2.465   4.546
 4634SOL     OW14800   3.841   2.991   4.657
 4634SOL    HW114801   3.906   3.032   4.721
 4634SOL    HW214802   3.755   2.971   4.704
 4635SOL     OW14803   4.636   5.644   2.399
 4635SOL    HW114804   4.651   5.577   2.472
 4635SOL    HW214805   4.663   5.735   2.431
 4636SOL     OW14806   1.579   5.576   6.627
 4636SOL    HW114807   1.569   5.548   6.722
 4636SOL    HW214808   1.676   5.593   6.608
 4637SOL     OW14809   2.455   2.209   3.381
 4637SOL    HW114810   2.547   2.236   3.410
 4637SOL    HW214811   2.462   2.132   3.317
 4638SOL     OW14812   4.126   4.585   0.404
 4638SOL    HW114813   4.173   4.630   0.480
 4638SOL    HW214814   4.160   4.492   0.393
 4639SOL     OW14815   3.772   1.912   1.796
 4639SOL    HW114816   3.710   1.984   1.765
 4639SOL    HW214817   3.778   1.914   1.896
 4640SOL     OW14818   6.122   3.212   0.175
 4640SOL    HW114819   6.057   3.200   0.250
 4640SOL    HW214820   6.157   3.305   0.176
 4641SOL     OW14821   1.450   5.480   4.618
 4641SOL    HW114822   1.464   5.498   4.715
 4641SOL    HW214823   1.526   5.426   4.583
 4642SOL     OW14824   6.566   1.441   5.329
 4642SOL    HW114825   6.479   1.485   5.305
 4642SOL    HW214826   6.635   1.466   5.262
 4643SOL     OW14827   0.416   1.435   6.980
 4643SOL    HW114828   0.378   1.515   6.933
 4643SOL    HW214829   0.349   1.361   6.979
 4644SOL     OW14830   1.333   0.396   0.184
 4644SOL    HW114831   1.313   0.307   0.143
 4644SOL    HW214832   1.285   0.403   0.272
 4645SOL     OW14833   6.032   1.951   4.989
 4645SOL    HW114834   6.010   2.020   4.921
 4645SOL    HW214835   5.957   1.944   5.055
 4646SOL     OW14836   2.040   4.063   3.122
 4646SOL    HW114837   2.050   3.969   3.153
 4646SOL    HW214838   2.105   4.081   3.048
 4647SOL     OW14839   1.642   6.041   2.007
 4647SOL    HW114840   1.653   5.945   2.033
 4647SOL    HW214841   1.727   6.090   2.023
 4648SOL     OW14842   3.026   0.928   4.605
 4648SOL    HW114843   3.050   0.831   4.609
 4648SOL    HW214844   2.977   0.948   4.520
 4649SOL     OW14845   5.853   1.955   0.485
 4649SOL    HW114846   5.776   1.892   0.477
 4649SOL    HW214847   5.933   1.906   0.520
 4650SOL     OW14848   4.779   5.920   1.143
 4650SOL    HW114849   4.846   5.979   1.098
 4650SOL    HW214850   4.800   5.914   1.240
 4651SOL     OW14851   0.387   4.045   6.222
 4651SOL    HW114852   0.379   3.967   6.159
 4651SOL    HW214853   0.300   4.059   6.269
 4652SOL     OW14854   6.890   0.059   5.653
 4652SOL    HW114855   6.944   0.032   5.732
 4652SOL    HW214856   6.947   0.055   5.571
 4653SOL     OW14857   6.989   5.514   0.993
 4653SOL    HW114858   0.057   5.495   0.959
 4653SOL    HW214859   6.933   5.431   0.985
 4654SOL     OW14860   0.718   0.745   5.795
 4654SOL    HW114861   0.756   0.663   5.838
 4654SOL    HW214862   0.621   0.730   5.774
 4655SOL     OW14863   5.478   3.598   2.732
 4655SOL    HW114864   5.530   3.537   2.672
 4655SOL    HW214865   5.457   3.551   2.818
 4656SOL     OW14866   6.318   1.395   2.298
 4656SOL    HW114867   6.407   1.407   2.253
 4656SOL    HW214868   6.306   1.466   2.367
 4657SOL     OW14869   3.678   1.347   2.913
 4657SOL    HW114870   3.632   1.425   2.956
 4657SOL    HW214871   3.710   1.374   2.822
 4658SOL     OW14872   1.181   1.952   6.590
 4658SOL    HW114873   1.271   1.985   6.564
 4658SOL    HW214874   1.144   2.008   6.663
 4659SOL     OW14875   2.032   4.472   0.464
 4659SOL    HW114876   2.082   4.500   0.383
 4659SOL    HW214877   2.085   4.404   0.515
 4660SOL     OW14878   0.789   5.391   4.003
 4660SOL    HW114879   0.735   5.358   3.927
 4660SOL    HW214880   0.780   5.490   4.010
 4661SOL     OW14881   0.734   1.640   5.541
 4661SOL    HW114882   0.822   1.680   5.567
 4661SOL    HW214883   0.664   1.712   5.537
 4662SOL     OW14884   2.339   6.972   6.157
 4662SOL    HW114885   2.422   6.921   6.135
 4662SOL    HW214886   2.307   7.022   6.076
 4663SOL     OW14887   1.097   6.733   0.480
 4663SOL    HW114888   1.010   6.714   0.527
 4663SOL    HW214889   1.095   6.693   0.389
 4664SOL     OW14890   5.843   0.001   5.858
 4664SOL    HW114891   5.763   0.041   5.813
 4664SOL    HW214892   5.926   0.026   5.807
 4665SOL     OW14893   0.372   0.436   3.045
 4665SOL    HW114894   0.454   0.481   3.009
 4665SOL    HW214895   0.354   0.471   3.137
 4666SOL     OW14896   1.556   2.265   6.088
 4666SOL    HW114897   1.513   2.293   6.002
 4666SOL    HW214898   1.655   2.262   6.076
 4667SOL     OW14899   6.790   3.217   0.813
 4667SOL    HW114900   6.760   3.222   0.908
 4667SOL    HW214901   6.889   3.199   0.811
 4668SOL     OW14902   4.932   2.199   4.500
 4668SOL    HW114903   4.859   2.266   4.510
 4668SOL    HW214904   4.959   2.165   4.590
 4669SOL     OW14905   4.918   6.904   6.480
 4669SOL    HW114906   4.948   6.822   6.529
 4669SOL    HW214907   4.976   6.981   6.505
 4670SOL     OW14908   0.389   3.542   6.556
 4670SOL    HW114909   0.421   3.474   6.622
 4670SOL    HW214910   0.401   3.506   6.463
 4671SOL     OW14911   0.045   2.872   2.169
 4671SOL    HW114912   7.015   2.787   2.168
 4671SOL    HW214913   0.142   2.849   2.166
 4672SOL     OW14914   2.911   4.017   0.142
 4672SOL    HW114915   2.878   4.082   0.211
 4672SOL    HW214916   2.838   3.953   0.118
 4673SOL     OW14917   6.031   0.889   0.343
 4673SOL    HW114918   6.052   0.987   0.343
 4673SOL    HW214919   6.116   0.837   0.359
 4674SOL     OW14920   1.298   2.853   0.765
 4674SOL    HW114921   1.374   2.872   0.703
 4674SOL    HW214922   1.233   2.793   0.721
 4675SOL     OW14923   1.936   5.554   6.954
 4675SOL    HW114924   1.933   5.488   6.878
 4675SOL    HW214925   2.021   5.542   7.005
 4676SOL     OW14926   0.761   6.442   4.355
 4676SOL    HW114927   0.671   6.461   4.317
 4676SOL    HW214928   0.757   6.359   4.410
 4677SOL     OW14929   4.043   6.911   0.281
 4677SOL    HW114930   4.103   6.974   0.331
 4677SOL    HW214931   4.034   6.826   0.333
 4678SOL     OW14932   2.278   4.290   0.132
 4678SOL    HW114933   2.300   4.279   0.035
 4678SOL    HW214934   2.262   4.199   0.172
 4679SOL     OW14935   2.277   6.637   5.625
 4679SOL    HW114936   2.360   6.692   5.639
 4679SOL    HW214937   2.273   6.565   5.694
 4680SOL     OW14938   1.445   4.894   6.885
 4680SOL    HW114939   1.471   4.897   6.982
 4680SOL    HW214940   1.485   4.972   6.837
 4681SOL     OW14941   6.860   6.021   4.336
 4681SOL    HW114942   6.771   6.017   4.383
 4681SOL    HW214943   6.846   6.041   4.239
 4682SOL     OW14944   2.966   6.162   0.742
 4682SOL    HW114945   3.013   6.102   0.807
 4682SOL    HW214946   2.884   6.117   0.707
 4683SOL     OW14947   0.224   4.643   3.078
 4683SOL    HW114948   0.219   4.629   3.176
 4683SOL    HW214949   0.133   4.633   3.037
 4684SOL     OW14950   1.667   1.379   4.974
 4684SOL    HW114951   1.621   1.351   5.058
 4684SOL    HW214952   1.604   1.370   4.897
 4685SOL     OW14953   4.833   4.637   5.247
 4685SOL    HW114954   4.893   4.677   5.178
 4685SOL    HW214955   4.882   4.564   5.296
 4686SOL     OW14956   5.290   6.173   0.267
 4686SOL    HW114957   5.374   6.157   0.319
 4686SOL    HW214958   5.282   6.105   0.194
 4687SOL     OW14959   5.208   6.614   4.449
 4687SOL    HW114960   5.253   6.537   4.402
 4687SOL    HW214961   5.143   6.578   4.515
 4688SOL     OW14962   0.836   1.924   0.485
 4688SOL    HW114963   0.928   1.961   0.497
 4688SOL    HW214964   0.833   1.830   0.519
 4689SOL     OW14965   1.794   4.937   4.830
 4689SOL    HW114966   1.806   4.838   4.824
 4689SOL    HW214967   1.859   4.974   4.897
 4690SOL     OW14968   1.345   1.438   0.699
 4690SOL    HW114969   1.253   1.414   0.666
 4690SOL    HW214970   1.412   1.421   0.627
 4691SOL     OW14971   3.894   4.725   0.314
 4691SOL    HW114972   3.974   4.686   0.360
 4691SOL    HW214973   3.922   4.804   0.259
 4692SOL     OW14974   0.608   5.885   3.353
 4692SOL    HW114975   0.657   5.942   3.419
 4692SOL    HW214976   0.605   5.932   3.265
 4693SOL     OW14977   0.896   0.828   3.527
 4693SOL    HW114978   0.908   0.790   3.618
 4693SOL    HW214979   0.985   0.857   3.491
 4694SOL     OW14980   1.128   1.082   5.792
 4694SOL    HW114981   1.059   1.010   5.793
 4694SOL    HW214982   1.088   1.166   5.755
 4695SOL     OW14983   3.194   2.861   1.915
 4695SOL    HW114984   3.270   2.850   1.979
 4695SOL    HW214985   3.121   2.798   1.938
 4696SOL     OW14986   5.994   3.579   6.992
 4696SOL    HW114987   6.026   3.674   6.992
 4696SOL    HW214988   5.895   3.577   6.983
 4697SOL     OW14989   1.255   5.607   6.499
 4697SOL    HW114990   1.295   5.605   6.590
 4697SOL    HW214991   1.176   5.545   6.496
 4698SOL     OW14992   6.262   3.367   2.354
 4698SOL    HW114993   6.197   3.404   2.421
 4698SOL    HW214994   6.234   3.395   2.262
 4699SOL     OW14995   6.512   6.870   3.097
 4699SOL    HW114996   6.583   6.825   3.152
 4699SOL    HW214997   6.544   6.960   3.069
 4700SOL     OW14998   5.636   6.699   0.047
 4700SOL    HW114999   5.578   6.780   0.058
 4700SOL    HW215000   5.629   6.643   0.129
 4701SOL     OW15001   0.912   1.037   7.007
 4701SOL    HW115002   0.910   1.137   7.001
 4701SOL    HW215003   0.819   1.002   7.015
 4702SOL     OW15004   2.847   3.484   0.326
 4702SOL    HW115005   2.917   3.464   0.395
 4702SOL    HW215006   2.887   3.475   0.235
 4703SOL     OW15007   0.915   1.018   1.671
 4703SOL    HW115008   0.890   1.104   1.715
 4703SOL    HW215009   0.833   0.975   1.633
 4704SOL     OW15010   4.604   6.890   0.224
 4704SOL    HW115011   4.681   6.826   0.224
 4704SOL    HW215012   4.567   6.899   0.316
 4705SOL     OW15013   3.043   3.936   4.247
 4705SOL    HW115014   3.097   3.872   4.301
 4705SOL    HW215015   3.074   4.029   4.265
 4706SOL     OW15016   5.032   5.083   0.800
 4706SOL    HW115017   5.099   5.125   0.861
 4706SOL    HW215018   5.012   4.990   0.831
 4707SOL     OW15019   3.551   5.755   1.341
 4707SOL    HW115020   3.646   5.726   1.334
 4707SOL    HW215021   3.524   5.760   1.437
 4708SOL     OW15022   1.789   3.080   2.613
 4708SOL    HW115023   1.757   2.997   2.568
 4708SOL    HW215024   1.756   3.082   2.708
 4709SOL     OW15025   2.724   4.001   0.495
 4709SOL    HW115026   2.762   3.917   0.455
 4709SOL    HW215027   2.730   4.075   0.428
 4710SOL     OW15028   5.052   3.065   1.446
 4710SOL    HW115029   5.039   2.970   1.416
 4710SOL    HW215030   4.964   3.111   1.452
 4711SOL     OW15031   2.664   6.645   2.873
 4711SOL    HW115032   2.729   6.570   2.856
 4711SOL    HW215033   2.712   6.722   2.913
 4712SOL     OW15034   1.511   4.262   6.807
 4712SOL    HW115035   1.427   4.246   6.859
 4712SOL    HW215036   1.520   4.360   6.788
 4713SOL     OW15037   1.835   5.674   1.129
 4713SOL    HW115038   1.846   5.687   1.030
 4713SOL    HW215039   1.785   5.590   1.146
 4714SOL     OW15040   3.043   1.991   0.858
 4714SOL    HW115041   3.038   2.090   0.847
 4714SOL    HW215042   3.131   1.967   0.898
 4715SOL     OW15043   5.059   4.164   5.038
 4715SOL    HW115044   5.042   4.202   5.129
 4715SOL    HW215045   5.052   4.065   5.041
 4716SOL     OW15046   2.457   5.169   0.373
 4716SOL    HW115047   2.363   5.152   0.405
 4716SOL    HW215048   2.459   5.167   0.273
 4717SOL     OW15049   1.826   5.471   3.813
 4717SOL    HW115050   1.830   5.452   3.911
 4717SOL    HW215051   1.740   5.518   3.792
 4718SOL     OW15052   5.435   0.927   6.461
 4718SOL    HW115053   5.344   0.943   6.422
 4718SOL    HW215054   5.502   0.923   6.388
 4719SOL     OW15055   4.550   3.039   1.544
 4719SOL    HW115056   4.540   3.023   1.642
 4719SOL    HW215057   4.553   3.138   1.527
 4720SOL     OW15058   2.987   1.103   3.801
 4720SOL    HW115059   3.032   1.117   3.889
 4720SOL    HW215060   2.969   1.192   3.759
 4721SOL     OW15061   1.161   1.767   1.002
 4721SOL    HW115062   1.260   1.755   1.014
 4721SOL    HW215063   1.118   1.777   1.092
 4722SOL     OW15064   3.094   0.637   2.318
 4722SOL    HW115065   3.186   0.627   2.357
 4722SOL    HW215066   3.049   0.548   2.318
 4723SOL     OW15067   2.712   0.070   5.874
 4723SOL    HW115068   2.628   0.095   5.827
 4723SOL    HW215069   2.748   7.009   5.836
 4724SOL     OW15070   4.421   4.676   1.693
 4724SOL    HW115071   4.403   4.607   1.622
 4724SOL    HW215072   4.354   4.667   1.766
 4725SOL     OW15073   5.838   4.910   3.228
 4725SOL    HW115074   5.909   4.965   3.184
 4725SOL    HW215075   5.749   4.934   3.190
 4726SOL     OW15076   0.362   5.895   5.214
 4726SOL    HW115077   0.410   5.906   5.127
 4726SOL    HW215078   0.428   5.878   5.287
 4727SOL     OW15079   6.026   6.222   0.804
 4727SOL    HW115080   6.122   6.199   0.817
 4727SOL    HW215081   6.017   6.281   0.723
 4728SOL     OW15082   0.176   0.563   6.999
 4728SOL    HW115083   0.111   0.635   6.973
 4728SOL    HW215084   0.129   0.494   0.031
 4729SOL     OW15085   2.773   0.640   0.370
 4729SOL    HW115086   2.762   0.678   0.462
 4729SOL    HW215087   2.743   0.707   0.302
 4730SOL     OW15088   2.025   0.570   5.299
 4730SOL    HW115089   2.115   0.606   5.274
 4730SOL    HW215090   1.991   0.512   5.224
 4731SOL     OW15091   5.376   1.886   0.089
 4731SOL    HW115092   5.279   1.876   0.111
 4731SOL    HW215093   5.431   1.842   0.161
 4732SOL     OW15094   0.071   1.456   0.123
 4732SOL    HW115095   0.072   1.512   0.205
 4732SOL    HW215096   0.131   1.377   0.136
 4733SOL     OW15097   6.708   3.551   4.052
 4733SOL    HW115098   6.688   3.563   3.955
 4733SOL    HW215099   6.805   3.572   4.069
 4734SOL     OW15100   4.781   4.399   5.855
 4734SOL    HW115101   4.826   4.416   5.767
 4734SOL    HW215102   4.841   4.427   5.930
 4735SOL     OW15103   0.260   4.685   3.359
 4735SOL    HW115104   0.275   4.784   3.357
 4735SOL    HW215105   0.238   4.656   3.452
 4736SOL     OW15106   2.085   6.795   1.130
 4736SOL    HW115107   2.141   6.832   1.055
 4736SOL    HW215108   2.143   6.742   1.192
 4737SOL     OW15109   3.439   5.063   1.793
 4737SOL    HW115110   3.361   5.007   1.822
 4737SOL    HW215111   3.461   5.043   1.697
 4738SOL     OW15112   6.854   6.157   2.764
 4738SOL    HW115113   6.819   6.097   2.692
 4738SOL    HW215114   6.782   6.173   2.831
 4739SOL     OW15115   4.109   6.959   1.282
 4739SOL    HW115116   4.095   6.911   1.369
 4739SOL    HW215117   4.118   0.033   1.298
 4740SOL     OW15118   0.388   2.199   3.859
 4740SOL    HW115119   0.425   2.287   3.887
 4740SOL    HW215120   0.406   2.131   3.930
 4741SOL     OW15121   3.685   3.279   1.219
 4741SOL    HW115122   3.746   3.358   1.210
 4741SOL    HW215123   3.692   3.222   1.137
 4742SOL     OW15124   4.025   1.116   0.523
 4742SOL    HW115125   4.124   1.130   0.525
 4742SOL    HW215126   4.004   1.023   0.554
 4743SOL     OW15127   1.694   6.149   0.682
 4743SOL    HW115128   1.639   6.123   0.602
 4743SOL    HW215129   1.789   6.163   0.655
 4744SOL     OW15130   1.771   5.504   1.674
 4744SOL    HW115131   1.694   5.482   1.734
 4744SOL    HW215132   1.736   5.533   1.585
 4745SOL     OW15133   1.810   3.508   6.995
 4745SOL    HW115134   1.779   3.602   7.009
 4745SOL    HW215135   1.859   3.502   6.908
 4746SOL     OW15136   5.231   5.759   3.958
 4746SOL    HW115137   5.224   5.685   3.891
 4746SOL    HW215138   5.143   5.807   3.963
 4747SOL     OW15139   2.854   0.828   6.434
 4747SOL    HW115140   2.926   0.760   6.445
 4747SOL    HW215141   2.789   0.821   6.510
 4748SOL     OW15142   1.975   6.898   1.781
 4748SOL    HW115143   1.970   6.948   1.695
 4748SOL    HW215144   2.020   6.809   1.765
 4749SOL     OW15145   2.382   1.897   0.642
 4749SOL    HW115146   2.407   1.807   0.679
 4749SOL    HW215147   2.284   1.899   0.623
 4750SOL     OW15148   4.578   3.395   5.955
 4750SOL    HW115149   4.548   3.488   5.934
 4750SOL    HW215150   4.589   3.384   6.053
 4751SOL     OW15151   4.893   1.699   3.255
 4751SOL    HW115152   4.970   1.718   3.195
 4751SOL    HW215153   4.830   1.777   3.255
 4752SOL     OW15154   5.474   1.515   6.627
 4752SOL    HW115155   5.507   1.423   6.606
 4752SOL    HW215156   5.515   1.546   6.713
 4753SOL     OW15157   3.177   6.606   4.887
 4753SOL    HW115158   3.253   6.636   4.828
 4753SOL    HW215159   3.150   6.513   4.862
 4754SOL     OW15160   4.658   4.541   6.947
 4754SOL    HW115161   4.745   4.557   6.900
 4754SOL    HW215162   4.611   4.629   6.961
 4755SOL     OW15163   0.702   1.190   1.064
 4755SOL    HW115164   0.631   1.147   1.008
 4755SOL    HW215165   0.664   1.270   1.110
 4756SOL     OW15166   6.987   4.012   5.577
 4756SOL    HW115167   0.015   3.943   5.527
 4756SOL    HW215168   6.962   4.087   5.516
 4757SOL     OW15169   2.470   3.541   0.276
 4757SOL    HW115170   2.521   3.459   0.300
 4757SOL    HW215171   2.458   3.598   0.357
 4758SOL     OW15172   2.324   5.507   3.455
 4758SOL    HW115173   2.234   5.486   3.417
 4758SOL    HW215174   2.314   5.566   3.535
 4759SOL     OW15175   0.670   6.375   2.005
 4759SOL    HW115176   0.595   6.422   2.050
 4759SOL    HW215177   0.737   6.345   2.073
 4760SOL     OW15178   1.834   5.710   0.848
 4760SOL    HW115179   1.755   5.772   0.843
 4760SOL    HW215180   1.863   5.686   0.755
 4761SOL     OW15181   4.921   6.919   1.849
 4761SOL    HW115182   4.902   6.823   1.829
 4761SOL    HW215183   5.011   6.926   1.893
 4762SOL     OW15184   1.436   0.113   2.864
 4762SOL    HW115185   1.411   0.149   2.953
 4762SOL    HW215186   1.448   0.189   2.799
 4763SOL     OW15187   5.696   5.775   2.268
 4763SOL    HW115188   5.635   5.854   2.258
 4763SOL    HW215189   5.734   5.751   2.179
 4764SOL     OW15190   4.822   3.191   0.159
 4764SOL    HW115191   4.728   3.226   0.162
 4764SOL    HW215192   4.876   3.235   0.230
 4765SOL     OW15193   4.417   1.904   5.823
 4765SOL    HW115194   4.462   1.970   5.883
 4765SOL    HW215195   4.478   1.826   5.807
 4766SOL     OW15196   1.429   1.115   4.393
 4766SOL    HW115197   1.353   1.097   4.331
 4766SOL    HW215198   1.469   1.028   4.424
 4767SOL     OW15199   2.053   4.673   3.713
 4767SOL    HW115200   2.067   4.758   3.662
 4767SOL    HW215201   1.956   4.651   3.716
 4768SOL     OW15202   4.836   2.089   6.306
 4768SOL    HW115203   4.794   2.050   6.224
 4768SOL    HW215204   4.784   2.169   6.337
 4769SOL     OW15205   1.405   3.391   0.828
 4769SOL    HW115206   1.377   3.456   0.758
 4769SOL    HW215207   1.440   3.308   0.784
 4770SOL     OW15208   6.943   1.400   3.439
 4770SOL    HW115209   6.851   1.381   3.474
 4770SOL    HW215210   6.996   1.450   3.508
 4771SOL     OW15211   1.944   0.226   3.625
 4771SOL    HW115212   1.920   0.320   3.646
 4771SOL    HW215213   1.861   0.172   3.614
 4772SOL     OW15214   2.411   5.363   3.127
 4772SOL    HW115215   2.342   5.295   3.150
 4772SOL    HW215216   2.483   5.362   3.197
 4773SOL     OW15217   3.004   5.136   4.625
 4773SOL    HW115218   3.062   5.216   4.610
 4773SOL    HW215219   3.051   5.054   4.594
 4774SOL     OW15220   0.970   4.116   0.863
 4774SOL    HW115221   1.051   4.158   0.903
 4774SOL    HW215222   0.995   4.069   0.778
 4775SOL     OW15223   5.949   5.327   5.091
 4775SOL    HW115224   6.048   5.324   5.090
 4775SOL    HW215225   5.915   5.295   5.180
 4776SOL     OW15226   0.292   1.676   4.890
 4776SOL    HW115227   0.339   1.765   4.884
 4776SOL    HW215228   0.229   1.676   4.968
 4777SOL     OW15229   1.539   6.721   3.524
 4777SOL    HW115230   1.552   6.782   3.446
 4777SOL    HW215231   1.493   6.770   3.598
 4778SOL     OW15232   1.647   0.768   6.854
 4778SOL    HW115233   1.604   0.828   6.787
 4778SOL    HW215234   1.604   0.678   6.851
 4779SOL     OW15235   5.077   0.800   4.761
 4779SOL    HW115236   5.118   0.891   4.752
 4779SOL    HW215237   5.145   0.730   4.737
 4780SOL     OW15238   4.856   3.024   4.446
 4780SOL    HW115239   4.866   3.121   4.470
 4780SOL    HW215240   4.892   2.968   4.520
 4781SOL     OW15241   1.066   4.976   1.765
 4781SOL    HW115242   0.984   5.032   1.779
 4781SOL    HW215243   1.092   4.933   1.851
 4782SOL     OW15244   0.035   6.544   4.215
 4782SOL    HW115245   0.075   6.633   4.191
 4782SOL    HW215246   0.070   6.474   4.154
 4783SOL     OW15247   6.999   3.719   6.329
 4783SOL    HW115248   6.937   3.770   6.389
 4783SOL    HW215249   0.067   3.717   6.369
 4784SOL     OW15250   5.309   3.412   0.115
 4784SOL    HW115251   5.330   3.377   0.024
 4784SOL    HW215252   5.234   3.360   0.156
 4785SOL     OW15253   0.577   0.256   3.821
 4785SOL    HW115254   0.676   0.262   3.815
 4785SOL    HW215255   0.535   0.333   3.773
 4786SOL     OW15256   0.774   5.895   6.969
 4786SOL    HW115257   0.775   5.845   0.032
 4786SOL    HW215258   0.699   5.861   6.913
 4787SOL     OW15259   4.702   1.192   4.701
 4787SOL    HW115260   4.685   1.093   4.694
 4787SOL    HW215261   4.771   1.209   4.771
 4788SOL     OW15262   0.143   6.018   0.642
 4788SOL    HW115263   0.167   5.921   0.631
 4788SOL    HW215264   0.045   6.030   0.622
 4789SOL     OW15265   6.277   1.024   2.888
 4789SOL    HW115266   6.221   0.954   2.843
 4789SOL    HW215267   6.276   1.010   2.987
 4790SOL     OW15268   0.076   2.007   4.377
 4790SOL    HW115269   0.053   2.103   4.363
 4790SOL    HW215270   0.123   1.971   4.296
 4791SOL     OW15271   0.696   0.481   6.858
 4791SOL    HW115272   0.782   0.450   6.817
 4791SOL    HW215273   0.682   0.434   6.945
 4792SOL     OW15274   1.704   3.799   2.118
 4792SOL    HW115275   1.662   3.872   2.064
 4792SOL    HW215276   1.792   3.831   2.154
 4793SOL     OW15277   1.385   4.176   5.516
 4793SOL    HW115278   1.389   4.177   5.616
 4793SOL    HW215279   1.379   4.269   5.482
 4794SOL     OW15280   4.982   2.005   5.384
 4794SOL    HW115281   4.951   1.992   5.290
 4794SOL    HW215282   5.045   2.084   5.387
 4795SOL     OW15283   6.784   1.413   6.315
 4795SOL    HW115284   6.847   1.409   6.392
 4795SOL    HW215285   6.717   1.486   6.330
 4796SOL     OW15286   4.676   1.407   5.227
 4796SOL    HW115287   4.646   1.325   5.275
 4796SOL    HW215288   4.621   1.419   5.144
 4797SOL     OW15289   2.384   4.958   6.343
 4797SOL    HW115290   2.473   4.928   6.308
 4797SOL    HW215291   2.356   4.899   6.418
 4798SOL     OW15292   3.198   5.928   0.569
 4798SOL    HW115293   3.217   5.890   0.479
 4798SOL    HW215294   3.281   5.927   0.624
 4799SOL     OW15295   4.220   2.760   0.390
 4799SOL    HW115296   4.128   2.799   0.392
 4799SOL    HW215297   4.217   2.666   0.424
 4800SOL     OW15298   0.985   4.760   0.189
 4800SOL    HW115299   0.991   4.694   0.263
 4800SOL    HW215300   0.893   4.798   0.184
 4801SOL     OW15301   5.333   2.038   3.299
 4801SOL    HW115302   5.234   2.043   3.308
 4801SOL    HW215303   5.367   1.958   3.348
 4802SOL     OW15304   6.963   0.316   4.660
 4802SOL    HW115305   6.881   0.364   4.628
 4802SOL    HW215306   6.971   0.327   4.759
 4803SOL     OW15307   4.870   4.188   5.655
 4803SOL    HW115308   4.782   4.162   5.695
 4803SOL    HW215309   4.936   4.203   5.728
 4804SOL     OW15310   5.284   2.154   0.822
 4804SOL    HW115311   5.242   2.089   0.759
 4804SOL    HW215312   5.350   2.211   0.773
 4805SOL     OW15313   5.918   1.469   0.144
 4805SOL    HW115314   5.851   1.448   0.216
 4805SOL    HW215315   5.917   1.397   0.075
 4806SOL     OW15316   1.240   1.597   2.910
 4806SOL    HW115317   1.297   1.523   2.875
 4806SOL    HW215318   1.252   1.678   2.852
 4807SOL     OW15319   6.574   4.166   6.251
 4807SOL    HW115320   6.527   4.131   6.332
 4807SOL    HW215321   6.520   4.145   6.169
 4808SOL     OW15322   3.789   5.743   2.512
 4808SOL    HW115323   3.776   5.816   2.580
 4808SOL    HW215324   3.700   5.714   2.478
 4809SOL     OW15325   3.104   3.843   1.651
 4809SOL    HW115326   3.190   3.797   1.673
 4809SOL    HW215327   3.046   3.846   1.733
 4810SOL     OW15328   1.696   5.095   4.206
 4810SOL    HW115329   1.657   5.123   4.118
 4810SOL    HW215330   1.658   5.152   4.279
 4811SOL     OW15331   3.618   3.271   4.434
 4811SOL    HW115332   3.585   3.181   4.409
 4811SOL    HW215333   3.718   3.270   4.441
 4812SOL     OW15334   1.589   6.342   2.946
 4812SOL    HW115335   1.651   6.332   3.024
 4812SOL    HW215336   1.630   6.404   2.879
 4813SOL     OW15337   0.796   2.594   4.890
 4813SOL    HW115338   0.815   2.496   4.881
 4813SOL    HW215339   0.702   2.607   4.920
 4814SOL     OW15340   6.517   3.130   0.937
 4814SOL    HW115341   6.474   3.101   0.851
 4814SOL    HW215342   6.512   3.230   0.944
 4815SOL     OW15343   6.232   4.555   2.114
 4815SOL    HW115344   6.171   4.628   2.085
 4815SOL    HW215345   6.293   4.589   2.186
 4816SOL     OW15346   2.935   0.401   2.582
 4816SOL    HW115347   2.957   0.313   2.623
 4816SOL    HW215348   2.993   0.415   2.501
 4817SOL     OW15349   4.367   2.244   1.397
 4817SOL    HW115350   4.421   2.279   1.320
 4817SOL    HW215351   4.285   2.300   1.408
 4818SOL     OW15352   4.327   6.894   4.238
 4818SOL    HW115353   4.281   6.805   4.237
 4818SOL    HW215354   4.258   6.966   4.248
 4819SOL     OW15355   2.943   1.011   0.467
 4819SOL    HW115356   2.990   0.927   0.439
 4819SOL    HW215357   2.860   1.023   0.411
 4820SOL     OW15358   6.511   4.143   1.616
 4820SOL    HW115359   6.461   4.136   1.530
 4820SOL    HW215360   6.608   4.127   1.599
 4821SOL     OW15361   0.038   5.601   1.480
 4821SOL    HW115362   0.092   5.685   1.478
 4821SOL    HW215363   0.087   5.529   1.431
 4822SOL     OW15364   0.985   3.968   1.741
 4822SOL    HW115365   1.039   3.921   1.673
 4822SOL    HW215366   0.955   4.057   1.705
 4823SOL     OW15367   0.552   1.630   3.533
 4823SOL    HW115368   0.536   1.643   3.631
 4823SOL    HW215369   0.576   1.718   3.492
 4824SOL     OW15370   6.013   2.352   2.347
 4824SOL    HW115371   5.923   2.375   2.383
 4824SOL    HW215372   6.004   2.305   2.260
 4825SOL     OW15373   0.812   3.239   4.099
 4825SOL    HW115374   0.881   3.246   4.028
 4825SOL    HW215375   0.795   3.142   4.120
 4826SOL     OW15376   0.049   6.728   0.026
 4826SOL    HW115377   0.050   6.804   6.986
 4826SOL    HW215378   0.135   6.677   0.020
 4827SOL     OW15379   4.997   1.701   0.016
 4827SOL    HW115380   5.010   1.608   7.006
 4827SOL    HW215381   4.933   1.750   6.980
 4828SOL     OW15382   5.102   3.805   6.691
 4828SOL    HW115383   5.012   3.803   6.647
 4828SOL    HW215384   5.140   3.712   6.691
 4829SOL     OW15385   3.957   0.307   5.116
 4829SOL    HW115386   4.018   0.351   5.182
 4829SOL    HW215387   3.964   0.354   5.028
 4830SOL     OW15388   4.718   5.738   5.219
 4830SOL    HW115389   4.787   5.713   5.150
 4830SOL    HW215390   4.660   5.810   5.182
 4831SOL     OW15391   5.870   3.251   6.589
 4831SOL    HW115392   5.896   3.219   6.680
 4831SOL    HW215393   5.893   3.348   6.580
 4832SOL     OW15394   1.810   2.307   6.024
 4832SOL    HW115395   1.796   2.401   6.055
 4832SOL    HW215396   1.873   2.307   5.947
 4833SOL     OW15397   5.969   1.352   3.612
 4833SOL    HW115398   6.041   1.348   3.544
 4833SOL    HW215399   5.928   1.262   3.624
 4834SOL     OW15400   5.858   0.646   3.072
 4834SOL    HW115401   5.890   0.593   2.993
 4834SOL    HW215402   5.867   0.590   3.155
 4835SOL     OW15403   1.612   1.092   5.842
 4835SOL    HW115404   1.598   1.145   5.758
 4835SOL    HW215405   1.658   1.150   5.910
 4836SOL     OW15406   5.758   3.000   2.433
 4836SOL    HW115407   5.675   3.000   2.377
 4836SOL    HW215408   5.838   3.008   2.373
 4837SOL     OW15409   0.694   4.095   0.826
 4837SOL    HW115410   0.634   4.176   0.830
 4837SOL    HW215411   0.789   4.124   0.825
 4838SOL     OW15412   2.953   5.133   2.322
 4838SOL    HW115413   3.001   5.130   2.235
 4838SOL    HW215414   2.961   5.224   2.363
 4839SOL     OW15415   0.770   0.157   6.630
 4839SOL    HW115416   0.806   0.240   6.586
 4839SOL    HW215417   0.685   0.130   6.585
 4840SOL     OW15418   6.290   6.537   6.165
 4840SOL    HW115419   6.336   6.469   6.107
 4840SOL    HW215420   6.306   6.628   6.128
 4841SOL     OW15421   2.018   5.419   1.603
 4841SOL    HW115422   2.080   5.416   1.681
 4841SOL    HW215423   1.932   5.461   1.631
 4842SOL     OW15424   3.393   6.450   1.174
 4842SOL    HW115425   3.376   6.500   1.259
 4842SOL    HW215426   3.478   6.483   1.132
 4843SOL     OW15427   1.359   3.089   6.715
 4843SOL    HW115428   1.436   3.062   6.656
 4843SOL    HW215429   1.295   3.013   6.722
 4844SOL     OW15430   0.402   1.748   5.386
 4844SOL    HW115431   0.400   1.662   5.335
 4844SOL    HW215432   0.491   1.792   5.375
 4845SOL     OW15433   5.924   5.620   3.712
 4845SOL    HW115434   5.991   5.622   3.786
 4845SOL    HW215435   5.912   5.713   3.675
 4846SOL     OW15436   0.228   5.082   0.012
 4846SOL    HW115437   0.229   5.100   0.110
 4846SOL    HW215438   0.155   5.137   6.993
 4847SOL     OW15439   4.900   2.965   4.886
 4847SOL    HW115440   4.995   2.966   4.918
 4847SOL    HW215441   4.849   2.895   4.935
 4848SOL     OW15442   2.449   2.270   1.816
 4848SOL    HW115443   2.524   2.304   1.873
 4848SOL    HW215444   2.468   2.293   1.720
 4849SOL     OW15445   1.669   6.312   5.789
 4849SOL    HW115446   1.676   6.411   5.778
 4849SOL    HW215447   1.572   6.285   5.790
 4850SOL     OW15448   3.867   6.801   3.306
 4850SOL    HW115449   3.935   6.872   3.287
 4850SOL    HW215450   3.816   6.825   3.389
 4851SOL     OW15451   4.848   1.148   4.996
 4851SOL    HW115452   4.854   1.106   5.086
 4851SOL    HW215453   4.896   1.236   4.996
 4852SOL     OW15454   1.661   1.896   1.765
 4852SOL    HW115455   1.711   1.887   1.851
 4852SOL    HW215456   1.604   1.978   1.768
 4853SOL     OW15457   3.492   1.914   1.604
 4853SOL    HW115458   3.516   1.989   1.666
 4853SOL    HW215459   3.564   1.845   1.605
 4854SOL     OW15460   3.393   0.184   6.692
 4854SOL    HW115461   3.404   0.154   6.787
 4854SOL    HW215462   3.298   0.172   6.664
 4855SOL     OW15463   6.612   2.934   2.646
 4855SOL    HW115464   6.666   2.908   2.566
 4855SOL    HW215465   6.570   3.024   2.630
 4856SOL     OW15466   1.441   4.352   2.729
 4856SOL    HW115467   1.414   4.311   2.817
 4856SOL    HW215468   1.540   4.349   2.720
 4857SOL     OW15469   0.097   1.397   5.861
 4857SOL    HW115470   0.076   1.434   5.951
 4857SOL    HW215471   0.186   1.432   5.831
 4858SOL     OW15472   1.685   0.599   4.020
 4858SOL    HW115473   1.681   0.647   4.108
 4858SOL    HW215474   1.655   0.661   3.947
 4859SOL     OW15475   3.577   5.430   6.238
 4859SOL    HW115476   3.622   5.344   6.214
 4859SOL    HW215477   3.524   5.418   6.323
 4860SOL     OW15478   3.941   4.258   0.962
 4860SOL    HW115479   3.843   4.243   0.957
 4860SOL    HW215480   3.979   4.262   0.869
 4861SOL     OW15481   4.544   3.967   6.542
 4861SOL    HW115482   4.558   4.064   6.563
 4861SOL    HW215483   4.534   3.916   6.627
 4862SOL     OW15484   0.402   6.557   1.045
 4862SOL    HW115485   0.305   6.576   1.031
 4862SOL    HW215486   0.429   6.478   0.989
 4863SOL     OW15487   4.905   4.502   6.776
 4863SOL    HW115488   4.967   4.513   6.854
 4863SOL    HW215489   4.887   4.405   6.762
 4864SOL     OW15490   3.284   1.381   4.085
 4864SOL    HW115491   3.253   1.422   4.000
 4864SOL    HW215492   3.239   1.293   4.098
 4865SOL     OW15493   1.604   0.210   5.274
 4865SOL    HW115494   1.517   0.259   5.278
 4865SOL    HW215495   1.626   0.188   5.179
 4866SOL     OW15496   6.560   4.121   6.584
 4866SOL    HW115497   6.612   4.087   6.663
 4866SOL    HW215498   6.473   4.072   6.578
 4867SOL     OW15499   4.832   0.907   2.842
 4867SOL    HW115500   4.896   0.866   2.907
 4867SOL    HW215501   4.781   0.834   2.795
 4868SOL     OW15502   6.799   4.407   0.357
 4868SOL    HW115503   6.854   4.433   0.436
 4868SOL    HW215504   6.733   4.337   0.384
 4869SOL     OW15505   0.647   1.413   0.890
 4869SOL    HW115506   0.575   1.412   0.959
 4869SOL    HW215507   0.731   1.375   0.929
 4870SOL     OW15508   0.349   6.636   1.428
 4870SOL    HW115509   0.343   6.716   1.488
 4870SOL    HW215510   0.436   6.638   1.380
 4871SOL     OW15511   1.337   1.277   3.510
 4871SOL    HW115512   1.431   1.282   3.543
 4871SOL    HW215513   1.295   1.368   3.516
 4872SOL     OW15514   6.075   6.554   2.597
 4872SOL    HW115515   6.012   6.631   2.588
 4872SOL    HW215516   6.024   6.468   2.588
 4873SOL     OW15517   6.390   5.380   4.918
 4873SOL    HW115518   6.462   5.390   4.988
 4873SOL    HW215519   6.423   5.418   4.832
 4874SOL     OW15520   4.798   2.975   3.103
 4874SOL    HW115521   4.824   3.036   3.177
 4874SOL    HW215522   4.735   2.905   3.138
 4875SOL     OW15523   5.888   6.348   5.066
 4875SOL    HW115524   5.932   6.269   5.109
 4875SOL    HW215525   5.929   6.432   5.101
 4876SOL     OW15526   0.622   1.326   2.095
 4876SOL    HW115527   0.546   1.329   2.161
 4876SOL    HW215528   0.590   1.359   2.006
 4877SOL     OW15529   6.452   1.306   6.346
 4877SOL    HW115530   6.445   1.304   6.446
 4877SOL    HW215531   6.509   1.383   6.318
 4878SOL     OW15532   6.711   3.517   2.377
 4878SOL    HW115533   6.746   3.556   2.462
 4878SOL    HW215534   6.658   3.434   2.398
 4879SOL     OW15535   5.351   0.929   2.786
 4879SOL    HW115536   5.413   0.950   2.862
 4879SOL    HW215537   5.311   1.013   2.751
 4880SOL     OW15538   6.997   3.043   6.664
 4880SOL    HW115539   6.902   3.022   6.641
 4880SOL    HW215540   0.027   3.049   6.580
 4881SOL     OW15541   1.814   2.918   1.649
 4881SOL    HW115542   1.905   2.889   1.679
 4881SOL    HW215543   1.745   2.876   1.706
 4882SOL     OW15544   4.916   2.513   3.995
 4882SOL    HW115545   4.873   2.599   4.024
 4882SOL    HW215546   4.860   2.436   4.026
 4883SOL     OW15547   6.128   4.225   0.834
 4883SOL    HW115548   6.108   4.245   0.738
 4883SOL    HW215549   6.046   4.186   0.877
 4884SOL     OW15550   1.755   0.850   1.559
 4884SOL    HW115551   1.677   0.815   1.507
 4884SOL    HW215552   1.824   0.885   1.496
 4885SOL     OW15553   1.611   4.525   6.721
 4885SOL    HW115554   1.623   4.588   6.798
 4885SOL    HW215555   1.583   4.576   6.640
 4886SOL     OW15556   2.617   0.794   1.789
 4886SOL    HW115557   2.634   0.863   1.859
 4886SOL    HW215558   2.537   0.820   1.735
 4887SOL     OW15559   5.082   6.489   0.192
 4887SOL    HW115560   5.055   6.472   0.098
 4887SOL    HW215561   5.008   6.460   0.254
 4888SOL     OW15562   4.278   0.232   2.820
 4888SOL    HW115563   4.193   0.182   2.837
 4888SOL    HW215564   4.349   0.198   2.882
 4889SOL     OW15565   6.536   3.283   4.408
 4889SOL    HW115566   6.595   3.225   4.353
 4889SOL    HW215567   6.546   3.378   4.379
 4890SOL     OW15568   6.647   1.600   4.675
 4890SOL    HW115569   6.621   1.697   4.672
 4890SOL    HW215570   6.650   1.564   4.581
 4891SOL     OW15571   2.962   5.323   0.116
 4891SOL    HW115572   2.918   5.371   0.040
 4891SOL    HW215573   2.956   5.225   0.101
 4892SOL     OW15574   5.067   5.116   2.586
 4892SOL    HW115575   5.118   5.037   2.556
 4892SOL    HW215576   5.126   5.176   2.641
 4893SOL     OW15577   1.242   3.226   1.051
 4893SOL    HW115578   1.249   3.313   1.099
 4893SOL    HW215579   1.209   3.155   1.114
 4894SOL     OW15580   4.884   6.485   1.681
 4894SOL    HW115581   4.983   6.484   1.689
 4894SOL    HW215582   4.849   6.573   1.715
 4895SOL     OW15583   0.344   4.435   5.863
 4895SOL    HW115584   0.365   4.385   5.779
 4895SOL    HW215585   0.374   4.530   5.854
 4896SOL     OW15586   2.835   5.069   4.799
 4896SOL    HW115587   2.793   5.149   4.841
 4896SOL    HW215588   2.898   5.098   4.727
 4897SOL     OW15589   1.866   0.698   4.686
 4897SOL    HW115590   1.871   0.603   4.716
 4897SOL    HW215591   1.927   0.711   4.607
 4898SOL     OW15592   4.958   1.781   3.964
 4898SOL    HW115593   4.868   1.792   3.923
 4898SOL    HW215594   5.029   1.806   3.897
 4899SOL     OW15595   6.237   6.689   1.774
 4899SOL    HW115596   6.198   6.780   1.757
 4899SOL    HW215597   6.317   6.699   1.834
 4900SOL     OW15598   3.876   6.217   6.176
 4900SOL    HW115599   3.938   6.273   6.121
 4900SOL    HW215600   3.845   6.270   6.255
 4901SOL     OW15601   1.200   0.752   6.831
 4901SOL    HW115602   1.225   0.659   6.808
 4901SOL    HW215603   1.112   0.752   6.880
 4902SOL     OW15604   2.702   6.806   5.777
 4902SOL    HW115605   2.749   6.781   5.693
 4902SOL    HW215606   2.738   6.753   5.853
 4903SOL     OW15607   5.154   3.481   3.071
 4903SOL    HW115608   5.073   3.473   3.014
 4903SOL    HW215609   5.150   3.565   3.124
 4904SOL     OW15610   1.496   0.361   1.329
 4904SOL    HW115611   1.414   0.303   1.338
 4904SOL    HW215612   1.562   0.335   1.399
 4905SOL     OW15613   2.610   0.063   3.078
 4905SOL    HW115614   2.532   0.051   3.016
 4905SOL    HW215615   2.607   7.016   3.149
 4906SOL     OW15616   4.991   3.870   4.969
 4906SOL    HW115617   5.058   3.834   4.904
 4906SOL    HW215618   4.922   3.800   4.987
 4907SOL     OW15619   4.284   2.665   6.779
 4907SOL    HW115620   4.321   2.577   6.750
 4907SOL    HW215621   4.291   2.673   6.879
 4908SOL     OW15622   3.579   6.833   6.885
 4908SOL    HW115623   3.511   6.907   6.892
 4908SOL    HW215624   3.671   6.872   6.895
 4909SOL     OW15625   5.080   4.932   4.138
 4909SOL    HW115626   5.100   4.861   4.205
 4909SOL    HW215627   5.157   4.941   4.075
 4910SOL     OW15628   4.326   2.260   6.459
 4910SOL    HW115629   4.382   2.188   6.419
 4910SOL    HW215630   4.307   2.330   6.391
 4911SOL     OW15631   6.579   4.006   2.778
 4911SOL    HW115632   6.667   3.964   2.799
 4911SOL    HW215633   6.587   4.105   2.786
 4912SOL     OW15634   5.771   2.598   4.181
 4912SOL    HW115635   5.757   2.697   4.185
 4912SOL    HW215636   5.754   2.566   4.088
 4913SOL     OW15637   0.411   4.148   4.754
 4913SOL    HW115638   0.458   4.079   4.808
 4913SOL    HW215639   0.325   4.110   4.718
 4914SOL     OW15640   3.954   0.264   4.239
 4914SOL    HW115641   3.920   0.310   4.321
 4914SOL    HW215642   4.028   0.317   4.199
 4915SOL     OW15643   3.776   5.520   5.803
 4915SOL    HW115644   3.752   5.604   5.755
 4915SOL    HW215645   3.734   5.520   5.894
 4916SOL     OW15646   5.490   2.311   3.555
 4916SOL    HW115647   5.499   2.314   3.655
 4916SOL    HW215648   5.394   2.306   3.531
 4917SOL     OW15649   3.646   6.828   0.160
 4917SOL    HW115650   3.712   6.884   0.110
 4917SOL    HW215651   3.579   6.888   0.205
 4918SOL     OW15652   5.745   4.999   3.786
 4918SOL    HW115653   5.706   5.091   3.782
 4918SOL    HW215654   5.734   4.954   3.697
 4919SOL     OW15655   3.472   3.527   1.676
 4919SOL    HW115656   3.382   3.489   1.658
 4919SOL    HW215657   3.476   3.622   1.645
 4920SOL     OW15658   6.086   1.613   6.150
 4920SOL    HW115659   6.007   1.606   6.089
 4920SOL    HW215660   6.061   1.665   6.231
 4921SOL     OW15661   0.090   6.957   1.658
 4921SOL    HW115662   0.069   6.859   1.655
 4921SOL    HW215663   0.005   7.008   1.675
 4922SOL     OW15664   3.413   1.426   6.031
 4922SOL    HW115665   3.505   1.426   5.992
 4922SOL    HW215666   3.419   1.418   6.131
 4923SOL     OW15667   3.697   1.721   1.618
 4923SOL    HW115668   3.750   1.645   1.656
 4923SOL    HW215669   3.730   1.807   1.657
 4924SOL     OW15670   2.263   0.658   5.167
 4924SOL    HW115671   2.290   0.725   5.098
 4924SOL    HW215672   2.326   0.581   5.165
 4925SOL     OW15673   5.392   5.688   3.445
 4925SOL    HW115674   5.336   5.645   3.374
 4925SOL    HW215675   5.352   5.776   3.471
 4926SOL     OW15676   5.735   2.971   1.760
 4926SOL    HW115677   5.712   3.040   1.692
 4926SOL    HW215678   5.681   2.888   1.744
 4927SOL     OW15679   3.209   1.546   0.281
 4927SOL    HW115680   3.171   1.590   0.363
 4927SOL    HW215681   3.135   1.509   0.225
 4928SOL     OW15682   0.060   2.337   0.591
 4928SOL    HW115683   0.020   2.425   0.616
 4928SOL    HW215684   0.016   2.264   0.642
 4929SOL     OW15685   0.188   6.709   5.217
 4929SOL    HW115686   0.269   6.749   5.174
 4929SOL    HW215687   0.195   6.609   5.214
 4930SOL     OW15688   4.842   5.539   2.734
 4930SOL    HW115689   4.856   5.637   2.724
 4930SOL    HW215690   4.754   5.513   2.693
 4931SOL     OW15691   6.794   0.116   0.934
 4931SOL    HW115692   6.709   0.164   0.912
 4931SOL    HW215693   6.872   0.175   0.912
 4932SOL     OW15694   3.554   3.312   2.506
 4932SOL    HW115695   3.513   3.247   2.570
 4932SOL    HW215696   3.618   3.263   2.446
 4933SOL     OW15697   0.959   0.371   5.694
 4933SOL    HW115698   0.886   0.355   5.761
 4933SOL    HW215699   0.973   0.470   5.684
 4934SOL     OW15700   3.545   6.740   2.386
 4934SOL    HW115701   3.633   6.749   2.431
 4934SOL    HW215702   3.517   6.829   2.349
 4935SOL     OW15703   0.407   1.006   5.046
 4935SOL    HW115704   0.372   0.926   5.095
 4935SOL    HW215705   0.331   1.055   5.004
 4936SOL     OW15706   4.630   2.326   0.884
 4936SOL    HW115707   4.632   2.239   0.836
 4936SOL    HW215708   4.723   2.359   0.898
 4937SOL     OW15709   4.554   2.897   5.287
 4937SOL    HW115710   4.476   2.838   5.308
 4937SOL    HW215711   4.610   2.908   5.370
 4938SOL     OW15712   3.563   4.518   6.716
 4938SOL    HW115713   3.578   4.577   6.795
 4938SOL    HW215714   3.464   4.509   6.700
 4939SOL     OW15715   4.485   4.049   6.284
 4939SOL    HW115716   4.534   4.031   6.198
 4939SOL    HW215717   4.540   4.016   6.361
 4940SOL     OW15718   2.266   6.181   3.739
 4940SOL    HW115719   2.198   6.121   3.778
 4940SOL    HW215720   2.298   6.246   3.808
 4941SOL     OW15721   5.809   0.626   0.776
 4941SOL    HW115722   5.777   0.715   0.809
 4941SOL    HW215723   5.865   0.639   0.694
 4942SOL     OW15724   4.804   2.849   6.254
 4942SOL    HW115725   4.728   2.841   6.189
 4942SOL    HW215726   4.788   2.788   6.332
 4943SOL     OW15727   5.537   2.829   1.664
 4943SOL    HW115728   5.463   2.880   1.620
 4943SOL    HW215729   5.513   2.733   1.671
 4944SOL     OW15730   2.246   4.116   1.977
 4944SOL    HW115731   2.177   4.050   1.947
 4944SOL    HW215732   2.214   4.162   2.060
 4945SOL     OW15733   0.049   6.157   4.406
 4945SOL    HW115734   0.109   6.173   4.327
 4945SOL    HW215735   6.992   6.106   4.377
 4946SOL     OW15736   0.249   4.137   2.033
 4946SOL    HW115737   0.216   4.176   1.948
 4946SOL    HW215738   0.311   4.061   2.013
 4947SOL     OW15739   6.722   0.745   0.883
 4947SOL    HW115740   6.652   0.800   0.928
 4947SOL    HW215741   6.795   0.805   0.851
 4948SOL     OW15742   2.444   0.990   2.433
 4948SOL    HW115743   2.534   0.999   2.390
 4948SOL    HW215744   2.405   0.900   2.409
 4949SOL     OW15745   5.257   2.875   4.714
 4949SOL    HW115746   5.332   2.899   4.652
 4949SOL    HW215747   5.286   2.802   4.776
 4950SOL     OW15748   3.661   4.974   5.044
 4950SOL    HW115749   3.630   5.069   5.050
 4950SOL    HW215750   3.688   4.942   5.135
 4951SOL     OW15751   4.487   1.660   3.883
 4951SOL    HW115752   4.451   1.573   3.917
 4951SOL    HW215753   4.456   1.674   3.789
 4952SOL     OW15754   0.017   4.552   4.547
 4952SOL    HW115755   7.024   4.477   4.483
 4952SOL    HW215756   0.024   4.515   4.640
 4953SOL     OW15757   1.665   4.951   2.418
 4953SOL    HW115758   1.626   4.943   2.327
 4953SOL    HW215759   1.678   5.048   2.440
 4954SOL     OW15760   6.112   6.413   0.165
 4954SOL    HW115761   6.144   6.477   0.235
 4954SOL    HW215762   6.020   6.439   0.135
 4955SOL     OW15763   1.567   0.982   1.155
 4955SOL    HW115764   1.620   1.037   1.220
 4955SOL    HW215765   1.617   0.974   1.069
 4956SOL     OW15766   5.898   6.525   3.923
 4956SOL    HW115767   5.934   6.449   3.869
 4956SOL    HW215768   5.878   6.494   4.016
 4957SOL     OW15769   1.873   5.990   3.583
 4957SOL    HW115770   1.954   5.977   3.642
 4957SOL    HW215771   1.900   6.038   3.500
 4958SOL     OW15772   6.979   6.653   6.632
 4958SOL    HW115773   6.910   6.654   6.705
 4958SOL    HW215774   0.047   6.658   6.673
 4959SOL     OW15775   0.354   1.650   6.833
 4959SOL    HW115776   0.410   1.646   6.751
 4959SOL    HW215777   0.341   1.745   6.860
 4960SOL     OW15778   4.049   6.761   5.454
 4960SOL    HW115779   4.044   6.861   5.464
 4960SOL    HW215780   4.124   6.726   5.510
 4961SOL     OW15781   4.378   1.173   5.429
 4961SOL    HW115782   4.401   1.076   5.425
 4961SOL    HW215783   4.294   1.189   5.377
 4962SOL     OW15784   6.546   2.372   1.901
 4962SOL    HW115785   6.570   2.466   1.924
 4962SOL    HW215786   6.589   2.347   1.814
 4963SOL     OW15787   6.864   4.810   1.228
 4963SOL    HW115788   6.879   4.770   1.318
 4963SOL    HW215789   6.952   4.832   1.186
 4964SOL     OW15790   3.640   6.624   3.106
 4964SOL    HW115791   3.659   6.658   3.014
 4964SOL    HW215792   3.541   6.614   3.117
 4965SOL     OW15793   6.977   6.312   4.874
 4965SOL    HW115794   6.947   6.218   4.892
 4965SOL    HW215795   0.034   6.311   4.814
 4966SOL     OW15796   3.980   5.451   4.582
 4966SOL    HW115797   3.906   5.455   4.650
 4966SOL    HW215798   3.973   5.366   4.531
 4967SOL     OW15799   6.007   2.018   6.379
 4967SOL    HW115800   6.060   2.016   6.294
 4967SOL    HW215801   5.910   2.006   6.359
 4968SOL     OW15802   5.646   4.341   0.240
 4968SOL    HW115803   5.604   4.252   0.220
 4968SOL    HW215804   5.658   4.392   0.155
 4969SOL     OW15805   1.095   1.790   1.267
 4969SOL    HW115806   1.194   1.784   1.283
 4969SOL    HW215807   1.056   1.860   1.326
 4970SOL     OW15808   1.950   2.691   5.873
 4970SOL    HW115809   1.952   2.755   5.949
 4970SOL    HW215810   2.043   2.664   5.849
 4971SOL     OW15811   6.948   5.325   4.200
 4971SOL    HW115812   6.935   5.278   4.288
 4971SOL    HW215813   0.019   5.354   4.192
 4972SOL     OW15814   2.137   2.273   5.311
 4972SOL    HW115815   2.094   2.190   5.273
 4972SOL    HW215816   2.120   2.277   5.410
 4973SOL     OW15817   5.618   5.406   3.074
 4973SOL    HW115818   5.642   5.383   2.979
 4973SOL    HW215819   5.580   5.499   3.076
 4974SOL     OW15820   4.372   6.532   6.893
 4974SOL    HW115821   4.301   6.480   6.940
 4974SOL    HW215822   4.388   6.494   6.802
 4975SOL     OW15823   4.168   6.033   0.138
 4975SOL    HW115824   4.098   6.052   0.070
 4975SOL    HW215825   4.210   5.944   0.120
 4976SOL     OW15826   2.740   0.758   3.967
 4976SOL    HW115827   2.798   0.732   4.045
 4976SOL    HW215828   2.688   0.678   3.937
 4977SOL     OW15829   3.050   2.651   0.450
 4977SOL    HW115830   2.995   2.734   0.462
 4977SOL    HW215831   3.141   2.676   0.417
 4978SOL     OW15832   6.111   4.259   6.552
 4978SOL    HW115833   6.117   4.161   6.537
 4978SOL    HW215834   6.095   4.277   6.650
 4979SOL     OW15835   2.030   1.590   4.099
 4979SOL    HW115836   1.939   1.591   4.058
 4979SOL    HW215837   2.092   1.537   4.042
 4980SOL     OW15838   2.420   4.776   3.036
 4980SOL    HW115839   2.463   4.694   3.074
 4980SOL    HW215840   2.432   4.776   2.936
 4981SOL     OW15841   4.899   6.237   5.412
 4981SOL    HW115842   4.962   6.313   5.427
 4981SOL    HW215843   4.872   6.199   5.501
 4982SOL     OW15844   2.959   2.189   0.302
 4982SOL    HW115845   2.883   2.125   0.315
 4982SOL    HW215846   3.030   2.172   0.370
 4983SOL     OW15847   6.578   2.909   4.940
 4983SOL    HW115848   6.599   2.811   4.934
 4983SOL    HW215849   6.482   2.924   4.918
 4984SOL     OW15850   5.055   3.984   3.118
 4984SOL    HW115851   4.994   3.997   3.040
 4984SOL    HW215852   5.146   3.959   3.086
 4985SOL     OW15853   5.340   4.394   2.018
 4985SOL    HW115854   5.438   4.378   2.025
 4985SOL    HW215855   5.305   4.349   1.935
 4986SOL     OW15856   4.713   4.542   3.441
 4986SOL    HW115857   4.750   4.578   3.527
 4986SOL    HW215858   4.635   4.598   3.412
 4987SOL     OW15859   0.612   3.418   0.666
 4987SOL    HW115860   0.709   3.420   0.692
 4987SOL    HW215861   0.587   3.506   0.625
 4988SOL     OW15862   1.833   2.296   5.100
 4988SOL    HW115863   1.896   2.372   5.097
 4988SOL    HW215864   1.875   2.215   5.059
 4989SOL     OW15865   0.076   1.246   0.634
 4989SOL    HW115866   0.067   1.167   0.572
 4989SOL    HW215867   0.150   1.228   0.699
 4990SOL     OW15868   1.207   2.071   6.122
 4990SOL    HW115869   1.267   2.143   6.158
 4990SOL    HW215870   1.113   2.089   6.151
 4991SOL     OW15871   2.487   1.776   4.975
 4991SOL    HW115872   2.556   1.779   5.047
 4991SOL    HW215873   2.512   1.840   4.902
 4992SOL     OW15874   4.358   0.172   4.467
 4992SOL    HW115875   4.292   0.227   4.518
 4992SOL    HW215876   4.441   0.160   4.522
 4993SOL     OW15877   1.656   6.326   4.023
 4993SOL    HW115878   1.562   6.341   4.055
 4993SOL    HW215879   1.655   6.300   3.927
 4994SOL     OW15880   0.265   6.494   2.341
 4994SOL    HW115881   0.352   6.532   2.373
 4994SOL    HW215882   0.190   6.531   2.396
 4995SOL     OW15883   5.817   2.759   5.670
 4995SOL    HW115884   5.724   2.779   5.699
 4995SOL    HW215885   5.849   2.832   5.609
 4996SOL     OW15886   0.230   1.910   3.865
 4996SOL    HW115887   0.321   1.953   3.857
 4996SOL    HW215888   0.217   1.846   3.790
 4997SOL     OW15889   0.436   2.587   4.223
 4997SOL    HW115890   0.445   2.517   4.152
 4997SOL    HW215891   0.355   2.568   4.279
 4998SOL     OW15892   0.643   5.465   5.582
 4998SOL    HW115893   0.717   5.400   5.568
 4998SOL    HW215894   0.557   5.415   5.593
 4999SOL     OW15895   6.579   4.895   1.088
 4999SOL    HW115896   6.663   4.869   1.040
 4999SOL    HW215897   6.546   4.982   1.052
 5000SOL     OW15898   0.223   5.324   4.262
 5000SOL    HW115899   0.246   5.404   4.318
 5000SOL    HW215900   0.211   5.244   4.322
 5001SOL     OW15901   4.730   4.899   5.389
 5001SOL    HW115902   4.740   4.821   5.328
 5001SOL    HW215903   4.817   4.916   5.436
 5002SOL     OW15904   2.049   2.507   1.700
 5002SOL    HW115905   1.960   2.466   1.719
 5002SOL    HW215906   2.065   2.509   1.601
 5003SOL     OW15907   6.578   4.958   4.137
 5003SOL    HW115908   6.521   5.030   4.175
 5003SOL    HW215909   6.673   4.990   4.132
 5004SOL     OW15910   2.670   4.393   6.129
 5004SOL    HW115911   2.680   4.384   6.030
 5004SOL    HW215912   2.618   4.476   6.150
 5005SOL     OW15913   4.562   1.806   0.330
 5005SOL    HW115914   4.481   1.851   0.293
 5005SOL    HW215915   4.555   1.707   0.318
 5006SOL     OW15916   5.322   4.680   2.408
 5006SOL    HW115917   5.275   4.630   2.336
 5006SOL    HW215918   5.376   4.616   2.463
 5007SOL     OW15919   4.023   1.482   5.618
 5007SOL    HW115920   4.004   1.471   5.520
 5007SOL    HW215921   3.942   1.459   5.670
 5008SOL     OW15922   6.328   0.513   3.642
 5008SOL    HW115923   6.314   0.572   3.721
 5008SOL    HW215924   6.420   0.528   3.606
 5009SOL     OW15925   2.075   5.764   2.001
 5009SOL    HW115926   2.016   5.707   2.059
 5009SOL    HW215927   2.018   5.818   1.939
 5010SOL     OW15928   3.521   3.142   5.679
 5010SOL    HW115929   3.514   3.048   5.712
 5010SOL    HW215930   3.594   3.190   5.729
 5011SOL     OW15931   1.163   2.862   3.807
 5011SOL    HW115932   1.159   2.898   3.900
 5011SOL    HW215933   1.255   2.874   3.770
 5012SOL     OW15934   5.484   2.861   6.987
 5012SOL    HW115935   5.551   2.884   6.916
 5012SOL    HW215936   5.454   2.945   0.009
 5013SOL     OW15937   4.730   2.325   5.659
 5013SOL    HW115938   4.785   2.244   5.677
 5013SOL    HW215939   4.649   2.325   5.717
 5014SOL     OW15940   0.086   5.530   6.621
 5014SOL    HW115941   0.149   5.588   6.568
 5014SOL    HW215942   7.016   5.551   6.595
 5015SOL     OW15943   5.477   2.103   3.888
 5015SOL    HW115944   5.404   2.169   3.870
 5015SOL    HW215945   5.550   2.148   3.939
 5016SOL     OW15946   2.415   6.267   2.395
 5016SOL    HW115947   2.511   6.258   2.420
 5016SOL    HW215948   2.357   6.249   2.474
 5017SOL     OW15949   1.276   2.258   2.042
 5017SOL    HW115950   1.352   2.200   2.072
 5017SOL    HW215951   1.202   2.252   2.108
 5018SOL     OW15952   6.854   4.867   3.852
 5018SOL    HW115953   6.834   4.793   3.916
 5018SOL    HW215954   6.778   4.932   3.851
 5019SOL     OW15955   2.277   5.232   5.491
 5019SOL    HW115956   2.183   5.261   5.471
 5019SOL    HW215957   2.328   5.222   5.405
 5020SOL     OW15958   4.303   5.208   0.128
 5020SOL    HW115959   4.271   5.171   0.040
 5020SOL    HW215960   4.276   5.304   0.135
 5021SOL     OW15961   2.311   4.051   5.725
 5021SOL    HW115962   2.310   4.083   5.819
 5021SOL    HW215963   2.218   4.027   5.696
 5022SOL     OW15964   2.331   3.477   0.988
 5022SOL    HW115965   2.244   3.430   1.000
 5022SOL    HW215966   2.315   3.566   0.946
 5023SOL     OW15967   0.297   3.072   4.452
 5023SOL    HW115968   0.218   3.011   4.456
 5023SOL    HW215969   0.364   3.044   4.521
 5024SOL     OW15970   4.604   3.510   5.562
 5024SOL    HW115971   4.677   3.556   5.613
 5024SOL    HW215972   4.582   3.423   5.607
 5025SOL     OW15973   6.445   1.010   4.072
 5025SOL    HW115974   6.437   1.044   3.978
 5025SOL    HW215975   6.361   0.964   4.098
 5026SOL     OW15976   0.801   6.424   3.281
 5026SOL    HW115977   0.897   6.404   3.303
 5026SOL    HW215978   0.750   6.440   3.365
 5027SOL     OW15979   0.687   6.151   3.990
 5027SOL    HW115980   0.683   6.079   3.920
 5027SOL    HW215981   0.602   6.202   3.990
 5028SOL     OW15982   0.739   6.918   2.867
 5028SOL    HW115983   0.776   6.853   2.800
 5028SOL    HW215984   0.814   6.972   2.905
 5029SOL     OW15985   6.804   0.742   3.525
 5029SOL    HW115986   6.824   0.838   3.546
 5029SOL    HW215987   6.888   0.689   3.533
 5030SOL     OW15988   2.220   5.750   0.080
 5030SOL    HW115989   2.278   5.815   0.129
 5030SOL    HW215990   2.232   5.763   7.005
 5031SOL     OW15991   5.191   0.626   6.369
 5031SOL    HW115992   5.152   0.718   6.377
 5031SOL    HW215993   5.272   0.628   6.311
 5032SOL     OW15994   1.750   6.026   2.305
 5032SOL    HW115995   1.735   5.951   2.240
 5032SOL    HW215996   1.678   6.094   2.294
 5033SOL     OW15997   0.808   3.913   5.226
 5033SOL    HW115998   0.842   3.967   5.303
 5033SOL    HW215999   0.862   3.934   5.144
 5034SOL     OW16000   6.445   4.173   5.988
 5034SOL    HW116001   6.490   4.257   5.960
 5034SOL    HW216002   6.428   4.116   5.907
 5035SOL     OW16003   6.691   4.471   1.453
 5035SOL    HW116004   6.697   4.535   1.377
 5035SOL    HW216005   6.595   4.456   1.476
 5036SOL     OW16006   1.475   0.846   2.445
 5036SOL    HW116007   1.491   0.802   2.356
 5036SOL    HW216008   1.437   0.937   2.431
 5037SOL     OW16009   4.780   2.705   2.765
 5037SOL    HW116010   4.723   2.663   2.695
 5037SOL    HW216011   4.826   2.785   2.728
 5038SOL     OW16012   3.062   5.631   5.234
 5038SOL    HW116013   3.140   5.596   5.182
 5038SOL    HW216014   3.077   5.617   5.331
 5039SOL     OW16015   1.506   2.034   2.762
 5039SOL    HW116016   1.543   2.087   2.838
 5039SOL    HW216017   1.435   2.087   2.715
 5040SOL     OW16018   3.030   3.485   5.786
 5040SOL    HW116019   3.053   3.578   5.817
 5040SOL    HW216020   2.957   3.448   5.842
 5041SOL     OW16021   0.338   5.455   0.567
 5041SOL    HW116022   0.314   5.464   0.470
 5041SOL    HW216023   0.418   5.512   0.587
 5042SOL     OW16024   5.713   1.387   5.866
 5042SOL    HW116025   5.616   1.398   5.842
 5042SOL    HW216026   5.769   1.404   5.786
 5043SOL     OW16027   4.851   6.593   3.868
 5043SOL    HW116028   4.821   6.606   3.963
 5043SOL    HW216029   4.922   6.661   3.847
 5044SOL     OW16030   5.966   4.740   1.946
 5044SOL    HW116031   5.932   4.669   1.884
 5044SOL    HW216032   5.888   4.790   1.984
 5045SOL     OW16033   5.788   3.638   4.927
 5045SOL    HW116034   5.854   3.582   4.978
 5045SOL    HW216035   5.696   3.622   4.964
 5046SOL     OW16036   3.711   3.258   5.847
 5046SOL    HW116037   3.736   3.212   5.932
 5046SOL    HW216038   3.781   3.239   5.778
 5047SOL     OW16039   0.384   1.912   2.007
 5047SOL    HW116040   0.376   1.846   2.082
 5047SOL    HW216041   0.304   1.904   1.948
 5048SOL     OW16042   5.961   3.432   1.487
 5048SOL    HW116043   5.930   3.507   1.429
 5048SOL    HW216044   5.908   3.350   1.466
 5049SOL     OW16045   0.953   2.085   1.582
 5049SOL    HW116046   1.014   2.082   1.503
 5049SOL    HW216047   0.956   1.997   1.630
 5050SOL     OW16048   1.940   4.177   0.260
 5050SOL    HW116049   1.988   4.102   0.215
 5050SOL    HW216050   1.979   4.191   0.351
 5051SOL     OW16051   2.527   3.390   6.543
 5051SOL    HW116052   2.542   3.469   6.483
 5051SOL    HW216053   2.511   3.421   6.636
 5052SOL     OW16054   5.930   3.235   0.411
 5052SOL    HW116055   5.889   3.325   0.425
 5052SOL    HW216056   5.863   3.164   0.433
 5053SOL     OW16057   1.635   4.107   1.102
 5053SOL    HW116058   1.720   4.115   1.156
 5053SOL    HW216059   1.578   4.035   1.141
 5054SOL     OW16060   4.187   6.373   5.485
 5054SOL    HW116061   4.138   6.342   5.404
 5054SOL    HW216062   4.285   6.378   5.466
 5055SOL     OW16063   1.419   1.879   3.840
 5055SOL    HW116064   1.417   1.946   3.914
 5055SOL    HW216065   1.367   1.914   3.762
 5056SOL     OW16066   2.952   2.294   5.552
 5056SOL    HW116067   2.977   2.213   5.605
 5056SOL    HW216068   3.006   2.372   5.582
 5057SOL     OW16069   0.209   3.893   3.199
 5057SOL    HW116070   0.225   3.987   3.228
 5057SOL    HW216071   0.156   3.845   3.268
 5058SOL     OW16072   3.515   1.970   0.261
 5058SOL    HW116073   3.469   1.932   0.342
 5058SOL    HW216074   3.553   1.895   0.207
 5059SOL     OW16075   4.771   2.183   2.950
 5059SOL    HW116076   4.779   2.173   2.850
 5059SOL    HW216077   4.821   2.265   2.978
 5060SOL     OW16078   0.007   3.486   5.536
 5060SOL    HW116079   0.023   3.478   5.634
 5060SOL    HW216080   0.079   3.438   5.486
 5061SOL     OW16081   4.324   2.736   6.290
 5061SOL    HW116082   4.227   2.716   6.306
 5061SOL    HW216083   4.356   2.804   6.356
 5062SOL     OW16084   5.308   1.262   3.356
 5062SOL    HW116085   5.284   1.183   3.414
 5062SOL    HW216086   5.395   1.300   3.386
 5063SOL     OW16087   0.956   1.337   1.567
 5063SOL    HW116088   0.966   1.339   1.667
 5063SOL    HW216089   1.041   1.370   1.525
 5064SOL     OW16090   5.589   4.989   1.095
 5064SOL    HW116091   5.642   4.904   1.088
 5064SOL    HW216092   5.548   5.010   1.007
 5065SOL     OW16093   2.630   1.523   2.221
 5065SOL    HW116094   2.609   1.458   2.295
 5065SOL    HW216095   2.554   1.588   2.212
 5066SOL     OW16096   1.672   5.487   2.520
 5066SOL    HW116097   1.688   5.575   2.566
 5066SOL    HW216098   1.760   5.447   2.494
 5067SOL     OW16099   5.697   3.200   1.609
 5067SOL    HW116100   5.615   3.242   1.570
 5067SOL    HW216101   5.711   3.233   1.702
 5068SOL     OW16102   1.628   6.266   0.916
 5068SOL    HW116103   1.587   6.198   0.977
 5068SOL    HW216104   1.624   6.234   0.822
 5069SOL     OW16105   4.425   5.266   5.576
 5069SOL    HW116106   4.422   5.307   5.485
 5069SOL    HW216107   4.348   5.203   5.586
 5070SOL     OW16108   6.037   3.298   5.739
 5070SOL    HW116109   6.066   3.232   5.809
 5070SOL    HW216110   6.016   3.385   5.783
 5071SOL     OW16111   2.401   6.008   2.829
 5071SOL    HW116112   2.429   6.078   2.895
 5071SOL    HW216113   2.311   5.973   2.854
 5072SOL     OW16114   0.940   1.307   1.840
 5072SOL    HW116115   0.886   1.253   1.904
 5072SOL    HW216116   1.021   1.343   1.887
 5073SOL     OW16117   1.829   1.055   3.321
 5073SOL    HW116118   1.890   1.134   3.331
 5073SOL    HW216119   1.738   1.086   3.294
 5074SOL     OW16120   3.258   2.224   1.599
 5074SOL    HW116121   3.207   2.193   1.519
 5074SOL    HW216122   3.200   2.216   1.680
 5075SOL     OW16123   6.394   2.663   0.342
 5075SOL    HW116124   6.327   2.596   0.311
 5075SOL    HW216125   6.348   2.747   0.371
 5076SOL     OW16126   7.011   1.192   5.710
 5076SOL    HW116127   7.007   1.213   5.613
 5076SOL    HW216128   0.030   1.268   5.759
 5077SOL     OW16129   0.503   4.244   3.504
 5077SOL    HW116130   0.555   4.321   3.538
 5077SOL    HW216131   0.559   4.189   3.442
 5078SOL     OW16132   6.413   2.496   3.729
 5078SOL    HW116133   6.391   2.425   3.662
 5078SOL    HW216134   6.507   2.527   3.715
 5079SOL     OW16135   1.556   3.987   4.846
 5079SOL    HW116136   1.521   3.981   4.753
 5079SOL    HW216137   1.576   3.895   4.880
 5080SOL     OW16138   6.246   5.869   6.687
 5080SOL    HW116139   6.312   5.897   6.618
 5080SOL    HW216140   6.287   5.876   6.778
 5081SOL     OW16141   2.306   4.898   5.120
 5081SOL    HW116142   2.355   4.980   5.093
 5081SOL    HW216143   2.365   4.841   5.177
 5082SOL     OW16144   5.548   5.776   1.557
 5082SOL    HW116145   5.452   5.783   1.529
 5082SOL    HW216146   5.599   5.724   1.488
 5083SOL     OW16147   2.109   0.056   3.795
 5083SOL    HW116148   2.057   0.116   3.734
 5083SOL    HW216149   2.072   6.987   3.789
 5084SOL     OW16150   3.460   4.708   5.778
 5084SOL    HW116151   3.385   4.771   5.758
 5084SOL    HW216152   3.545   4.744   5.740
 5085SOL     OW16153   0.442   4.663   5.730
 5085SOL    HW116154   0.413   4.689   5.638
 5085SOL    HW216155   0.468   4.745   5.781
 5086SOL     OW16156   1.092   4.833   2.752
 5086SOL    HW116157   1.113   4.839   2.850
 5086SOL    HW216158   1.109   4.740   2.720
 5087SOL     OW16159   0.338   4.640   2.015
 5087SOL    HW116160   0.295   4.563   1.967
 5087SOL    HW216161   0.432   4.651   1.982
 5088SOL     OW16162   4.939   5.287   2.409
 5088SOL    HW116163   4.851   5.254   2.375
 5088SOL    HW216164   4.975   5.222   2.476
 5089SOL     OW16165   5.231   6.194   6.321
 5089SOL    HW116166   5.320   6.156   6.344
 5089SOL    HW216167   5.219   6.193   6.222
 5090SOL     OW16168   2.746   6.755   4.704
 5090SOL    HW116169   2.733   6.663   4.741
 5090SOL    HW216170   2.759   6.750   4.605
 5091SOL     OW16171   6.821   6.296   6.116
 5091SOL    HW116172   6.911   6.299   6.073
 5091SOL    HW216173   6.826   6.336   6.207
 5092SOL     OW16174   4.102   3.486   3.790
 5092SOL    HW116175   4.109   3.585   3.784
 5092SOL    HW216176   4.006   3.459   3.784
 5093SOL     OW16177   2.940   2.234   2.706
 5093SOL    HW116178   3.013   2.188   2.656
 5093SOL    HW216179   2.940   2.204   2.801
 5094SOL     OW16180   1.814   5.948   4.802
 5094SOL    HW116181   1.833   6.042   4.829
 5094SOL    HW216182   1.725   5.944   4.756
 5095SOL     OW16183   6.897   1.012   3.337
 5095SOL    HW116184   6.820   0.991   3.278
 5095SOL    HW216185   6.968   0.942   3.326
 5096SOL     OW16186   6.613   3.240   5.751
 5096SOL    HW116187   6.679   3.191   5.694
 5096SOL    HW216188   6.541   3.178   5.779
 5097SOL     OW16189   0.414   0.840   5.559
 5097SOL    HW116190   0.433   0.927   5.514
 5097SOL    HW216191   0.340   0.852   5.625
 5098SOL     OW16192   3.042   2.548   0.068
 5098SOL    HW116193   3.123   2.513   0.116
 5098SOL    HW216194   2.969   2.479   0.072
 5099SOL     OW16195   1.959   6.092   2.444
 5099SOL    HW116196   1.885   6.068   2.381
 5099SOL    HW216197   2.045   6.051   2.411
 5100SOL     OW16198   5.412   3.674   2.322
 5100SOL    HW116199   5.360   3.626   2.392
 5100SOL    HW216200   5.486   3.616   2.289
 5101SOL     OW16201   3.333   0.556   4.680
 5101SOL    HW116202   3.310   0.459   4.689
 5101SOL    HW216203   3.252   0.612   4.696
 5102SOL     OW16204   5.535   5.296   5.255
 5102SOL    HW116205   5.520   5.288   5.353
 5102SOL    HW216206   5.468   5.239   5.206
 5103SOL     OW16207   0.669   0.560   6.077
 5103SOL    HW116208   0.747   0.570   6.015
 5103SOL    HW216209   0.598   0.626   6.052
 5104SOL     OW16210   4.158   3.431   3.126
 5104SOL    HW116211   4.255   3.417   3.148
 5104SOL    HW216212   4.146   3.428   3.027
 5105SOL     OW16213   4.372   3.305   6.921
 5105SOL    HW116214   4.468   3.327   6.907
 5105SOL    HW216215   4.331   3.277   6.835
 5106SOL     OW16216   3.594   1.613   1.389
 5106SOL    HW116217   3.636   1.662   1.465
 5106SOL    HW216218   3.497   1.637   1.383
 5107SOL     OW16219   6.258   5.080   0.984
 5107SOL    HW116220   6.247   5.023   1.065
 5107SOL    HW216221   6.169   5.118   0.957
 5108SOL     OW16222   3.603   4.356   1.177
 5108SOL    HW116223   3.638   4.448   1.161
 5108SOL    HW216224   3.627   4.297   1.100
 5109SOL     OW16225   1.657   2.501   2.981
 5109SOL    HW116226   1.733   2.499   2.916
 5109SOL    HW216227   1.593   2.573   2.955
 5110SOL     OW16228   4.772   6.732   5.177
 5110SOL    HW116229   4.858   6.684   5.198
 5110SOL    HW216230   4.791   6.830   5.165
 5111SOL     OW16231   1.128   5.515   5.801
 5111SOL    HW116232   1.095   5.421   5.809
 5111SOL    HW216233   1.224   5.519   5.829
 5112SOL     OW16234   1.350   6.146   3.493
 5112SOL    HW116235   1.384   6.051   3.490
 5112SOL    HW216236   1.372   6.191   3.406
 5113SOL     OW16237   1.818   3.891   0.714
 5113SOL    HW116238   1.900   3.863   0.765
 5113SOL    HW216239   1.824   3.988   0.693
 5114SOL     OW16240   4.352   4.817   1.360
 5114SOL    HW116241   4.429   4.831   1.422
 5114SOL    HW216242   4.380   4.757   1.285
 5115SOL     OW16243   1.618   3.692   0.668
 5115SOL    HW116244   1.654   3.603   0.696
 5115SOL    HW216245   1.684   3.764   0.691
 5116SOL     OW16246   0.470   6.749   5.157
 5116SOL    HW116247   0.482   6.784   5.250
 5116SOL    HW216248   0.532   6.672   5.142
 5117SOL     OW16249   0.231   2.452   3.394
 5117SOL    HW116250   0.143   2.459   3.439
 5117SOL    HW216251   0.247   2.357   3.367
 5118SOL     OW16252   4.306   5.803   0.152
 5118SOL    HW116253   4.354   5.829   0.236
 5118SOL    HW216254   4.372   5.773   0.083
 5119SOL     OW16255   5.761   1.708   0.451
 5119SOL    HW116256   5.713   1.657   0.522
 5119SOL    HW216257   5.823   1.646   0.402
 5120SOL     OW16258   5.302   6.691   0.017
 5120SOL    HW116259   5.344   6.601   0.005
 5120SOL    HW216260   5.361   6.747   0.076
 5121SOL     OW16261   1.210   3.277   6.490
 5121SOL    HW116262   1.203   3.229   6.403
 5121SOL    HW216263   1.235   3.213   6.563
 5122SOL     OW16264   4.939   4.585   3.667
 5122SOL    HW116265   4.996   4.666   3.653
 5122SOL    HW216266   4.852   4.612   3.709
 5123SOL     OW16267   5.052   2.931   2.367
 5123SOL    HW116268   4.983   2.966   2.303
 5123SOL    HW216269   5.011   2.862   2.426
 5124SOL     OW16270   1.211   5.892   4.791
 5124SOL    HW116271   1.236   5.985   4.763
 5124SOL    HW216272   1.252   5.826   4.728
 5125SOL     OW16273   6.307   1.904   3.990
 5125SOL    HW116274   6.260   1.952   4.065
 5125SOL    HW216275   6.333   1.812   4.019
 5126SOL     OW16276   1.716   0.811   2.066
 5126SOL    HW116277   1.721   0.793   1.968
 5126SOL    HW216278   1.808   0.824   2.102
 5127SOL     OW16279   2.245   6.050   6.942
 5127SOL    HW116280   2.148   6.033   6.959
 5127SOL    HW216281   2.258   6.080   6.848
 5128SOL     OW16282   5.061   0.070   1.538
 5128SOL    HW116283   5.069   0.161   1.498
 5128SOL    HW216284   5.021   0.077   1.630
 5129SOL     OW16285   6.551   6.920   0.358
 5129SOL    HW116286   6.604   6.989   0.407
 5129SOL    HW216287   6.548   6.836   0.412
 5130SOL     OW16288   6.007   5.165   2.584
 5130SOL    HW116289   5.917   5.154   2.543
 5130SOL    HW216290   6.074   5.108   2.535
 5131SOL     OW16291   2.466   2.547   2.423
 5131SOL    HW116292   2.461   2.463   2.477
 5131SOL    HW216293   2.487   2.523   2.328
 5132SOL     OW16294   2.389   5.838   4.977
 5132SOL    HW116295   2.298   5.873   4.952
 5132SOL    HW216296   2.403   5.849   5.075
 5133SOL     OW16297   3.423   6.219   5.350
 5133SOL    HW116298   3.348   6.280   5.322
 5133SOL    HW216299   3.444   6.155   5.277
 5134SOL     OW16300   6.643   3.769   6.360
 5134SOL    HW116301   6.624   3.787   6.263
 5134SOL    HW216302   6.637   3.671   6.377
 5135SOL     OW16303   6.460   1.655   4.375
 5135SOL    HW116304   6.529   1.584   4.386
 5135SOL    HW216305   6.503   1.745   4.384
 5136SOL     OW16306   4.177   2.164   5.832
 5136SOL    HW116307   4.157   2.086   5.773
 5136SOL    HW216308   4.237   2.136   5.906
 5137SOL     OW16309   3.554   3.291   0.027
 5137SOL    HW116310   3.653   3.303   0.018
 5137SOL    HW216311   3.512   3.378   0.051
 5138SOL     OW16312   2.391   3.036   6.064
 5138SOL    HW116313   2.442   3.082   6.137
 5138SOL    HW216314   2.338   2.961   6.102
 5139SOL     OW16315   0.559   0.063   3.520
 5139SOL    HW116316   0.596   6.999   3.491
 5139SOL    HW216317   0.631   0.132   3.516
 5140SOL     OW16318   3.058   2.928   1.428
 5140SOL    HW116319   3.027   2.936   1.334
 5140SOL    HW216320   3.008   2.855   1.474
 5141SOL     OW16321   0.781   4.336   5.945
 5141SOL    HW116322   0.843   4.357   6.020
 5141SOL    HW216323   0.687   4.333   5.979
 5142SOL     OW16324   5.998   2.785   2.774
 5142SOL    HW116325   5.966   2.702   2.819
 5142SOL    HW216326   5.921   2.847   2.758
 5143SOL     OW16327   6.657   5.325   5.019
 5143SOL    HW116328   6.670   5.359   4.926
 5143SOL    HW216329   6.695   5.233   5.026
 5144SOL     OW16330   1.918   1.411   4.890
 5144SOL    HW116331   1.924   1.471   4.810
 5144SOL    HW216332   1.823   1.384   4.904
 5145SOL     OW16333   3.464   5.193   5.803
 5145SOL    HW116334   3.521   5.273   5.786
 5145SOL    HW216335   3.367   5.218   5.791
 5146SOL     OW16336   2.669   4.963   0.226
 5146SOL    HW116337   2.754   4.972   0.278
 5146SOL    HW216338   2.611   5.043   0.241
 5147SOL     OW16339   6.804   5.359   6.589
 5147SOL    HW116340   6.886   5.359   6.646
 5147SOL    HW216341   6.750   5.441   6.607
 5148SOL     OW16342   0.573   0.508   0.749
 5148SOL    HW116343   0.590   0.463   0.836
 5148SOL    HW216344   0.478   0.539   0.745
 5149SOL     OW16345   0.467   0.914   5.834
 5149SOL    HW116346   0.471   0.975   5.755
 5149SOL    HW216347   0.393   0.943   5.895
 5150SOL     OW16348   2.519   5.934   4.269
 5150SOL    HW116349   2.435   5.907   4.223
 5150SOL    HW216350   2.541   5.867   4.340
 5151SOL     OW16351   4.000   0.978   5.705
 5151SOL    HW116352   4.053   1.048   5.755
 5151SOL    HW216353   4.017   0.889   5.746
 5152SOL     OW16354   0.399   4.821   0.126
 5152SOL    HW116355   0.443   4.811   0.038
 5152SOL    HW216356   0.450   4.887   0.182
 5153SOL     OW16357   1.982   2.067   1.119
 5153SOL    HW116358   1.981   2.021   1.030
 5153SOL    HW216359   2.077   2.087   1.144
 5154SOL     OW16360   2.075   4.301   5.845
 5154SOL    HW116361   2.039   4.372   5.784
 5154SOL    HW216362   2.152   4.338   5.897
 5155SOL     OW16363   3.558   0.227   2.686
 5155SOL    HW116364   3.522   0.194   2.774
 5155SOL    HW216365   3.611   0.310   2.701
 5156SOL     OW16366   5.511   2.687   6.277
 5156SOL    HW116367   5.475   2.605   6.322
 5156SOL    HW216368   5.529   2.667   6.181
 5157SOL     OW16369   6.529   2.347   4.470
 5157SOL    HW116370   6.433   2.367   4.450
 5157SOL    HW216371   6.544   2.249   4.465
 5158SOL     OW16372   3.564   0.693   1.434
 5158SOL    HW116373   3.601   0.603   1.458
 5158SOL    HW216374   3.465   0.693   1.446
 5159SOL     OW16375   2.056   3.636   4.858
 5159SOL    HW116376   2.125   3.708   4.848
 5159SOL    HW216377   1.992   3.662   4.931
 5160SOL     OW16378   2.171   2.415   3.998
 5160SOL    HW116379   2.187   2.316   4.004
 5160SOL    HW216380   2.080   2.436   4.034
 5161SOL     OW16381   2.194   3.045   6.443
 5161SOL    HW116382   2.181   2.950   6.472
 5161SOL    HW216383   2.192   3.105   6.523
 5162SOL     OW16384   6.639   5.051   4.522
 5162SOL    HW116385   6.577   5.014   4.592
 5162SOL    HW216386   6.685   4.976   4.475
 5163SOL     OW16387   5.550   4.230   0.903
 5163SOL    HW116388   5.589   4.157   0.959
 5163SOL    HW216389   5.486   4.189   0.837
 5164SOL     OW16390   5.896   5.798   5.687
 5164SOL    HW116391   5.879   5.891   5.656
 5164SOL    HW216392   5.823   5.738   5.653
 5165SOL     OW16393   6.065   4.026   4.647
 5165SOL    HW116394   6.107   4.028   4.738
 5165SOL    HW216395   6.012   4.109   4.634
 5166SOL     OW16396   1.467   0.004   2.151
 5166SOL    HW116397   1.448   0.092   2.195
 5166SOL    HW216398   1.448   6.954   2.215
 5167SOL     OW16399   1.880   0.243   5.722
 5167SOL    HW116400   1.813   0.282   5.658
 5167SOL    HW216401   1.885   0.144   5.709
 5168SOL     OW16402   4.003   2.244   2.720
 5168SOL    HW116403   3.974   2.261   2.626
 5168SOL    HW216404   4.051   2.324   2.755
 5169SOL     OW16405   4.079   4.529   6.624
 5169SOL    HW116406   4.119   4.454   6.570
 5169SOL    HW216407   4.129   4.538   6.710
 5170SOL     OW16408   3.994   5.243   4.390
 5170SOL    HW116409   4.002   5.321   4.328
 5170SOL    HW216410   4.071   5.181   4.376
 5171SOL     OW16411   2.587   4.934   4.813
 5171SOL    HW116412   2.683   4.945   4.786
 5171SOL    HW216413   2.569   4.837   4.833
 5172SOL     OW16414   1.902   4.417   0.136
 5172SOL    HW116415   1.931   4.332   0.181
 5172SOL    HW216416   1.803   4.427   0.145
 5173SOL     OW16417   6.960   2.410   5.996
 5173SOL    HW116418   7.022   2.352   6.049
 5173SOL    HW216419   7.001   2.500   5.984
 5174SOL     OW16420   2.029   5.085   5.917
 5174SOL    HW116421   2.074   5.055   5.833
 5174SOL    HW216422   2.085   5.156   5.961
 5175SOL     OW16423   0.091   5.178   6.077
 5175SOL    HW116424   7.023   5.213   6.096
 5175SOL    HW216425   0.114   5.192   5.981
 5176SOL     OW16426   5.031   4.046   6.067
 5176SOL    HW116427   5.012   4.112   5.995
 5176SOL    HW216428   4.949   3.993   6.086
 5177SOL     OW16429   5.220   5.833   5.994
 5177SOL    HW116430   5.137   5.849   6.047
 5177SOL    HW216431   5.197   5.819   5.898
 5178SOL     OW16432   2.704   2.527   1.267
 5178SOL    HW116433   2.704   2.627   1.267
 5178SOL    HW216434   2.697   2.494   1.173
 5179SOL     OW16435   3.021   6.370   5.329
 5179SOL    HW116436   3.018   6.443   5.261
 5179SOL    HW216437   3.062   6.404   5.413
 5180SOL     OW16438   3.326   1.664   6.965
 5180SOL    HW116439   3.346   1.697   0.034
 5180SOL    HW216440   3.233   1.690   6.939
 5181SOL     OW16441   3.017   5.717   2.598
 5181SOL    HW116442   2.969   5.798   2.632
 5181SOL    HW216443   3.038   5.728   2.501
 5182SOL     OW16444   4.471   3.783   1.527
 5182SOL    HW116445   4.499   3.865   1.576
 5182SOL    HW216446   4.538   3.761   1.457
 5183SOL     OW16447   3.827   1.028   3.604
 5183SOL    HW116448   3.905   1.081   3.637
 5183SOL    HW216449   3.846   0.931   3.617
 5184SOL     OW16450   1.158   2.033   2.907
 5184SOL    HW116451   1.067   2.000   2.930
 5184SOL    HW216452   1.196   2.084   2.984
 5185SOL     OW16453   3.859   0.154   1.347
 5185SOL    HW116454   3.779   0.212   1.328
 5185SOL    HW216455   3.924   0.161   1.271
 5186SOL     OW16456   5.328   4.592   0.310
 5186SOL    HW116457   5.237   4.621   0.282
 5186SOL    HW216458   5.377   4.555   0.231
 5187SOL     OW16459   5.084   1.800   4.595
 5187SOL    HW116460   5.095   1.726   4.528
 5187SOL    HW216461   5.093   1.888   4.550
 5188SOL     OW16462   1.238   2.346   3.525
 5188SOL    HW116463   1.308   2.278   3.501
 5188SOL    HW216464   1.154   2.327   3.475
 5189SOL     OW16465   4.420   5.961   6.869
 5189SOL    HW116466   4.433   5.989   6.774
 5189SOL    HW216467   4.398   5.863   6.872
 5190SOL     OW16468   1.968   2.736   2.259
 5190SOL    HW116469   2.060   2.773   2.248
 5190SOL    HW216470   1.959   2.693   2.349
 5191SOL     OW16471   5.437   0.180   2.164
 5191SOL    HW116472   5.393   0.103   2.212
 5191SOL    HW216473   5.490   0.233   2.230
 5192SOL     OW16474   6.099   4.346   1.791
 5192SOL    HW116475   6.078   4.349   1.693
 5192SOL    HW216476   6.181   4.401   1.809
 5193SOL     OW16477   4.683   4.310   2.216
 5193SOL    HW116478   4.741   4.230   2.234
 5193SOL    HW216479   4.610   4.286   2.153
 5194SOL     OW16480   5.066   1.292   0.286
 5194SOL    HW116481   5.107   1.255   0.369
 5194SOL    HW216482   4.975   1.253   0.273
 5195SOL     OW16483   6.113   6.380   5.369
 5195SOL    HW116484   6.172   6.347   5.442
 5195SOL    HW216485   6.054   6.453   5.403
 5196SOL     OW16486   6.701   3.656   2.619
 5196SOL    HW116487   6.612   3.659   2.666
 5196SOL    HW216488   6.774   3.671   2.686
 5197SOL     OW16489   3.440   5.421   5.561
 5197SOL    HW116490   3.528   5.433   5.516
 5197SOL    HW216491   3.444   5.456   5.654
 5198SOL     OW16492   3.872   1.238   4.620
 5198SOL    HW116493   3.844   1.189   4.702
 5198SOL    HW216494   3.807   1.220   4.546
 5199SOL     OW16495   0.198   5.401   1.396
 5199SOL    HW116496   0.172   5.306   1.383
 5199SOL    HW216497   0.268   5.427   1.329
 5200SOL     OW16498   6.537   0.272   5.109
 5200SOL    HW116499   6.613   0.213   5.136
 5200SOL    HW216500   6.500   0.241   5.021
 5201SOL     OW16501   5.657   4.612   5.700
 5201SOL    HW116502   5.596   4.585   5.775
 5201SOL    HW216503   5.603   4.624   5.616
 5202SOL     OW16504   3.971   2.878   5.895
 5202SOL    HW116505   3.887   2.918   5.931
 5202SOL    HW216506   3.986   2.789   5.938
 5203SOL     OW16507   1.637   0.509   5.760
 5203SOL    HW116508   1.728   0.548   5.770
 5203SOL    HW216509   1.617   0.449   5.838
 5204SOL     OW16510   1.963   0.650   1.358
 5204SOL    HW116511   1.953   0.621   1.453
 5204SOL    HW216512   1.888   0.611   1.304
 5205SOL     OW16513   6.693   0.473   1.754
 5205SOL    HW116514   6.632   0.523   1.693
 5205SOL    HW216515   6.742   0.403   1.702
 5206SOL     OW16516   1.149   4.589   4.145
 5206SOL    HW116517   1.140   4.593   4.046
 5206SOL    HW216518   1.170   4.681   4.180
 5207SOL     OW16519   5.803   6.728   4.749
 5207SOL    HW116520   5.717   6.680   4.764
 5207SOL    HW216521   5.876   6.683   4.801
 5208SOL     OW16522   6.853   2.180   0.561
 5208SOL    HW116523   6.931   2.132   0.521
 5208SOL    HW216524   6.777   2.179   0.497
 5209SOL     OW16525   5.405   6.668   3.616
 5209SOL    HW116526   5.455   6.603   3.559
 5209SOL    HW216527   5.454   6.681   3.703
 5210SOL     OW16528   5.659   4.702   1.117
 5210SOL    HW116529   5.708   4.698   1.204
 5210SOL    HW216530   5.654   4.610   1.077
 5211SOL     OW16531   5.169   2.980   4.984
 5211SOL    HW116532   5.219   2.895   4.967
 5211SOL    HW216533   5.202   3.022   5.068
 5212SOL     OW16534   7.011   4.011   0.511
 5212SOL    HW116535   6.991   3.977   0.420
 5212SOL    HW216536   0.087   4.021   0.522
 5213SOL     OW16537   4.079   3.206   2.632
 5213SOL    HW116538   3.998   3.157   2.663
 5213SOL    HW216539   4.051   3.281   2.571
 5214SOL     OW16540   5.388   3.444   5.710
 5214SOL    HW116541   5.341   3.358   5.727
 5214SOL    HW216542   5.485   3.427   5.696
 5215SOL     OW16543   0.256   5.116   5.197
 5215SOL    HW116544   0.207   5.194   5.234
 5215SOL    HW216545   0.211   5.031   5.225
 5216SOL     OW16546   5.873   4.528   1.771
 5216SOL    HW116547   5.921   4.453   1.816
 5216SOL    HW216548   5.774   4.520   1.787
 5217SOL     OW16549   4.751   6.926   3.043
 5217SOL    HW116550   4.785   7.020   3.052
 5217SOL    HW216551   4.661   6.919   3.085
 5218SOL     OW16552   6.319   0.022   0.722
 5218SOL    HW116553   6.270   6.960   0.741
 5218SOL    HW216554   6.257   0.088   0.681
 5219SOL     OW16555   3.578   1.505   4.995
 5219SOL    HW116556   3.517   1.429   5.014
 5219SOL    HW216557   3.570   1.574   5.066
 5220SOL     OW16558   2.416   5.016   4.585
 5220SOL    HW116559   2.331   4.966   4.567
 5220SOL    HW216560   2.462   4.975   4.664
 5221SOL     OW16561   5.253   6.071   1.332
 5221SOL    HW116562   5.259   6.130   1.412
 5221SOL    HW216563   5.226   6.125   1.252
 5222SOL     OW16564   6.983   3.351   2.152
 5222SOL    HW116565   6.977   3.416   2.076
 5222SOL    HW216566   6.991   3.259   2.116
 5223SOL     OW16567   6.515   2.802   0.664
 5223SOL    HW116568   6.560   2.849   0.588
 5223SOL    HW216569   6.583   2.763   0.725
 5224SOL     OW16570   1.151   1.618   4.976
 5224SOL    HW116571   1.067   1.565   4.991
 5224SOL    HW216572   1.184   1.602   4.883
 5225SOL     OW16573   6.860   2.165   5.230
 5225SOL    HW116574   6.890   2.225   5.156
 5225SOL    HW216575   6.931   2.097   5.248
 5226SOL     OW16576   0.112   6.239   4.651
 5226SOL    HW116577   0.084   6.200   4.563
 5226SOL    HW216578   0.211   6.257   4.649
 5227SOL     OW16579   0.976   3.345   5.942
 5227SOL    HW116580   0.909   3.416   5.924
 5227SOL    HW216581   0.971   3.317   6.038
 5228SOL     OW16582   1.451   2.009   5.119
 5228SOL    HW116583   1.386   2.069   5.166
 5228SOL    HW216584   1.480   1.936   5.180
 5229SOL     OW16585   3.636   2.049   6.064
 5229SOL    HW116586   3.633   2.097   6.152
 5229SOL    HW216587   3.543   2.027   6.034
 5230SOL     OW16588   6.745   0.625   2.472
 5230SOL    HW116589   6.777   0.675   2.392
 5230SOL    HW216590   6.646   0.636   2.480
 5231SOL     OW16591   6.689   3.938   2.238
 5231SOL    HW116592   6.767   3.996   2.262
 5231SOL    HW216593   6.635   3.983   2.167
 5232SOL     OW16594   1.663   2.267   5.752
 5232SOL    HW116595   1.721   2.342   5.785
 5232SOL    HW216596   1.719   2.185   5.739
 5233SOL     OW16597   3.726   6.933   3.500
 5233SOL    HW116598   3.645   6.950   3.556
 5233SOL    HW216599   3.773   7.020   3.482
 5234SOL     OW16600   2.962   2.656   6.151
 5234SOL    HW116601   2.874   2.607   6.145
 5234SOL    HW216602   3.020   2.630   6.074
 5235SOL     OW16603   2.524   1.990   1.714
 5235SOL    HW116604   2.564   1.899   1.705
 5235SOL    HW216605   2.463   1.992   1.793
 5236SOL     OW16606   3.036   4.775   2.013
 5236SOL    HW116607   3.012   4.871   2.026
 5236SOL    HW216608   2.953   4.722   1.995
 5237SOL     OW16609   1.848   1.575   1.997
 5237SOL    HW116610   1.809   1.657   2.037
 5237SOL    HW216611   1.929   1.599   1.943
 5238SOL     OW16612   6.716   0.343   2.783
 5238SOL    HW116613   6.758   0.275   2.723
 5238SOL    HW216614   6.621   0.358   2.756
 5239SOL     OW16615   2.742   4.072   1.097
 5239SOL    HW116616   2.775   3.979   1.107
 5239SOL    HW216617   2.687   4.097   1.177
 5240SOL     OW16618   2.179   3.949   6.212
 5240SOL    HW116619   2.099   3.994   6.252
 5240SOL    HW216620   2.237   3.913   6.286
 5241SOL     OW16621   2.347   6.778   2.629
 5241SOL    HW116622   2.364   6.832   2.712
 5241SOL    HW216623   2.288   6.701   2.651
 5242SOL     OW16624   3.857   6.890   6.131
 5242SOL    HW116625   3.929   6.896   6.199
 5242SOL    HW216626   3.779   6.946   6.159
 5243SOL     OW16627   2.560   5.968   3.165
 5243SOL    HW116628   2.479   5.985   3.221
 5243SOL    HW216629   2.642   5.973   3.223
 5244SOL     OW16630   4.130   0.956   6.648
 5244SOL    HW116631   4.107   0.934   6.743
 5244SOL    HW216632   4.071   1.031   6.617
 5245SOL     OW16633   3.195   4.031   1.942
 5245SOL    HW116634   3.131   4.080   1.883
 5245SOL    HW216635   3.289   4.054   1.916
 5246SOL     OW16636   5.708   3.829   6.343
 5246SOL    HW116637   5.642   3.876   6.403
 5246SOL    HW216638   5.659   3.767   6.282
 5247SOL     OW16639   4.931   1.635   6.676
 5247SOL    HW116640   4.964   1.721   6.716
 5247SOL    HW216641   4.987   1.612   6.596
 5248SOL     OW16642   5.045   1.065   3.835
 5248SOL    HW116643   5.095   1.148   3.810
 5248SOL    HW216644   5.092   0.986   3.796
 5249SOL     OW16645   0.161   4.843   1.194
 5249SOL    HW116646   0.168   4.783   1.114
 5249SOL    HW216647   0.213   4.926   1.178
 5250SOL     OW16648   2.668   5.431   1.067
 5250SOL    HW116649   2.695   5.449   1.162
 5250SOL    HW216650   2.569   5.417   1.064
 5251SOL     OW16651   0.560   4.862   6.673
 5251SOL    HW116652   0.527   4.832   6.583
 5251SOL    HW216653   0.489   4.915   6.719
 5252SOL     OW16654   3.883   5.634   2.937
 5252SOL    HW116655   3.939   5.584   3.002
 5252SOL    HW216656   3.876   5.582   2.851
 5253SOL     OW16657   0.473   6.187   4.990
 5253SOL    HW116658   0.381   6.225   4.995
 5253SOL    HW216659   0.521   6.225   4.911
 5254SOL     OW16660   4.549   5.709   2.775
 5254SOL    HW116661   4.479   5.774   2.746
 5254SOL    HW216662   4.640   5.748   2.759
 5255SOL     OW16663   6.609   1.933   5.453
 5255SOL    HW116664   6.707   1.926   5.472
 5255SOL    HW216665   6.565   1.846   5.474
 5256SOL     OW16666   5.122   1.471   2.845
 5256SOL    HW116667   5.068   1.555   2.847
 5256SOL    HW216668   5.217   1.493   2.827
 5257SOL     OW16669   4.777   2.212   6.730
 5257SOL    HW116670   4.855   2.274   6.739
 5257SOL    HW216671   4.692   2.263   6.742
 5258SOL     OW16672   4.805   1.654   5.264
 5258SOL    HW116673   4.903   1.651   5.245
 5258SOL    HW216674   4.774   1.564   5.293
 5259SOL     OW16675   5.742   5.454   3.833
 5259SOL    HW116676   5.799   5.505   3.768
 5259SOL    HW216677   5.699   5.518   3.897
 5260SOL     OW16678   1.912   5.735   1.626
 5260SOL    HW116679   1.945   5.737   1.532
 5260SOL    HW216680   1.824   5.688   1.630
 5261SOL     OW16681   6.114   4.661   0.118
 5261SOL    HW116682   6.195   4.602   0.114
 5261SOL    HW216683   6.134   4.748   0.074
 5262SOL     OW16684   1.562   1.115   1.560
 5262SOL    HW116685   1.630   1.106   1.486
 5262SOL    HW216686   1.609   1.138   1.645
 5263SOL     OW16687   1.997   6.229   2.876
 5263SOL    HW116688   1.928   6.283   2.829
 5263SOL    HW216689   2.061   6.190   2.809
 5264SOL     OW16690   6.515   2.650   1.771
 5264SOL    HW116691   6.525   2.743   1.809
 5264SOL    HW216692   6.596   2.596   1.793
 5265SOL     OW16693   6.389   5.923   5.418
 5265SOL    HW116694   6.305   5.870   5.428
 5265SOL    HW216695   6.378   5.988   5.343
 5266SOL     OW16696   1.416   6.965   6.043
 5266SOL    HW116697   1.372   6.937   6.128
 5266SOL    HW216698   1.516   6.963   6.056
 5267SOL     OW16699   5.502   1.905   4.129
 5267SOL    HW116700   5.575   1.845   4.161
 5267SOL    HW216701   5.517   1.926   4.032
 5268SOL     OW16702   5.389   6.830   6.064
 5268SOL    HW116703   5.451   6.860   6.137
 5268SOL    HW216704   5.298   6.816   6.101
 5269SOL     OW16705   1.325   0.253   3.885
 5269SOL    HW116706   1.416   0.284   3.911
 5269SOL    HW216707   1.307   0.164   3.925
 5270SOL     OW16708   0.711   1.937   6.234
 5270SOL    HW116709   0.810   1.949   6.222
 5270SOL    HW216710   0.667   1.937   6.145
 5271SOL     OW16711   1.193   5.108   4.255
 5271SOL    HW116712   1.098   5.137   4.242
 5271SOL    HW216713   1.235   5.165   4.325
 5272SOL     OW16714   4.169   0.479   6.392
 5272SOL    HW116715   4.138   0.536   6.469
 5272SOL    HW216716   4.243   0.527   6.344
 5273SOL     OW16717   2.931   1.677   2.822
 5273SOL    HW116718   2.849   1.707   2.774
 5273SOL    HW216719   2.985   1.616   2.764
 5274SOL     OW16720   5.485   5.018   1.352
 5274SOL    HW116721   5.504   4.985   1.259
 5274SOL    HW216722   5.554   4.982   1.415
 5275SOL     OW16723   5.345   1.803   6.209
 5275SOL    HW116724   5.345   1.726   6.272
 5275SOL    HW216725   5.393   1.881   6.250
 5276SOL     OW16726   4.117   6.156   1.641
 5276SOL    HW116727   4.191   6.207   1.684
 5276SOL    HW216728   4.053   6.125   1.712
 5277SOL     OW16729   2.296   2.971   1.849
 5277SOL    HW116730   2.296   2.941   1.945
 5277SOL    HW216731   2.231   3.046   1.838
 5278SOL     OW16732   3.578   3.013   2.174
 5278SOL    HW116733   3.657   3.057   2.132
 5278SOL    HW216734   3.568   3.046   2.268
 5279SOL     OW16735   1.310   6.322   3.019
 5279SOL    HW116736   1.260   6.249   2.973
 5279SOL    HW216737   1.382   6.357   2.959
 5280SOL     OW16738   3.663   1.167   4.444
 5280SOL    HW116739   3.574   1.212   4.450
 5280SOL    HW216740   3.650   1.069   4.427
 5281SOL     OW16741   0.018   2.506   3.958
 5281SOL    HW116742   0.004   2.591   3.908
 5281SOL    HW216743   0.043   2.434   3.894
 5282SOL     OW16744   4.872   2.397   0.926
 5282SOL    HW116745   4.901   2.479   0.877
 5282SOL    HW216746   4.950   2.355   0.971
 5283SOL     OW16747   4.339   4.551   6.279
 5283SOL    HW116748   4.436   4.558   6.298
 5283SOL    HW216749   4.322   4.564   6.182
 5284SOL     OW16750   4.955   3.011   3.843
 5284SOL    HW116751   4.896   3.082   3.882
 5284SOL    HW216752   5.016   2.975   3.913
 5285SOL     OW16753   4.254   6.258   2.670
 5285SOL    HW116754   4.327   6.277   2.734
 5285SOL    HW216755   4.193   6.188   2.707
 5286SOL     OW16756   2.016   4.854   1.847
 5286SOL    HW116757   1.941   4.788   1.855
 5286SOL    HW216758   2.009   4.922   1.920
 5287SOL     OW16759   0.891   1.188   2.527
 5287SOL    HW116760   0.879   1.287   2.534
 5287SOL    HW216761   0.804   1.146   2.504
 5288SOL     OW16762   4.291   0.396   1.016
 5288SOL    HW116763   4.238   0.468   0.972
 5288SOL    HW216764   4.385   0.427   1.030
 5289SOL     OW16765   1.319   6.323   1.228
 5289SOL    HW116766   1.366   6.391   1.284
 5289SOL    HW216767   1.327   6.348   1.132
 5290SOL     OW16768   5.986   5.737   0.160
 5290SOL    HW116769   5.946   5.764   0.247
 5290SOL    HW216770   5.918   5.746   0.087
 5291SOL     OW16771   0.901   5.791   6.402
 5291SOL    HW116772   0.872   5.766   6.310
 5291SOL    HW216773   0.931   5.886   6.403
 5292SOL     OW16774   5.546   1.283   0.834
 5292SOL    HW116775   5.617   1.323   0.891
 5292SOL    HW216776   5.587   1.234   0.757
 5293SOL     OW16777   1.550   1.548   4.223
 5293SOL    HW116778   1.471   1.522   4.167
 5293SOL    HW216779   1.556   1.648   4.227
 5294SOL     OW16780   4.042   2.782   6.284
 5294SOL    HW116781   4.001   2.797   6.374
 5294SOL    HW216782   4.049   2.869   6.235
 5295SOL     OW16783   6.673   1.562   2.756
 5295SOL    HW116784   6.587   1.511   2.744
 5295SOL    HW216785   6.750   1.500   2.741
 5296SOL     OW16786   0.491   3.031   6.579
 5296SOL    HW116787   0.534   2.988   6.658
 5296SOL    HW216788   0.557   3.093   6.535
 5297SOL     OW16789   1.117   2.738   1.803
 5297SOL    HW116790   1.110   2.725   1.902
 5297SOL    HW216791   1.170   2.663   1.763
 5298SOL     OW16792   1.259   4.397   1.591
 5298SOL    HW116793   1.163   4.376   1.573
 5298SOL    HW216794   1.275   4.495   1.580
 5299SOL     OW16795   2.871   0.211   0.561
 5299SOL    HW116796   2.904   0.120   0.588
 5299SOL    HW216797   2.908   0.279   0.625
 5300SOL     OW16798   0.347   5.348   4.025
 5300SOL    HW116799   0.431   5.294   4.028
 5300SOL    HW216800   0.297   5.337   4.111
 5301SOL     OW16801   4.915   0.245   6.909
 5301SOL    HW116802   5.013   0.252   6.930
 5301SOL    HW216803   4.894   0.154   6.875
 5302SOL     OW16804   6.661   3.919   3.640
 5302SOL    HW116805   6.586   3.958   3.587
 5302SOL    HW216806   6.738   3.899   3.579
 5303SOL     OW16807   1.742   4.728   3.503
 5303SOL    HW116808   1.760   4.646   3.557
 5303SOL    HW216809   1.825   4.753   3.453
 5304SOL     OW16810   4.401   3.013   5.631
 5304SOL    HW116811   4.340   3.058   5.566
 5304SOL    HW216812   4.432   3.080   5.700
 5305SOL     OW16813   3.278   1.465   4.342
 5305SOL    HW116814   3.292   1.421   4.253
 5305SOL    HW216815   3.346   1.536   4.355
 5306SOL     OW16816   2.330   6.386   4.412
 5306SOL    HW116817   2.299   6.375   4.317
 5306SOL    HW216818   2.266   6.444   4.462
 5307SOL     OW16819   4.810   0.382   0.217
 5307SOL    HW116820   4.906   0.357   0.211
 5307SOL    HW216821   4.802   0.470   0.265
 5308SOL     OW16822   6.305   1.556   1.937
 5308SOL    HW116823   6.376   1.613   1.896
 5308SOL    HW216824   6.236   1.534   1.868
 5309SOL     OW16825   3.769   3.663   5.025
 5309SOL    HW116826   3.672   3.649   5.046
 5309SOL    HW216827   3.800   3.594   4.960
 5310SOL     OW16828   5.365   2.767   0.791
 5310SOL    HW116829   5.345   2.683   0.842
 5310SOL    HW216830   5.317   2.765   0.703
 5311SOL     OW16831   0.299   6.433   6.878
 5311SOL    HW116832   0.289   6.431   6.778
 5311SOL    HW216833   0.368   6.366   6.905
 5312SOL     OW16834   0.627   3.132   1.818
 5312SOL    HW116835   0.546   3.104   1.766
 5312SOL    HW216836   0.619   3.228   1.842
 5313SOL     OW16837   0.510   5.964   0.680
 5313SOL    HW116838   0.437   5.996   0.741
 5313SOL    HW216839   0.598   5.995   0.715
 5314SOL     OW16840   3.720   5.073   1.428
 5314SOL    HW116841   3.787   5.000   1.443
 5314SOL    HW216842   3.757   5.140   1.364
 5315SOL     OW16843   5.609   2.221   2.494
 5315SOL    HW116844   5.674   2.180   2.430
 5315SOL    HW216845   5.557   2.149   2.540
 5316SOL     OW16846   5.617   5.375   4.314
 5316SOL    HW116847   5.553   5.355   4.388
 5316SOL    HW216848   5.661   5.291   4.284
 5317SOL     OW16849   6.679   5.374   2.374
 5317SOL    HW116850   6.610   5.400   2.306
 5317SOL    HW216851   6.740   5.451   2.391
 5318SOL     OW16852   0.479   2.762   3.996
 5318SOL    HW116853   0.575   2.746   3.973
 5318SOL    HW216854   0.451   2.698   4.067
 5319SOL     OW16855   3.089   6.717   2.755
 5319SOL    HW116856   3.117   6.642   2.815
 5319SOL    HW216857   3.010   6.688   2.701
 5320SOL     OW16858   0.150   3.102   6.467
 5320SOL    HW116859   0.206   3.021   6.453
 5320SOL    HW216860   0.167   3.168   6.394
 5321SOL     OW16861   2.791   4.326   6.354
 5321SOL    HW116862   2.769   4.346   6.258
 5321SOL    HW216863   2.751   4.397   6.412
 5322SOL     OW16864   2.275   5.933   0.947
 5322SOL    HW116865   2.182   5.968   0.946
 5322SOL    HW216866   2.325   5.973   1.023
 5323SOL     OW16867   5.443   3.163   0.361
 5323SOL    HW116868   5.533   3.122   0.381
 5323SOL    HW216869   5.447   3.261   0.378
 5324SOL     OW16870   4.231   2.771   1.183
 5324SOL    HW116871   4.314   2.797   1.135
 5324SOL    HW216872   4.230   2.672   1.197
 5325SOL     OW16873   3.978   6.231   4.730
 5325SOL    HW116874   3.890   6.213   4.685
 5325SOL    HW216875   4.005   6.326   4.712
 5326SOL     OW16876   0.453   0.375   2.176
 5326SOL    HW116877   0.472   0.386   2.079
 5326SOL    HW216878   0.468   0.280   2.202
 5327SOL     OW16879   6.730   0.554   3.928
 5327SOL    HW116880   6.747   0.506   3.842
 5327SOL    HW216881   6.749   0.652   3.915
 5328SOL     OW16882   3.549   4.922   0.162
 5328SOL    HW116883   3.588   4.933   0.253
 5328SOL    HW216884   3.619   4.886   0.100
 5329SOL     OW16885   0.331   5.500   6.459
 5329SOL    HW116886   0.300   5.408   6.436
 5329SOL    HW216887   0.426   5.512   6.429
 5330SOL     OW16888   3.555   4.681   0.475
 5330SOL    HW116889   3.590   4.705   0.565
 5330SOL    HW216890   3.459   4.709   0.468
 5331SOL     OW16891   5.460   1.139   6.836
 5331SOL    HW116892   5.467   1.203   6.760
 5331SOL    HW216893   5.519   1.060   6.819
 5332SOL     OW16894   6.262   2.985   0.182
 5332SOL    HW116895   6.209   3.069   0.173
 5332SOL    HW216896   6.360   3.007   0.186
 5333SOL     OW16897   1.167   0.480   3.820
 5333SOL    HW116898   1.086   0.438   3.861
 5333SOL    HW216899   1.245   0.419   3.828
 5334SOL     OW16900   3.126   6.428   1.340
 5334SOL    HW116901   3.138   6.524   1.314
 5334SOL    HW216902   3.179   6.409   1.423
 5335SOL     OW16903   0.270   4.697   2.288
 5335SOL    HW116904   0.199   4.629   2.307
 5335SOL    HW216905   0.309   4.681   2.197
 5336SOL     OW16906   1.861   3.529   5.173
 5336SOL    HW116907   1.870   3.522   5.273
 5336SOL    HW216908   1.846   3.438   5.134
 5337SOL     OW16909   6.439   3.346   1.289
 5337SOL    HW116910   6.367   3.405   1.326
 5337SOL    HW216911   6.504   3.322   1.362
 5338SOL     OW16912   6.932   3.583   0.849
 5338SOL    HW116913   6.927   3.641   0.767
 5338SOL    HW216914   7.011   3.522   0.843
 5339SOL     OW16915   5.581   2.857   2.899
 5339SOL    HW116916   5.500   2.809   2.865
 5339SOL    HW216917   5.571   2.955   2.881
 5340SOL     OW16918   4.840   3.269   1.394
 5340SOL    HW116919   4.816   3.336   1.465
 5340SOL    HW216920   4.763   3.257   1.333
 5341SOL     OW16921   4.827   4.942   3.382
 5341SOL    HW116922   4.751   4.962   3.444
 5341SOL    HW216923   4.873   5.027   3.357
 5342SOL     OW16924   6.315   5.836   4.504
 5342SOL    HW116925   6.315   5.753   4.448
 5342SOL    HW216926   6.335   5.915   4.447
 5343SOL     OW16927   3.848   3.303   6.726
 5343SOL    HW116928   3.748   3.299   6.733
 5343SOL    HW216929   3.877   3.398   6.715
 5344SOL     OW16930   6.553   2.078   0.060
 5344SOL    HW116931   6.590   2.074   6.990
 5344SOL    HW216932   6.608   2.020   0.120
 5345SOL     OW16933   3.629   1.673   0.305
 5345SOL    HW116934   3.680   1.600   0.259
 5345SOL    HW216935   3.646   1.669   0.404
 5346SOL     OW16936   2.662   6.692   3.387
 5346SOL    HW116937   2.743   6.637   3.407
 5346SOL    HW216938   2.586   6.632   3.360
 5347SOL     OW16939   5.116   1.734   5.257
 5347SOL    HW116940   5.051   1.797   5.299
 5347SOL    HW216941   5.198   1.784   5.229
 5348SOL     OW16942   4.793   2.958   5.450
 5348SOL    HW116943   4.839   3.003   5.527
 5348SOL    HW216944   4.809   3.009   5.366
 5349SOL     OW16945   0.906   4.214   1.253
 5349SOL    HW116946   0.896   4.253   1.161
 5349SOL    HW216947   0.904   4.115   1.247
 5350SOL     OW16948   0.825   6.654   5.977
 5350SOL    HW116949   0.876   6.738   5.998
 5350SOL    HW216950   0.816   6.645   5.878
 5351SOL     OW16951   0.352   5.873   3.391
 5351SOL    HW116952   0.331   5.836   3.300
 5351SOL    HW216953   0.450   5.867   3.407
 5352SOL     OW16954   1.404   2.664   5.797
 5352SOL    HW116955   1.398   2.747   5.741
 5352SOL    HW216956   1.479   2.607   5.763
 5353SOL     OW16957   3.027   6.744   3.619
 5353SOL    HW116958   2.995   6.736   3.713
 5353SOL    HW216959   3.125   6.728   3.615
 5354SOL     OW16960   3.925   5.764   1.909
 5354SOL    HW116961   3.958   5.682   1.864
 5354SOL    HW216962   3.913   5.747   2.007
 5355SOL     OW16963   5.088   5.505   5.320
 5355SOL    HW116964   5.177   5.462   5.338
 5355SOL    HW216965   5.089   5.549   5.231
 5356SOL     OW16966   1.235   6.781   1.362
 5356SOL    HW116967   1.324   6.786   1.317
 5356SOL    HW216968   1.172   6.728   1.304
 5357SOL     OW16969   6.452   3.150   2.647
 5357SOL    HW116970   6.513   3.192   2.580
 5357SOL    HW216971   6.391   3.219   2.684
 5358SOL     OW16972   5.871   0.857   6.397
 5358SOL    HW116973   5.929   0.777   6.380
 5358SOL    HW216974   5.776   0.826   6.407
 5359SOL     OW16975   2.927   2.414   6.692
 5359SOL    HW116976   2.849   2.386   6.635
 5359SOL    HW216977   2.960   2.335   6.743
 5360SOL     OW16978   5.602   5.854   3.764
 5360SOL    HW116979   5.621   5.848   3.666
 5360SOL    HW216980   5.595   5.950   3.791
 5361SOL     OW16981   1.820   3.835   3.537
 5361SOL    HW116982   1.900   3.887   3.506
 5361SOL    HW216983   1.829   3.816   3.635
 5362SOL     OW16984   6.514   0.965   3.539
 5362SOL    HW116985   6.455   0.947   3.617
 5362SOL    HW216986   6.606   0.930   3.558
 5363SOL     OW16987   5.761   5.588   4.199
 5363SOL    HW116988   5.848   5.552   4.164
 5363SOL    HW216989   5.710   5.514   4.243
 5364SOL     OW16990   4.866   2.383   2.360
 5364SOL    HW116991   4.800   2.310   2.375
 5364SOL    HW216992   4.844   2.432   2.276
 5365SOL     OW16993   3.334   3.880   5.383
 5365SOL    HW116994   3.386   3.902   5.300
 5365SOL    HW216995   3.393   3.828   5.445
 5366SOL     OW16996   0.579   4.963   3.224
 5366SOL    HW116997   0.619   5.007   3.304
 5366SOL    HW216998   0.651   4.944   3.157
 5367SOL     OW16999   6.274   6.251   1.270
 5367SOL    HW117000   6.251   6.321   1.202
 5367SOL    HW217001   6.260   6.288   1.362
 5368SOL     OW17002   0.392   5.536   4.983
 5368SOL    HW117003   0.440   5.458   5.023
 5368SOL    HW217004   0.309   5.555   5.036
 5369SOL     OW17005   4.504   6.885   3.154
 5369SOL    HW117006   4.483   6.817   3.224
 5369SOL    HW217007   4.423   6.904   3.099
 5370SOL     OW17008   2.603   2.043   0.754
 5370SOL    HW117009   2.519   1.990   0.759
 5370SOL    HW217010   2.670   1.995   0.697
 5371SOL     OW17011   6.032   5.440   3.522
 5371SOL    HW117012   5.978   5.495   3.585
 5371SOL    HW217013   5.991   5.349   3.513
 5372SOL     OW17014   1.655   0.114   3.780
 5372SOL    HW117015   1.638   0.128   3.682
 5372SOL    HW217016   1.645   0.201   3.828
 5373SOL     OW17017   3.150   0.698   6.973
 5373SOL    HW117018   3.104   0.769   0.004
 5373SOL    HW217019   3.239   0.732   6.943
 5374SOL     OW17020   1.556   3.893   1.254
 5374SOL    HW117021   1.602   3.807   1.276
 5374SOL    HW217022   1.477   3.905   1.314
 5375SOL     OW17023   2.618   4.675   4.909
 5375SOL    HW117024   2.567   4.601   4.952
 5375SOL    HW217025   2.713   4.673   4.939
 5376SOL     OW17026   1.021   0.937   1.426
 5376SOL    HW117027   1.088   1.005   1.394
 5376SOL    HW217028   0.967   0.977   1.500
 5377SOL     OW17029   0.592   2.495   2.106
 5377SOL    HW117030   0.629   2.404   2.090
 5377SOL    HW217031   0.507   2.488   2.159
 5378SOL     OW17032   5.484   6.928   2.668
 5378SOL    HW117033   5.423   6.855   2.637
 5378SOL    HW217034   5.431   7.009   2.692
 5379SOL     OW17035   2.458   1.806   3.737
 5379SOL    HW117036   2.419   1.719   3.769
 5379SOL    HW217037   2.499   1.792   3.646
 5380SOL     OW17038   5.157   6.378   1.218
 5380SOL    HW117039   5.181   6.472   1.241
 5380SOL    HW217040   5.081   6.348   1.276
 5381SOL     OW17041   3.446   2.074   3.009
 5381SOL    HW117042   3.497   2.081   2.923
 5381SOL    HW217043   3.494   2.124   3.081
 5382SOL     OW17044   4.368   0.462   2.738
 5382SOL    HW117045   4.303   0.538   2.744
 5382SOL    HW217046   4.325   0.379   2.771
 5383SOL     OW17047   2.452   3.461   5.338
 5383SOL    HW117048   2.392   3.541   5.345
 5383SOL    HW217049   2.397   3.381   5.313
 5384SOL     OW17050   4.902   6.775   6.170
 5384SOL    HW117051   4.911   6.858   6.115
 5384SOL    HW217052   4.878   6.800   6.264
 5385SOL     OW17053   3.233   3.159   0.230
 5385SOL    HW117054   3.294   3.119   0.161
 5385SOL    HW217055   3.279   3.236   0.274
 5386SOL     OW17056   4.190   4.821   3.428
 5386SOL    HW117057   4.267   4.877   3.458
 5386SOL    HW217058   4.222   4.751   3.364
 5387SOL     OW17059   1.086   2.587   4.106
 5387SOL    HW117060   1.023   2.599   4.029
 5387SOL    HW217061   1.146   2.667   4.112
 5388SOL     OW17062   6.807   6.058   3.761
 5388SOL    HW117063   6.807   5.962   3.735
 5388SOL    HW217064   6.896   6.099   3.738
 5389SOL     OW17065   5.131   1.603   4.381
 5389SOL    HW117066   5.164   1.640   4.295
 5389SOL    HW217067   5.031   1.603   4.382
 5390SOL     OW17068   5.624   3.506   3.482
 5390SOL    HW117069   5.552   3.481   3.546
 5390SOL    HW217070   5.712   3.475   3.518
 5391SOL     OW17071   5.070   2.809   1.362
 5391SOL    HW117072   5.108   2.717   1.350
 5391SOL    HW217073   4.990   2.819   1.303
 5392SOL     OW17074   5.421   0.499   4.276
 5392SOL    HW117075   5.332   0.522   4.236
 5392SOL    HW217076   5.492   0.556   4.234
 5393SOL     OW17077   3.941   1.759   3.371
 5393SOL    HW117078   3.899   1.824   3.433
 5393SOL    HW217079   3.965   1.675   3.421
 5394SOL     OW17080   6.951   2.728   2.395
 5394SOL    HW117081   6.932   2.697   2.488
 5394SOL    HW217082   7.017   2.803   2.397
 5395SOL     OW17083   0.158   1.421   0.971
 5395SOL    HW117084   0.120   1.417   1.063
 5395SOL    HW217085   0.115   1.495   0.920
 5396SOL     OW17086   4.265   2.498   1.206
 5396SOL    HW117087   4.253   2.471   1.110
 5396SOL    HW217088   4.211   2.438   1.265
 5397SOL     OW17089   0.110   0.159   2.041
 5397SOL    HW117090   0.162   0.095   1.985
 5397SOL    HW217091   0.129   0.142   2.138
 5398SOL     OW17092   5.980   2.271   3.689
 5398SOL    HW117093   5.888   2.244   3.661
 5398SOL    HW217094   6.037   2.285   3.608
 5399SOL     OW17095   2.707   3.111   0.464
 5399SOL    HW117096   2.801   3.078   0.476
 5399SOL    HW217097   2.646   3.058   0.522
 5400SOL     OW17098   5.332   3.151   1.369
 5400SOL    HW117099   5.374   3.093   1.300
 5400SOL    HW217100   5.234   3.130   1.374
 5401SOL     OW17101   5.149   3.169   1.669
 5401SOL    HW117102   5.113   3.120   1.589
 5401SOL    HW217103   5.073   3.195   1.729
 5402SOL     OW17104   1.445   5.735   2.085
 5402SOL    HW117105   1.373   5.791   2.125
 5402SOL    HW217106   1.407   5.677   2.013
 5403SOL     OW17107   6.119   1.995   6.135
 5403SOL    HW117108   6.181   1.947   6.073
 5403SOL    HW217109   6.113   2.091   6.110
 5404SOL     OW17110   4.364   6.556   0.653
 5404SOL    HW117111   4.398   6.642   0.691
 5404SOL    HW217112   4.299   6.515   0.716
 5405SOL     OW17113   0.030   5.120   6.494
 5405SOL    HW117114   6.979   5.055   6.481
 5405SOL    HW217115   0.076   5.100   6.580
 5406SOL     OW17116   2.643   0.612   5.457
 5406SOL    HW117117   2.677   0.680   5.392
 5406SOL    HW217118   2.582   0.548   5.410
 5407SOL     OW17119   1.795   0.382   2.806
 5407SOL    HW117120   1.788   0.448   2.880
 5407SOL    HW217121   1.829   0.295   2.841
 5408SOL     OW17122   1.777   2.286   4.442
 5408SOL    HW117123   1.765   2.374   4.487
 5408SOL    HW217124   1.709   2.276   4.369
 5409SOL     OW17125   0.909   3.245   2.654
 5409SOL    HW117126   0.840   3.197   2.599
 5409SOL    HW217127   0.931   3.332   2.610
 5410SOL     OW17128   5.878   2.173   0.304
 5410SOL    HW117129   5.853   2.084   0.341
 5410SOL    HW217130   5.807   2.240   0.326
 5411SOL     OW17131   3.140   5.192   1.514
 5411SOL    HW117132   3.236   5.167   1.501
 5411SOL    HW217133   3.121   5.277   1.465
 5412SOL     OW17134   1.432   2.377   5.605
 5412SOL    HW117135   1.511   2.361   5.664
 5412SOL    HW217136   1.350   2.337   5.647
 5413SOL     OW17137   0.169   5.692   6.063
 5413SOL    HW117138   0.251   5.710   6.117
 5413SOL    HW217139   0.165   5.756   5.986
 5414SOL     OW17140   5.605   5.559   6.145
 5414SOL    HW117141   5.600   5.463   6.174
 5414SOL    HW217142   5.698   5.579   6.113
 5415SOL     OW17143   1.823   1.334   6.363
 5415SOL    HW117144   1.894   1.263   6.365
 5415SOL    HW217145   1.819   1.374   6.271
 5416SOL     OW17146   3.390   5.818   6.675
 5416SOL    HW117147   3.457   5.748   6.654
 5416SOL    HW217148   3.437   5.904   6.698
 5417SOL     OW17149   5.611   6.915   2.397
 5417SOL    HW117150   5.680   6.950   2.462
 5417SOL    HW217151   5.523   6.957   2.416
 5418SOL     OW17152   0.387   3.915   5.574
 5418SOL    HW117153   0.374   3.956   5.665
 5418SOL    HW217154   0.298   3.895   5.534
 5419SOL     OW17155   3.848   1.382   6.258
 5419SOL    HW117156   3.856   1.478   6.232
 5419SOL    HW217157   3.890   1.325   6.188
 5420SOL     OW17158   1.647   2.057   0.738
 5420SOL    HW117159   1.634   2.143   0.787
 5420SOL    HW217160   1.669   1.985   0.803
 5421SOL     OW17161   4.277   5.003   1.695
 5421SOL    HW117162   4.275   5.086   1.640
 5421SOL    HW217163   4.351   4.943   1.664
 5422SOL     OW17164   2.663   6.164   3.353
 5422SOL    HW117165   2.688   6.194   3.445
 5422SOL    HW217166   2.566   6.138   3.353
 5423SOL     OW17167   4.010   6.799   1.536
 5423SOL    HW117168   3.938   6.868   1.551
 5423SOL    HW217169   3.968   6.713   1.508
 5424SOL     OW17170   3.854   3.757   5.317
 5424SOL    HW117171   3.945   3.722   5.338
 5424SOL    HW217172   3.786   3.686   5.335
 5425SOL     OW17173   1.481   5.169   5.359
 5425SOL    HW117174   1.576   5.180   5.389
 5425SOL    HW217175   1.474   5.195   5.262
 5426SOL     OW17176   0.972   4.433   6.975
 5426SOL    HW117177   1.021   4.480   6.902
 5426SOL    HW217178   0.978   4.334   6.962
 5427SOL     OW17179   4.667   2.224   0.397
 5427SOL    HW117180   4.691   2.257   0.489
 5427SOL    HW217181   4.693   2.293   0.329
 5428SOL     OW17182   4.546   5.716   3.042
 5428SOL    HW117183   4.562   5.711   2.943
 5428SOL    HW217184   4.459   5.672   3.064
 5429SOL     OW17185   2.360   6.295   3.993
 5429SOL    HW117186   2.367   6.392   4.016
 5429SOL    HW217187   2.449   6.251   4.003
 5430SOL     OW17188   1.362   4.245   5.174
 5430SOL    HW117189   1.399   4.330   5.136
 5430SOL    HW217190   1.263   4.251   5.178
 5431SOL     OW17191   5.192   4.690   1.599
 5431SOL    HW117192   5.282   4.677   1.557
 5431SOL    HW217193   5.163   4.785   1.586
 5432SOL     OW17194   0.571   5.038   6.297
 5432SOL    HW117195   0.657   5.066   6.253
 5432SOL    HW217196   0.495   5.053   6.233
 5433SOL     OW17197   2.930   0.217   1.358
 5433SOL    HW117198   2.910   0.121   1.338
 5433SOL    HW217199   3.017   0.242   1.316
 5434SOL     OW17200   5.377   6.175   4.015
 5434SOL    HW117201   5.319   6.158   3.936
 5434SOL    HW217202   5.418   6.089   4.047
 5435SOL     OW17203   6.863   3.931   6.439
 5435SOL    HW117204   6.785   3.889   6.391
 5435SOL    HW217205   6.872   4.026   6.411
 5436SOL     OW17206   1.936   4.511   1.868
 5436SOL    HW117207   1.855   4.542   1.918
 5436SOL    HW217208   1.918   4.516   1.769
 5437SOL     OW17209   3.394   6.097   0.008
 5437SOL    HW117210   3.424   6.186   0.043
 5437SOL    HW217211   3.466   6.029   0.025
 5438SOL     OW17212   5.752   6.985   2.677
 5438SOL    HW117213   5.654   6.966   2.674
 5438SOL    HW217214   5.766   0.059   2.695
 5439SOL     OW17215   1.638   3.959   1.776
 5439SOL    HW117216   1.551   3.994   1.810
 5439SOL    HW217217   1.712   3.999   1.830
 5440SOL     OW17218   6.370   6.839   3.833
 5440SOL    HW117219   6.367   6.901   3.754
 5440SOL    HW217220   6.294   6.859   3.895
 5441SOL     OW17221   5.639   1.804   4.715
 5441SOL    HW117222   5.539   1.816   4.713
 5441SOL    HW217223   5.671   1.810   4.809
 5442SOL     OW17224   2.442   0.218   6.600
 5442SOL    HW117225   2.496   0.284   6.548
 5442SOL    HW217226   2.404   0.262   6.681
 5443SOL     OW17227   5.889   0.548   3.331
 5443SOL    HW117228   5.840   0.625   3.372
 5443SOL    HW217229   5.962   0.520   3.392
 5444SOL     OW17230   1.025   1.307   5.667
 5444SOL    HW117231   0.976   1.341   5.748
 5444SOL    HW217232   1.087   1.378   5.634
 5445SOL     OW17233   5.958   6.693   5.194
 5445SOL    HW117234   5.885   6.665   5.255
 5445SOL    HW217235   5.975   6.791   5.204
 5446SOL     OW17236   1.549   5.379   5.764
 5446SOL    HW117237   1.630   5.438   5.758
 5446SOL    HW217238   1.492   5.410   5.841
 5447SOL     OW17239   6.265   2.163   1.345
 5447SOL    HW117240   6.300   2.095   1.282
 5447SOL    HW217241   6.259   2.124   1.437
 5448SOL     OW17242   6.528   4.655   1.794
 5448SOL    HW117243   6.605   4.694   1.745
 5448SOL    HW217244   6.458   4.725   1.808
 5449SOL     OW17245   1.814   6.865   2.110
 5449SOL    HW117246   1.913   6.854   2.109
 5449SOL    HW217247   1.779   6.865   2.016
 5450SOL     OW17248   4.783   5.613   1.550
 5450SOL    HW117249   4.706   5.650   1.602
 5450SOL    HW217250   4.853   5.579   1.614
 5451SOL     OW17251   0.525   6.561   3.781
 5451SOL    HW117252   0.465   6.641   3.789
 5451SOL    HW217253   0.484   6.496   3.717
 5452SOL     OW17254   2.289   4.385   2.976
 5452SOL    HW117255   2.193   4.364   2.962
 5452SOL    HW217256   2.307   4.398   3.074
 5453SOL     OW17257   5.924   4.731   4.270
 5453SOL    HW117258   5.825   4.720   4.266
 5453SOL    HW217259   5.964   4.708   4.181
 5454SOL     OW17260   5.858   4.181   2.610
 5454SOL    HW117261   5.913   4.203   2.690
 5454SOL    HW217262   5.871   4.251   2.540
 5455SOL     OW17263   2.717   2.163   3.088
 5455SOL    HW117264   2.672   2.076   3.066
 5455SOL    HW217265   2.647   2.232   3.107
 5456SOL     OW17266   5.579   2.507   0.665
 5456SOL    HW117267   5.619   2.546   0.748
 5456SOL    HW217268   5.652   2.464   0.610
 5457SOL     OW17269   6.562   1.319   0.137
 5457SOL    HW117270   6.495   1.386   0.104
 5457SOL    HW217271   6.653   1.360   0.134
 5458SOL     OW17272   5.407   4.536   5.895
 5458SOL    HW117273   5.444   4.620   5.935
 5458SOL    HW217274   5.311   4.550   5.870
 5459SOL     OW17275   2.146   2.965   5.087
 5459SOL    HW117276   2.104   2.886   5.043
 5459SOL    HW217277   2.243   2.967   5.065
 5460SOL     OW17278   0.392   0.638   1.332
 5460SOL    HW117279   0.362   0.709   1.396
 5460SOL    HW217280   0.481   0.604   1.360
 5461SOL     OW17281   5.876   1.573   6.765
 5461SOL    HW117282   5.793   1.626   6.783
 5461SOL    HW217283   5.954   1.617   6.809
 5462SOL     OW17284   5.137   5.383   6.163
 5462SOL    HW117285   5.144   5.306   6.227
 5462SOL    HW217286   5.218   5.441   6.171
 5463SOL     OW17287   2.105   5.289   6.172
 5463SOL    HW117288   2.172   5.216   6.158
 5463SOL    HW217289   2.019   5.250   6.205
 5464SOL     OW17290   1.846   5.551   4.333
 5464SOL    HW117291   1.884   5.633   4.289
 5464SOL    HW217292   1.894   5.535   4.419
 5465SOL     OW17293   0.579   0.183   5.023
 5465SOL    HW117294   0.626   0.245   5.086
 5465SOL    HW217295   0.642   0.112   4.993
 5466SOL     OW17296   4.885   2.518   4.979
 5466SOL    HW117297   4.952   2.470   4.922
 5466SOL    HW217298   4.822   2.452   5.019
 5467SOL     OW17299   6.150   3.438   4.435
 5467SOL    HW117300   6.128   3.433   4.338
 5467SOL    HW217301   6.222   3.506   4.449
 5468SOL     OW17302   6.960   2.839   1.681
 5468SOL    HW117303   0.029   2.871   1.662
 5468SOL    HW217304   6.894   2.905   1.644
 5469SOL     OW17305   3.974   2.213   3.680
 5469SOL    HW117306   3.878   2.229   3.705
 5469SOL    HW217307   4.028   2.205   3.764
 5470SOL     OW17308   3.259   5.214   3.234
 5470SOL    HW117309   3.268   5.279   3.309
 5470SOL    HW217310   3.189   5.246   3.170
 5471SOL     OW17311   5.481   0.919   3.017
 5471SOL    HW117312   5.405   0.936   3.080
 5471SOL    HW217313   5.560   0.975   3.044
 5472SOL     OW17314   2.235   3.629   6.761
 5472SOL    HW117315   2.307   3.684   6.804
 5472SOL    HW217316   2.219   3.662   6.668
 5473SOL     OW17317   2.787   4.778   2.218
 5473SOL    HW117318   2.829   4.723   2.146
 5473SOL    HW217319   2.748   4.861   2.177
 5474SOL     OW17320   1.106   4.868   2.008
 5474SOL    HW117321   1.180   4.834   2.065
 5474SOL    HW217322   1.034   4.799   2.002
 5475SOL     OW17323   1.251   1.188   5.080
 5475SOL    HW117324   1.339   1.151   5.051
 5475SOL    HW217325   1.249   1.194   5.180
 5476SOL     OW17326   2.271   0.878   4.597
 5476SOL    HW117327   2.196   0.829   4.641
 5476SOL    HW217328   2.278   0.970   4.636
 5477SOL     OW17329   2.054   3.079   2.969
 5477SOL    HW117330   2.106   2.998   2.943
 5477SOL    HW217331   2.019   3.124   2.887
 5478SOL     OW17332   6.010   4.008   5.910
 5478SOL    HW117333   6.058   4.075   5.855
 5478SOL    HW217334   5.933   4.051   5.957
 5479SOL     OW17335   5.737   3.339   4.681
 5479SOL    HW117336   5.801   3.386   4.620
 5479SOL    HW217337   5.784   3.316   4.766
 5480SOL     OW17338   1.269   3.510   4.552
 5480SOL    HW117339   1.326   3.448   4.498
 5480SOL    HW217340   1.299   3.604   4.535
 5481SOL     OW17341   4.059   1.391   6.636
 5481SOL    HW117342   4.011   1.463   6.586
 5481SOL    HW217343   4.031   1.302   6.601
 5482SOL     OW17344   5.593   3.885   2.401
 5482SOL    HW117345   5.538   3.809   2.365
 5482SOL    HW217346   5.689   3.856   2.408
 5483SOL     OW17347   6.623   2.780   0.235
 5483SOL    HW117348   6.651   2.813   0.325
 5483SOL    HW217349   6.565   2.700   0.245
 5484SOL     OW17350   6.382   0.584   5.452
 5484SOL    HW117351   6.464   0.580   5.509
 5484SOL    HW217352   6.395   0.527   5.371
 5485SOL     OW17353   3.105   0.610   4.382
 5485SOL    HW117354   3.053   0.601   4.467
 5485SOL    HW217355   3.191   0.658   4.400
 5486SOL     OW17356   1.039   0.360   3.547
 5486SOL    HW117357   1.129   0.316   3.556
 5486SOL    HW217358   1.028   0.428   3.619
 5487SOL     OW17359   4.217   5.273   1.646
 5487SOL    HW117360   4.121   5.279   1.617
 5487SOL    HW217361   4.223   5.286   1.745
 5488SOL     OW17362   4.849   1.485   5.573
 5488SOL    HW117363   4.761   1.438   5.569
 5488SOL    HW217364   4.835   1.581   5.600
 5489SOL     OW17365   6.840   4.175   2.033
 5489SOL    HW117366   6.762   4.224   1.994
 5489SOL    HW217367   6.866   4.217   2.120
 5490SOL     OW17368   2.876   2.079   6.068
 5490SOL    HW117369   2.895   1.996   6.017
 5490SOL    HW217370   2.901   2.159   6.013
 5491SOL     OW17371   0.330   5.764   2.513
 5491SOL    HW117372   0.267   5.835   2.544
 5491SOL    HW217373   0.387   5.800   2.439
 5492SOL     OW17374   1.237   1.627   4.497
 5492SOL    HW117375   1.271   1.608   4.589
 5492SOL    HW217376   1.303   1.594   4.429
 5493SOL     OW17377   2.887   1.780   0.942
 5493SOL    HW117378   2.948   1.843   0.894
 5493SOL    HW217379   2.834   1.830   1.010
 5494SOL     OW17380   5.833   2.977   2.711
 5494SOL    HW117381   5.843   3.058   2.769
 5494SOL    HW217382   5.813   3.006   2.617
 5495SOL     OW17383   3.851   2.978   4.005
 5495SOL    HW117384   3.766   3.000   4.052
 5495SOL    HW217385   3.836   2.901   3.943
 5496SOL     OW17386   5.092   5.191   2.212
 5496SOL    HW117387   5.049   5.236   2.290
 5496SOL    HW217388   5.075   5.092   2.217
 5497SOL     OW17389   5.480   0.445   0.990
 5497SOL    HW117390   5.450   0.504   0.914
 5497SOL    HW217391   5.575   0.464   1.012
 5498SOL     OW17392   4.428   1.169   4.813
 5498SOL    HW117393   4.450   1.127   4.725
 5498SOL    HW217394   4.336   1.206   4.812
 5499SOL     OW17395   0.634   1.313   5.399
 5499SOL    HW117396   0.699   1.257   5.347
 5499SOL    HW217397   0.660   1.313   5.495
 5500SOL     OW17398   1.617   6.505   1.038
 5500SOL    HW117399   1.712   6.521   1.065
 5500SOL    HW217400   1.610   6.416   0.993
 5501SOL     OW17401   2.852   0.751   2.407
 5501SOL    HW117402   2.935   0.696   2.421
 5501SOL    HW217403   2.834   0.805   2.489
 5502SOL     OW17404   4.539   3.180   0.082
 5502SOL    HW117405   4.596   3.127   0.019
 5502SOL    HW217406   4.451   3.201   0.038
 5503SOL     OW17407   0.163   6.546   4.638
 5503SOL    HW117408   0.071   6.517   4.613
 5503SOL    HW217409   0.182   6.519   4.732
 5504SOL     OW17410   2.991   2.048   4.332
 5504SOL    HW117411   2.956   1.990   4.260
 5504SOL    HW217412   2.927   2.050   4.408
 5505SOL     OW17413   3.621   4.649   6.959
 5505SOL    HW117414   3.603   4.627   0.031
 5505SOL    HW217415   3.691   4.720   6.953
 5506SOL     OW17416   6.672   6.519   6.036
 5506SOL    HW117417   6.685   6.573   6.119
 5506SOL    HW217418   6.723   6.433   6.044
 5507SOL     OW17419   3.097   5.752   4.850
 5507SOL    HW117420   3.100   5.657   4.882
 5507SOL    HW217421   3.107   5.754   4.751
 5508SOL     OW17422   1.218   0.630   5.458
 5508SOL    HW117423   1.317   0.619   5.444
 5508SOL    HW217424   1.189   0.717   5.417
 5509SOL     OW17425   6.178   0.262   6.351
 5509SOL    HW117426   6.115   0.191   6.318
 5509SOL    HW217427   6.261   0.260   6.295
 5510SOL     OW17428   5.977   0.704   6.054
 5510SOL    HW117429   5.930   0.633   6.107
 5510SOL    HW217430   6.007   0.666   5.966
 5511SOL     OW17431   6.781   2.707   1.429
 5511SOL    HW117432   6.851   2.755   1.481
 5511SOL    HW217433   6.696   2.758   1.430
 5512SOL     OW17434   0.627   0.380   0.356
 5512SOL    HW117435   0.552   0.438   0.389
 5512SOL    HW217436   0.642   0.305   0.421
 5513SOL     OW17437   2.715   5.875   5.029
 5513SOL    HW117438   2.657   5.927   5.092
 5513SOL    HW217439   2.758   5.799   5.079
 5514SOL     OW17440   6.118   5.694   3.895
 5514SOL    HW117441   6.203   5.672   3.846
 5514SOL    HW217442   6.141   5.729   3.986
 5515SOL     OW17443   6.667   3.678   3.326
 5515SOL    HW117444   6.644   3.723   3.240
 5515SOL    HW217445   6.655   3.579   3.317
 5516SOL     OW17446   1.249   2.754   6.299
 5516SOL    HW117447   1.325   2.796   6.349
 5516SOL    HW217448   1.280   2.726   6.209
 5517SOL     OW17449   2.516   0.843   2.116
 5517SOL    HW117450   2.428   0.850   2.069
 5517SOL    HW217451   2.542   0.932   2.153
 5518SOL     OW17452   5.450   4.567   5.277
 5518SOL    HW117453   5.482   4.520   5.359
 5518SOL    HW217454   5.482   4.518   5.196
 5519SOL     OW17455   5.446   3.602   3.175
 5519SOL    HW117456   5.451   3.519   3.118
 5519SOL    HW217457   5.351   3.620   3.199
 5520SOL     OW17458   2.121   2.727   0.746
 5520SOL    HW117459   2.180   2.659   0.702
 5520SOL    HW217460   2.103   2.802   0.681
 5521SOL     OW17461   5.174   5.352   0.368
 5521SOL    HW117462   5.141   5.260   0.348
 5521SOL    HW217463   5.273   5.351   0.375
 5522SOL     OW17464   1.763   2.832   2.036
 5522SOL    HW117465   1.835   2.806   2.101
 5522SOL    HW217466   1.783   2.792   1.946
 5523SOL     OW17467   3.646   0.776   1.712
 5523SOL    HW117468   3.648   0.792   1.613
 5523SOL    HW217469   3.567   0.822   1.752
 5524SOL     OW17470   5.753   6.070   5.657
 5524SOL    HW117471   5.774   6.068   5.755
 5524SOL    HW217472   5.830   6.111   5.608
 5525SOL     OW17473   6.435   5.882   3.859
 5525SOL    HW117474   6.393   5.867   3.949
 5525SOL    HW217475   6.500   5.958   3.865
 5526SOL     OW17476   5.401   3.310   4.812
 5526SOL    HW117477   5.376   3.282   4.905
 5526SOL    HW217478   5.432   3.405   4.814
 5527SOL     OW17479   2.217   3.359   0.091
 5527SOL    HW117480   2.174   3.281   0.046
 5527SOL    HW217481   2.317   3.351   0.083
 5528SOL     OW17482   6.792   3.621   2.953
 5528SOL    HW117483   6.724   3.684   2.990
 5528SOL    HW217484   6.879   3.668   2.942
 5529SOL     OW17485   0.908   1.278   4.048
 5529SOL    HW117486   0.863   1.326   4.123
 5529SOL    HW217487   0.984   1.334   4.013
 5530SOL     OW17488   7.024   3.503   6.791
 5530SOL    HW117489   0.057   3.544   6.863
 5530SOL    HW217490   0.031   3.410   6.773
 5531SOL     OW17491   1.885   2.914   6.642
 5531SOL    HW117492   1.832   2.848   6.696
 5531SOL    HW217493   1.956   2.866   6.591
 5532SOL     OW17494   1.996   2.113   1.435
 5532SOL    HW117495   2.043   2.078   1.354
 5532SOL    HW217496   2.063   2.134   1.506
 5533SOL     OW17497   3.559   0.283   0.499
 5533SOL    HW117498   3.629   0.354   0.494
 5533SOL    HW217499   3.514   0.274   0.410
 5534SOL     OW17500   6.895   4.148   5.292
 5534SOL    HW117501   6.833   4.130   5.216
 5534SOL    HW217502   6.981   4.100   5.277
 5535SOL     OW17503   6.460   3.317   3.975
 5535SOL    HW117504   6.393   3.244   3.964
 5535SOL    HW217505   6.546   3.290   3.932
 5536SOL     OW17506   3.048   0.393   3.813
 5536SOL    HW117507   3.002   0.348   3.891
 5536SOL    HW217508   3.146   0.374   3.817
 5537SOL     OW17509   3.934   1.498   4.681
 5537SOL    HW117510   3.919   1.399   4.684
 5537SOL    HW217511   3.903   1.534   4.593
 5538SOL     OW17512   5.550   2.546   2.518
 5538SOL    HW117513   5.549   2.483   2.597
 5538SOL    HW217514   5.586   2.634   2.547
 5539SOL     OW17515   2.458   0.008   0.041
 5539SOL    HW117516   2.388   7.017   6.995
 5539SOL    HW217517   2.528   0.069   0.004
 5540SOL     OW17518   5.031   0.295   5.521
 5540SOL    HW117519   5.076   0.329   5.438
 5540SOL    HW217520   5.006   0.199   5.509
 5541SOL     OW17521   4.997   3.135   6.931
 5541SOL    HW117522   4.936   3.129   7.010
 5541SOL    HW217523   5.005   3.230   6.901
 5542SOL     OW17524   4.504   4.579   0.506
 5542SOL    HW117525   4.527   4.482   0.503
 5542SOL    HW217526   4.549   4.622   0.585
 5543SOL     OW17527   1.301   0.497   6.725
 5543SOL    HW117528   1.386   0.489   6.673
 5543SOL    HW217529   1.319   0.476   6.821
 5544SOL     OW17530   3.765   5.097   0.683
 5544SOL    HW117531   3.865   5.092   0.687
 5544SOL    HW217532   3.735   5.189   0.709
 5545SOL     OW17533   5.249   0.963   4.043
 5545SOL    HW117534   5.225   1.001   4.132
 5545SOL    HW217535   5.275   1.038   3.981
 5546SOL     OW17536   0.500   5.006   4.432
 5546SOL    HW117537   0.429   4.943   4.463
 5546SOL    HW217538   0.548   4.967   4.353
 5547SOL     OW17539   5.030   2.164   4.772
 5547SOL    HW117540   5.034   2.263   4.779
 5547SOL    HW217541   5.025   2.124   4.864
 5548SOL     OW17542   0.527   4.789   5.251
 5548SOL    HW117543   0.519   4.883   5.218
 5548SOL    HW217544   0.543   4.727   5.174
 5549SOL     OW17545   4.206   3.091   0.476
 5549SOL    HW117546   4.259   3.098   0.560
 5549SOL    HW217547   4.171   2.998   0.465
 5550SOL     OW17548   2.572   3.964   1.653
 5550SOL    HW117549   2.494   4.004   1.701
 5550SOL    HW217550   2.594   3.875   1.693
 5551SOL     OW17551   1.997   5.103   2.677
 5551SOL    HW117552   1.986   5.032   2.607
 5551SOL    HW217553   2.019   5.061   2.765
 5552SOL     OW17554   0.950   6.746   7.003
 5552SOL    HW117555   0.946   6.785   6.910
 5552SOL    HW217556   0.999   6.810   0.039
 5553SOL     OW17557   5.409   0.409   0.093
 5553SOL    HW117558   5.341   0.453   0.151
 5553SOL    HW217559   5.375   0.406   7.022
 5554SOL     OW17560   6.951   2.070   1.375
 5554SOL    HW117561   6.964   2.159   1.330
 5554SOL    HW217562   7.000   2.000   1.324
 5555SOL     OW17563   1.308   4.984   2.722
 5555SOL    HW117564   1.386   4.922   2.729
 5555SOL    HW217565   1.224   4.930   2.712
 5556SOL     OW17566   6.950   0.904   4.306
 5556SOL    HW117567   7.013   0.974   4.338
 5556SOL    HW217568   6.876   0.892   4.371
 5557SOL     OW17569   3.677   6.071   3.300
 5557SOL    HW117570   3.687   6.134   3.223
 5557SOL    HW217571   3.727   5.987   3.281
 5558SOL     OW17572   4.406   3.904   0.248
 5558SOL    HW117573   4.313   3.897   0.284
 5558SOL    HW217574   4.461   3.961   0.308
 5559SOL     OW17575   3.309   1.227   2.681
 5559SOL    HW117576   3.343   1.318   2.657
 5559SOL    HW217577   3.362   1.158   2.632
 5560SOL     OW17578   0.584   5.230   3.844
 5560SOL    HW117579   0.641   5.164   3.794
 5560SOL    HW217580   0.504   5.254   3.788
 5561SOL     OW17581   3.172   6.535   2.928
 5561SOL    HW117582   3.129   6.493   3.008
 5561SOL    HW217583   3.261   6.492   2.911
 5562SOL     OW17584   3.524   3.388   0.946
 5562SOL    HW117585   3.575   3.330   1.009
 5562SOL    HW217586   3.472   3.456   0.998
 5563SOL     OW17587   2.500   4.529   2.403
 5563SOL    HW117588   2.587   4.542   2.451
 5563SOL    HW217589   2.506   4.570   2.312
 5564SOL     OW17590   4.960   0.471   6.119
 5564SOL    HW117591   5.057   0.487   6.100
 5564SOL    HW217592   4.904   0.514   6.048
 5565SOL     OW17593   3.421   1.297   6.283
 5565SOL    HW117594   3.395   1.200   6.273
 5565SOL    HW217595   3.371   1.337   6.359
 5566SOL     OW17596   1.620   3.882   6.542
 5566SOL    HW117597   1.537   3.878   6.598
 5566SOL    HW217598   1.669   3.967   6.561
 5567SOL     OW17599   0.450   4.346   0.260
 5567SOL    HW117600   0.423   4.426   0.206
 5567SOL    HW217601   0.546   4.324   0.242
 5568SOL     OW17602   4.725   4.404   1.290
 5568SOL    HW117603   4.811   4.426   1.244
 5568SOL    HW217604   4.744   4.363   1.379
 5569SOL     OW17605   2.402   2.624   2.944
 5569SOL    HW117606   2.497   2.598   2.958
 5569SOL    HW217607   2.344   2.575   3.009
 5570SOL     OW17608   0.108   3.746   2.072
 5570SOL    HW117609   0.186   3.789   2.118
 5570SOL    HW217610   0.023   3.786   2.107
 5571SOL     OW17611   6.489   4.636   0.950
 5571SOL    HW117612   6.488   4.681   0.861
 5571SOL    HW217613   6.557   4.680   1.009
 5572SOL     OW17614   1.866   4.207   5.047
 5572SOL    HW117615   1.844   4.189   5.143
 5572SOL    HW217616   1.911   4.126   5.007
 5573SOL     OW17617   2.941   5.244   3.484
 5573SOL    HW117618   2.940   5.200   3.574
 5573SOL    HW217619   2.884   5.193   3.421
 5574SOL     OW17620   0.291   2.301   5.337
 5574SOL    HW117621   0.240   2.215   5.328
 5574SOL    HW217622   0.363   2.290   5.406
 5575SOL     OW17623   0.235   7.019   1.404
 5575SOL    HW117624   0.189   6.968   1.332
 5575SOL    HW217625   0.177   7.023   1.485
 5576SOL     OW17626   1.296   5.267   2.668
 5576SOL    HW117627   1.286   5.169   2.685
 5576SOL    HW217628   1.311   5.314   2.754
 5577SOL     OW17629   2.202   2.669   5.732
 5577SOL    HW117630   2.251   2.617   5.662
 5577SOL    HW217631   2.266   2.694   5.805
 5578SOL     OW17632   3.508   4.122   3.401
 5578SOL    HW117633   3.557   4.156   3.481
 5578SOL    HW217634   3.412   4.150   3.407
 5579SOL     OW17635   6.724   2.824   2.198
 5579SOL    HW117636   6.755   2.763   2.125
 5579SOL    HW217637   6.803   2.860   2.248
 5580SOL     OW17638   5.747   2.012   5.702
 5580SOL    HW117639   5.843   2.017   5.732
 5580SOL    HW217640   5.719   2.101   5.666
 5581SOL     OW17641   1.471   2.712   6.632
 5581SOL    HW117642   1.400   2.697   6.701
 5581SOL    HW217643   1.477   2.631   6.573
 5582SOL     OW17644   2.472   2.734   6.390
 5582SOL    HW117645   2.395   2.781   6.347
 5582SOL    HW217646   2.532   2.801   6.434
 5583SOL     OW17647   5.198   0.639   1.265
 5583SOL    HW117648   5.286   0.591   1.273
 5583SOL    HW217649   5.126   0.583   1.306
 5584SOL     OW17650   1.854   2.892   4.076
 5584SOL    HW117651   1.763   2.871   4.041
 5584SOL    HW217652   1.855   2.986   4.112
 5585SOL     OW17653   5.478   5.249   1.814
 5585SOL    HW117654   5.458   5.200   1.729
 5585SOL    HW217655   5.393   5.263   1.865
 5586SOL     OW17656   6.838   4.042   0.725
 5586SOL    HW117657   6.761   3.986   0.695
 5586SOL    HW217658   6.909   4.043   0.654
 5587SOL     OW17659   6.183   0.892   6.082
 5587SOL    HW117660   6.102   0.837   6.102
 5587SOL    HW217661   6.221   0.865   5.994
 5588SOL     OW17662   3.873   6.794   0.886
 5588SOL    HW117663   3.868   6.877   0.942
 5588SOL    HW217664   3.886   6.715   0.946
 5589SOL     OW17665   5.815   4.817   6.232
 5589SOL    HW117666   5.866   4.783   6.152
 5589SOL    HW217667   5.735   4.759   6.247
 5590SOL     OW17668   6.401   5.380   3.245
 5590SOL    HW117669   6.323   5.435   3.272
 5590SOL    HW217670   6.377   5.283   3.249
 5591SOL     OW17671   5.602   1.071   2.039
 5591SOL    HW117672   5.670   1.006   2.073
 5591SOL    HW217673   5.523   1.021   2.003
 5592SOL     OW17674   1.055   4.098   3.253
 5592SOL    HW117675   1.153   4.119   3.250
 5592SOL    HW217676   1.037   4.030   3.325
 5593SOL     OW17677   7.014   3.712   0.556
 5593SOL    HW117678   6.988   3.805   0.585
 5593SOL    HW217679   0.067   3.680   0.611
 5594SOL     OW17680   6.343   2.130   6.426
 5594SOL    HW117681   6.247   2.114   6.447
 5594SOL    HW217682   6.396   2.136   6.511
 5595SOL     OW17683   1.292   2.657   6.030
 5595SOL    HW117684   1.195   2.649   6.008
 5595SOL    HW217685   1.345   2.669   5.946
 5596SOL     OW17686   2.893   6.129   3.215
 5596SOL    HW117687   2.967   6.167   3.270
 5596SOL    HW217688   2.805   6.153   3.256
 5597SOL     OW17689   4.938   3.438   2.713
 5597SOL    HW117690   4.868   3.408   2.778
 5597SOL    HW217691   5.019   3.381   2.723
 5598SOL     OW17692   5.074   2.004   5.063
 5598SOL    HW117693   4.991   1.963   5.102
 5598SOL    HW217694   5.137   1.932   5.036
 5599SOL     OW17695   0.994   0.527   3.321
 5599SOL    HW117696   0.941   0.480   3.251
 5599SOL    HW217697   1.010   0.465   3.398
 5600SOL     OW17698   1.820   2.596   4.876
 5600SOL    HW117699   1.723   2.574   4.889
 5600SOL    HW217700   1.829   2.664   4.804
 5601SOL     OW17701   2.338   0.550   6.144
 5601SOL    HW117702   2.333   0.467   6.199
 5601SOL    HW217703   2.396   0.533   6.064
 5602SOL     OW17704   1.689   0.942   0.044
 5602SOL    HW117705   1.692   0.867   7.001
 5602SOL    HW217706   1.683   1.029   7.020
 5603SOL     OW17707   5.763   5.066   6.300
 5603SOL    HW117708   5.663   5.069   6.308
 5603SOL    HW217709   5.791   4.977   6.265
 5604SOL     OW17710   6.247   1.445   6.010
 5604SOL    HW117711   6.196   1.397   5.939
 5604SOL    HW217712   6.185   1.480   6.080
 5605SOL     OW17713   1.500   2.561   6.227
 5605SOL    HW117714   1.585   2.529   6.185
 5605SOL    HW217715   1.445   2.609   6.159
 5606SOL     OW17716   5.772   0.330   2.971
 5606SOL    HW117717   5.776   0.309   3.069
 5606SOL    HW217718   5.858   0.373   2.943
 5607SOL     OW17719   5.875   0.995   1.327
 5607SOL    HW117720   5.936   1.056   1.276
 5607SOL    HW217721   5.847   0.919   1.267
 5608SOL     OW17722   3.829   6.514   5.204
 5608SOL    HW117723   3.809   6.607   5.233
 5608SOL    HW217724   3.835   6.511   5.104
 5609SOL     OW17725   1.950   5.358   5.130
 5609SOL    HW117726   1.940   5.259   5.118
 5609SOL    HW217727   1.943   5.403   5.041
 5610SOL     OW17728   4.531   0.172   6.394
 5610SOL    HW117729   4.543   0.086   6.345
 5610SOL    HW217730   4.620   0.213   6.413
 5611SOL     OW17731   2.500   4.904   3.893
 5611SOL    HW117732   2.483   4.939   3.985
 5611SOL    HW217733   2.551   4.818   3.898
 5612SOL     OW17734   2.423   0.195   5.166
 5612SOL    HW117735   2.424   0.294   5.174
 5612SOL    HW217736   2.480   0.167   5.088
 5613SOL     OW17737   3.883   5.081   1.753
 5613SOL    HW117738   3.964   5.030   1.781
 5613SOL    HW217739   3.818   5.085   1.829
 5614SOL     OW17740   4.977   2.328   3.578
 5614SOL    HW117741   4.909   2.255   3.570
 5614SOL    HW217742   4.948   2.393   3.648
 5615SOL     OW17743   1.681   1.440   1.201
 5615SOL    HW117744   1.664   1.356   1.252
 5615SOL    HW217745   1.596   1.472   1.160
 5616SOL     OW17746   2.405   0.463   4.589
 5616SOL    HW117747   2.383   0.389   4.652
 5616SOL    HW217748   2.324   0.485   4.534
 5617SOL     OW17749   0.613   0.835   4.948
 5617SOL    HW117750   0.530   0.888   4.958
 5617SOL    HW217751   0.590   0.739   4.929
 5618SOL     OW17752   6.591   4.265   2.816
 5618SOL    HW117753   6.668   4.265   2.880
 5618SOL    HW217754   6.614   4.321   2.736
 5619SOL     OW17755   2.133   3.929   4.806
 5619SOL    HW117756   2.063   3.999   4.792
 5619SOL    HW217757   2.218   3.972   4.838
 5620SOL     OW17758   3.893   1.950   6.556
 5620SOL    HW117759   3.894   1.936   6.655
 5620SOL    HW217760   3.946   1.877   6.512
 5621SOL     OW17761   2.236   1.788   6.273
 5621SOL    HW117762   2.264   1.881   6.252
 5621SOL    HW217763   2.173   1.755   6.202
 5622SOL     OW17764   5.444   0.958   5.074
 5622SOL    HW117765   5.485   0.942   4.984
 5622SOL    HW217766   5.395   1.045   5.073
 5623SOL     OW17767   0.646   5.702   6.825
 5623SOL    HW117768   0.705   5.637   6.777
 5623SOL    HW217769   0.550   5.681   6.806
 5624SOL     OW17770   1.053   4.363   2.689
 5624SOL    HW117771   1.068   4.266   2.674
 5624SOL    HW217772   0.954   4.382   2.689
 5625SOL     OW17773   6.419   2.463   5.924
 5625SOL    HW117774   6.344   2.424   5.871
 5625SOL    HW217775   6.402   2.561   5.939
 5626SOL     OW17776   4.582   6.935   4.316
 5626SOL    HW117777   4.487   6.926   4.287
 5626SOL    HW217778   4.606   6.857   4.374
 5627SOL     OW17779   0.890   6.368   0.957
 5627SOL    HW117780   0.859   6.324   1.041
 5627SOL    HW217781   0.834   6.449   0.939
 5628SOL     OW17782   0.854   1.610   4.787
 5628SOL    HW117783   0.885   1.653   4.702
 5628SOL    HW217784   0.755   1.595   4.783
 5629SOL     OW17785   3.798   3.312   2.914
 5629SOL    HW117786   3.794   3.318   2.814
 5629SOL    HW217787   3.870   3.248   2.940
 5630SOL     OW17788   0.365   4.233   1.337
 5630SOL    HW117789   0.353   4.143   1.378
 5630SOL    HW217790   0.460   4.246   1.311
 5631SOL     OW17791   4.684   0.574   6.712
 5631SOL    HW117792   4.704   0.477   6.697
 5631SOL    HW217793   4.613   0.604   6.647
 5632SOL     OW17794   3.133   3.252   7.013
 5632SOL    HW117795   3.068   3.321   0.022
 5632SOL    HW217796   3.179   3.209   0.067
 5633SOL     OW17797   6.269   2.662   5.004
 5633SOL    HW117798   6.297   2.734   4.941
 5633SOL    HW217799   6.251   2.578   4.953
 5634SOL     OW17800   4.986   5.752   4.676
 5634SOL    HW117801   4.895   5.764   4.715
 5634SOL    HW217802   5.022   5.841   4.650
 5635SOL     OW17803   3.205   2.134   5.367
 5635SOL    HW117804   3.172   2.205   5.304
 5635SOL    HW217805   3.127   2.081   5.400
 5636SOL     OW17806   4.069   5.763   4.230
 5636SOL    HW117807   4.099   5.685   4.284
 5636SOL    HW217808   4.148   5.808   4.188
 5637SOL     OW17809   6.330   0.079   2.884
 5637SOL    HW117810   6.240   0.058   2.846
 5637SOL    HW217811   6.326   0.166   2.932
 5638SOL     OW17812   5.046   4.104   7.017
 5638SOL    HW117813   4.972   4.047   0.030
 5638SOL    HW217814   5.049   4.190   0.045
 5639SOL     OW17815   3.298   0.370   6.916
 5639SOL    HW117816   3.298   0.393   6.819
 5639SOL    HW217817   3.290   0.454   6.970
 5640SOL     OW17818   1.956   6.874   3.103
 5640SOL    HW117819   1.918   6.881   3.011
 5640SOL    HW217820   1.999   6.784   3.114
 5641SOL     OW17821   6.224   6.198   4.875
 5641SOL    HW117822   6.211   6.102   4.902
 5641SOL    HW217823   6.215   6.206   4.776
 5642SOL     OW17824   2.040   1.643   0.437
 5642SOL    HW117825   1.970   1.654   0.366
 5642SOL    HW217826   2.008   1.579   0.506
 5643SOL     OW17827   5.415   2.033   5.146
 5643SOL    HW117828   5.398   1.955   5.206
 5643SOL    HW217829   5.359   2.111   5.177
 5644SOL     OW17830   2.768   6.968   6.172
 5644SOL    HW117831   2.707   6.980   6.251
 5644SOL    HW217832   2.814   0.031   6.153
 5645SOL     OW17833   5.163   3.749   4.797
 5645SOL    HW117834   5.154   3.649   4.803
 5645SOL    HW217835   5.178   3.776   4.702
 5646SOL     OW17836   1.526   4.486   3.098
 5646SOL    HW117837   1.504   4.393   3.071
 5646SOL    HW217838   1.589   4.485   3.176
 5647SOL     OW17839   6.166   6.656   2.292
 5647SOL    HW117840   6.244   6.672   2.233
 5647SOL    HW217841   6.195   6.606   2.374
 5648SOL     OW17842   4.728   6.314   3.456
 5648SOL    HW117843   4.753   6.349   3.366
 5648SOL    HW217844   4.780   6.362   3.526
 5649SOL     OW17845   1.229   6.897   4.398
 5649SOL    HW117846   1.327   6.881   4.384
 5649SOL    HW217847   1.217   6.980   4.453
 5650SOL     OW17848   6.484   4.402   6.625
 5650SOL    HW117849   6.515   4.309   6.602
 5650SOL    HW217850   6.564   4.459   6.644
 5651SOL     OW17851   2.865   0.968   0.713
 5651SOL    HW117852   2.873   0.969   0.613
 5651SOL    HW217853   2.926   1.037   0.752
 5652SOL     OW17854   0.128   6.263   1.591
 5652SOL    HW117855   0.194   6.222   1.528
 5652SOL    HW217856   0.141   6.363   1.592
 5653SOL     OW17857   6.950   0.350   1.631
 5653SOL    HW117858   7.018   0.423   1.627
 5653SOL    HW217859   6.939   0.319   1.726
 5654SOL     OW17860   3.258   5.746   4.294
 5654SOL    HW117861   3.347   5.710   4.323
 5654SOL    HW217862   3.214   5.682   4.232
 5655SOL     OW17863   5.496   2.827   5.322
 5655SOL    HW117864   5.402   2.848   5.350
 5655SOL    HW217865   5.520   2.735   5.353
 5656SOL     OW17866   6.468   3.641   0.200
 5656SOL    HW117867   6.489   3.728   0.156
 5656SOL    HW217868   6.532   3.624   0.275
 5657SOL     OW17869   5.033   5.497   4.723
 5657SOL    HW117870   5.077   5.447   4.648
 5657SOL    HW217871   5.018   5.592   4.695
 5658SOL     OW17872   2.215   3.064   5.664
 5658SOL    HW117873   2.175   3.103   5.581
 5658SOL    HW217874   2.232   2.966   5.650
 5659SOL     OW17875   2.475   3.784   6.738
 5659SOL    HW117876   2.545   3.714   6.723
 5659SOL    HW217877   2.478   3.850   6.663
 5660SOL     OW17878   4.690   0.904   5.708
 5660SOL    HW117879   4.622   0.875   5.775
 5660SOL    HW217880   4.782   0.891   5.747
 5661SOL     OW17881   1.363   5.447   5.970
 5661SOL    HW117882   1.423   5.491   6.037
 5661SOL    HW217883   1.306   5.379   6.016
 5662SOL     OW17884   3.215   6.489   0.973
 5662SOL    HW117885   3.117   6.501   0.989
 5662SOL    HW217886   3.263   6.485   1.060
 5663SOL     OW17887   1.665   3.108   6.069
 5663SOL    HW117888   1.723   3.027   6.058
 5663SOL    HW217889   1.584   3.099   6.011
 5664SOL     OW17890   4.851   4.473   4.741
 5664SOL    HW117891   4.786   4.411   4.785
 5664SOL    HW217892   4.854   4.559   4.792
 5665SOL     OW17893   1.521   1.360   0.426
 5665SOL    HW117894   1.576   1.297   0.480
 5665SOL    HW217895   1.495   1.316   0.340
 5666SOL     OW17896   6.118   2.425   4.874
 5666SOL    HW117897   6.065   2.423   4.959
 5666SOL    HW217898   6.134   2.331   4.843
 5667SOL     OW17899   2.692   4.678   4.210
 5667SOL    HW117900   2.624   4.605   4.214
 5667SOL    HW217901   2.747   4.676   4.293
 5668SOL     OW17902   4.872   3.871   3.558
 5668SOL    HW117903   4.834   3.962   3.579
 5668SOL    HW217904   4.863   3.853   3.460
 5669SOL     OW17905   5.432   4.416   6.349
 5669SOL    HW117906   5.416   4.318   6.357
 5669SOL    HW217907   5.382   4.463   6.422
 5670SOL     OW17908   1.449   2.637   3.277
 5670SOL    HW117909   1.402   2.699   3.214
 5670SOL    HW217910   1.539   2.674   3.299
 5671SOL     OW17911   0.451   5.632   4.339
 5671SOL    HW117912   0.500   5.550   4.309
 5671SOL    HW217913   0.450   5.636   4.439
 5672SOL     OW17914   5.336   3.472   4.415
 5672SOL    HW117915   5.272   3.397   4.398
 5672SOL    HW217916   5.295   3.538   4.478
 5673SOL     OW17917   0.835   1.618   0.741
 5673SOL    HW117918   0.871   1.548   0.802
 5673SOL    HW217919   0.751   1.656   0.779
 5674SOL     OW17920   2.458   5.135   5.009
 5674SOL    HW117921   2.506   5.069   4.951
 5674SOL    HW217922   2.423   5.209   4.952
 5675SOL     OW17923   2.599   1.731   1.170
 5675SOL    HW117924   2.535   1.689   1.105
 5675SOL    HW217925   2.628   1.820   1.136
 5676SOL     OW17926   3.205   1.174   1.761
 5676SOL    HW117927   3.192   1.088   1.711
 5676SOL    HW217928   3.183   1.160   1.858
 5677SOL     OW17929   0.129   1.476   6.640
 5677SOL    HW117930   0.217   1.433   6.624
 5677SOL    HW217931   0.130   1.522   6.729
 5678SOL     OW17932   3.594   1.996   2.037
 5678SOL    HW117933   3.496   2.010   2.023
 5678SOL    HW217934   3.640   2.084   2.049
 5679SOL     OW17935   6.527   3.649   5.269
 5679SOL    HW117936   6.560   3.734   5.229
 5679SOL    HW217937   6.591   3.575   5.248
 5680SOL     OW17938   1.071   6.069   5.086
 5680SOL    HW117939   1.039   6.108   5.173
 5680SOL    HW217940   1.042   5.974   5.080
 5681SOL     OW17941   0.849   3.611   3.661
 5681SOL    HW117942   0.891   3.590   3.749
 5681SOL    HW217943   0.919   3.642   3.597
 5682SOL     OW17944   2.025   4.415   1.191
 5682SOL    HW117945   2.096   4.371   1.246
 5682SOL    HW217946   2.014   4.366   1.105
 5683SOL     OW17947   6.426   0.805   5.905
 5683SOL    HW117948   6.366   0.725   5.896
 5683SOL    HW217949   6.520   0.780   5.882
 5684SOL     OW17950   2.248   2.945   4.800
 5684SOL    HW117951   2.189   3.015   4.758
 5684SOL    HW217952   2.260   2.965   4.897
 5685SOL     OW17953   2.407   1.707   2.211
 5685SOL    HW117954   2.409   1.683   2.114
 5685SOL    HW217955   2.380   1.803   2.222
 5686SOL     OW17956   4.623   5.632   5.637
 5686SOL    HW117957   4.605   5.537   5.660
 5686SOL    HW217958   4.688   5.636   5.560
 5687SOL     OW17959   1.808   6.197   6.533
 5687SOL    HW117960   1.719   6.237   6.556
 5687SOL    HW217961   1.850   6.250   6.459
 5688SOL     OW17962   2.065   2.170   2.900
 5688SOL    HW117963   1.970   2.140   2.913
 5688SOL    HW217964   2.074   2.264   2.933
 5689SOL     OW17965   0.125   2.673   1.396
 5689SOL    HW117966   0.128   2.583   1.438
 5689SOL    HW217967   0.102   2.664   1.299
 5690SOL     OW17968   2.499   4.744   6.862
 5690SOL    HW117969   2.457   4.678   6.924
 5690SOL    HW217970   2.583   4.780   6.903
 5691SOL     OW17971   3.987   1.961   2.709
 5691SOL    HW117972   4.009   2.058   2.717
 5691SOL    HW217973   4.053   1.907   2.761
 5692SOL     OW17974   5.949   4.396   2.010
 5692SOL    HW117975   6.027   4.374   1.951
 5692SOL    HW217976   5.944   4.330   2.085
 5693SOL     OW17977   4.112   0.426   1.519
 5693SOL    HW117978   4.020   0.439   1.556
 5693SOL    HW217979   4.179   0.434   1.593
 5694SOL     OW17980   1.021   6.951   1.515
 5694SOL    HW117981   1.108   6.919   1.476
 5694SOL    HW217982   1.040   7.004   1.598
 5695SOL     OW17983   2.624   1.088   1.914
 5695SOL    HW117984   2.716   1.049   1.918
 5695SOL    HW217985   2.630   1.187   1.902
 5696SOL     OW17986   0.898   0.435   3.915
 5696SOL    HW117987   0.819   0.493   3.934
 5696SOL    HW217988   0.868   0.354   3.863
 5697SOL     OW17989   6.468   2.330   0.136
 5697SOL    HW117990   6.481   2.400   0.066
 5697SOL    HW217991   6.492   2.240   0.100
 5698SOL     OW17992   2.939   1.793   4.540
 5698SOL    HW117993   2.945   1.694   4.540
 5698SOL    HW217994   3.018   1.832   4.493
 5699SOL     OW17995   2.307   2.773   2.351
 5699SOL    HW117996   2.376   2.705   2.374
 5699SOL    HW217997   2.253   2.795   2.433
 5700SOL     OW17998   6.470   0.576   2.498
 5700SOL    HW117999   6.415   0.633   2.437
 5700SOL    HW218000   6.427   0.574   2.589
 5701SOL     OW18001   1.095   0.576   0.541
 5701SOL    HW118002   1.151   0.572   0.623
 5701SOL    HW218003   1.014   0.519   0.554
 5702SOL     OW18004   2.348   0.225   4.738
 5702SOL    HW118005   2.291   0.254   4.815
 5702SOL    HW218006   2.300   0.154   4.687
 5703SOL     OW18007   0.460   3.021   6.257
 5703SOL    HW118008   0.381   2.970   6.223
 5703SOL    HW218009   0.449   3.117   6.235
 5704SOL     OW18010   4.159   5.333   3.988
 5704SOL    HW118011   4.202   5.382   4.064
 5704SOL    HW218012   4.080   5.386   3.955
 5705SOL     OW18013   5.864   0.722   5.367
 5705SOL    HW118014   5.861   0.717   5.466
 5705SOL    HW218015   5.788   0.778   5.334
 5706SOL     OW18016   4.949   2.001   0.545
 5706SOL    HW118017   4.883   2.070   0.514
 5706SOL    HW218018   4.939   1.918   0.490
 5707SOL     OW18019   5.757   5.189   1.335
 5707SOL    HW118020   5.713   5.200   1.425
 5707SOL    HW218021   5.768   5.092   1.315
 5708SOL     OW18022   5.478   6.377   2.127
 5708SOL    HW118023   5.563   6.380   2.075
 5708SOL    HW218024   5.420   6.303   2.093
 5709SOL     OW18025   6.949   2.343   2.552
 5709SOL    HW118026   7.015   2.404   2.507
 5709SOL    HW218027   6.923   2.382   2.640
 5710SOL     OW18028   3.987   1.729   0.332
 5710SOL    HW118029   4.073   1.769   0.364
 5710SOL    HW218030   3.913   1.754   0.395
 5711SOL     OW18031   5.087   1.756   3.055
 5711SOL    HW118032   5.089   1.761   2.955
 5711SOL    HW218033   5.152   1.687   3.086
 5712SOL     OW18034   6.199   6.817   0.381
 5712SOL    HW118035   6.099   6.815   0.372
 5712SOL    HW218036   6.238   6.873   0.308
 5713SOL     OW18037   1.882   1.100   0.473
 5713SOL    HW118038   1.948   1.172   0.492
 5713SOL    HW218039   1.794   1.122   0.516
 5714SOL     OW18040   6.410   0.314   0.036
 5714SOL    HW118041   6.488   0.372   0.012
 5714SOL    HW218042   6.336   0.329   6.994
 5715SOL     OW18043   0.240   7.014   1.870
 5715SOL    HW118044   0.257   6.926   1.914
 5715SOL    HW218045   0.173   7.003   1.796
 5716SOL     OW18046   6.294   4.442   5.584
 5716SOL    HW118047   6.352   4.510   5.628
 5716SOL    HW218048   6.329   4.351   5.604
 5717SOL     OW18049   0.968   5.585   3.725
 5717SOL    HW118050   0.956   5.632   3.813
 5717SOL    HW218051   0.904   5.623   3.658
 5718SOL     OW18052   0.947   3.466   6.796
 5718SOL    HW118053   0.973   3.420   6.881
 5718SOL    HW218054   1.029   3.494   6.746
 5719SOL     OW18055   2.709   3.277   0.699
 5719SOL    HW118056   2.771   3.205   0.731
 5719SOL    HW218057   2.717   3.288   0.600
 5720SOL     OW18058   2.745   4.797   5.703
 5720SOL    HW118059   2.676   4.764   5.638
 5720SOL    HW218060   2.779   4.886   5.673
 5721SOL     OW18061   1.723   2.729   6.740
 5721SOL    HW118062   1.626   2.709   6.726
 5721SOL    HW218063   1.777   2.646   6.727
 5722SOL     OW18064   1.308   0.168   6.918
 5722SOL    HW118065   1.248   0.152   6.841
 5722SOL    HW218066   1.368   0.246   6.899
 5723SOL     OW18067   3.825   3.321   0.295
 5723SOL    HW118068   3.846   3.293   0.389
 5723SOL    HW218069   3.898   3.288   0.235
 5724SOL     OW18070   5.332   2.239   5.818
 5724SOL    HW118071   5.418   2.198   5.850
 5724SOL    HW218072   5.262   2.168   5.809
 5725SOL     OW18073   0.303   4.630   4.987
 5725SOL    HW118074   0.284   4.534   4.964
 5725SOL    HW218075   0.272   4.689   4.912
 5726SOL     OW18076   5.367   3.975   2.611
 5726SOL    HW118077   5.465   3.963   2.628
 5726SOL    HW218078   5.353   4.053   2.550
 5727SOL     OW18079   0.960   2.749   5.049
 5727SOL    HW118080   0.887   2.700   5.001
 5727SOL    HW218081   0.956   2.728   5.147
 5728SOL     OW18082   4.076   0.099   4.969
 5728SOL    HW118083   4.018   0.078   4.890
 5728SOL    HW218084   4.026   0.157   5.033
 5729SOL     OW18085   2.697   2.026   4.829
 5729SOL    HW118086   2.763   1.951   4.831
 5729SOL    HW218087   2.737   2.107   4.871
 5730SOL     OW18088   6.797   4.337   4.631
 5730SOL    HW118089   6.895   4.323   4.648
 5730SOL    HW218090   6.743   4.275   4.687
 5731SOL     OW18091   0.458   6.903   2.791
 5731SOL    HW118092   0.553   6.890   2.820
 5731SOL    HW218093   0.443   6.999   2.767
 5732SOL     OW18094   0.317   0.783   3.513
 5732SOL    HW118095   0.417   0.784   3.509
 5732SOL    HW218096   0.286   0.811   3.604
 5733SOL     OW18097   3.145   0.503   5.047
 5733SOL    HW118098   3.164   0.497   5.146
 5733SOL    HW218099   3.097   0.588   5.027
 5734SOL     OW18100   1.861   6.695   3.691
 5734SOL    HW118101   1.787   6.628   3.692
 5734SOL    HW218102   1.864   6.740   3.602
 5735SOL     OW18103   3.313   0.671   1.484
 5735SOL    HW118104   3.265   0.693   1.399
 5735SOL    HW218105   3.249   0.678   1.561
 5736SOL     OW18106   1.554   5.920   6.953
 5736SOL    HW118107   1.638   5.871   6.973
 5736SOL    HW218108   1.525   5.901   6.859
 5737SOL     OW18109   5.472   4.129   0.196
 5737SOL    HW118110   5.434   4.044   0.231
 5737SOL    HW218111   5.397   4.189   0.166
 5738SOL     OW18112   1.093   4.322   5.116
 5738SOL    HW118113   1.080   4.315   5.018
 5738SOL    HW218114   1.008   4.300   5.163
 5739SOL     OW18115   0.835   2.703   1.674
 5739SOL    HW118116   0.811   2.683   1.769
 5739SOL    HW218117   0.865   2.620   1.628
 5740SOL     OW18118   3.875   5.577   0.268
 5740SOL    HW118119   3.866   5.588   0.169
 5740SOL    HW218120   3.817   5.501   0.298
 5741SOL     OW18121   0.406   4.266   1.714
 5741SOL    HW118122   0.464   4.242   1.791
 5741SOL    HW218123   0.417   4.363   1.692
 5742SOL     OW18124   0.426   5.797   4.606
 5742SOL    HW118125   0.414   5.729   4.678
 5742SOL    HW218126   0.338   5.837   4.582
 5743SOL     OW18127   1.577   5.955   4.651
 5743SOL    HW118128   1.557   6.025   4.583
 5743SOL    HW218129   1.558   5.865   4.614
 5744SOL     OW18130   6.186   0.274   1.463
 5744SOL    HW118131   6.124   0.200   1.489
 5744SOL    HW218132   6.165   0.356   1.515
 5745SOL     OW18133   1.301   2.412   3.203
 5745SOL    HW118134   1.340   2.502   3.225
 5745SOL    HW218135   1.349   2.341   3.255
 5746SOL     OW18136   6.636   4.365   7.015
 5746SOL    HW118137   6.671   4.362   6.921
 5746SOL    HW218138   6.679   4.441   0.041
 5747SOL     OW18139   0.368   6.481   3.392
 5747SOL    HW118140   0.402   6.401   3.341
 5747SOL    HW218141   0.276   6.462   3.425
 5748SOL     OW18142   2.146   6.485   3.664
 5748SOL    HW118143   2.107   6.491   3.572
 5748SOL    HW218144   2.076   6.450   3.727
 5749SOL     OW18145   2.021   1.193   2.982
 5749SOL    HW118146   1.936   1.246   2.982
 5749SOL    HW218147   2.090   1.239   2.926
 5750SOL     OW18148   6.116   5.948   2.291
 5750SOL    HW118149   6.045   5.898   2.340
 5750SOL    HW218150   6.157   5.889   2.222
 5751SOL     OW18151   0.725   3.539   6.306
 5751SOL    HW118152   0.809   3.508   6.352
 5751SOL    HW218153   0.713   3.637   6.322
 5752SOL     OW18154   1.065   1.205   6.426
 5752SOL    HW118155   1.043   1.109   6.408
 5752SOL    HW218156   1.074   1.219   6.525
 5753SOL     OW18157   4.396   1.906   0.143
 5753SOL    HW118158   4.332   1.978   0.171
 5753SOL    HW218159   4.346   1.834   0.095
 5754SOL     OW18160   6.088   5.133   0.606
 5754SOL    HW118161   6.181   5.171   0.604
 5754SOL    HW218162   6.061   5.117   0.701
 5755SOL     OW18163   3.387   3.821   1.487
 5755SOL    HW118164   3.397   3.810   1.586
 5755SOL    HW218165   3.330   3.901   1.468
 5756SOL     OW18166   6.994   6.448   4.446
 5756SOL    HW118167   7.017   6.492   4.358
 5756SOL    HW218168   0.011   6.357   4.449
 5757SOL     OW18169   6.987   6.047   1.684
 5757SOL    HW118170   0.013   6.127   1.652
 5757SOL    HW218171   6.889   6.067   1.689
 5758SOL     OW18172   2.728   1.032   5.431
 5758SOL    HW118173   2.644   1.063   5.477
 5758SOL    HW218174   2.783   1.111   5.406
 5759SOL     OW18175   0.090   2.039   5.342
 5759SOL    HW118176   0.021   2.030   5.413
 5759SOL    HW218177   0.181   2.029   5.382
 5760SOL     OW18178   0.745   5.307   1.521
 5760SOL    HW118179   0.690   5.311   1.604
 5760SOL    HW218180   0.739   5.215   1.481
 5761SOL     OW18181   5.521   0.410   4.597
 5761SOL    HW118182   5.580   0.482   4.633
 5761SOL    HW218183   5.430   0.447   4.580
 5762SOL     OW18184   5.792   6.251   1.347
 5762SOL    HW118185   5.849   6.253   1.265
 5762SOL    HW218186   5.792   6.159   1.386
 5763SOL     OW18187   2.300   1.351   0.853
 5763SOL    HW118188   2.307   1.446   0.885
 5763SOL    HW218189   2.372   1.296   0.895
 5764SOL     OW18190   4.576   3.241   6.502
 5764SOL    HW118191   4.648   3.300   6.538
 5764SOL    HW218192   4.609   3.195   6.419
 5765SOL     OW18193   6.543   5.784   0.245
 5765SOL    HW118194   6.536   5.725   0.165
 5765SOL    HW218195   6.463   5.772   0.304
 5766SOL     OW18196   3.010   1.466   3.102
 5766SOL    HW118197   2.993   1.410   3.184
 5766SOL    HW218198   2.928   1.466   3.045
 5767SOL     OW18199   5.944   0.696   0.539
 5767SOL    HW118200   5.991   0.637   0.474
 5767SOL    HW218201   5.963   0.791   0.517
 5768SOL     OW18202   6.180   0.965   2.486
 5768SOL    HW118203   6.254   1.007   2.539
 5768SOL    HW218204   6.100   1.025   2.486
 5769SOL     OW18205   1.966   5.078   3.382
 5769SOL    HW118206   1.934   5.159   3.432
 5769SOL    HW218207   1.949   5.091   3.284
 5770SOL     OW18208   5.569   2.306   1.604
 5770SOL    HW118209   5.529   2.391   1.640
 5770SOL    HW218210   5.668   2.310   1.612
 5771SOL     OW18211   0.956   0.804   0.651
 5771SOL    HW118212   1.001   0.717   0.631
 5771SOL    HW218213   0.890   0.825   0.580
 5772SOL     OW18214   6.416   4.513   6.404
 5772SOL    HW118215   6.426   4.470   6.493
 5772SOL    HW218216   6.334   4.479   6.359
 5773SOL     OW18217   5.144   6.054   5.203
 5773SOL    HW118218   5.050   6.043   5.171
 5773SOL    HW218219   5.205   6.061   5.124
 5774SOL     OW18220   2.330   4.788   2.492
 5774SOL    HW118221   2.356   4.824   2.581
 5774SOL    HW218222   2.395   4.718   2.463
 5775SOL     OW18223   0.597   0.703   0.176
 5775SOL    HW118224   0.532   0.728   0.248
 5775SOL    HW218225   0.562   0.623   0.127
 5776SOL     OW18226   4.422   1.292   6.538
 5776SOL    HW118227   4.455   1.225   6.604
 5776SOL    HW218228   4.499   1.322   6.480
 5777SOL     OW18229   5.586   0.336   5.350
 5777SOL    HW118230   5.621   0.264   5.411
 5777SOL    HW218231   5.601   0.309   5.255
 5778SOL     OW18232   2.548   6.538   4.434
 5778SOL    HW118233   2.457   6.499   4.447
 5778SOL    HW218234   2.589   6.500   4.351
 5779SOL     OW18235   4.011   0.215   1.146
 5779SOL    HW118236   3.984   0.296   1.094
 5779SOL    HW218237   4.108   0.219   1.168
 5780SOL     OW18238   5.871   3.837   0.716
 5780SOL    HW118239   5.793   3.884   0.676
 5780SOL    HW218240   5.892   3.755   0.661
 5781SOL     OW18241   3.168   4.419   5.300
 5781SOL    HW118242   3.078   4.444   5.266
 5781SOL    HW218243   3.233   4.492   5.278
 5782SOL     OW18244   4.467   1.393   2.962
 5782SOL    HW118245   4.393   1.359   3.019
 5782SOL    HW218246   4.529   1.449   3.017
 5783SOL     OW18247   2.415   6.508   2.276
 5783SOL    HW118248   2.326   6.554   2.266
 5783SOL    HW218249   2.403   6.422   2.325
 5784SOL     OW18250   1.264   6.256   0.019
 5784SOL    HW118251   1.277   6.244   6.944
 5784SOL    HW218252   1.348   6.291   0.060
 5785SOL     OW18253   2.143   1.921   6.503
 5785SOL    HW118254   2.190   1.887   6.584
 5785SOL    HW218255   2.195   1.899   6.421
 5786SOL     OW18256   0.835   2.248   5.913
 5786SOL    HW118257   0.753   2.279   5.866
 5786SOL    HW218258   0.904   2.320   5.911
 5787SOL     OW18259   0.490   2.699   5.046
 5787SOL    HW118260   0.478   2.608   5.086
 5787SOL    HW218261   0.401   2.742   5.034
 5788SOL     OW18262   0.506   1.946   1.429
 5788SOL    HW118263   0.510   1.900   1.341
 5788SOL    HW218264   0.413   1.937   1.466
 5789SOL     OW18265   2.845   5.444   6.910
 5789SOL    HW118266   2.823   5.538   6.882
 5789SOL    HW218267   2.771   5.383   6.884
 5790SOL     OW18268   6.655   6.424   2.371
 5790SOL    HW118269   6.744   6.390   2.399
 5790SOL    HW218270   6.662   6.464   2.279
 5791SOL     OW18271   3.998   0.889   1.010
 5791SOL    HW118272   3.964   0.905   1.103
 5791SOL    HW218273   4.023   0.976   0.969
 5792SOL     OW18274   4.742   2.141   2.395
 5792SOL    HW118275   4.775   2.056   2.354
 5792SOL    HW218276   4.644   2.151   2.377
 5793SOL     OW18277   3.687   1.879   6.792
 5793SOL    HW118278   3.616   1.925   6.739
 5793SOL    HW218279   3.715   1.796   6.745
 5794SOL     OW18280   3.394   5.646   7.004
 5794SOL    HW118281   3.343   5.718   0.026
 5794SOL    HW218282   3.333   5.598   6.940
 5795SOL     OW18283   0.985   0.220   0.770
 5795SOL    HW118284   0.964   0.274   0.852
 5795SOL    HW218285   0.950   0.267   0.689
 5796SOL     OW18286   4.765   0.571   5.849
 5796SOL    HW118287   4.666   0.561   5.854
 5796SOL    HW218288   4.801   0.515   5.774
 5797SOL     OW18289   0.548   2.489   0.133
 5797SOL    HW118290   0.475   2.466   0.198
 5797SOL    HW218291   0.595   2.406   0.104
 5798SOL     OW18292   2.086   2.793   3.974
 5798SOL    HW118293   2.165   2.780   4.033
 5798SOL    HW218294   2.009   2.825   4.029
 5799SOL     OW18295   2.435   0.257   3.519
 5799SOL    HW118296   2.440   0.285   3.423
 5799SOL    HW218297   2.507   0.304   3.572
 5800SOL     OW18298   1.194   6.361   2.390
 5800SOL    HW118299   1.251   6.440   2.412
 5800SOL    HW218300   1.250   6.278   2.392
 5801SOL     OW18301   1.720   1.825   2.785
 5801SOL    HW118302   1.644   1.830   2.850
 5801SOL    HW218303   1.686   1.794   2.696
 5802SOL     OW18304   0.512   0.195   2.692
 5802SOL    HW118305   0.507   0.193   2.791
 5802SOL    HW218306   0.442   0.257   2.656
 5803SOL     OW18307   0.657   6.941   4.109
 5803SOL    HW118308   0.702   7.011   4.166
 5803SOL    HW218309   0.605   6.879   4.168
 5804SOL     OW18310   6.425   1.883   3.311
 5804SOL    HW118311   6.375   1.806   3.352
 5804SOL    HW218312   6.517   1.854   3.287
 5805SOL     OW18313   0.767   2.832   1.456
 5805SOL    HW118314   0.772   2.783   1.543
 5805SOL    HW218315   0.672   2.856   1.436
 5806SOL     OW18316   6.529   3.876   1.982
 5806SOL    HW118317   6.452   3.940   1.976
 5806SOL    HW218318   6.594   3.895   1.909
 5807SOL     OW18319   0.972   1.657   2.048
 5807SOL    HW118320   0.912   1.637   1.971
 5807SOL    HW218321   0.943   1.741   2.094
 5808SOL     OW18322   0.019   0.338   5.521
 5808SOL    HW118323   0.096   0.356   5.459
 5808SOL    HW218324   7.021   0.240   5.518
 5809SOL     OW18325   6.927   3.692   4.180
 5809SOL    HW118326   6.983   3.749   4.241
 5809SOL    HW218327   6.932   3.597   4.210
 5810SOL     OW18328   1.612   6.873   5.592
 5810SOL    HW118329   1.531   6.864   5.649
 5810SOL    HW218330   1.668   6.790   5.600
 5811SOL     OW18331   3.873   5.223   0.014
 5811SOL    HW118332   3.920   5.308   7.016
 5811SOL    HW218333   3.781   5.242   0.047
 5812SOL     OW18334   6.384   3.680   6.050
 5812SOL    HW118335   6.428   3.710   5.966
 5812SOL    HW218336   6.405   3.584   6.066
 5813SOL     OW18337   6.123   4.802   0.728
 5813SOL    HW118338   6.045   4.825   0.786
 5813SOL    HW218339   6.149   4.707   0.742
 5814SOL     OW18340   5.632   1.170   2.676
 5814SOL    HW118341   5.655   1.234   2.602
 5814SOL    HW218342   5.538   1.187   2.706
 5815SOL     OW18343   6.563   3.624   4.673
 5815SOL    HW118344   6.518   3.612   4.761
 5815SOL    HW218345   6.616   3.709   4.673
 5816SOL     OW18346   6.870   3.973   0.969
 5816SOL    HW118347   6.952   3.929   1.006
 5816SOL    HW218348   6.885   3.996   0.873
 5817SOL     OW18349   0.009   3.074   3.854
 5817SOL    HW118350   6.966   3.136   3.814
 5817SOL    HW218351   0.050   3.017   3.782
 5818SOL     OW18352   2.414   0.129   4.424
 5818SOL    HW118353   2.355   0.053   4.452
 5818SOL    HW218354   2.428   0.191   4.502
 5819SOL     OW18355   4.181   4.092   1.103
 5819SOL    HW118356   4.139   4.023   1.044
 5819SOL    HW218357   4.114   4.163   1.123
 5820SOL     OW18358   6.959   6.694   2.283
 5820SOL    HW118359   7.012   6.661   2.361
 5820SOL    HW218360   7.016   6.695   2.201
 5821SOL     OW18361   6.453   6.749   1.993
 5821SOL    HW118362   6.548   6.746   1.964
 5821SOL    HW218363   6.438   6.679   2.063
 5822SOL     OW18364   0.778   3.773   2.654
 5822SOL    HW118365   0.863   3.821   2.679
 5822SOL    HW218366   0.705   3.840   2.642
 5823SOL     OW18367   2.437   6.514   5.051
 5823SOL    HW118368   2.414   6.606   5.083
 5823SOL    HW218369   2.530   6.491   5.078
 5824SOL     OW18370   2.084   5.979   2.206
 5824SOL    HW118371   2.100   5.927   2.122
 5824SOL    HW218372   2.166   5.974   2.264
 5825SOL     OW18373   4.087   1.725   5.262
 5825SOL    HW118374   4.017   1.780   5.216
 5825SOL    HW218375   4.161   1.704   5.197
 5826SOL     OW18376   1.518   6.042   4.393
 5826SOL    HW118377   1.548   5.956   4.353
 5826SOL    HW218378   1.567   6.118   4.349
 5827SOL     OW18379   2.187   3.833   3.419
 5827SOL    HW118380   2.277   3.807   3.454
 5827SOL    HW218381   2.187   3.825   3.319
 5828SOL     OW18382   4.505   6.694   5.118
 5828SOL    HW118383   4.603   6.686   5.137
 5828SOL    HW218384   4.482   6.635   5.040
 5829SOL     OW18385   1.929   0.517   2.578
 5829SOL    HW118386   1.858   0.557   2.636
 5829SOL    HW218387   1.907   0.532   2.482
 5830SOL     OW18388   4.749   5.851   4.780
 5830SOL    HW118389   4.650   5.859   4.782
 5830SOL    HW218390   4.790   5.941   4.794
 5831SOL     OW18391   2.581   1.729   4.376
 5831SOL    HW118392   2.482   1.714   4.374
 5831SOL    HW218393   2.603   1.793   4.450
 5832SOL     OW18394   2.253   5.297   3.765
 5832SOL    HW118395   2.339   5.340   3.794
 5832SOL    HW218396   2.273   5.210   3.720
 5833SOL     OW18397   3.184   4.678   0.970
 5833SOL    HW118398   3.224   4.655   1.059
 5833SOL    HW218399   3.089   4.703   0.982
 5834SOL     OW18400   6.245   2.558   6.528
 5834SOL    HW118401   6.230   2.621   6.605
 5834SOL    HW218402   6.162   2.505   6.511
 5835SOL     OW18403   4.309   1.571   3.629
 5835SOL    HW118404   4.267   1.651   3.671
 5835SOL    HW218405   4.357   1.598   3.545
 5836SOL     OW18406   4.943   5.063   1.701
 5836SOL    HW118407   4.893   5.149   1.689
 5836SOL    HW218408   4.879   4.986   1.695
 5837SOL     OW18409   2.818   4.190   0.320
 5837SOL    HW118410   2.859   4.263   0.374
 5837SOL    HW218411   2.772   4.228   0.240
 5838SOL     OW18412   3.415   3.064   0.047
 5838SOL    HW118413   3.462   3.151   0.036
 5838SOL    HW218414   3.424   3.010   6.987
 5839SOL     OW18415   2.095   1.177   0.829
 5839SOL    HW118416   2.177   1.234   0.830
 5839SOL    HW218417   2.015   1.232   0.853
 5840SOL     OW18418   0.387   3.394   2.485
 5840SOL    HW118419   0.291   3.388   2.512
 5840SOL    HW218420   0.413   3.309   2.439
 5841SOL     OW18421   5.328   1.530   0.444
 5841SOL    HW118422   5.291   1.569   0.528
 5841SOL    HW218423   5.324   1.430   0.450
 5842SOL     OW18424   3.251   2.018   2.171
 5842SOL    HW118425   3.284   2.041   2.262
 5842SOL    HW218426   3.158   2.055   2.159
 5843SOL     OW18427   3.307   3.258   0.834
 5843SOL    HW118428   3.379   3.318   0.868
 5843SOL    HW218429   3.295   3.182   0.898
 5844SOL     OW18430   0.545   5.854   5.430
 5844SOL    HW118431   0.622   5.908   5.464
 5844SOL    HW218432   0.513   5.792   5.502
 5845SOL     OW18433   2.249   6.511   2.674
 5845SOL    HW118434   2.202   6.529   2.588
 5845SOL    HW218435   2.186   6.529   2.750
 5846SOL     OW18436   0.632   4.668   6.034
 5846SOL    HW118437   0.723   4.628   6.029
 5846SOL    HW218438   0.587   4.637   6.118
 5847SOL     OW18439   1.770   4.098   6.275
 5847SOL    HW118440   1.852   4.140   6.235
 5847SOL    HW218441   1.770   4.000   6.254
 5848SOL     OW18442   2.582   6.414   1.591
 5848SOL    HW118443   2.601   6.323   1.553
 5848SOL    HW218444   2.553   6.404   1.686
 5849SOL     OW18445   2.828   5.579   6.337
 5849SOL    HW118446   2.925   5.558   6.334
 5849SOL    HW218447   2.788   5.546   6.422
 5850SOL     OW18448   5.661   1.581   1.682
 5850SOL    HW118449   5.754   1.606   1.657
 5850SOL    HW218450   5.662   1.523   1.763
 5851SOL     OW18451   0.438   3.896   4.439
 5851SOL    HW118452   0.527   3.899   4.485
 5851SOL    HW218453   0.401   3.804   4.443
 5852SOL     OW18454   5.105   4.309   2.842
 5852SOL    HW118455   5.168   4.300   2.765
 5852SOL    HW218456   5.021   4.258   2.822
 5853SOL     OW18457   4.586   4.977   0.470
 5853SOL    HW118458   4.588   4.993   0.568
 5853SOL    HW218459   4.518   5.037   0.428
 5854SOL     OW18460   2.821   4.709   5.364
 5854SOL    HW118461   2.722   4.712   5.368
 5854SOL    HW218462   2.851   4.644   5.294
 5855SOL     OW18463   2.061   2.053   4.434
 5855SOL    HW118464   2.098   2.122   4.372
 5855SOL    HW218465   2.074   2.082   4.529
 5856SOL     OW18466   0.207   0.373   2.319
 5856SOL    HW118467   0.162   0.284   2.313
 5856SOL    HW218468   0.281   0.377   2.251
 5857SOL     OW18469   5.565   5.099   6.953
 5857SOL    HW118470   5.531   5.193   6.963
 5857SOL    HW218471   5.500   5.046   6.899
 5858SOL     OW18472   2.324   1.608   2.698
 5858SOL    HW118473   2.324   1.700   2.658
 5858SOL    HW218474   2.340   1.541   2.625
 5859SOL     OW18475   5.362   5.537   2.367
 5859SOL    HW118476   5.372   5.620   2.420
 5859SOL    HW218477   5.406   5.461   2.415
 5860SOL     OW18478   2.001   3.184   2.731
 5860SOL    HW118479   2.027   3.275   2.700
 5860SOL    HW218480   1.924   3.150   2.677
 5861SOL     OW18481   5.765   0.500   5.075
 5861SOL    HW118482   5.811   0.527   5.160
 5861SOL    HW218483   5.703   0.424   5.093
 5862SOL     OW18484   6.826   5.350   3.195
 5862SOL    HW118485   6.834   5.252   3.211
 5862SOL    HW218486   6.836   5.399   3.282
 5863SOL     OW18487   4.041   0.022   5.937
 5863SOL    HW118488   3.948   7.009   5.945
 5863SOL    HW218489   4.081   0.032   6.029
 5864SOL     OW18490   3.728   2.988   2.928
 5864SOL    HW118491   3.693   2.985   2.834
 5864SOL    HW218492   3.820   3.028   2.927
 5865SOL     OW18493   6.263   6.907   1.519
 5865SOL    HW118494   6.176   6.894   1.568
 5865SOL    HW218495   6.257   6.862   1.429
 5866SOL     OW18496   3.328   3.414   3.473
 5866SOL    HW118497   3.318   3.390   3.569
 5866SOL    HW218498   3.313   3.512   3.461
 5867SOL     OW18499   3.813   1.385   0.943
 5867SOL    HW118500   3.808   1.330   0.859
 5867SOL    HW218501   3.804   1.482   0.920
 5868SOL     OW18502   1.512   0.716   0.705
 5868SOL    HW118503   1.584   0.664   0.659
 5868SOL    HW218504   1.471   0.780   0.641
 5869SOL     OW18505   1.799   5.706   2.644
 5869SOL    HW118506   1.783   5.796   2.683
 5869SOL    HW218507   1.822   5.641   2.717
 5870SOL     OW18508   4.753   0.110   3.763
 5870SOL    HW118509   4.796   0.028   3.801
 5870SOL    HW218510   4.824   0.173   3.731
 5871SOL     OW18511   3.574   3.198   3.823
 5871SOL    HW118512   3.589   3.100   3.830
 5871SOL    HW218513   3.659   3.243   3.797
 5872SOL     OW18514   3.673   6.048   1.278
 5872SOL    HW118515   3.685   6.026   1.375
 5872SOL    HW218516   3.761   6.074   1.238
 5873SOL     OW18517   3.987   6.196   2.079
 5873SOL    HW118518   3.927   6.139   2.024
 5873SOL    HW218519   4.073   6.148   2.096
 5874SOL     OW18520   0.604   4.561   5.080
 5874SOL    HW118521   0.637   4.469   5.059
 5874SOL    HW218522   0.516   4.575   5.035
 5875SOL     OW18523   4.130   2.341   1.449
 5875SOL    HW118524   4.092   2.251   1.471
 5875SOL    HW218525   4.137   2.395   1.533
 5876SOL     OW18526   3.427   2.816   2.038
 5876SOL    HW118527   3.472   2.779   1.956
 5876SOL    HW218528   3.487   2.884   2.080
 5877SOL     OW18529   5.243   4.243   1.796
 5877SOL    HW118530   5.228   4.339   1.773
 5877SOL    HW218531   5.271   4.193   1.715
 5878SOL     OW18532   1.861   3.820   2.543
 5878SOL    HW118533   1.912   3.831   2.458
 5878SOL    HW218534   1.857   3.907   2.592
 5879SOL     OW18535   2.042   3.510   4.209
 5879SOL    HW118536   2.021   3.435   4.272
 5879SOL    HW218537   2.053   3.474   4.116
 5880SOL     OW18538   3.203   5.454   6.853
 5880SOL    HW118539   3.112   5.455   6.895
 5880SOL    HW218540   3.255   5.377   6.890
 5881SOL     OW18541   1.676   6.236   4.296
 5881SOL    HW118542   1.639   6.315   4.247
 5881SOL    HW218543   1.733   6.182   4.234
 5882SOL     OW18544   5.207   0.272   3.267
 5882SOL    HW118545   5.306   0.289   3.271
 5882SOL    HW218546   5.177   0.275   3.172
 5883SOL     OW18547   0.980   3.174   4.787
 5883SOL    HW118548   0.977   3.202   4.883
 5883SOL    HW218549   1.012   3.249   4.730
 5884SOL     OW18550   0.609   0.808   2.984
 5884SOL    HW118551   0.597   0.859   3.068
 5884SOL    HW218552   0.530   0.823   2.924
 5885SOL     OW18553   5.885   6.746   0.774
 5885SOL    HW118554   5.842   6.828   0.737
 5885SOL    HW218555   5.819   6.698   0.832
 5886SOL     OW18556   6.108   1.741   6.547
 5886SOL    HW118557   6.068   1.829   6.573
 5886SOL    HW218558   6.056   1.667   6.590
 5887SOL     OW18559   3.975   5.876   2.986
 5887SOL    HW118560   3.957   5.779   2.968
 5887SOL    HW218561   4.069   5.887   3.017
 5888SOL     OW18562   6.789   6.353   1.873
 5888SOL    HW118563   6.792   6.429   1.809
 5888SOL    HW218564   6.882   6.322   1.894
 5889SOL     OW18565   2.664   0.092   6.701
 5889SOL    HW118566   2.584   0.149   6.685
 5889SOL    HW218567   2.668   0.019   6.632
 5890SOL     OW18568   3.958   5.150   6.203
 5890SOL    HW118569   3.952   5.064   6.253
 5890SOL    HW218570   3.868   5.172   6.165
 5891SOL     OW18571   2.174   3.515   5.969
 5891SOL    HW118572   2.218   3.484   5.885
 5891SOL    HW218573   2.172   3.615   5.971
 5892SOL     OW18574   2.193   6.275   2.558
 5892SOL    HW118575   2.183   6.192   2.612
 5892SOL    HW218576   2.224   6.350   2.617
 5893SOL     OW18577   1.300   2.073   3.161
 5893SOL    HW118578   1.219   2.023   3.194
 5893SOL    HW218579   1.358   2.096   3.239
 5894SOL     OW18580   1.451   4.124   4.110
 5894SOL    HW118581   1.419   4.218   4.125
 5894SOL    HW218582   1.458   4.077   4.198
 5895SOL     OW18583   5.935   3.777   3.344
 5895SOL    HW118584   5.945   3.707   3.414
 5895SOL    HW218585   5.847   3.765   3.298
 5896SOL     OW18586   5.092   3.215   6.421
 5896SOL    HW118587   5.058   3.217   6.327
 5896SOL    HW218588   5.141   3.129   6.436
 5897SOL     OW18589   4.650   5.235   1.128
 5897SOL    HW118590   4.712   5.209   1.054
 5897SOL    HW218591   4.584   5.302   1.093
 5898SOL     OW18592   2.888   6.920   3.188
 5898SOL    HW118593   2.883   7.020   3.191
 5898SOL    HW218594   2.841   6.882   3.267
 5899SOL     OW18595   5.684   0.424   3.827
 5899SOL    HW118596   5.653   0.343   3.777
 5899SOL    HW218597   5.712   0.397   3.920
 5900SOL     OW18598   3.850   4.870   2.070
 5900SOL    HW118599   3.777   4.809   2.037
 5900SOL    HW218600   3.810   4.956   2.102
 5901SOL     OW18601   2.996   6.269   4.614
 5901SOL    HW118602   2.918   6.331   4.613
 5901SOL    HW218603   3.061   6.297   4.685
 5902SOL     OW18604   6.105   2.453   6.982
 5902SOL    HW118605   6.027   2.515   6.974
 5902SOL    HW218606   6.086   2.386   0.030
 5903SOL     OW18607   0.588   2.726   6.134
 5903SOL    HW118608   0.507   2.707   6.189
 5903SOL    HW218609   0.644   2.795   6.180
 5904SOL     OW18610   1.687   2.866   2.459
 5904SOL    HW118611   1.687   2.767   2.444
 5904SOL    HW218612   1.658   2.912   2.375
 5905SOL     OW18613   0.199   4.485   2.683
 5905SOL    HW118614   0.195   4.585   2.678
 5905SOL    HW218615   0.106   4.449   2.690
 5906SOL     OW18616   1.128   1.064   2.632
 5906SOL    HW118617   1.173   1.113   2.706
 5906SOL    HW218618   1.056   1.121   2.593
 5907SOL     OW18619   2.153   6.983   2.797
 5907SOL    HW118620   2.057   6.996   2.821
 5907SOL    HW218621   2.163   6.984   2.697
 5908SOL     OW18622   0.935   2.815   6.072
 5908SOL    HW118623   0.962   2.748   6.141
 5908SOL    HW218624   0.854   2.781   6.023
 5909SOL     OW18625   6.445   4.775   0.172
 5909SOL    HW118626   6.533   4.731   0.190
 5909SOL    HW218627   6.435   4.790   0.074
 5910SOL     OW18628   1.106   1.898   3.224
 5910SOL    HW118629   1.089   1.821   3.163
 5910SOL    HW218630   1.139   1.864   3.312
 5911SOL     OW18631   6.730   5.647   6.654
 5911SOL    HW118632   6.728   5.737   6.697
 5911SOL    HW218633   6.721   5.657   6.555
 5912SOL     OW18634   0.225   6.958   3.369
 5912SOL    HW118635   0.139   6.981   3.325
 5912SOL    HW218636   0.250   0.006   3.434
 5913SOL     OW18637   6.547   2.427   1.056
 5913SOL    HW118638   6.517   2.423   1.152
 5913SOL    HW218639   6.475   2.467   1.000
 5914SOL     OW18640   0.739   6.601   0.901
 5914SOL    HW118641   0.777   6.647   0.981
 5914SOL    HW218642   0.646   6.633   0.885
 5915SOL     OW18643   3.745   0.751   5.672
 5915SOL    HW118644   3.839   0.740   5.707
 5915SOL    HW218645   3.684   0.775   5.748
 5916SOL     OW18646   0.865   0.572   2.282
 5916SOL    HW118647   0.865   0.541   2.186
 5916SOL    HW218648   0.775   0.607   2.305
 5917SOL     OW18649   3.306   2.721   0.366
 5917SOL    HW118650   3.347   2.763   0.285
 5917SOL    HW218651   3.376   2.670   0.416
 5918SOL     OW18652   3.457   6.936   4.354
 5918SOL    HW118653   3.551   6.954   4.327
 5918SOL    HW218654   3.457   6.876   4.435
 5919SOL     OW18655   3.132   3.401   4.794
 5919SOL    HW118656   3.052   3.407   4.855
 5919SOL    HW218657   3.108   3.345   4.715
 5920SOL     OW18658   0.541   0.468   5.767
 5920SOL    HW118659   0.469   0.468   5.837
 5920SOL    HW218660   0.609   0.398   5.790
 5921SOL     OW18661   2.679   4.259   0.107
 5921SOL    HW118662   2.625   4.339   0.082
 5921SOL    HW218663   2.738   4.233   0.030
 5922SOL     OW18664   5.170   2.959   2.719
 5922SOL    HW118665   5.187   3.005   2.807
 5922SOL    HW218666   5.221   3.007   2.647
 5923SOL     OW18667   5.757   0.893   3.226
 5923SOL    HW118668   5.797   0.806   3.197
 5923SOL    HW218669   5.798   0.968   3.173
 5924SOL     OW18670   5.891   6.790   3.593
 5924SOL    HW118671   5.888   6.755   3.499
 5924SOL    HW218672   5.876   6.889   3.592
 5925SOL     OW18673   4.406   1.468   0.867
 5925SOL    HW118674   4.495   1.500   0.835
 5925SOL    HW218675   4.334   1.503   0.807
 5926SOL     OW18676   5.590   3.753   3.314
 5926SOL    HW118677   5.528   3.706   3.252
 5926SOL    HW218678   5.606   3.697   3.395
 5927SOL     OW18679   0.286   5.510   1.942
 5927SOL    HW118680   0.282   5.558   2.030
 5927SOL    HW218681   0.211   5.443   1.938
 5928SOL     OW18682   2.748   6.958   6.928
 5928SOL    HW118683   2.722   0.013   6.871
 5928SOL    HW218684   2.835   6.921   6.896
 5929SOL     OW18685   1.252   0.622   0.774
 5929SOL    HW118686   1.335   0.672   0.749
 5929SOL    HW218687   1.217   0.657   0.861
 5930SOL     OW18688   1.481   3.882   2.432
 5930SOL    HW118689   1.528   3.958   2.388
 5930SOL    HW218690   1.525   3.796   2.407
 5931SOL     OW18691   5.097   6.228   3.018
 5931SOL    HW118692   5.149   6.144   3.006
 5931SOL    HW218693   5.086   6.274   2.930
 5932SOL     OW18694   3.084   6.149   0.486
 5932SOL    HW118695   3.117   6.055   0.496
 5932SOL    HW218696   3.051   6.182   0.574
 5933SOL     OW18697   6.188   5.473   4.369
 5933SOL    HW118698   6.099   5.517   4.381
 5933SOL    HW218699   6.175   5.379   4.338
 5934SOL     OW18700   3.088   3.184   0.648
 5934SOL    HW118701   3.169   3.205   0.702
 5934SOL    HW218702   3.105   3.102   0.593
 5935SOL     OW18703   1.028   0.488   5.185
 5935SOL    HW118704   1.078   0.550   5.245
 5935SOL    HW218705   0.931   0.487   5.212
 5936SOL     OW18706   3.523   2.752   1.788
 5936SOL    HW118707   3.591   2.681   1.771
 5936SOL    HW218708   3.534   2.826   1.722
 5937SOL     OW18709   0.541   2.894   0.705
 5937SOL    HW118710   0.512   2.960   0.636
 5937SOL    HW218711   0.509   2.923   0.795
 5938SOL     OW18712   0.574   3.791   3.906
 5938SOL    HW118713   0.511   3.831   3.972
 5938SOL    HW218714   0.547   3.817   3.813
 5939SOL     OW18715   4.383   1.328   6.136
 5939SOL    HW118716   4.467   1.348   6.086
 5939SOL    HW218717   4.392   1.241   6.185
 5940SOL     OW18718   4.617   5.052   1.749
 5940SOL    HW118719   4.657   5.034   1.839
 5940SOL    HW218720   4.605   5.150   1.737
 5941SOL     OW18721   6.939   1.706   2.963
 5941SOL    HW118722   6.883   1.678   2.885
 5941SOL    HW218723   6.905   1.793   2.999
 5942SOL     OW18724   5.507   2.569   6.585
 5942SOL    HW118725   5.413   2.535   6.590
 5942SOL    HW218726   5.568   2.493   6.564
 5943SOL     OW18727   1.816   4.567   1.258
 5943SOL    HW118728   1.762   4.542   1.339
 5943SOL    HW218729   1.882   4.494   1.239
 5944SOL     OW18730   5.983   3.506   5.882
 5944SOL    HW118731   6.036   3.585   5.852
 5944SOL    HW218732   5.897   3.537   5.923
 5945SOL     OW18733   6.717   6.265   4.615
 5945SOL    HW118734   6.695   6.247   4.519
 5945SOL    HW218735   6.736   6.362   4.627
 5946SOL     OW18736   2.108   3.165   6.941
 5946SOL    HW118737   2.075   3.164   6.846
 5946SOL    HW218738   2.050   3.107   6.997
 5947SOL     OW18739   3.536   3.523   4.426
 5947SOL    HW118740   3.558   3.570   4.341
 5947SOL    HW218741   3.553   3.425   4.415
 5948SOL     OW18742   4.722   3.623   1.291
 5948SOL    HW118743   4.697   3.719   1.278
 5948SOL    HW218744   4.809   3.618   1.340
 5949SOL     OW18745   0.491   4.052   3.030
 5949SOL    HW118746   0.444   4.028   2.945
 5949SOL    HW218747   0.583   4.013   3.029
 5950SOL     OW18748   3.219   6.939   4.668
 5950SOL    HW118749   3.311   6.913   4.698
 5950SOL    HW218750   3.196   6.890   4.584
 5951SOL     OW18751   6.874   3.781   6.675
 5951SOL    HW118752   6.944   3.818   6.737
 5951SOL    HW218753   6.858   3.846   6.601
 5952SOL     OW18754   3.775   4.122   1.755
 5952SOL    HW118755   3.750   4.109   1.851
 5952SOL    HW218756   3.729   4.053   1.699
 5953SOL     OW18757   6.606   3.475   5.946
 5953SOL    HW118758   6.598   3.399   5.883
 5953SOL    HW218759   6.702   3.503   5.953
 5954SOL     OW18760   2.034   5.708   3.827
 5954SOL    HW118761   2.067   5.685   3.736
 5954SOL    HW218762   1.946   5.664   3.843
 5955SOL     OW18763   4.616   3.268   0.470
 5955SOL    HW118764   4.712   3.249   0.489
 5955SOL    HW218765   4.575   3.314   0.549
 5956SOL     OW18766   4.458   3.091   5.884
 5956SOL    HW118767   4.369   3.078   5.927
 5956SOL    HW218768   4.507   3.004   5.881
 5957SOL     OW18769   6.771   1.638   3.374
 5957SOL    HW118770   6.729   1.565   3.428
 5957SOL    HW218771   6.730   1.640   3.283
 5958SOL     OW18772   2.456   6.555   3.286
 5958SOL    HW118773   2.372   6.610   3.293
 5958SOL    HW218774   2.454   6.503   3.200
 5959SOL     OW18775   5.474   2.956   3.153
 5959SOL    HW118776   5.496   3.028   3.087
 5959SOL    HW218777   5.557   2.929   3.202
 5960SOL     OW18778   4.900   0.815   5.881
 5960SOL    HW118779   4.993   0.781   5.867
 5960SOL    HW218780   4.839   0.739   5.900
 5961SOL     OW18781   3.026   2.213   3.745
 5961SOL    HW118782   3.069   2.177   3.828
 5961SOL    HW218783   2.941   2.259   3.768
 5962SOL     OW18784   4.627   4.792   0.816
 5962SOL    HW118785   4.682   4.764   0.895
 5962SOL    HW218786   4.631   4.892   0.806
 5963SOL     OW18787   2.061   3.493   0.665
 5963SOL    HW118788   1.973   3.451   0.687
 5963SOL    HW218789   2.135   3.430   0.689
 5964SOL     OW18790   1.897   0.055   3.274
 5964SOL    HW118791   1.902   0.016   3.182
 5964SOL    HW218792   1.860   0.148   3.269
 5965SOL     OW18793   2.379   0.498   1.194
 5965SOL    HW118794   2.307   0.439   1.230
 5965SOL    HW218795   2.353   0.594   1.209
 5966SOL     OW18796   2.869   2.008   5.260
 5966SOL    HW118797   2.854   2.087   5.320
 5966SOL    HW218798   2.933   2.033   5.188
 5967SOL     OW18799   4.696   2.330   5.074
 5967SOL    HW118800   4.706   2.232   5.056
 5967SOL    HW218801   4.715   2.349   5.170
 5968SOL     OW18802   5.591   1.897   3.034
 5968SOL    HW118803   5.601   1.863   2.941
 5968SOL    HW218804   5.558   1.991   3.032
 5969SOL     OW18805   4.405   0.177   0.878
 5969SOL    HW118806   4.352   0.231   0.943
 5969SOL    HW218807   4.503   0.193   0.893
 5970SOL     OW18808   6.650   3.111   0.615
 5970SOL    HW118809   6.553   3.104   0.637
 5970SOL    HW218810   6.701   3.139   0.697
 5971SOL     OW18811   0.031   5.636   3.822
 5971SOL    HW118812   0.090   5.557   3.805
 5971SOL    HW218813   6.960   5.612   3.804
 5972SOL     OW18814   6.058   5.253   0.905
 5972SOL    HW118815   6.105   5.336   0.877
 5972SOL    HW218816   5.971   5.247   0.857
 5973SOL     OW18817   2.587   0.640   2.375
 5973SOL    HW118818   2.586   0.629   2.275
 5973SOL    HW218819   2.666   0.695   2.401
 5974SOL     OW18820   5.713   1.481   4.763
 5974SOL    HW118821   5.626   1.529   4.748
 5974SOL    HW218822   5.731   1.420   4.686
 5975SOL     OW18823   4.470   5.516   1.602
 5975SOL    HW118824   4.515   5.599   1.636
 5975SOL    HW218825   4.371   5.525   1.614
 5976SOL     OW18826   1.393   4.103   5.801
 5976SOL    HW118827   1.476   4.050   5.786
 5976SOL    HW218828   1.392   4.138   5.894
 5977SOL     OW18829   6.687   5.116   0.838
 5977SOL    HW118830   6.696   5.019   0.858
 5977SOL    HW218831   6.608   5.153   0.888
 5978SOL     OW18832   2.642   3.581   6.734
 5978SOL    HW118833   2.727   3.590   6.682
 5978SOL    HW218834   2.662   3.554   6.828
 5979SOL     OW18835   6.508   0.015   1.270
 5979SOL    HW118836   6.430   6.982   1.245
 5979SOL    HW218837   6.575   0.015   1.195
 5980SOL     OW18838   2.909   2.341   1.137
 5980SOL    HW118839   3.005   2.324   1.114
 5980SOL    HW218840   2.855   2.340   1.053
 5981SOL     OW18841   2.847   2.124   1.300
 5981SOL    HW118842   2.864   2.198   1.235
 5981SOL    HW218843   2.809   2.161   1.384
 5982SOL     OW18844   5.660   3.084   1.982
 5982SOL    HW118845   5.583   3.143   1.958
 5982SOL    HW218846   5.676   3.019   1.909
 5983SOL     OW18847   6.952   0.875   3.775
 5983SOL    HW118848   6.924   0.864   3.870
 5983SOL    HW218849   0.021   0.839   3.764
 5984SOL     OW18850   6.012   6.088   3.005
 5984SOL    HW118851   6.038   6.087   3.102
 5984SOL    HW218852   5.990   5.994   2.976
 5985SOL     OW18853   0.083   3.665   2.625
 5985SOL    HW118854   0.114   3.577   2.662
 5985SOL    HW218855   0.144   3.694   2.552
 5986SOL     OW18856   3.805   3.640   3.849
 5986SOL    HW118857   3.750   3.702   3.793
 5986SOL    HW218858   3.789   3.660   3.946
 5987SOL     OW18859   0.001   5.850   5.000
 5987SOL    HW118860   0.083   5.861   4.944
 5987SOL    HW218861   0.023   5.795   5.081
 5988SOL     OW18862   0.876   3.209   6.735
 5988SOL    HW118863   0.843   3.167   6.820
 5988SOL    HW218864   0.895   3.306   6.751
 5989SOL     OW18865   1.207   6.627   5.387
 5989SOL    HW118866   1.188   6.703   5.325
 5989SOL    HW218867   1.133   6.560   5.381
 5990SOL     OW18868   2.742   4.419   1.579
 5990SOL    HW118869   2.753   4.482   1.502
 5990SOL    HW218870   2.688   4.463   1.651
 5991SOL     OW18871   5.576   1.153   1.105
 5991SOL    HW118872   5.523   1.074   1.135
 5991SOL    HW218873   5.642   1.124   1.035
 5992SOL     OW18874   3.350   5.307   2.886
 5992SOL    HW118875   3.278   5.376   2.887
 5992SOL    HW218876   3.422   5.332   2.950
 5993SOL     OW18877   5.865   2.365   0.726
 5993SOL    HW118878   5.835   2.274   0.698
 5993SOL    HW218879   5.956   2.358   0.766
 5994SOL     OW18880   6.717   3.755   6.944
 5994SOL    HW118881   6.625   3.774   6.908
 5994SOL    HW218882   6.731   3.656   6.948
 5995SOL     OW18883   4.988   3.496   1.316
 5995SOL    HW118884   4.969   3.564   1.387
 5995SOL    HW218885   4.930   3.416   1.330
 5996SOL     OW18886   2.257   6.645   1.279
 5996SOL    HW118887   2.269   6.549   1.254
 5996SOL    HW218888   2.347   6.687   1.294
 5997SOL     OW18889   6.130   0.412   4.253
 5997SOL    HW118890   6.202   0.455   4.307
 5997SOL    HW218891   6.068   0.483   4.218
 5998SOL     OW18892   7.019   6.218   6.777
 5998SOL    HW118893   7.018   6.315   6.801
 5998SOL    HW218894   0.085   6.179   6.798
 5999SOL     OW18895   4.936   3.712   1.481
 5999SOL    HW118896   4.847   3.727   1.523
 5999SOL    HW218897   5.008   3.745   1.543
 6000SOL     OW18898   1.334   4.344   0.740
 6000SOL    HW118899   1.393   4.307   0.811
 6000SOL    HW218900   1.371   4.320   0.650
 6001SOL     OW18901   5.883   5.391   5.843
 6001SOL    HW118902   5.916   5.480   5.873
 6001SOL    HW218903   5.900   5.323   5.915
 6002SOL     OW18904   5.163   4.725   5.428
 6002SOL    HW118905   5.106   4.799   5.464
 6002SOL    HW218906   5.148   4.716   5.330
 6003SOL     OW18907   2.321   2.271   4.846
 6003SOL    HW118908   2.358   2.252   4.937
 6003SOL    HW218909   2.341   2.366   4.821
 6004SOL     OW18910   5.372   3.386   5.410
 6004SOL    HW118911   5.331   3.477   5.401
 6004SOL    HW218912   5.471   3.393   5.396
 6005SOL     OW18913   4.154   3.829   0.327
 6005SOL    HW118914   4.118   3.745   0.287
 6005SOL    HW218915   4.095   3.906   0.303
 6006SOL     OW18916   3.210   6.132   6.790
 6006SOL    HW118917   3.192   6.058   6.725
 6006SOL    HW218918   3.284   6.105   6.851
 6007SOL     OW18919   2.217   6.516   4.878
 6007SOL    HW118920   2.300   6.520   4.934
 6007SOL    HW218921   2.180   6.423   4.881
 6008SOL     OW18922   2.158   3.993   6.583
 6008SOL    HW118923   2.195   3.903   6.560
 6008SOL    HW218924   2.090   3.983   6.655
 6009SOL     OW18925   4.295   5.124   2.709
 6009SOL    HW118926   4.378   5.172   2.738
 6009SOL    HW218927   4.308   5.026   2.720
 6010SOL     OW18928   0.259   4.860   4.824
 6010SOL    HW118929   0.267   4.959   4.819
 6010SOL    HW218930   0.340   4.817   4.784
 6011SOL     OW18931   5.319   1.585   3.424
 6011SOL    HW118932   5.327   1.573   3.325
 6011SOL    HW218933   5.363   1.670   3.451
 6012SOL     OW18934   6.606   0.586   5.587
 6012SOL    HW118935   6.647   0.645   5.658
 6012SOL    HW218936   6.679   0.547   5.532
 6013SOL     OW18937   5.902   1.649   2.526
 6013SOL    HW118938   5.991   1.615   2.497
 6013SOL    HW218939   5.891   1.744   2.497
 6014SOL     OW18940   3.359   3.309   4.236
 6014SOL    HW118941   3.340   3.406   4.252
 6014SOL    HW218942   3.450   3.299   4.196
 6015SOL     OW18943   6.064   6.932   4.470
 6015SOL    HW118944   6.118   6.853   4.499
 6015SOL    HW218945   5.983   6.901   4.421
 6016SOL     OW18946   4.078   2.178   4.484
 6016SOL    HW118947   3.979   2.176   4.470
 6016SOL    HW218948   4.124   2.174   4.395
 6017SOL     OW18949   1.559   1.833   5.690
 6017SOL    HW118950   1.556   1.807   5.594
 6017SOL    HW218951   1.518   1.923   5.702
 6018SOL     OW18952   2.562   1.118   3.657
 6018SOL    HW118953   2.645   1.172   3.669
 6018SOL    HW218954   2.567   1.035   3.712
 6019SOL     OW18955   6.671   4.828   6.637
 6019SOL    HW118956   6.671   4.927   6.624
 6019SOL    HW218957   6.678   4.807   6.734
 6020SOL     OW18958   0.968   5.036   5.963
 6020SOL    HW118959   0.978   4.937   5.968
 6020SOL    HW218960   1.057   5.078   5.941
 6021SOL     OW18961   5.960   0.221   3.318
 6021SOL    HW118962   5.940   0.315   3.348
 6021SOL    HW218963   5.928   0.157   3.387
 6022SOL     OW18964   6.244   2.977   1.690
 6022SOL    HW118965   6.188   2.899   1.662
 6022SOL    HW218966   6.274   3.027   1.609
 6023SOL     OW18967   4.882   6.417   2.025
 6023SOL    HW118968   4.820   6.359   1.971
 6023SOL    HW218969   4.843   6.509   2.032
 6024SOL     OW18970   0.484   6.642   6.602
 6024SOL    HW118971   0.551   6.569   6.613
 6024SOL    HW218972   0.520   6.727   6.641
 6025SOL     OW18973   2.505   0.187   5.713
 6025SOL    HW118974   2.427   0.238   5.749
 6025SOL    HW218975   2.586   0.245   5.714
 6026SOL     OW18976   6.153   5.912   3.415
 6026SOL    HW118977   6.068   5.865   3.439
 6026SOL    HW218978   6.210   5.922   3.497
 6027SOL     OW18979   6.046   5.317   6.310
 6027SOL    HW118980   5.992   5.397   6.282
 6027SOL    HW218981   6.120   5.347   6.370
 6028SOL     OW18982   5.933   5.894   6.163
 6028SOL    HW118983   5.988   5.823   6.207
 6028SOL    HW218984   5.906   5.963   6.230
 6029SOL     OW18985   3.477   1.448   2.670
 6029SOL    HW118986   3.574   1.435   2.688
 6029SOL    HW218987   3.435   1.499   2.745
 6030SOL     OW18988   6.301   3.271   4.592
 6030SOL    HW118989   6.251   3.343   4.544
 6030SOL    HW218990   6.394   3.264   4.555
 6031SOL     OW18991   0.193   6.461   5.219
 6031SOL    HW118992   0.199   6.420   5.310
 6031SOL    HW218993   0.181   6.389   5.151
 6032SOL     OW18994   3.142   6.794   3.188
 6032SOL    HW118995   3.180   6.814   3.097
 6032SOL    HW218996   3.057   6.845   3.200
 6033SOL     OW18997   0.376   1.697   2.506
 6033SOL    HW118998   0.473   1.724   2.507
 6033SOL    HW218999   0.342   1.697   2.600
 6034SOL     OW19000   0.212   6.961   0.315
 6034SOL    HW119001   0.255   6.902   0.247
 6034SOL    HW219002   0.112   6.952   0.309
 6035SOL     OW19003   2.521   0.098   2.437
 6035SOL    HW119004   2.597   0.123   2.378
 6035SOL    HW219005   2.479   0.013   2.404
 6036SOL     OW19006   6.109   3.404   0.786
 6036SOL    HW119007   6.144   3.485   0.831
 6036SOL    HW219008   6.145   3.399   0.693
 6037SOL     OW19009   4.683   1.085   6.443
 6037SOL    HW119010   4.656   1.179   6.420
 6037SOL    HW219011   4.726   1.085   6.534
 6038SOL     OW19012   1.222   1.302   5.949
 6038SOL    HW119013   1.200   1.311   6.046
 6038SOL    HW219014   1.183   1.216   5.914
 6039SOL     OW19015   4.149   3.459   3.519
 6039SOL    HW119016   4.226   3.397   3.499
 6039SOL    HW219017   4.140   3.470   3.618
 6040SOL     OW19018   0.539   2.028   0.430
 6040SOL    HW119019   0.501   1.966   0.362
 6040SOL    HW219020   0.622   1.988   0.470
 6041SOL     OW19021   0.999   3.465   5.320
 6041SOL    HW119022   1.091   3.427   5.335
 6041SOL    HW219023   0.985   3.542   5.382
 6042SOL     OW19024   2.838   6.202   3.622
 6042SOL    HW119025   2.932   6.190   3.655
 6042SOL    HW219026   2.798   6.283   3.666
 6043SOL     OW19027   2.574   0.039   2.696
 6043SOL    HW119028   2.565   0.059   2.599
 6043SOL    HW219029   2.520   0.105   2.749
 6044SOL     OW19030   0.594   3.258   0.435
 6044SOL    HW119031   0.595   3.300   0.526
 6044SOL    HW219032   0.539   3.175   0.438
 6045SOL     OW19033   5.876   1.097   3.711
 6045SOL    HW119034   5.882   1.116   3.809
 6045SOL    HW219035   5.807   1.027   3.695
 6046SOL     OW19036   3.466   3.338   2.873
 6046SOL    HW119037   3.417   3.290   2.800
 6046SOL    HW219038   3.401   3.384   2.933
 6047SOL     OW19039   6.686   1.629   0.275
 6047SOL    HW119040   6.768   1.671   0.235
 6047SOL    HW219041   6.685   1.646   0.374
 6048SOL     OW19042   5.819   6.103   3.329
 6048SOL    HW119043   5.917   6.120   3.320
 6048SOL    HW219044   5.774   6.186   3.363
 6049SOL     OW19045   4.600   5.102   6.618
 6049SOL    HW119046   4.582   5.136   6.710
 6049SOL    HW219047   4.535   5.143   6.554
 6050SOL     OW19048   2.626   5.380   2.319
 6050SOL    HW119049   2.639   5.385   2.418
 6050SOL    HW219050   2.627   5.472   2.280
 6051SOL     OW19051   0.495   1.405   3.118
 6051SOL    HW119052   0.574   1.423   3.060
 6051SOL    HW219053   0.434   1.341   3.071
 6052SOL     OW19054   5.224   5.460   0.090
 6052SOL    HW119055   5.223   5.467   0.190
 6052SOL    HW219056   5.149   5.400   0.060
 6053SOL     OW19057   4.550   2.590   6.617
 6053SOL    HW119058   4.584   2.676   6.655
 6053SOL    HW219059   4.472   2.608   6.558
 6054SOL     OW19060   4.381   3.772   0.892
 6054SOL    HW119061   4.312   3.779   0.964
 6054SOL    HW219062   4.350   3.709   0.821
 6055SOL     OW19063   2.777   3.400   1.555
 6055SOL    HW119064   2.735   3.462   1.622
 6055SOL    HW219065   2.709   3.334   1.524
 6056SOL     OW19066   5.302   5.932   3.493
 6056SOL    HW119067   5.337   6.019   3.527
 6056SOL    HW219068   5.223   5.949   3.434
 6057SOL     OW19069   5.365   0.595   3.756
 6057SOL    HW119070   5.449   0.608   3.808
 6057SOL    HW219071   5.311   0.523   3.798
 6058SOL     OW19072   0.047   2.658   5.994
 6058SOL    HW119073   0.064   2.698   6.083
 6058SOL    HW219074   0.132   2.620   5.957
 6059SOL     OW19075   4.543   2.712   6.951
 6059SOL    HW119076   4.551   2.736   6.854
 6059SOL    HW219077   4.634   2.704   6.991
 6060SOL     OW19078   2.253   2.502   0.367
 6060SOL    HW119079   2.300   2.573   0.316
 6060SOL    HW219080   2.245   2.420   0.311
 6061SOL     OW19081   3.474   4.125   6.897
 6061SOL    HW119082   3.506   4.066   6.972
 6061SOL    HW219083   3.383   4.095   6.869
 6062SOL     OW19084   2.211   1.833   5.802
 6062SOL    HW119085   2.139   1.895   5.833
 6062SOL    HW219086   2.299   1.863   5.837
 6063SOL     OW19087   4.393   4.301   0.108
 6063SOL    HW119088   4.371   4.393   0.075
 6063SOL    HW219089   4.480   4.303   0.157
 6064SOL     OW19090   6.047   5.945   0.739
 6064SOL    HW119091   6.030   6.043   0.733
 6064SOL    HW219092   6.039   5.915   0.834
 6065SOL     OW19093   2.101   6.126   1.360
 6065SOL    HW119094   2.186   6.119   1.308
 6065SOL    HW219095   2.120   6.169   1.449
 6066SOL     OW19096   5.778   5.570   2.558
 6066SOL    HW119097   5.842   5.513   2.610
 6066SOL    HW219098   5.765   5.532   2.467
 6067SOL     OW19099   6.832   6.629   5.829
 6067SOL    HW119100   6.908   6.648   5.891
 6067SOL    HW219101   6.756   6.590   5.881
 6068SOL     OW19102   4.993   2.256   4.224
 6068SOL    HW119103   5.034   2.173   4.188
 6068SOL    HW219104   4.976   2.247   4.322
 6069SOL     OW19105   6.961   4.829   6.323
 6069SOL    HW119106   6.928   4.740   6.356
 6069SOL    HW219107   6.887   4.875   6.274
 6070SOL     OW19108   2.456   1.651   0.744
 6070SOL    HW119109   2.541   1.607   0.718
 6070SOL    HW219110   2.431   1.623   0.837
 6071SOL     OW19111   5.367   1.098   5.773
 6071SOL    HW119112   5.464   1.121   5.776
 6071SOL    HW219113   5.337   1.095   5.677
 6072SOL     OW19114   6.796   3.482   6.932
 6072SOL    HW119115   6.812   3.454   0.003
 6072SOL    HW219116   6.881   3.476   6.880
 6073SOL     OW19117   5.053   3.998   0.336
 6073SOL    HW119118   5.041   3.968   0.241
 6073SOL    HW219119   5.043   4.097   0.341
 6074SOL     OW19120   0.953   6.810   2.126
 6074SOL    HW119121   0.960   6.888   2.063
 6074SOL    HW219122   1.038   6.801   2.177
 6075SOL     OW19123   6.132   0.898   6.972
 6075SOL    HW119124   6.078   0.868   0.027
 6075SOL    HW219125   6.219   0.848   6.971
 6076SOL     OW19126   0.400   5.928   2.917
 6076SOL    HW119127   0.482   5.933   2.974
 6076SOL    HW219128   0.401   6.003   2.851
 6077SOL     OW19129   5.154   5.944   2.724
 6077SOL    HW119130   5.204   6.028   2.705
 6077SOL    HW219131   5.110   5.912   2.641
 6078SOL     OW19132   5.106   4.280   0.350
 6078SOL    HW119133   5.073   4.357   0.406
 6078SOL    HW219134   5.186   4.239   0.393
 6079SOL     OW19135   3.438   1.454   6.842
 6079SOL    HW119136   3.349   1.409   6.829
 6079SOL    HW219137   3.426   1.534   6.901
 6080SOL     OW19138   6.525   3.711   5.805
 6080SOL    HW119139   6.508   3.711   5.706
 6080SOL    HW219140   6.539   3.618   5.837
 6081SOL     OW19141   1.710   3.562   3.722
 6081SOL    HW119142   1.756   3.539   3.637
 6081SOL    HW219143   1.745   3.650   3.756
 6082SOL     OW19144   5.230   1.171   1.515
 6082SOL    HW119145   5.329   1.181   1.502
 6082SOL    HW219146   5.182   1.238   1.458
 6083SOL     OW19147   5.133   7.000   6.651
 6083SOL    HW119148   5.152   6.913   6.697
 6083SOL    HW219149   5.200   7.014   6.578
 6084SOL     OW19150   6.494   5.440   2.992
 6084SOL    HW119151   6.477   5.422   3.088
 6084SOL    HW219152   6.444   5.522   2.964
 6085SOL     OW19153   0.710   6.589   0.323
 6085SOL    HW119154   0.800   6.563   0.289
 6085SOL    HW219155   0.694   6.686   0.304
 6086SOL     OW19156   3.228   3.514   6.894
 6086SOL    HW119157   3.264   3.506   6.987
 6086SOL    HW219158   3.179   3.601   6.884
 6087SOL     OW19159   4.524   0.404   0.384
 6087SOL    HW119160   4.579   0.320   0.384
 6087SOL    HW219161   4.482   0.416   0.474
 6088SOL     OW19162   4.654   5.187   2.991
 6088SOL    HW119163   4.644   5.109   3.053
 6088SOL    HW219164   4.747   5.189   2.956
 6089SOL     OW19165   6.445   3.854   3.266
 6089SOL    HW119166   6.492   3.775   3.305
 6089SOL    HW219167   6.357   3.865   3.312
 6090SOL     OW19168   3.506   5.606   4.279
 6090SOL    HW119169   3.520   5.622   4.181
 6090SOL    HW219170   3.594   5.609   4.326
 6091SOL     OW19171   0.714   1.215   1.634
 6091SOL    HW119172   0.802   1.258   1.616
 6091SOL    HW219173   0.693   1.150   1.561
 6092SOL     OW19174   2.506   6.757   1.393
 6092SOL    HW119175   2.576   6.728   1.459
 6092SOL    HW219176   2.543   6.749   1.301
 6093SOL     OW19177   2.501   2.437   2.150
 6093SOL    HW119178   2.414   2.482   2.131
 6093SOL    HW219179   2.553   2.426   2.065
 6094SOL     OW19180   0.625   6.427   5.541
 6094SOL    HW119181   0.578   6.454   5.457
 6094SOL    HW219182   0.677   6.344   5.525
 6095SOL     OW19183   5.165   4.752   1.883
 6095SOL    HW119184   5.177   4.719   1.789
 6095SOL    HW219185   5.200   4.845   1.890
 6096SOL     OW19186   4.899   5.829   3.112
 6096SOL    HW119187   4.820   5.802   3.167
 6096SOL    HW219188   4.964   5.754   3.109
 6097SOL     OW19189   2.613   4.993   2.092
 6097SOL    HW119190   2.658   5.079   2.069
 6097SOL    HW219191   2.595   4.941   2.009
 6098SOL     OW19192   6.541   0.712   5.137
 6098SOL    HW119193   6.444   0.737   5.139
 6098SOL    HW219194   6.596   0.794   5.117
 6099SOL     OW19195   4.133   0.115   5.678
 6099SOL    HW119196   4.094   0.206   5.687
 6099SOL    HW219197   4.099   0.057   5.752
 6100SOL     OW19198   0.899   5.618   5.470
 6100SOL    HW119199   0.987   5.579   5.444
 6100SOL    HW219200   0.825   5.557   5.440
 6101SOL     OW19201   0.373   3.078   1.730
 6101SOL    HW119202   0.304   3.022   1.684
 6101SOL    HW219203   0.372   3.171   1.692
 6102SOL     OW19204   3.652   6.898   2.773
 6102SOL    HW119205   3.612   6.966   2.835
 6102SOL    HW219206   3.752   6.909   2.772
 6103SOL     OW19207   5.874   1.633   2.805
 6103SOL    HW119208   5.873   1.652   2.707
 6103SOL    HW219209   5.899   1.716   2.855
 6104SOL     OW19210   6.760   1.198   5.018
 6104SOL    HW119211   6.849   1.171   4.982
 6104SOL    HW219212   6.688   1.146   4.971
 6105SOL     OW19213   3.835   4.292   6.228
 6105SOL    HW119214   3.867   4.361   6.292
 6105SOL    HW219215   3.839   4.202   6.272
 6106SOL     OW19216   6.110   4.702   5.335
 6106SOL    HW119217   6.135   4.691   5.431
 6106SOL    HW219218   6.041   4.633   5.310
 6107SOL     OW19219   5.381   5.094   5.689
 6107SOL    HW119220   5.455   5.028   5.679
 6107SOL    HW219221   5.326   5.070   5.769
 6108SOL     OW19222   2.289   1.184   6.473
 6108SOL    HW119223   2.372   1.134   6.446
 6108SOL    HW219224   2.307   1.236   6.557
 6109SOL     OW19225   0.297   6.794   4.069
 6109SOL    HW119226   0.355   6.713   4.066
 6109SOL    HW219227   0.300   6.841   3.981
 6110SOL     OW19228   2.007   1.468   4.355
 6110SOL    HW119229   2.098   1.448   4.392
 6110SOL    HW219230   2.016   1.506   4.263
 6111SOL     OW19231   2.235   3.284   0.666
 6111SOL    HW119232   2.223   3.304   0.569
 6111SOL    HW219233   2.309   3.340   0.703
 6112SOL     OW19234   4.592   6.704   3.635
 6112SOL    HW119235   4.619   6.680   3.541
 6112SOL    HW219236   4.665   6.679   3.698
 6113SOL     OW19237   2.019   5.417   0.826
 6113SOL    HW119238   2.069   5.380   0.748
 6113SOL    HW219239   1.932   5.455   0.796
 6114SOL     OW19240   4.900   2.417   1.360
 6114SOL    HW119241   4.858   2.366   1.285
 6114SOL    HW219242   4.846   2.498   1.380
 6115SOL     OW19243   0.852   0.911   5.343
 6115SOL    HW119244   0.858   0.963   5.428
 6115SOL    HW219245   0.943   0.878   5.317
 6116SOL     OW19246   5.690   3.589   6.984
 6116SOL    HW119247   5.697   3.678   0.005
 6116SOL    HW219248   5.618   3.536   0.005
 6117SOL     OW19249   1.632   1.771   1.216
 6117SOL    HW119250   1.642   1.752   1.314
 6117SOL    HW219251   1.718   1.753   1.170
 6118SOL     OW19252   5.721   1.291   2.459
 6118SOL    HW119253   5.766   1.376   2.486
 6118SOL    HW219254   5.790   1.227   2.426
 6119SOL     OW19255   6.445   1.348   6.629
 6119SOL    HW119256   6.473   1.439   6.660
 6119SOL    HW219257   6.345   1.342   6.627
 6120SOL     OW19258   3.252   0.322   4.106
 6120SOL    HW119259   3.176   0.356   4.161
 6120SOL    HW219260   3.279   0.231   4.138
 6121SOL     OW19261   1.999   1.738   5.147
 6121SOL    HW119262   1.951   1.674   5.207
 6121SOL    HW219263   2.082   1.695   5.112
 6122SOL     OW19264   5.229   4.628   5.140
 6122SOL    HW119265   5.305   4.616   5.204
 6122SOL    HW219266   5.232   4.556   5.071
 6123SOL     OW19267   5.905   1.401   5.690
 6123SOL    HW119268   5.958   1.320   5.716
 6123SOL    HW219269   5.931   1.430   5.598
 6124SOL     OW19270   2.653   6.078   3.894
 6124SOL    HW119271   2.748   6.098   3.920
 6124SOL    HW219272   2.649   6.060   3.796
 6125SOL     OW19273   3.145   1.521   5.938
 6125SOL    HW119274   3.225   1.462   5.940
 6125SOL    HW219275   3.168   1.611   5.974
 6126SOL     OW19276   5.966   2.963   6.070
 6126SOL    HW119277   6.013   2.908   6.002
 6126SOL    HW219278   5.975   3.060   6.046
 6127SOL     OW19279   5.471   2.144   3.103
 6127SOL    HW119280   5.495   2.232   3.143
 6127SOL    HW219281   5.422   2.088   3.170
 6128SOL     OW19282   6.000   6.021   6.642
 6128SOL    HW119283   5.993   6.090   6.714
 6128SOL    HW219284   6.092   5.981   6.643
 6129SOL     OW19285   2.634   5.656   2.336
 6129SOL    HW119286   2.547   5.686   2.375
 6129SOL    HW219287   2.696   5.734   2.331
 6130SOL     OW19288   5.709   3.051   0.378
 6130SOL    HW119289   5.721   2.991   0.457
 6130SOL    HW219290   5.715   2.997   0.294
 6131SOL     OW19291   6.349   2.272   2.839
 6131SOL    HW119292   6.255   2.252   2.810
 6131SOL    HW219293   6.413   2.238   2.770
 6132SOL     OW19294   4.263   0.222   6.407
 6132SOL    HW119295   4.240   0.319   6.403
 6132SOL    HW219296   4.362   0.211   6.404
 6133SOL     OW19297   0.420   1.899   2.831
 6133SOL    HW119298   0.433   1.913   2.930
 6133SOL    HW219299   0.390   1.805   2.816
 6134SOL     OW19300   0.487   6.467   5.318
 6134SOL    HW119301   0.394   6.462   5.354
 6134SOL    HW219302   0.496   6.404   5.241
 6135SOL     OW19303   6.965   0.121   0.280
 6135SOL    HW119304   0.004   0.191   0.315
 6135SOL    HW219305   6.925   0.153   0.195
 6136SOL     OW19306   0.830   2.477   3.268
 6136SOL    HW119307   0.773   2.398   3.248
 6136SOL    HW219308   0.780   2.541   3.327
 6137SOL     OW19309   0.220   4.516   0.943
 6137SOL    HW119310   0.154   4.452   0.902
 6137SOL    HW219311   0.215   4.511   1.043
 6138SOL     OW19312   4.763   0.186   2.246
 6138SOL    HW119313   4.804   0.122   2.181
 6138SOL    HW219314   4.834   0.242   2.287
 6139SOL     OW19315   1.163   0.779   5.003
 6139SOL    HW119316   1.186   0.848   4.933
 6139SOL    HW219317   1.088   0.722   4.970
 6140SOL     OW19318   1.333   6.856   2.870
 6140SOL    HW119319   1.322   6.801   2.953
 6140SOL    HW219320   1.363   6.948   2.895
 6141SOL     OW19321   1.008   0.971   6.124
 6141SOL    HW119322   1.093   0.961   6.072
 6141SOL    HW219323   0.982   0.882   6.162
 6142SOL     OW19324   6.169   0.675   1.382
 6142SOL    HW119325   6.267   0.690   1.366
 6142SOL    HW219326   6.124   0.658   1.294
 6143SOL     OW19327   0.323   3.338   4.934
 6143SOL    HW119328   0.241   3.394   4.924
 6143SOL    HW219329   0.404   3.396   4.943
 6144SOL     OW19330   4.090   5.030   2.586
 6144SOL    HW119331   4.163   5.075   2.637
 6144SOL    HW219332   4.115   5.023   2.490
 6145SOL     OW19333   4.899   3.603   4.004
 6145SOL    HW119334   4.936   3.530   3.948
 6145SOL    HW219335   4.868   3.678   3.946
 6146SOL     OW19336   5.735   0.163   5.526
 6146SOL    HW119337   5.815   0.163   5.466
 6146SOL    HW219338   5.699   0.070   5.534
 6147SOL     OW19339   1.323   2.693   5.143
 6147SOL    HW119340   1.301   2.762   5.074
 6147SOL    HW219341   1.256   2.619   5.139
 6148SOL     OW19342   3.286   4.856   0.134
 6148SOL    HW119343   3.365   4.902   0.176
 6148SOL    HW219344   3.318   4.798   0.059
 6149SOL     OW19345   3.767   1.216   1.657
 6149SOL    HW119346   3.735   1.197   1.750
 6149SOL    HW219347   3.729   1.148   1.594
 6150SOL     OW19348   0.928   4.004   4.987
 6150SOL    HW119349   0.939   3.925   4.925
 6150SOL    HW219350   0.900   4.084   4.934
 6151SOL     OW19351   4.475   4.961   3.307
 6151SOL    HW119352   4.448   4.953   3.211
 6151SOL    HW219353   4.545   5.032   3.316
 6152SOL     OW19354   1.696   4.438   4.075
 6152SOL    HW119355   1.770   4.406   4.017
 6152SOL    HW219356   1.696   4.386   4.161
 6153SOL     OW19357   5.006   6.061   1.081
 6153SOL    HW119358   5.049   5.971   1.074
 6153SOL    HW219359   4.978   6.091   0.990
 6154SOL     OW19360   5.261   3.842   2.152
 6154SOL    HW119361   5.316   3.777   2.204
 6154SOL    HW219362   5.315   3.924   2.133
 6155SOL     OW19363   1.948   1.579   3.487
 6155SOL    HW119364   1.953   1.512   3.413
 6155SOL    HW219365   1.878   1.648   3.465
 6156SOL     OW19366   5.512   4.254   1.598
 6156SOL    HW119367   5.601   4.221   1.631
 6156SOL    HW219368   5.448   4.177   1.593
 6157SOL     OW19369   0.417   2.746   1.702
 6157SOL    HW119370   0.454   2.653   1.703
 6157SOL    HW219371   0.437   2.791   1.790
 6158SOL     OW19372   3.020   2.227   4.719
 6158SOL    HW119373   2.935   2.273   4.693
 6158SOL    HW219374   3.047   2.256   4.811
 6159SOL     OW19375   6.486   2.764   0.003
 6159SOL    HW119376   6.389   2.760   0.025
 6159SOL    HW219377   6.536   2.805   0.079
 6160SOL     OW19378   1.182   0.374   1.447
 6160SOL    HW119379   1.219   0.286   1.417
 6160SOL    HW219380   1.132   0.417   1.372
 6161SOL     OW19381   4.477   3.800   6.808
 6161SOL    HW119382   4.495   3.798   6.907
 6161SOL    HW219383   4.387   3.841   6.792
 6162SOL     OW19384   6.209   5.544   2.274
 6162SOL    HW119385   6.189   5.611   2.202
 6162SOL    HW219386   6.300   5.505   2.259
 6163SOL     OW19387   6.274   6.344   2.699
 6163SOL    HW119388   6.296   6.437   2.729
 6163SOL    HW219389   6.356   6.300   2.662
 6164SOL     OW19390   3.001   3.947   4.853
 6164SOL    HW119391   3.013   3.975   4.758
 6164SOL    HW219392   2.916   3.985   4.889
 6165SOL     OW19393   3.436   1.889   0.507
 6165SOL    HW119394   3.352   1.872   0.559
 6165SOL    HW219395   3.508   1.828   0.540
 6166SOL     OW19396   2.620   2.104   6.294
 6166SOL    HW119397   2.676   2.037   6.343
 6166SOL    HW219398   2.675   2.147   6.223
 6167SOL     OW19399   1.793   3.575   2.623
 6167SOL    HW119400   1.806   3.674   2.616
 6167SOL    HW219401   1.825   3.531   2.539
 6168SOL     OW19402   0.477   3.813   3.643
 6168SOL    HW119403   0.489   3.733   3.584
 6168SOL    HW219404   0.388   3.855   3.624
 6169SOL     OW19405   2.077   0.613   6.550
 6169SOL    HW119406   2.165   0.575   6.524
 6169SOL    HW219407   2.091   0.702   6.593
 6170SOL     OW19408   2.612   3.440   1.070
 6170SOL    HW119409   2.514   3.455   1.055
 6170SOL    HW219410   2.626   3.344   1.096
 6171SOL     OW19411   2.087   3.914   1.944
 6171SOL    HW119412   2.081   3.857   2.026
 6171SOL    HW219413   2.120   3.858   1.867
 6172SOL     OW19414   2.892   5.570   2.246
 6172SOL    HW119415   2.803   5.593   2.285
 6172SOL    HW219416   2.936   5.500   2.302
 6173SOL     OW19417   1.209   6.060   2.499
 6173SOL    HW119418   1.117   6.025   2.481
 6173SOL    HW219419   1.261   6.066   2.414
 6174SOL     OW19420   6.002   4.710   2.334
 6174SOL    HW119421   5.950   4.670   2.259
 6174SOL    HW219422   5.939   4.746   2.403
 6175SOL     OW19423   5.038   0.464   3.362
 6175SOL    HW119424   5.095   0.386   3.338
 6175SOL    HW219425   4.943   0.446   3.336
 6176SOL     OW19426   5.513   3.429   6.594
 6176SOL    HW119427   5.482   3.342   6.634
 6176SOL    HW219428   5.553   3.411   6.504
 6177SOL     OW19429   6.796   3.005   1.539
 6177SOL    HW119430   6.701   3.023   1.563
 6177SOL    HW219431   6.830   3.079   1.481
 6178SOL     OW19432   6.177   3.467   2.109
 6178SOL    HW119433   6.124   3.537   2.060
 6178SOL    HW219434   6.275   3.483   2.094
 6179SOL     OW19435   0.452   2.367   5.550
 6179SOL    HW119436   0.533   2.384   5.493
 6179SOL    HW219437   0.395   2.449   5.550
 6180SOL     OW19438   3.051   6.745   6.026
 6180SOL    HW119439   3.013   6.729   6.117
 6180SOL    HW219440   3.052   6.844   6.008
 6181SOL     OW19441   4.976   5.753   0.339
 6181SOL    HW119442   5.034   5.700   0.401
 6181SOL    HW219443   5.003   5.735   0.245
 6182SOL     OW19444   4.627   6.155   6.700
 6182SOL    HW119445   4.615   6.143   6.798
 6182SOL    HW219446   4.709   6.210   6.683
 6183SOL     OW19447   3.075   0.780   2.964
 6183SOL    HW119448   3.123   0.802   2.879
 6183SOL    HW219449   3.096   0.849   3.033
 6184SOL     OW19450   5.847   0.566   6.270
 6184SOL    HW119451   5.908   0.545   6.346
 6184SOL    HW219452   5.767   0.617   6.304
 6185SOL     OW19453   0.807   3.540   5.844
 6185SOL    HW119454   0.876   3.592   5.793
 6185SOL    HW219455   0.763   3.600   5.911
 6186SOL     OW19456   5.678   0.142   4.831
 6186SOL    HW119457   5.763   0.092   4.811
 6186SOL    HW219458   5.671   0.221   4.770
 6187SOL     OW19459   3.198   4.972   4.458
 6187SOL    HW119460   3.226   4.944   4.549
 6187SOL    HW219461   3.237   5.062   4.437
 6188SOL     OW19462   2.702   0.260   1.701
 6188SOL    HW119463   2.640   0.332   1.732
 6188SOL    HW219464   2.676   0.232   1.609
 6189SOL     OW19465   5.342   4.788   3.679
 6189SOL    HW119466   5.419   4.825   3.626
 6189SOL    HW219467   5.368   4.699   3.716
 6190SOL     OW19468   5.071   2.618   6.115
 6190SOL    HW119469   5.003   2.657   6.053
 6190SOL    HW219470   5.138   2.564   6.063
 6191SOL     OW19471   6.954   2.211   6.522
 6191SOL    HW119472   7.015   2.141   6.485
 6191SOL    HW219473   7.003   2.265   6.591
 6192SOL     OW19474   2.865   2.452   0.344
 6192SOL    HW119475   2.913   2.379   0.294
 6192SOL    HW219476   2.926   2.531   0.352
 6193SOL     OW19477   5.756   0.536   1.019
 6193SOL    HW119478   5.779   0.565   0.926
 6193SOL    HW219479   5.774   0.611   1.083
 6194SOL     OW19480   2.252   0.702   0.592
 6194SOL    HW119481   2.191   0.657   0.526
 6194SOL    HW219482   2.196   0.750   0.660
 6195SOL     OW19483   2.712   6.176   6.079
 6195SOL    HW119484   2.710   6.152   5.982
 6195SOL    HW219485   2.807   6.179   6.111
 6196SOL     OW19486   0.611   1.287   6.266
 6196SOL    HW119487   0.568   1.218   6.325
 6196SOL    HW219488   0.685   1.332   6.316
 6197SOL     OW19489   2.373   2.691   0.222
 6197SOL    HW119490   2.396   2.755   0.295
 6197SOL    HW219491   2.372   2.739   0.134
 6198SOL     OW19492   4.335   4.680   2.279
 6198SOL    HW119493   4.239   4.706   2.275
 6198SOL    HW219494   4.374   4.708   2.367
 6199SOL     OW19495   1.156   0.713   6.217
 6199SOL    HW119496   1.209   0.681   6.295
 6199SOL    HW219497   1.126   0.634   6.163
 6200SOL     OW19498   3.320   0.239   5.950
 6200SOL    HW119499   3.340   0.309   6.018
 6200SOL    HW219500   3.317   0.280   5.859
 6201SOL     OW19501   2.414   4.375   3.925
 6201SOL    HW119502   2.492   4.434   3.904
 6201SOL    HW219503   2.335   4.404   3.871
 6202SOL     OW19504   3.440   2.337   1.402
 6202SOL    HW119505   3.360   2.329   1.461
 6202SOL    HW219506   3.522   2.349   1.458
 6203SOL     OW19507   5.060   2.208   5.635
 6203SOL    HW119508   5.056   2.161   5.724
 6203SOL    HW219509   5.144   2.183   5.588
 6204SOL     OW19510   1.580   6.589   5.811
 6204SOL    HW119511   1.516   6.584   5.734
 6204SOL    HW219512   1.531   6.572   5.897
 6205SOL     OW19513   5.513   5.753   0.428
 6205SOL    HW119514   5.581   5.685   0.401
 6205SOL    HW219515   5.446   5.710   0.488
 6206SOL     OW19516   5.093   6.840   2.977
 6206SOL    HW119517   5.143   6.927   2.981
 6206SOL    HW219518   5.011   6.851   2.920
 6207SOL     OW19519   2.213   3.864   4.332
 6207SOL    HW119520   2.151   3.853   4.255
 6207SOL    HW219521   2.173   3.822   4.414
 6208SOL     OW19522   5.336   6.406   6.586
 6208SOL    HW119523   5.395   6.331   6.555
 6208SOL    HW219524   5.278   6.436   6.510
 6209SOL     OW19525   3.191   5.460   1.004
 6209SOL    HW119526   3.272   5.478   0.948
 6209SOL    HW219527   3.130   5.396   0.956
 6210SOL     OW19528   6.346   5.090   3.205
 6210SOL    HW119529   6.433   5.060   3.245
 6210SOL    HW219530   6.324   5.033   3.126
 6211SOL     OW19531   2.446   0.607   4.942
 6211SOL    HW119532   2.502   0.684   4.912
 6211SOL    HW219533   2.368   0.596   4.879
 6212SOL     OW19534   6.899   6.716   3.715
 6212SOL    HW119535   6.912   6.653   3.792
 6212SOL    HW219536   6.977   6.709   3.653
 6213SOL     OW19537   0.063   6.638   6.367
 6213SOL    HW119538   0.106   6.548   6.371
 6213SOL    HW219539   0.014   6.655   6.452
 6214SOL     OW19540   6.317   5.180   2.417
 6214SOL    HW119541   6.336   5.124   2.336
 6214SOL    HW219542   6.251   5.252   2.393
 6215SOL     OW19543   2.813   4.526   1.331
 6215SOL    HW119544   2.885   4.592   1.352
 6215SOL    HW219545   2.849   4.457   1.268
 6216SOL     OW19546   6.415   1.764   2.915
 6216SOL    HW119547   6.504   1.727   2.893
 6216SOL    HW219548   6.416   1.864   2.903
 6217SOL     OW19549   5.538   3.038   2.243
 6217SOL    HW119550   5.491   2.955   2.215
 6217SOL    HW219551   5.603   3.066   2.172
 6218SOL     OW19552   3.666   4.939   4.500
 6218SOL    HW119553   3.651   4.874   4.426
 6218SOL    HW219554   3.685   5.030   4.462
 6219SOL     OW19555   1.127   1.846   4.049
 6219SOL    HW119556   1.097   1.829   4.143
 6219SOL    HW219557   1.117   1.944   4.028
 6220SOL     OW19558   1.574   4.040   5.372
 6220SOL    HW119559   1.515   4.077   5.444
 6220SOL    HW219560   1.536   4.063   5.283
 6221SOL     OW19561   4.542   5.026   4.768
 6221SOL    HW119562   4.603   5.098   4.736
 6221SOL    HW219563   4.541   4.952   4.701
 6222SOL     OW19564   0.309   1.774   0.844
 6222SOL    HW119565   0.319   1.801   0.940
 6222SOL    HW219566   0.305   1.856   0.787
 6223SOL     OW19567   5.308   3.955   4.906
 6223SOL    HW119568   5.357   4.001   4.832
 6223SOL    HW219569   5.248   3.885   4.867
 6224SOL     OW19570   2.764   0.713   4.873
 6224SOL    HW119571   2.717   0.791   4.916
 6224SOL    HW219572   2.721   0.693   4.785
 6225SOL     OW19573   4.347   2.418   6.685
 6225SOL    HW119574   4.422   2.373   6.734
 6225SOL    HW219575   4.339   2.380   6.593
 6226SOL     OW19576   6.604   6.827   4.542
 6226SOL    HW119577   6.612   6.837   4.443
 6226SOL    HW219578   6.645   6.740   4.570
 6227SOL     OW19579   2.889   4.133   6.921
 6227SOL    HW119580   2.913   4.089   7.008
 6227SOL    HW219581   2.966   4.186   6.887
 6228SOL     OW19582   0.066   0.663   2.615
 6228SOL    HW119583   0.025   0.577   2.643
 6228SOL    HW219584   0.163   0.650   2.596
 6229SOL     OW19585   1.581   2.528   2.106
 6229SOL    HW119586   1.581   2.622   2.074
 6229SOL    HW219587   1.663   2.511   2.161
 6230SOL     OW19588   2.113   2.227   3.458
 6230SOL    HW119589   2.140   2.157   3.392
 6230SOL    HW219590   2.013   2.227   3.467
 6231SOL     OW19591   6.807   5.138   1.521
 6231SOL    HW119592   6.855   5.051   1.525
 6231SOL    HW219593   6.868   5.212   1.550
 6232SOL     OW19594   0.941   1.505   6.674
 6232SOL    HW119595   1.023   1.561   6.687
 6232SOL    HW219596   0.966   1.408   6.679
 6233SOL     OW19597   4.597   2.138   0.106
 6233SOL    HW119598   4.572   2.072   0.177
 6233SOL    HW219599   4.581   2.231   0.140
 6234SOL     OW19600   2.259   2.435   3.360
 6234SOL    HW119601   2.309   2.349   3.376
 6234SOL    HW219602   2.169   2.430   3.402
 6235SOL     OW19603   2.227   6.072   3.345
 6235SOL    HW119604   2.183   5.984   3.327
 6235SOL    HW219605   2.303   6.058   3.409
 6236SOL     OW19606   6.917   3.875   0.287
 6236SOL    HW119607   6.837   3.931   0.267
 6236SOL    HW219608   6.891   3.779   0.289
 6237SOL     OW19609   4.252   6.567   0.327
 6237SOL    HW119610   4.248   6.468   0.316
 6237SOL    HW219611   4.347   6.598   0.322
 6238SOL     OW19612   4.611   3.888   1.242
 6238SOL    HW119613   4.629   3.934   1.155
 6238SOL    HW219614   4.596   3.957   1.313
 6239SOL     OW19615   2.295   1.110   3.713
 6239SOL    HW119616   2.386   1.137   3.680
 6239SOL    HW219617   2.268   1.024   3.670
 6240SOL     OW19618   2.467   3.439   0.733
 6240SOL    HW119619   2.441   3.445   0.829
 6240SOL    HW219620   2.564   3.413   0.727
 6241SOL     OW19621   4.354   0.041   2.174
 6241SOL    HW119622   4.390   0.116   2.230
 6241SOL    HW219623   4.430   7.013   2.135
 6242SOL     OW19624   3.425   2.071   3.828
 6242SOL    HW119625   3.411   1.990   3.771
 6242SOL    HW219626   3.338   2.096   3.871
 6243SOL     OW19627   5.477   5.249   3.476
 6243SOL    HW119628   5.398   5.188   3.464
 6243SOL    HW219629   5.515   5.237   3.568
 6244SOL     OW19630   1.936   2.394   2.475
 6244SOL    HW119631   1.927   2.476   2.418
 6244SOL    HW219632   2.027   2.391   2.516
 6245SOL     OW19633   2.046   3.638   0.413
 6245SOL    HW119634   2.055   3.561   0.477
 6245SOL    HW219635   2.068   3.606   0.321
 6246SOL     OW19636   3.659   1.338   6.449
 6246SOL    HW119637   3.573   1.337   6.400
 6246SOL    HW219638   3.735   1.341   6.384
 6247SOL     OW19639   6.564   6.082   3.140
 6247SOL    HW119640   6.643   6.042   3.185
 6247SOL    HW219641   6.583   6.093   3.043
 6248SOL     OW19642   1.016   4.798   0.962
 6248SOL    HW119643   0.959   4.753   0.894
 6248SOL    HW219644   1.038   4.890   0.932
 6249SOL     OW19645   5.226   4.008   6.575
 6249SOL    HW119646   5.198   3.929   6.630
 6249SOL    HW219647   5.151   4.034   6.514
 6250SOL     OW19648   5.608   5.259   6.153
 6250SOL    HW119649   5.554   5.205   6.089
 6250SOL    HW219650   5.706   5.241   6.139
 6251SOL     OW19651   4.690   1.802   0.908
 6251SOL    HW119652   4.767   1.822   0.970
 6251SOL    HW219653   4.726   1.776   0.818
 6252SOL     OW19654   1.821   6.192   5.104
 6252SOL    HW119655   1.878   6.205   5.023
 6252SOL    HW219656   1.877   6.205   5.187
 6253SOL     OW19657   1.919   3.638   1.004
 6253SOL    HW119658   1.955   3.725   0.970
 6253SOL    HW219659   1.874   3.653   1.092
 6254SOL     OW19660   5.059   0.405   0.544
 6254SOL    HW119661   5.041   0.494   0.501
 6254SOL    HW219662   5.157   0.387   0.543
 6255SOL     OW19663   6.976   1.840   2.192
 6255SOL    HW119664   6.966   1.779   2.113
 6255SOL    HW219665   0.044   1.830   2.230
 6256SOL     OW19666   3.071   5.011   3.249
 6256SOL    HW119667   3.101   4.940   3.313
 6256SOL    HW219668   3.132   5.090   3.257
 6257SOL     OW19669   4.293   2.757   0.020
 6257SOL    HW119670   4.268   2.835   0.076
 6257SOL    HW219671   4.392   2.756   0.006
 6258SOL     OW19672   5.109   2.612   2.966
 6258SOL    HW119673   5.158   2.605   2.879
 6258SOL    HW219674   5.023   2.562   2.960
 6259SOL     OW19675   3.076   2.160   1.818
 6259SOL    HW119676   3.045   2.233   1.879
 6259SOL    HW219677   3.001   2.097   1.799
 6260SOL     OW19678   3.397   3.416   0.431
 6260SOL    HW119679   3.477   3.452   0.385
 6260SOL    HW219680   3.388   3.458   0.521
 6261SOL     OW19681   4.442   0.854   6.828
 6261SOL    HW119682   4.355   0.816   6.799
 6261SOL    HW219683   4.488   0.791   6.891
 6262SOL     OW19684   0.341   5.812   5.632
 6262SOL    HW119685   0.375   5.786   5.722
 6262SOL    HW219686   0.303   5.732   5.586
 6263SOL     OW19687   6.242   1.083   0.789
 6263SOL    HW119688   6.290   1.001   0.823
 6263SOL    HW219689   6.270   1.100   0.695
 6264SOL     OW19690   2.097   1.068   6.940
 6264SOL    HW119691   2.011   1.048   6.893
 6264SOL    HW219692   2.091   1.037   0.011
 6265SOL     OW19693   4.443   3.134   1.226
 6265SOL    HW119694   4.444   3.085   1.313
 6265SOL    HW219695   4.464   3.230   1.241
 6266SOL     OW19696   2.343   6.984   2.050
 6266SOL    HW119697   2.420   6.937   2.009
 6266SOL    HW219698   2.366   0.057   2.064
 6267SOL     OW19699   2.323   6.787   0.091
 6267SOL    HW119700   2.246   6.797   0.027
 6267SOL    HW219701   2.385   6.865   0.081
 6268SOL     OW19702   3.144   4.834   2.622
 6268SOL    HW119703   3.074   4.818   2.552
 6268SOL    HW219704   3.228   4.787   2.595
 6269SOL     OW19705   6.290   4.435   0.647
 6269SOL    HW119706   6.219   4.471   0.587
 6269SOL    HW219707   6.252   4.414   0.737
 6270SOL     OW19708   0.648   1.595   4.454
 6270SOL    HW119709   0.699   1.672   4.491
 6270SOL    HW219710   0.595   1.551   4.526
 6271SOL     OW19711   6.248   1.547   0.724
 6271SOL    HW119712   6.279   1.506   0.810
 6271SOL    HW219713   6.148   1.553   0.724
 6272SOL     OW19714   1.378   2.574   3.576
 6272SOL    HW119715   1.316   2.495   3.570
 6272SOL    HW219716   1.395   2.609   3.484
 6273SOL     OW19717   4.002   0.281   1.920
 6273SOL    HW119718   4.090   0.240   1.945
 6273SOL    HW219719   3.944   0.211   1.877
 6274SOL     OW19720   3.466   6.268   6.233
 6274SOL    HW119721   3.366   6.256   6.237
 6274SOL    HW219722   3.510   6.206   6.297
 6275SOL     OW19723   2.379   0.276   4.176
 6275SOL    HW119724   2.395   0.233   4.265
 6275SOL    HW219725   2.466   0.307   4.138
 6276SOL     OW19726   1.411   4.883   3.959
 6276SOL    HW119727   1.488   4.822   3.938
 6276SOL    HW219728   1.443   4.977   3.965
 6277SOL     OW19729   5.444   3.250   3.614
 6277SOL    HW119730   5.391   3.170   3.644
 6277SOL    HW219731   5.529   3.219   3.570
 6278SOL     OW19732   5.303   0.670   4.083
 6278SOL    HW119733   5.244   0.749   4.099
 6278SOL    HW219734   5.252   0.600   4.033
 6279SOL     OW19735   4.834   1.852   6.874
 6279SOL    HW119736   4.741   1.845   6.912
 6279SOL    HW219737   4.829   1.882   6.779
 6280SOL     OW19738   0.770   5.119   6.120
 6280SOL    HW119739   0.764   5.208   6.076
 6280SOL    HW219740   0.819   5.055   6.061
 6281SOL     OW19741   2.805   6.700   5.074
 6281SOL    HW119742   2.726   6.644   5.050
 6281SOL    HW219743   2.812   6.777   5.010
 6282SOL     OW19744   1.826   6.988   3.508
 6282SOL    HW119745   1.861   7.010   3.417
 6282SOL    HW219746   1.738   0.010   3.521
 6283SOL     OW19747   0.099   2.992   4.944
 6283SOL    HW119748   0.020   3.033   4.898
 6283SOL    HW219749   0.181   3.006   4.889
 6284SOL     OW19750   2.242   4.454   6.517
 6284SOL    HW119751   2.143   4.443   6.514
 6284SOL    HW219752   2.272   4.506   6.438
 6285SOL     OW19753   1.768   4.830   2.794
 6285SOL    HW119754   1.679   4.846   2.750
 6285SOL    HW219755   1.839   4.826   2.724
 6286SOL     OW19756   5.737   0.047   4.405
 6286SOL    HW119757   5.821   0.040   4.459
 6286SOL    HW219758   5.725   6.987   4.352
 6287SOL     OW19759   4.388   4.520   2.026
 6287SOL    HW119760   4.377   4.532   2.124
 6287SOL    HW219761   4.436   4.434   2.008
 6288SOL     OW19762   5.145   3.869   1.335
 6288SOL    HW119763   5.047   3.877   1.350
 6288SOL    HW219764   5.186   3.810   1.404
 6289SOL     OW19765   1.368   0.610   2.638
 6289SOL    HW119766   1.338   0.544   2.569
 6289SOL    HW219767   1.413   0.688   2.594
 6290SOL     OW19768   5.980   3.165   3.259
 6290SOL    HW119769   5.910   3.094   3.257
 6290SOL    HW219770   6.067   3.126   3.229
 6291SOL     OW19771   3.971   3.637   3.135
 6291SOL    HW119772   3.978   3.682   3.225
 6291SOL    HW219773   4.045   3.570   3.126
 6292SOL     OW19774   0.100   1.770   1.932
 6292SOL    HW119775   0.149   1.700   1.984
 6292SOL    HW219776   0.139   1.776   1.840
 6293SOL     OW19777   5.106   5.580   0.499
 6293SOL    HW119778   5.152   5.498   0.466
 6293SOL    HW219779   5.052   5.558   0.580
 6294SOL     OW19780   4.062   5.355   2.327
 6294SOL    HW119781   3.994   5.305   2.273
 6294SOL    HW219782   4.041   5.343   2.424
 6295SOL     OW19783   6.329   5.954   5.826
 6295SOL    HW119784   6.272   5.878   5.795
 6295SOL    HW219785   6.394   5.978   5.754
 6296SOL     OW19786   6.626   0.949   2.613
 6296SOL    HW119787   6.528   0.971   2.615
 6296SOL    HW219788   6.645   0.878   2.681
 6297SOL     OW19789   5.315   0.597   5.651
 6297SOL    HW119790   5.401   0.565   5.610
 6297SOL    HW219791   5.266   0.519   5.690
 6298SOL     OW19792   0.454   2.218   4.247
 6298SOL    HW119793   0.529   2.187   4.188
 6298SOL    HW219794   0.369   2.221   4.193
 6299SOL     OW19795   6.171   3.404   0.515
 6299SOL    HW119796   6.243   3.469   0.491
 6299SOL    HW219797   6.129   3.369   0.432
 6300SOL     OW19798   5.026   1.537   3.916
 6300SOL    HW119799   5.074   1.543   3.829
 6300SOL    HW219800   4.995   1.628   3.944
 6301SOL     OW19801   3.248   0.309   0.677
 6301SOL    HW119802   3.337   0.353   0.685
 6301SOL    HW219803   3.241   0.263   0.588
 6302SOL     OW19804   0.323   1.199   3.090
 6302SOL    HW119805   0.298   1.115   3.139
 6302SOL    HW219806   0.240   1.250   3.068
 6303SOL     OW19807   2.153   6.131   5.170
 6303SOL    HW119808   2.212   6.101   5.246
 6303SOL    HW219809   2.083   6.193   5.204
 6304SOL     OW19810   3.470   1.080   5.729
 6304SOL    HW119811   3.483   1.099   5.827
 6304SOL    HW219812   3.559   1.085   5.682
 6305SOL     OW19813   5.907   1.100   2.364
 6305SOL    HW119814   5.915   1.001   2.349
 6305SOL    HW219815   5.934   1.148   2.280
 6306SOL     OW19816   5.858   2.637   4.566
 6306SOL    HW119817   5.843   2.566   4.635
 6306SOL    HW219818   5.784   2.704   4.569
 6307SOL     OW19819   2.328   4.153   0.645
 6307SOL    HW119820   2.389   4.126   0.570
 6307SOL    HW219821   2.352   4.102   0.727
 6308SOL     OW19822   3.405   2.179   5.582
 6308SOL    HW119823   3.333   2.127   5.536
 6308SOL    HW219824   3.473   2.115   5.619
 6309SOL     OW19825   5.549   2.129   4.747
 6309SOL    HW119826   5.578   2.050   4.801
 6309SOL    HW219827   5.451   2.122   4.726
 6310SOL     OW19828   1.028   4.878   4.811
 6310SOL    HW119829   0.929   4.882   4.822
 6310SOL    HW219830   1.055   4.933   4.732
 6311SOL     OW19831   6.371   6.298   4.251
 6311SOL    HW119832   6.353   6.309   4.154
 6311SOL    HW219833   6.379   6.200   4.273
 6312SOL     OW19834   4.957   4.464   6.064
 6312SOL    HW119835   5.055   4.460   6.079
 6312SOL    HW219836   4.910   4.479   6.151
 6313SOL     OW19837   2.463   5.098   3.410
 6313SOL    HW119838   2.398   5.100   3.334
 6313SOL    HW219839   2.443   5.020   3.469
 6314SOL     OW19840   2.548   6.844   3.931
 6314SOL    HW119841   2.461   6.865   3.885
 6314SOL    HW219842   2.590   6.764   3.888
 6315SOL     OW19843   2.469   3.681   0.567
 6315SOL    HW119844   2.483   3.591   0.608
 6315SOL    HW219845   2.536   3.746   0.603
 6316SOL     OW19846   4.749   1.603   6.008
 6316SOL    HW119847   4.811   1.525   6.015
 6316SOL    HW219848   4.755   1.658   6.091
 6317SOL     OW19849   6.125   5.765   4.184
 6317SOL    HW119850   6.073   5.726   4.261
 6317SOL    HW219851   6.115   5.865   4.185
 6318SOL     OW19852   2.180   1.732   4.675
 6318SOL    HW119853   2.207   1.826   4.697
 6318SOL    HW219854   2.259   1.672   4.682
 6319SOL     OW19855   0.301   1.666   2.781
 6319SOL    HW119856   0.385   1.612   2.776
 6319SOL    HW219857   0.260   1.656   2.872
 6320SOL     OW19858   6.915   1.970   3.228
 6320SOL    HW119859   6.839   1.944   3.168
 6320SOL    HW219860   6.998   1.922   3.201
 6321SOL     OW19861   2.492   3.643   6.366
 6321SOL    HW119862   2.503   3.599   6.277
 6321SOL    HW219863   2.561   3.714   6.377
 6322SOL     OW19864   1.361   0.922   0.175
 6322SOL    HW119865   1.276   0.876   0.201
 6322SOL    HW219866   1.439   0.864   0.199
 6323SOL     OW19867   4.095   1.315   1.069
 6323SOL    HW119868   4.055   1.308   1.160
 6323SOL    HW219869   4.038   1.374   1.012
 6324SOL     OW19870   4.499   2.035   6.880
 6324SOL    HW119871   4.403   2.024   6.902
 6324SOL    HW219872   4.549   2.068   6.961
 6325SOL     OW19873   1.135   2.579   2.438
 6325SOL    HW119874   1.151   2.660   2.495
 6325SOL    HW219875   1.207   2.572   2.369
 6326SOL     OW19876   5.015   6.292   1.442
 6326SOL    HW119877   4.948   6.325   1.508
 6326SOL    HW219878   5.092   6.251   1.490
 6327SOL     OW19879   3.477   5.491   5.856
 6327SOL    HW119880   3.437   5.435   5.927
 6327SOL    HW219881   3.496   5.582   5.892
 6328SOL     OW19882   3.211   4.023   6.881
 6328SOL    HW119883   3.162   4.098   6.836
 6328SOL    HW219884   3.207   4.035   6.980
 6329SOL     OW19885   1.618   1.693   2.566
 6329SOL    HW119886   1.669   1.692   2.480
 6329SOL    HW219887   1.547   1.622   2.563
 6330SOL     OW19888   3.405   0.865   0.213
 6330SOL    HW119889   3.426   0.767   0.214
 6330SOL    HW219890   3.383   0.893   0.120
 6331SOL     OW19891   5.657   2.768   2.603
 6331SOL    HW119892   5.694   2.774   2.696
 6331SOL    HW219893   5.697   2.839   2.546
 6332SOL     OW19894   4.937   6.447   2.313
 6332SOL    HW119895   5.016   6.387   2.326
 6332SOL    HW219896   4.907   6.444   2.217
 6333SOL     OW19897   2.101   5.462   2.759
 6333SOL    HW119898   2.127   5.402   2.683
 6333SOL    HW219899   2.183   5.506   2.796
 6334SOL     OW19900   2.743   1.790   2.690
 6334SOL    HW119901   2.689   1.738   2.624
 6334SOL    HW219902   2.715   1.886   2.689
 6335SOL     OW19903   0.098   1.601   6.892
 6335SOL    HW119904   0.067   1.561   6.978
 6335SOL    HW219905   0.196   1.617   6.895
 6336SOL     OW19906   0.456   2.935   5.279
 6336SOL    HW119907   0.546   2.955   5.240
 6336SOL    HW219908   0.404   2.879   5.216
 6337SOL     OW19909   6.988   4.624   5.229
 6337SOL    HW119910   6.989   4.528   5.259
 6337SOL    HW219911   6.911   4.639   5.168
 6338SOL     OW19912   3.636   1.028   4.138
 6338SOL    HW119913   3.729   1.062   4.147
 6338SOL    HW219914   3.626   0.944   4.192
 6339SOL     OW19915   0.255   2.837   5.080
 6339SOL    HW119916   0.216   2.745   5.086
 6339SOL    HW219917   0.189   2.900   5.039
 6340SOL     OW19918   2.457   5.628   4.088
 6340SOL    HW119919   2.463   5.534   4.124
 6340SOL    HW219920   2.394   5.681   4.144
 6341SOL     OW19921   6.401   4.957   2.606
 6341SOL    HW119922   6.353   5.040   2.579
 6341SOL    HW219923   6.484   4.947   2.551
 6342SOL     OW19924   1.587   3.687   1.004
 6342SOL    HW119925   1.582   3.772   0.951
 6342SOL    HW219926   1.642   3.703   1.087
 6343SOL     OW19927   3.981   0.845   0.270
 6343SOL    HW119928   4.066   0.877   0.227
 6343SOL    HW219929   3.982   0.870   0.367
 6344SOL     OW19930   0.274   4.868   4.518
 6344SOL    HW119931   0.304   4.802   4.587
 6344SOL    HW219932   0.212   4.823   4.454
 6345SOL     OW19933   2.694   2.292   2.260
 6345SOL    HW119934   2.632   2.367   2.236
 6345SOL    HW219935   2.769   2.289   2.193
 6346SOL     OW19936   0.604   5.422   4.241
 6346SOL    HW119937   0.664   5.352   4.204
 6346SOL    HW219938   0.598   5.499   4.178
 6347SOL     OW19939   2.867   6.974   1.260
 6347SOL    HW119940   2.867   6.938   1.167
 6347SOL    HW219941   2.882   6.900   1.325
 6348SOL     OW19942   1.027   2.191   5.040
 6348SOL    HW119943   1.113   2.146   5.015
 6348SOL    HW219944   1.014   2.185   5.139
 6349SOL     OW19945   2.290   0.950   0.415
 6349SOL    HW119946   2.362   0.883   0.399
 6349SOL    HW219947   2.202   0.903   0.422
 6350SOL     OW19948   0.996   5.929   2.746
 6350SOL    HW119949   0.993   5.982   2.661
 6350SOL    HW219950   0.978   5.833   2.725
 6351SOL     OW19951   6.948   1.281   3.191
 6351SOL    HW119952   6.931   1.333   3.274
 6351SOL    HW219953   6.946   1.183   3.212
 6352SOL     OW19954   6.985   6.135   2.428
 6352SOL    HW119955   6.980   6.139   2.328
 6352SOL    HW219956   6.909   6.080   2.463
 6353SOL     OW19957   0.177   6.681   2.143
 6353SOL    HW119958   0.261   6.724   2.111
 6353SOL    HW219959   0.200   6.609   2.209
 6354SOL     OW19960   0.416   6.861   4.315
 6354SOL    HW119961   0.377   6.838   4.226
 6354SOL    HW219962   0.369   6.810   4.387
 6355SOL     OW19963   0.965   2.399   1.992
 6355SOL    HW119964   0.930   2.370   1.903
 6355SOL    HW219965   1.059   2.366   2.004
 6356SOL     OW19966   3.092   2.694   0.925
 6356SOL    HW119967   3.040   2.678   1.008
 6356SOL    HW219968   3.183   2.654   0.934
 6357SOL     OW19969   4.667   2.086   0.753
 6357SOL    HW119970   4.668   2.003   0.808
 6357SOL    HW219971   4.742   2.083   0.686
 6358SOL     OW19972   0.673   3.044   3.759
 6358SOL    HW119973   0.612   3.112   3.719
 6358SOL    HW219974   0.735   3.009   3.689
 6359SOL     OW19975   0.122   1.207   6.863
 6359SOL    HW119976   0.155   1.228   6.955
 6359SOL    HW219977   0.201   1.187   6.804
 6360SOL     OW19978   3.164   5.640   3.791
 6360SOL    HW119979   3.066   5.662   3.791
 6360SOL    HW219980   3.216   5.715   3.751
 6361SOL     OW19981   3.618   6.136   6.069
 6361SOL    HW119982   3.709   6.167   6.096
 6361SOL    HW219983   3.551   6.165   6.138
 6362SOL     OW19984   6.581   5.463   6.256
 6362SOL    HW119985   6.548   5.434   6.166
 6362SOL    HW219986   6.656   5.529   6.244
 6363SOL     OW19987   0.928   5.727   4.329
 6363SOL    HW119988   1.010   5.686   4.290
 6363SOL    HW219989   0.874   5.770   4.257
 6364SOL     OW19990   2.035   2.649   6.134
 6364SOL    HW119991   2.066   2.582   6.067
 6364SOL    HW219992   2.006   2.602   6.217
 6365SOL     OW19993   5.013   5.412   2.932
 6365SOL    HW119994   4.960   5.328   2.942
 6365SOL    HW219995   4.971   5.469   2.861
 6366SOL     OW19996   6.933   4.404   5.390
 6366SOL    HW119997   0.005   4.404   5.420
 6366SOL    HW219998   6.899   4.310   5.387
 6367SOL     OW19999   5.909   5.833   2.418
 6367SOL    HW120000   5.939   5.749   2.464
 6367SOL    HW220001   5.818   5.820   2.380
 6368SOL     OW20002   3.572   0.363   3.199
 6368SOL    HW120003   3.525   0.403   3.120
 6368SOL    HW220004   3.507   0.349   3.273
 6369SOL     OW20005   2.176   5.044   5.657
 6369SOL    HW120006   2.230   4.961   5.674
 6369SOL    HW220007   2.223   5.101   5.589
 6370SOL     OW20008   5.768   2.504   2.284
 6370SOL    HW120009   5.673   2.526   2.306
 6370SOL    HW220010   5.810   2.582   2.238
 6371SOL     OW20011   4.572   1.872   3.515
 6371SOL    HW120012   4.636   1.938   3.477
 6371SOL    HW220013   4.520   1.915   3.589
 6372SOL     OW20014   3.103   6.133   2.296
 6372SOL    HW120015   3.058   6.109   2.383
 6372SOL    HW220016   3.095   6.231   2.280
 6373SOL     OW20017   3.651   4.623   0.212
 6373SOL    HW120018   3.608   4.630   0.302
 6373SOL    HW220019   3.750   4.633   0.222
 6374SOL     OW20020   2.980   3.343   2.541
 6374SOL    HW120021   2.971   3.250   2.507
 6374SOL    HW220022   3.020   3.342   2.632
 6375SOL     OW20023   1.338   6.259   2.651
 6375SOL    HW120024   1.273   6.205   2.598
 6375SOL    HW220025   1.300   6.349   2.670
 6376SOL     OW20026   0.633   2.501   5.416
 6376SOL    HW120027   0.654   2.496   5.318
 6376SOL    HW220028   0.718   2.489   5.469
 6377SOL     OW20029   0.723   1.832   4.267
 6377SOL    HW120030   0.695   1.742   4.301
 6377SOL    HW220031   0.708   1.836   4.168
 6378SOL     OW20032   4.653   4.702   3.713
 6378SOL    HW120033   4.573   4.665   3.759
 6378SOL    HW220034   4.688   4.781   3.764
 6379SOL     OW20035   2.292   5.082   2.141
 6379SOL    HW120036   2.309   4.999   2.088
 6379SOL    HW220037   2.315   5.162   2.086
 6380SOL     OW20038   0.899   0.934   5.824
 6380SOL    HW120039   0.822   0.870   5.823
 6380SOL    HW220040   0.906   0.976   5.915
 6381SOL     OW20041   3.020   3.263   1.931
 6381SOL    HW120042   3.019   3.287   2.028
 6381SOL    HW220043   3.109   3.224   1.907
 6382SOL     OW20044   1.494   4.493   5.090
 6382SOL    HW120045   1.592   4.475   5.078
 6382SOL    HW220046   1.480   4.538   5.178
 6383SOL     OW20047   4.135   1.493   3.981
 6383SOL    HW120048   4.218   1.446   3.952
 6383SOL    HW220049   4.096   1.543   3.904
 6384SOL     OW20050   6.575   4.382   2.554
 6384SOL    HW120051   6.478   4.383   2.577
 6384SOL    HW220052   6.619   4.465   2.588
 6385SOL     OW20053   0.386   6.247   4.633
 6385SOL    HW120054   0.440   6.164   4.615
 6385SOL    HW220055   0.448   6.325   4.638
 6386SOL     OW20056   2.814   5.809   1.459
 6386SOL    HW120057   2.840   5.893   1.507
 6386SOL    HW220058   2.775   5.744   1.524
 6387SOL     OW20059   6.887   1.929   5.494
 6387SOL    HW120060   6.901   1.873   5.575
 6387SOL    HW220061   6.890   1.872   5.412
 6388SOL     OW20062   2.191   4.922   2.791
 6388SOL    HW120063   2.275   4.870   2.773
 6388SOL    HW220064   2.214   5.005   2.841
 6389SOL     OW20065   0.806   4.765   1.764
 6389SOL    HW120066   0.850   4.851   1.791
 6389SOL    HW220067   0.824   4.749   1.667
 6390SOL     OW20068   0.382   3.581   4.247
 6390SOL    HW120069   0.407   3.535   4.332
 6390SOL    HW220070   0.312   3.527   4.200
 6391SOL     OW20071   3.417   1.030   6.794
 6391SOL    HW120072   3.394   1.006   6.699
 6391SOL    HW220073   3.333   1.052   6.843
 6392SOL     OW20074   1.403   6.295   4.133
 6392SOL    HW120075   1.380   6.271   4.227
 6392SOL    HW220076   1.336   6.362   4.099
 6393SOL     OW20077   5.285   1.007   0.784
 6393SOL    HW120078   5.334   1.006   0.697
 6393SOL    HW220079   5.284   1.100   0.821
 6394SOL     OW20080   3.232   4.827   1.809
 6394SOL    HW120081   3.253   4.759   1.739
 6394SOL    HW220082   3.203   4.781   1.893
 6395SOL     OW20083   5.974   1.557   0.655
 6395SOL    HW120084   5.901   1.622   0.679
 6395SOL    HW220085   6.004   1.575   0.561
 6396SOL     OW20086   6.084   3.610   5.429
 6396SOL    HW120087   5.988   3.636   5.419
 6396SOL    HW220088   6.122   3.651   5.512
 6397SOL     OW20089   7.022   0.760   6.944
 6397SOL    HW120090   6.994   0.856   6.935
 6397SOL    HW220091   6.997   0.710   6.861
 6398SOL     OW20092   4.310   0.772   1.405
 6398SOL    HW120093   4.221   0.751   1.445
 6398SOL    HW220094   4.377   0.704   1.434
 6399SOL     OW20095   2.741   5.840   6.570
 6399SOL    HW120096   2.710   5.936   6.567
 6399SOL    HW220097   2.788   5.818   6.484
 6400SOL     OW20098   2.903   5.232   4.176
 6400SOL    HW120099   2.877   5.204   4.268
 6400SOL    HW220100   2.883   5.158   4.111
 6401SOL     OW20101   1.375   4.419   4.862
 6401SOL    HW120102   1.385   4.465   4.950
 6401SOL    HW220103   1.312   4.342   4.872
 6402SOL     OW20104   1.875   2.520   2.807
 6402SOL    HW120105   1.928   2.522   2.722
 6402SOL    HW220106   1.935   2.539   2.885
 6403SOL     OW20107   0.693   6.063   1.569
 6403SOL    HW120108   0.604   6.107   1.583
 6403SOL    HW220109   0.764   6.117   1.613
 6404SOL     OW20110   4.922   0.921   3.349
 6404SOL    HW120111   4.829   0.953   3.332
 6404SOL    HW220112   4.943   0.932   3.446
 6405SOL     OW20113   2.794   1.137   1.511
 6405SOL    HW120114   2.834   1.185   1.588
 6405SOL    HW220115   2.769   1.203   1.440
 6406SOL     OW20116   2.836   2.262   3.316
 6406SOL    HW120117   2.766   2.322   3.355
 6406SOL    HW220118   2.807   2.233   3.225
 6407SOL     OW20119   4.427   5.462   6.167
 6407SOL    HW120120   4.408   5.544   6.112
 6407SOL    HW220121   4.474   5.488   6.251
 6408SOL     OW20122   6.134   1.898   0.485
 6408SOL    HW120123   6.163   1.864   0.395
 6408SOL    HW220124   6.152   1.997   0.490
 6409SOL     OW20125   1.414   4.598   2.050
 6409SOL    HW120126   1.477   4.544   2.106
 6409SOL    HW220127   1.381   4.675   2.104
 6410SOL     OW20128   1.442   1.137   1.854
 6410SOL    HW120129   1.414   1.057   1.801
 6410SOL    HW220130   1.465   1.109   1.947
 6411SOL     OW20131   1.803   0.961   3.601
 6411SOL    HW120132   1.784   0.989   3.508
 6411SOL    HW220133   1.857   1.032   3.647
 6412SOL     OW20134   6.715   2.384   4.680
 6412SOL    HW120135   6.671   2.370   4.591
 6412SOL    HW220136   6.814   2.385   4.668
 6413SOL     OW20137   0.396   4.718   0.545
 6413SOL    HW120138   0.467   4.693   0.479
 6413SOL    HW220139   0.360   4.809   0.522
 6414SOL     OW20140   6.294   6.865   2.554
 6414SOL    HW120141   6.303   6.790   2.619
 6414SOL    HW220142   6.316   6.833   2.462
 6415SOL     OW20143   1.525   1.690   2.188
 6415SOL    HW120144   1.527   1.790   2.188
 6415SOL    HW220145   1.516   1.658   2.094
 6416SOL     OW20146   2.163   6.276   6.134
 6416SOL    HW120147   2.190   6.286   6.229
 6416SOL    HW220148   2.163   6.179   6.109
 6417SOL     OW20149   0.057   6.507   3.142
 6417SOL    HW120150   0.149   6.485   3.110
 6417SOL    HW220151   7.013   6.474   3.076
 6418SOL     OW20152   6.582   5.804   2.441
 6418SOL    HW120153   6.536   5.802   2.352
 6418SOL    HW220154   6.517   5.772   2.511
 6419SOL     OW20155   2.525   3.543   1.320
 6419SOL    HW120156   2.570   3.501   1.242
 6419SOL    HW220157   2.548   3.640   1.323
 6420SOL     OW20158   0.726   3.407   0.007
 6420SOL    HW120159   0.798   3.344   0.038
 6420SOL    HW220160   0.685   3.372   6.946
 6421SOL     OW20161   6.094   2.325   0.847
 6421SOL    HW120162   6.162   2.345   0.776
 6421SOL    HW220163   6.107   2.388   0.924
 6422SOL     OW20164   6.391   2.007   3.584
 6422SOL    HW120165   6.379   1.959   3.497
 6422SOL    HW220166   6.338   1.960   3.655
 6423SOL     OW20167   4.623   4.059   1.034
 6423SOL    HW120168   4.710   4.080   0.989
 6423SOL    HW220169   4.595   4.136   1.091
 6424SOL     OW20170   6.370   4.630   5.036
 6424SOL    HW120171   6.340   4.579   5.116
 6424SOL    HW220172   6.457   4.675   5.056
 6425SOL     OW20173   0.765   5.067   1.129
 6425SOL    HW120174   0.729   5.097   1.041
 6425SOL    HW220175   0.865   5.075   1.129
 6426SOL     OW20176   6.823   2.713   3.619
 6426SOL    HW120177   6.920   2.706   3.640
 6426SOL    HW220178   6.809   2.704   3.521
 6427SOL     OW20179   1.160   2.977   5.963
 6427SOL    HW120180   1.099   2.909   6.001
 6427SOL    HW220181   1.112   3.030   5.893
 6428SOL     OW20182   7.020   3.346   3.972
 6428SOL    HW120183   6.994   3.335   3.876
 6428SOL    HW220184   0.058   3.272   3.999
 6429SOL     OW20185   0.574   1.460   4.660
 6429SOL    HW120186   0.577   1.367   4.625
 6429SOL    HW220187   0.574   1.458   4.760
 6430SOL     OW20188   6.047   3.373   6.845
 6430SOL    HW120189   6.027   3.448   6.909
 6430SOL    HW220190   6.141   3.343   6.859
 6431SOL     OW20191   5.366   0.870   3.435
 6431SOL    HW120192   5.316   0.877   3.348
 6431SOL    HW220193   5.459   0.905   3.423
 6432SOL     OW20194   5.753   3.462   0.426
 6432SOL    HW120195   5.749   3.517   0.343
 6432SOL    HW220196   5.664   3.463   0.471
 6433SOL     OW20197   2.598   3.563   1.672
 6433SOL    HW120198   2.516   3.608   1.637
 6433SOL    HW220199   2.672   3.629   1.682
 6434SOL     OW20200   2.128   5.506   0.180
 6434SOL    HW120201   2.210   5.449   0.184
 6434SOL    HW220202   2.150   5.593   0.137
 6435SOL     OW20203   4.517   3.993   0.526
 6435SOL    HW120204   4.556   3.906   0.497
 6435SOL    HW220205   4.541   4.010   0.622
 6436SOL     OW20206   1.582   2.398   2.576
 6436SOL    HW120207   1.606   2.469   2.511
 6436SOL    HW220208   1.665   2.354   2.611
 6437SOL     OW20209   0.347   0.889   6.835
 6437SOL    HW120210   0.432   0.941   6.845
 6437SOL    HW220211   0.369   0.797   6.803
 6438SOL     OW20212   0.942   3.947   3.974
 6438SOL    HW120213   1.004   3.871   3.952
 6438SOL    HW220214   0.897   3.979   3.890
 6439SOL     OW20215   0.221   6.531   1.660
 6439SOL    HW120216   0.298   6.547   1.598
 6439SOL    HW220217   0.256   6.496   1.747
 6440SOL     OW20218   0.471   0.868   1.988
 6440SOL    HW120219   0.380   0.872   1.947
 6440SOL    HW220220   0.530   0.936   1.945
 6441SOL     OW20221   4.084   1.730   3.112
 6441SOL    HW120222   4.034   1.730   3.199
 6441SOL    HW220223   4.122   1.821   3.096
 6442SOL     OW20224   3.771   0.073   3.174
 6442SOL    HW120225   3.767   0.127   3.258
 6442SOL    HW220226   3.798   7.003   3.195
 6443SOL     OW20227   2.445   0.796   0.004
 6443SOL    HW120228   2.378   0.770   6.958
 6443SOL    HW220229   2.446   0.895   0.015
 6444SOL     OW20230   0.625   0.798   3.447
 6444SOL    HW120231   0.718   0.808   3.481
 6444SOL    HW220232   0.617   0.842   3.357
 6445SOL     OW20233   3.529   3.750   5.542
 6445SOL    HW120234   3.555   3.675   5.481
 6445SOL    HW220235   3.607   3.812   5.553
 6446SOL     OW20236   6.911   1.831   0.964
 6446SOL    HW120237   6.819   1.796   0.947
 6446SOL    HW220238   6.941   1.887   0.887
 6447SOL     OW20239   1.653   6.974   2.971
 6447SOL    HW120240   1.630   6.939   2.881
 6447SOL    HW220241   1.628   0.047   2.977
 6448SOL     OW20242   6.622   2.166   2.087
 6448SOL    HW120243   6.630   2.240   2.019
 6448SOL    HW220244   6.576   2.201   2.168
 6449SOL     OW20245   3.579   2.630   1.091
 6449SOL    HW120246   3.628   2.547   1.063
 6449SOL    HW220247   3.565   2.628   1.190
 6450SOL     OW20248   6.967   3.005   6.300
 6450SOL    HW120249   7.020   3.049   6.373
 6450SOL    HW220250   6.892   2.952   6.340
 6451SOL     OW20251   2.399   6.583   4.023
 6451SOL    HW120252   2.387   6.604   3.926
 6451SOL    HW220253   2.353   6.652   4.079
 6452SOL     OW20254   4.090   6.060   3.446
 6452SOL    HW120255   4.115   5.970   3.411
 6452SOL    HW220256   4.107   6.129   3.376
 6453SOL     OW20257   2.338   4.207   6.583
 6453SOL    HW120258   2.312   4.299   6.555
 6453SOL    HW220259   2.261   4.145   6.570
 6454SOL     OW20260   3.271   1.209   4.819
 6454SOL    HW120261   3.204   1.279   4.794
 6454SOL    HW220262   3.362   1.237   4.787
 6455SOL     OW20263   6.041   2.761   5.856
 6455SOL    HW120264   5.963   2.775   5.795
 6455SOL    HW220265   6.124   2.752   5.802
 6456SOL     OW20266   6.791   0.776   4.951
 6456SOL    HW120267   6.716   0.842   4.945
 6456SOL    HW220268   6.755   0.683   4.943
 6457SOL     OW20269   6.421   2.830   2.817
 6457SOL    HW120270   6.419   2.741   2.773
 6457SOL    HW220271   6.470   2.895   2.760
 6458SOL     OW20272   1.286   6.507   3.318
 6458SOL    HW120273   1.325   6.511   3.410
 6458SOL    HW220274   1.358   6.525   3.251
 6459SOL     OW20275   5.459   5.047   0.817
 6459SOL    HW120276   5.508   5.061   0.730
 6459SOL    HW220277   5.433   4.951   0.825
 6460SOL     OW20278   2.940   4.732   0.673
 6460SOL    HW120279   2.933   4.675   0.754
 6460SOL    HW220280   2.972   4.824   0.699
 6461SOL     OW20281   3.347   5.599   5.205
 6461SOL    HW120282   3.400   5.648   5.136
 6461SOL    HW220283   3.330   5.659   5.283
 6462SOL     OW20284   2.144   3.056   3.618
 6462SOL    HW120285   2.132   3.012   3.529
 6462SOL    HW220286   2.208   3.002   3.673
 6463SOL     OW20287   1.178   4.396   5.631
 6463SOL    HW120288   1.163   4.423   5.536
 6463SOL    HW220289   1.093   4.361   5.670
 6464SOL     OW20290   1.010   5.251   2.635
 6464SOL    HW120291   0.973   5.190   2.704
 6464SOL    HW220292   1.110   5.252   2.641
 6465SOL     OW20293   6.539   1.126   3.114
 6465SOL    HW120294   6.451   1.079   3.120
 6465SOL    HW220295   6.613   1.059   3.117
 6466SOL     OW20296   0.472   3.146   5.471
 6466SOL    HW120297   0.430   3.220   5.419
 6466SOL    HW220298   0.478   3.064   5.414
 6467SOL     OW20299   2.750   0.866   5.979
 6467SOL    HW120300   2.697   0.898   6.058
 6467SOL    HW220301   2.794   0.779   6.000
 6468SOL     OW20302   4.960   4.478   1.181
 6468SOL    HW120303   4.974   4.499   1.085
 6468SOL    HW220304   5.040   4.429   1.217
 6469SOL     OW20305   6.452   0.840   6.199
 6469SOL    HW120306   6.528   0.887   6.154
 6469SOL    HW220307   6.373   0.839   6.137
 6470SOL     OW20308   6.518   5.892   5.004
 6470SOL    HW120309   6.443   5.947   5.039
 6470SOL    HW220310   6.537   5.817   5.067
 6471SOL     OW20311   5.302   5.635   5.677
 6471SOL    HW120312   5.311   5.571   5.753
 6471SOL    HW220313   5.220   5.691   5.690
 6472SOL     OW20314   1.251   5.952   1.242
 6472SOL    HW120315   1.221   5.888   1.313
 6472SOL    HW220316   1.320   6.014   1.280
 6473SOL     OW20317   2.677   0.825   5.255
 6473SOL    HW120318   2.584   0.832   5.218
 6473SOL    HW220319   2.694   0.903   5.316
 6474SOL     OW20320   2.664   3.467   5.528
 6474SOL    HW120321   2.582   3.474   5.472
 6474SOL    HW220322   2.714   3.553   5.525
 6475SOL     OW20323   4.637   6.007   4.092
 6475SOL    HW120324   4.727   6.041   4.064
 6475SOL    HW220325   4.581   5.989   4.011
 6476SOL     OW20326   5.196   4.863   2.633
 6476SOL    HW120327   5.260   4.829   2.564
 6476SOL    HW220328   5.121   4.797   2.644
 6477SOL     OW20329   6.751   6.677   0.113
 6477SOL    HW120330   6.714   6.689   0.021
 6477SOL    HW220331   6.785   6.765   0.147
 6478SOL     OW20332   5.089   6.343   0.941
 6478SOL    HW120333   4.991   6.341   0.923
 6478SOL    HW220334   5.105   6.358   1.038
 6479SOL     OW20335   4.175   6.028   2.820
 6479SOL    HW120336   4.078   6.007   2.803
 6479SOL    HW220337   4.184   6.071   2.910
 6480SOL     OW20338   2.552   1.225   0.827
 6480SOL    HW120339   2.515   1.185   0.743
 6480SOL    HW220340   2.603   1.155   0.876
 6481SOL     OW20341   4.738   0.855   1.280
 6481SOL    HW120342   4.778   0.943   1.252
 6481SOL    HW220343   4.740   0.849   1.380
 6482SOL     OW20344   0.283   0.613   6.727
 6482SOL    HW120345   0.244   0.574   6.811
 6482SOL    HW220346   0.365   0.563   6.702
 6483SOL     OW20347   2.191   5.456   1.824
 6483SOL    HW120348   2.196   5.372   1.878
 6483SOL    HW220349   2.220   5.533   1.879
 6484SOL     OW20350   5.462   6.406   3.468
 6484SOL    HW120351   5.433   6.392   3.374
 6484SOL    HW220352   5.473   6.318   3.514
 6485SOL     OW20353   1.070   2.729   3.009
 6485SOL    HW120354   1.057   2.818   2.964
 6485SOL    HW220355   1.026   2.729   3.098
 6486SOL     OW20356   1.757   3.516   3.089
 6486SOL    HW120357   1.714   3.523   2.999
 6486SOL    HW220358   1.798   3.425   3.099
 6487SOL     OW20359   5.797   5.514   3.329
 6487SOL    HW120360   5.729   5.456   3.284
 6487SOL    HW220361   5.870   5.456   3.366
 6488SOL     OW20362   3.311   4.870   5.322
 6488SOL    HW120363   3.378   4.936   5.357
 6488SOL    HW220364   3.232   4.920   5.285
 6489SOL     OW20365   2.481   1.882   5.379
 6489SOL    HW120366   2.532   1.917   5.458
 6489SOL    HW220367   2.446   1.958   5.325
 6490SOL     OW20368   4.672   1.532   0.691
 6490SOL    HW120369   4.601   1.568   0.630
 6490SOL    HW220370   4.684   1.434   0.674
 6491SOL     OW20371   4.281   1.046   6.441
 6491SOL    HW120372   4.218   1.005   6.506
 6491SOL    HW220373   4.342   1.110   6.488
 6492SOL     OW20374   5.889   6.011   6.405
 6492SOL    HW120375   5.800   5.964   6.406
 6492SOL    HW220376   5.933   6.001   6.495
 6493SOL     OW20377   0.805   6.260   5.391
 6493SOL    HW120378   0.890   6.208   5.391
 6493SOL    HW220379   0.736   6.210   5.338
 6494SOL     OW20380   1.367   0.264   3.338
 6494SOL    HW120381   1.377   0.307   3.428
 6494SOL    HW220382   1.423   0.181   3.334
 6495SOL     OW20383   5.373   5.158   2.494
 6495SOL    HW120384   5.335   5.170   2.585
 6495SOL    HW220385   5.365   5.063   2.466
 6496SOL     OW20386   0.880   6.688   2.768
 6496SOL    HW120387   0.928   6.772   2.794
 6496SOL    HW220388   0.888   6.621   2.842
 6497SOL     OW20389   0.425   5.709   0.053
 6497SOL    HW120390   0.360   5.666   0.116
 6497SOL    HW220391   0.388   5.707   6.984
 6498SOL     OW20392   1.591   4.530   3.851
 6498SOL    HW120393   1.536   4.460   3.805
 6498SOL    HW220394   1.624   4.494   3.938
 6499SOL     OW20395   5.677   0.985   4.172
 6499SOL    HW120396   5.692   1.050   4.098
 6499SOL    HW220397   5.756   0.987   4.234
 6500SOL     OW20398   5.485   4.872   3.454
 6500SOL    HW120399   5.481   4.795   3.392
 6500SOL    HW220400   5.577   4.880   3.492
 6501SOL     OW20401   0.146   3.451   0.859
 6501SOL    HW120402   0.106   3.361   0.842
 6501SOL    HW220403   0.206   3.446   0.939
 6502SOL     OW20404   1.329   4.837   2.191
 6502SOL    HW120405   1.289   4.861   2.279
 6502SOL    HW220406   1.423   4.872   2.186
 6503SOL     OW20407   4.502   0.190   4.210
 6503SOL    HW120408   4.599   0.186   4.234
 6503SOL    HW220409   4.447   0.186   4.294
 6504SOL     OW20410   2.005   0.858   0.440
 6504SOL    HW120411   1.939   0.784   0.424
 6504SOL    HW220412   1.956   0.941   0.466
 6505SOL     OW20413   5.159   5.362   0.700
 6505SOL    HW120414   5.167   5.408   0.789
 6505SOL    HW220415   5.083   5.296   0.703
 6506SOL     OW20416   1.760   1.736   0.630
 6506SOL    HW120417   1.672   1.717   0.586
 6506SOL    HW220418   1.781   1.834   0.622
 6507SOL     OW20419   3.039   0.648   1.940
 6507SOL    HW120420   2.973   0.697   1.997
 6507SOL    HW220421   3.078   0.572   1.992
 6508SOL     OW20422   2.639   1.357   1.843
 6508SOL    HW120423   2.672   1.434   1.897
 6508SOL    HW220424   2.539   1.350   1.851
 6509SOL     OW20425   0.750   2.573   3.859
 6509SOL    HW120426   0.831   2.624   3.888
 6509SOL    HW220427   0.718   2.608   3.771
 6510SOL     OW20428   5.507   5.220   6.393
 6510SOL    HW120429   5.546   5.266   6.313
 6510SOL    HW220430   5.532   5.272   6.476
 6511SOL     OW20431   6.100   5.794   5.459
 6511SOL    HW120432   6.083   5.740   5.376
 6511SOL    HW220433   6.025   5.779   5.524
 6512SOL     OW20434   5.161   6.500   3.586
 6512SOL    HW120435   5.248   6.521   3.630
 6512SOL    HW220436   5.145   6.402   3.588
 6513SOL     OW20437   2.237   6.795   2.986
 6513SOL    HW120438   2.336   6.803   2.979
 6513SOL    HW220439   2.194   6.871   2.935
 6514SOL     OW20440   3.267   0.006   3.786
 6514SOL    HW120441   3.209   0.036   3.710
 6514SOL    HW220442   3.211   7.023   3.869
 6515SOL     OW20443   0.815   1.029   4.006
 6515SOL    HW120444   0.857   1.119   4.014
 6515SOL    HW220445   0.763   1.008   4.089
 6516SOL     OW20446   1.586   1.670   5.921
 6516SOL    HW120447   1.577   1.728   5.840
 6516SOL    HW220448   1.545   1.581   5.903
 6517SOL     OW20449   1.571   2.107   0.175
 6517SOL    HW120450   1.553   2.101   0.077
 6517SOL    HW220451   1.508   2.047   0.224
 6518SOL     OW20452   5.723   6.284   0.591
 6518SOL    HW120453   5.721   6.185   0.610
 6518SOL    HW220454   5.816   6.311   0.566
 6519SOL     OW20455   1.560   1.990   3.532
 6519SOL    HW120456   1.551   1.892   3.515
 6519SOL    HW220457   1.642   2.006   3.587
 6520SOL     OW20458   6.033   5.283   1.533
 6520SOL    HW120459   6.050   5.317   1.441
 6520SOL    HW220460   5.995   5.191   1.528
 6521SOL     OW20461   1.568   2.271   5.001
 6521SOL    HW120462   1.530   2.183   5.027
 6521SOL    HW220463   1.662   2.280   5.036
 6522SOL     OW20464   2.894   5.732   4.462
 6522SOL    HW120465   2.799   5.765   4.469
 6522SOL    HW220466   2.894   5.633   4.445
 6523SOL     OW20467   1.940   2.389   6.862
 6523SOL    HW120468   1.982   2.347   6.942
 6523SOL    HW220469   2.008   2.393   6.788
 6524SOL     OW20470   3.614   3.834   4.420
 6524SOL    HW120471   3.668   3.771   4.476
 6524SOL    HW220472   3.598   3.793   4.330
 6525SOL     OW20473   0.552   2.769   4.367
 6525SOL    HW120474   0.643   2.796   4.337
 6525SOL    HW220475   0.516   2.700   4.305
 6526SOL     OW20476   1.579   5.450   4.299
 6526SOL    HW120477   1.568   5.355   4.331
 6526SOL    HW220478   1.669   5.483   4.326
 6527SOL     OW20479   2.589   0.873   3.760
 6527SOL    HW120480   2.667   0.847   3.817
 6527SOL    HW220481   2.504   0.861   3.812
 6528SOL     OW20482   6.974   6.811   3.048
 6528SOL    HW120483   6.903   6.756   3.092
 6528SOL    HW220484   0.032   6.813   3.107
 6529SOL     OW20485   6.365   2.453   1.628
 6529SOL    HW120486   6.423   2.523   1.669
 6529SOL    HW220487   6.409   2.364   1.636
 6530SOL     OW20488   0.195   1.825   0.455
 6530SOL    HW120489   0.201   1.750   0.521
 6530SOL    HW220490   0.277   1.825   0.398
 6531SOL     OW20491   4.998   2.838   4.636
 6531SOL    HW120492   5.095   2.842   4.661
 6531SOL    HW220493   4.944   2.881   4.708
 6532SOL     OW20494   1.275   2.503   0.021
 6532SOL    HW120495   1.353   2.466   0.071
 6532SOL    HW220496   1.192   2.494   0.076
 6533SOL     OW20497   4.525   0.948   1.119
 6533SOL    HW120498   4.454   0.878   1.113
 6533SOL    HW220499   4.609   0.907   1.152
 6534SOL     OW20500   1.765   3.229   0.074
 6534SOL    HW120501   1.704   3.155   0.045
 6534SOL    HW220502   1.781   3.290   7.020
 6535SOL     OW20503   2.173   3.442   5.495
 6535SOL    HW120504   2.074   3.454   5.501
 6535SOL    HW220505   2.193   3.354   5.453
 6536SOL     OW20506   6.843   2.616   6.528
 6536SOL    HW120507   6.798   2.586   6.612
 6536SOL    HW220508   6.803   2.701   6.496
 6537SOL     OW20509   1.083   0.289   0.274
 6537SOL    HW120510   1.022   0.368   0.277
 6537SOL    HW220511   1.032   0.206   0.295
 6538SOL     OW20512   1.504   2.866   6.378
 6538SOL    HW120513   1.546   2.957   6.382
 6538SOL    HW220514   1.575   2.797   6.391
 6539SOL     OW20515   2.547   1.734   6.279
 6539SOL    HW120516   2.454   1.768   6.271
 6539SOL    HW220517   2.561   1.695   6.370
 6540SOL     OW20518   3.143   2.110   3.993
 6540SOL    HW120519   3.101   2.182   4.048
 6540SOL    HW220520   3.129   2.022   4.037
 6541SOL     OW20521   2.741   2.541   5.313
 6541SOL    HW120522   2.787   2.453   5.322
 6541SOL    HW220523   2.800   2.614   5.348
 6542SOL     OW20524   6.348   4.570   3.644
 6542SOL    HW120525   6.250   4.587   3.631
 6542SOL    HW220526   6.378   4.500   3.580
 6543SOL     OW20527   0.588   5.254   6.460
 6543SOL    HW120528   0.606   5.170   6.409
 6543SOL    HW220529   0.509   5.240   6.521
 6544SOL     OW20530   6.564   6.426   2.862
 6544SOL    HW120531   6.508   6.452   2.940
 6544SOL    HW220532   6.562   6.326   2.852
 6545SOL     OW20533   5.446   2.919   6.134
 6545SOL    HW120534   5.369   2.903   6.073
 6545SOL    HW220535   5.455   2.843   6.199
 6546SOL     OW20536   3.526   5.024   6.000
 6546SOL    HW120537   3.579   4.950   5.959
 6546SOL    HW220538   3.502   5.091   5.930
 6547SOL     OW20539   5.143   1.075   0.143
 6547SOL    HW120540   5.093   1.076   0.057
 6547SOL    HW220541   5.204   1.154   0.148
 6548SOL     OW20542   5.996   4.474   5.310
 6548SOL    HW120543   5.997   4.376   5.329
 6548SOL    HW220544   5.903   4.503   5.288
 6549SOL     OW20545   2.675   1.083   2.242
 6549SOL    HW120546   2.624   1.169   2.245
 6549SOL    HW220547   2.762   1.094   2.290
 6550SOL     OW20548   0.675   5.211   3.519
 6550SOL    HW120549   0.586   5.199   3.562
 6550SOL    HW220550   0.730   5.275   3.572
 6551SOL     OW20551   2.644   4.789   1.876
 6551SOL    HW120552   2.677   4.867   1.824
 6551SOL    HW220553   2.722   4.743   1.920
 6552SOL     OW20554   4.883   5.112   6.573
 6552SOL    HW120555   4.888   5.157   6.484
 6552SOL    HW220556   4.787   5.101   6.600
 6553SOL     OW20557   6.697   3.407   2.817
 6553SOL    HW120558   6.734   3.484   2.869
 6553SOL    HW220559   6.680   3.331   2.879
 6554SOL     OW20560   0.025   3.822   4.743
 6554SOL    HW120561   6.965   3.829   4.798
 6554SOL    HW220562   0.068   3.733   4.760
 6555SOL     OW20563   0.810   1.146   2.025
 6555SOL    HW120564   0.740   1.207   2.063
 6555SOL    HW220565   0.866   1.111   2.100
 6556SOL     OW20566   3.336   0.422   3.869
 6556SOL    HW120567   3.323   0.385   3.961
 6556SOL    HW220568   3.321   0.521   3.871
 6557SOL     OW20569   5.700   6.566   0.850
 6557SOL    HW120570   5.751   6.534   0.930
 6557SOL    HW220571   5.616   6.513   0.841
 6558SOL     OW20572   6.902   6.284   6.536
 6558SOL    HW120573   6.838   6.356   6.562
 6558SOL    HW220574   6.932   6.234   6.618
 6559SOL     OW20575   3.616   2.821   0.918
 6559SOL    HW120576   3.529   2.871   0.918
 6559SOL    HW220577   3.619   2.759   0.996
 6560SOL     OW20578   3.619   1.704   0.599
 6560SOL    HW120579   3.606   1.616   0.646
 6560SOL    HW220580   3.658   1.770   0.662
 6561SOL     OW20581   3.578   4.130   4.135
 6561SOL    HW120582   3.669   4.097   4.113
 6561SOL    HW220583   3.557   4.108   4.231
 6562SOL     OW20584   6.346   3.930   5.477
 6562SOL    HW120585   6.413   3.984   5.427
 6562SOL    HW220586   6.388   3.844   5.507
 6563SOL     OW20587   1.069   5.176   2.944
 6563SOL    HW120588   1.024   5.088   2.957
 6563SOL    HW220589   1.141   5.187   3.011
 6564SOL     OW20590   1.184   6.106   3.162
 6564SOL    HW120591   1.169   6.196   3.202
 6564SOL    HW220592   1.282   6.091   3.149
 6565SOL     OW20593   6.454   3.435   4.964
 6565SOL    HW120594   6.435   3.347   4.920
 6565SOL    HW220595   6.504   3.419   5.049
 6566SOL     OW20596   3.489   6.838   0.753
 6566SOL    HW120597   3.517   6.822   0.848
 6566SOL    HW220598   3.489   6.936   0.734
 6567SOL     OW20599   6.240   3.134   1.460
 6567SOL    HW120600   6.276   3.206   1.520
 6567SOL    HW220601   6.234   3.170   1.366
 6568SOL     OW20602   4.108   3.686   1.142
 6568SOL    HW120603   4.116   3.595   1.184
 6568SOL    HW220604   4.188   3.741   1.165
 6569SOL     OW20605   0.811   4.665   6.606
 6569SOL    HW120606   0.736   4.615   6.648
 6569SOL    HW220607   0.825   4.752   6.654
 6570SOL     OW20608   6.123   3.436   1.696
 6570SOL    HW120609   6.059   3.420   1.620
 6570SOL    HW220610   6.135   3.535   1.708
 6571SOL     OW20611   2.720   6.440   3.693
 6571SOL    HW120612   2.761   6.455   3.783
 6571SOL    HW220613   2.622   6.460   3.697
 6572SOL     OW20614   1.350   4.181   6.531
 6572SOL    HW120615   1.380   4.119   6.603
 6572SOL    HW220616   1.291   4.251   6.570
 6573SOL     OW20617   1.620   1.973   2.222
 6573SOL    HW120618   1.662   2.032   2.291
 6573SOL    HW220619   1.591   2.028   2.144
 6574SOL     OW20620   1.680   4.790   3.989
 6574SOL    HW120621   1.644   4.697   4.002
 6574SOL    HW220622   1.773   4.794   4.025
 6575SOL     OW20623   2.062   1.056   2.343
 6575SOL    HW120624   2.011   0.974   2.367
 6575SOL    HW220625   2.109   1.092   2.424
 6576SOL     OW20626   1.178   6.433   4.070
 6576SOL    HW120627   1.089   6.390   4.086
 6576SOL    HW220628   1.187   6.455   3.973
 6577SOL     OW20629   6.791   3.052   5.050
 6577SOL    HW120630   6.726   2.999   4.995
 6577SOL    HW220631   6.847   3.109   4.989
 6578SOL     OW20632   6.830   5.446   3.475
 6578SOL    HW120633   6.840   5.438   3.575
 6578SOL    HW220634   6.733   5.448   3.452
 6579SOL     OW20635   1.011   3.877   2.922
 6579SOL    HW120636   1.014   3.883   2.822
 6579SOL    HW220637   0.988   3.966   2.960
 6580SOL     OW20638   5.767   2.527   1.335
 6580SOL    HW120639   5.786   2.429   1.323
 6580SOL    HW220640   5.677   2.548   1.296
 6581SOL     OW20641   2.307   2.534   5.497
 6581SOL    HW120642   2.227   2.526   5.436
 6581SOL    HW220643   2.376   2.590   5.453
 6582SOL     OW20644   0.056   0.650   2.034
 6582SOL    HW120645   6.990   0.669   1.993
 6582SOL    HW220646   0.049   0.653   2.134
 6583SOL     OW20647   5.280   2.081   5.536
 6583SOL    HW120648   5.325   2.130   5.462
 6583SOL    HW220649   5.329   1.995   5.553
 6584SOL     OW20650   5.633   2.230   6.932
 6584SOL    HW120651   5.695   2.308   6.940
 6584SOL    HW220652   5.540   2.262   6.915
 6585SOL     OW20653   2.338   0.974   1.351
 6585SOL    HW120654   2.252   1.002   1.308
 6585SOL    HW220655   2.413   0.990   1.287
 6586SOL     OW20656   6.873   1.303   6.843
 6586SOL    HW120657   6.965   1.265   6.842
 6586SOL    HW220658   6.869   1.380   6.907
 6587SOL     OW20659   1.895   6.870   2.792
 6587SOL    HW120660   1.889   6.912   2.701
 6587SOL    HW220661   1.809   6.822   2.812
 6588SOL     OW20662   2.142   2.728   6.962
 6588SOL    HW120663   2.231   2.764   6.986
 6588SOL    HW220664   2.152   2.660   6.889
 6589SOL     OW20665   5.424   1.654   5.741
 6589SOL    HW120666   5.328   1.631   5.725
 6589SOL    HW220667   5.478   1.570   5.747
 6590SOL     OW20668   6.404   1.068   5.803
 6590SOL    HW120669   6.491   1.114   5.785
 6590SOL    HW220670   6.420   0.971   5.821
 6591SOL     OW20671   5.348   0.676   2.706
 6591SOL    HW120672   5.345   0.769   2.743
 6591SOL    HW220673   5.422   0.668   2.639
 6592SOL     OW20674   5.395   6.019   4.729
 6592SOL    HW120675   5.433   5.990   4.641
 6592SOL    HW220676   5.464   6.070   4.780
 6593SOL     OW20677   4.479   0.917   2.243
 6593SOL    HW120678   4.564   0.953   2.282
 6593SOL    HW220679   4.496   0.885   2.150
 6594SOL     OW20680   5.555   1.258   6.557
 6594SOL    HW120681   5.532   1.162   6.540
 6594SOL    HW220682   5.633   1.284   6.501
 6595SOL     OW20683   1.699   3.735   0.066
 6595SOL    HW120684   1.794   3.757   0.089
 6595SOL    HW220685   1.644   3.736   0.149
 6596SOL     OW20686   3.429   6.432   5.542
 6596SOL    HW120687   3.486   6.410   5.621
 6596SOL    HW220688   3.414   6.350   5.487
 6597SOL     OW20689   6.751   4.373   6.776
 6597SOL    HW120690   6.807   4.307   6.827
 6597SOL    HW220691   6.767   4.362   6.678
 6598SOL     OW20692   2.478   5.500   4.617
 6598SOL    HW120693   2.526   5.514   4.530
 6598SOL    HW220694   2.509   5.568   4.683
 6599SOL     OW20695   4.535   3.298   5.694
 6599SOL    HW120696   4.567   3.206   5.672
 6599SOL    HW220697   4.527   3.308   5.793
 6600SOL     OW20698   4.283   5.473   4.181
 6600SOL    HW120699   4.383   5.477   4.188
 6600SOL    HW220700   4.242   5.488   4.271
 6601SOL     OW20701   0.888   0.117   1.222
 6601SOL    HW120702   0.835   0.060   1.160
 6601SOL    HW220703   0.834   0.138   1.304
 6602SOL     OW20704   6.420   1.074   1.864
 6602SOL    HW120705   6.359   1.136   1.814
 6602SOL    HW220706   6.482   1.029   1.799
 6603SOL     OW20707   2.573   2.019   2.404
 6603SOL    HW120708   2.481   2.014   2.364
 6603SOL    HW220709   2.637   2.057   2.337
 6604SOL     OW20710   4.178   5.822   3.377
 6604SOL    HW120711   4.202   5.827   3.280
 6604SOL    HW220712   4.252   5.776   3.427
 6605SOL     OW20713   5.897   6.678   0.143
 6605SOL    HW120714   5.810   6.715   0.109
 6605SOL    HW220715   5.970   6.699   0.079
 6606SOL     OW20716   6.436   1.420   3.107
 6606SOL    HW120717   6.344   1.457   3.093
 6606SOL    HW220718   6.450   1.341   3.046
 6607SOL     OW20719   0.906   1.927   2.974
 6607SOL    HW120720   0.857   1.928   2.886
 6607SOL    HW220721   0.945   1.837   2.989
 6608SOL     OW20722   5.415   4.873   5.214
 6608SOL    HW120723   5.469   4.924   5.146
 6608SOL    HW220724   5.373   4.794   5.171
 6609SOL     OW20725   5.832   1.287   6.926
 6609SOL    HW120726   5.854   1.273   6.829
 6609SOL    HW220727   5.758   1.353   6.934
 6610SOL     OW20728   3.097   0.823   0.339
 6610SOL    HW120729   3.101   0.730   0.374
 6610SOL    HW220730   3.183   0.870   0.357
 6611SOL     OW20731   5.209   3.049   3.198
 6611SOL    HW120732   5.144   3.026   3.126
 6611SOL    HW220733   5.295   2.999   3.183
 6612SOL     OW20734   1.014   6.083   6.334
 6612SOL    HW120735   1.061   5.999   6.307
 6612SOL    HW220736   1.081   6.153   6.356
 6613SOL     OW20737   5.059   4.760   1.317
 6613SOL    HW120738   4.962   4.740   1.325
 6613SOL    HW220739   5.087   4.823   1.390
 6614SOL     OW20740   5.148   5.265   5.743
 6614SOL    HW120741   5.206   5.201   5.693
 6614SOL    HW220742   5.137   5.349   5.690
 6615SOL     OW20743   0.665   4.464   5.365
 6615SOL    HW120744   0.619   4.465   5.276
 6615SOL    HW220745   0.695   4.556   5.389
 6616SOL     OW20746   5.022   0.999   4.522
 6616SOL    HW120747   5.081   1.025   4.598
 6616SOL    HW220748   4.970   1.078   4.491
 6617SOL     OW20749   4.436   6.968   5.177
 6617SOL    HW120750   4.339   6.981   5.155
 6617SOL    HW220751   4.461   6.872   5.162
 6618SOL     OW20752   0.525   4.916   1.143
 6618SOL    HW120753   0.611   4.968   1.137
 6618SOL    HW220754   0.539   4.825   1.105
 6619SOL     OW20755   6.904   6.357   1.292
 6619SOL    HW120756   6.874   6.280   1.347
 6619SOL    HW220757   7.004   6.361   1.292
 6620SOL     OW20758   4.025   3.262   5.772
 6620SOL    HW120759   4.100   3.272   5.707
 6620SOL    HW220760   3.992   3.167   5.770
 6621SOL     OW20761   2.798   3.769   0.329
 6621SOL    HW120762   2.743   3.773   0.246
 6621SOL    HW220763   2.806   3.674   0.359
 6622SOL     OW20764   6.561   6.704   0.542
 6622SOL    HW120765   6.471   6.666   0.562
 6622SOL    HW220766   6.626   6.629   0.530
 6623SOL     OW20767   3.431   3.748   2.484
 6623SOL    HW120768   3.518   3.774   2.443
 6623SOL    HW220769   3.364   3.821   2.469
 6624SOL     OW20770   4.549   5.343   3.937
 6624SOL    HW120771   4.478   5.275   3.920
 6624SOL    HW220772   4.532   5.388   4.024
 6625SOL     OW20773   5.593   0.262   6.945
 6625SOL    HW120774   5.545   0.321   6.881
 6625SOL    HW220775   5.586   0.300   0.013
 6626SOL     OW20776   2.746   5.394   3.209
 6626SOL    HW120777   2.775   5.301   3.185
 6626SOL    HW220778   2.718   5.395   3.305
 6627SOL     OW20779   1.918   5.892   1.837
 6627SOL    HW120780   1.829   5.937   1.842
 6627SOL    HW220781   1.918   5.826   1.761
 6628SOL     OW20782   3.761   6.159   3.542
 6628SOL    HW120783   3.709   6.240   3.569
 6628SOL    HW220784   3.722   6.121   3.458
 6629SOL     OW20785   3.367   3.808   0.227
 6629SOL    HW120786   3.455   3.789   0.272
 6629SOL    HW220787   3.369   3.900   0.189
 6630SOL     OW20788   2.960   1.800   5.983
 6630SOL    HW120789   3.059   1.813   5.989
 6630SOL    HW220790   2.932   1.725   6.043
 6631SOL     OW20791   4.541   0.761   2.038
 6631SOL    HW120792   4.616   0.702   2.009
 6631SOL    HW220793   4.461   0.746   1.980
 6632SOL     OW20794   6.686   2.643   2.517
 6632SOL    HW120795   6.770   2.653   2.570
 6632SOL    HW220796   6.610   2.686   2.567
 6633SOL     OW20797   0.443   0.370   1.550
 6633SOL    HW120798   0.440   0.290   1.610
 6633SOL    HW220799   0.474   0.450   1.602
 6634SOL     OW20800   0.005   2.790   5.564
 6634SOL    HW120801   0.004   2.862   5.633
 6634SOL    HW220802   7.022   2.701   5.609
 6635SOL     OW20803   4.496   4.466   3.065
 6635SOL    HW120804   4.560   4.389   3.060
 6635SOL    HW220805   4.454   4.480   2.975
 6636SOL     OW20806   1.864   3.092   3.644
 6636SOL    HW120807   1.917   3.010   3.666
 6636SOL    HW220808   1.843   3.142   3.728
 6637SOL     OW20809   6.646   1.725   1.549
 6637SOL    HW120810   6.742   1.705   1.567
 6637SOL    HW220811   6.621   1.688   1.459
 6638SOL     OW20812   2.499   6.137   6.264
 6638SOL    HW120813   2.503   6.040   6.241
 6638SOL    HW220814   2.552   6.190   6.197
 6639SOL     OW20815   5.186   5.895   6.489
 6639SOL    HW120816   5.140   5.979   6.460
 6639SOL    HW220817   5.120   5.820   6.490
 6640SOL     OW20818   5.928   2.908   4.064
 6640SOL    HW120819   5.964   2.828   4.017
 6640SOL    HW220820   6.004   2.965   4.096
 6641SOL     OW20821   2.150   4.717   6.843
 6641SOL    HW120822   2.066   4.664   6.831
 6641SOL    HW220823   2.160   4.781   6.767
 6642SOL     OW20824   6.243   6.533   0.362
 6642SOL    HW120825   6.255   6.632   0.359
 6642SOL    HW220826   6.217   6.506   0.455
 6643SOL     OW20827   4.106   5.624   0.379
 6643SOL    HW120828   4.024   5.606   0.325
 6643SOL    HW220829   4.140   5.715   0.360
 6644SOL     OW20830   2.320   4.449   2.037
 6644SOL    HW120831   2.314   4.446   1.937
 6644SOL    HW220832   2.405   4.493   2.064
 6645SOL     OW20833   6.574   4.813   5.078
 6645SOL    HW120834   6.618   4.786   4.993
 6645SOL    HW220835   6.643   4.849   5.141
 6646SOL     OW20836   1.418   6.184   3.806
 6646SOL    HW120837   1.384   6.179   3.712
 6646SOL    HW220838   1.343   6.212   3.867
 6647SOL     OW20839   4.189   1.913   2.423
 6647SOL    HW120840   4.203   1.957   2.334
 6647SOL    HW220841   4.147   1.823   2.409
 6648SOL     OW20842   4.566   5.755   1.682
 6648SOL    HW120843   4.605   5.761   1.774
 6648SOL    HW220844   4.541   5.847   1.651
 6649SOL     OW20845   4.397   2.036   6.326
 6649SOL    HW120846   4.487   1.993   6.331
 6649SOL    HW220847   4.333   1.983   6.382
 6650SOL     OW20848   2.830   1.852   3.417
 6650SOL    HW120849   2.837   1.919   3.491
 6650SOL    HW220850   2.867   1.891   3.333
 6651SOL     OW20851   1.495   2.372   0.144
 6651SOL    HW120852   1.488   2.282   0.189
 6651SOL    HW220853   1.591   2.395   0.131
 6652SOL     OW20854   0.976   5.911   3.494
 6652SOL    HW120855   0.922   5.828   3.510
 6652SOL    HW220856   1.073   5.891   3.510
 6653SOL     OW20857   3.166   3.598   3.900
 6653SOL    HW120858   3.191   3.582   3.995
 6653SOL    HW220859   3.124   3.515   3.863
 6654SOL     OW20860   2.062   3.465   1.782
 6654SOL    HW120861   1.994   3.424   1.842
 6654SOL    HW220862   2.140   3.498   1.836
 6655SOL     OW20863   2.143   0.095   0.776
 6655SOL    HW120864   2.074   0.151   0.822
 6655SOL    HW220865   2.129   7.022   0.801
 6656SOL     OW20866   6.703   2.415   1.475
 6656SOL    HW120867   6.639   2.390   1.402
 6656SOL    HW220868   6.760   2.492   1.446
 6657SOL     OW20869   2.812   4.826   6.085
 6657SOL    HW120870   2.820   4.737   6.040
 6657SOL    HW220871   2.874   4.891   6.042
 6658SOL     OW20872   5.198   0.375   5.759
 6658SOL    HW120873   5.129   0.358   5.688
 6658SOL    HW220874   5.269   0.305   5.753
 6659SOL     OW20875   1.579   2.987   6.625
 6659SOL    HW120876   1.541   2.895   6.611
 6659SOL    HW220877   1.679   2.980   6.633
 6660SOL     OW20878   0.551   0.119   2.383
 6660SOL    HW120879   0.511   0.134   2.474
 6660SOL    HW220880   0.630   0.059   2.391
 6661SOL     OW20881   0.166   5.710   3.496
 6661SOL    HW120882   0.230   5.776   3.457
 6661SOL    HW220883   0.216   5.642   3.549
 6662SOL     OW20884   0.979   3.676   5.683
 6662SOL    HW120885   1.060   3.722   5.647
 6662SOL    HW220886   0.916   3.656   5.608
 6663SOL     OW20887   0.328   5.055   2.172
 6663SOL    HW120888   0.394   5.124   2.141
 6663SOL    HW220889   0.370   4.998   2.242
 6664SOL     OW20890   0.850   1.794   3.621
 6664SOL    HW120891   0.790   1.870   3.597
 6664SOL    HW220892   0.866   1.736   3.540
 6665SOL     OW20893   2.923   6.483   2.692
 6665SOL    HW120894   2.908   6.434   2.778
 6665SOL    HW220895   2.835   6.492   2.644
 6666SOL     OW20896   6.251   0.320   0.326
 6666SOL    HW120897   6.303   0.315   0.241
 6666SOL    HW220898   6.283   0.397   0.381
 6667SOL     OW20899   6.633   4.614   4.503
 6667SOL    HW120900   6.648   4.515   4.503
 6667SOL    HW220901   6.717   4.660   4.476
 6668SOL     OW20902   0.167   6.458   1.318
 6668SOL    HW120903   0.239   6.515   1.358
 6668SOL    HW220904   0.151   6.487   1.223
 6669SOL     OW20905   1.283   5.452   2.873
 6669SOL    HW120906   1.187   5.473   2.852
 6669SOL    HW220907   1.342   5.523   2.834
 6670SOL     OW20908   3.374   4.842   0.825
 6670SOL    HW120909   3.309   4.775   0.861
 6670SOL    HW220910   3.434   4.873   0.899
 6671SOL     OW20911   0.623   2.769   5.447
 6671SOL    HW120912   0.612   2.674   5.418
 6671SOL    HW220913   0.546   2.823   5.412
 6672SOL     OW20914   0.561   1.032   5.380
 6672SOL    HW120915   0.542   1.127   5.357
 6672SOL    HW220916   0.644   1.002   5.333
 6673SOL     OW20917   5.341   5.445   1.563
 6673SOL    HW120918   5.327   5.472   1.467
 6673SOL    HW220919   5.319   5.348   1.573
 6674SOL     OW20920   0.658   7.022   4.795
 6674SOL    HW120921   0.727   0.065   4.822
 6674SOL    HW220922   0.631   0.016   4.700
 6675SOL     OW20923   0.310   5.883   0.344
 6675SOL    HW120924   0.275   5.975   0.359
 6675SOL    HW220925   0.337   5.872   0.248
 6676SOL     OW20926   1.346   2.012   0.319
 6676SOL    HW120927   1.346   2.079   0.393
 6676SOL    HW220928   1.295   2.049   0.241
 6677SOL     OW20929   6.399   3.935   6.786
 6677SOL    HW120930   6.405   3.854   6.728
 6677SOL    HW220931   6.490   3.975   6.797
 6678SOL     OW20932   1.043   2.980   4.384
 6678SOL    HW120933   1.027   2.967   4.482
 6678SOL    HW220934   1.045   3.078   4.364
 6679SOL     OW20935   1.596   1.083   4.007
 6679SOL    HW120936   1.606   1.139   4.089
 6679SOL    HW220937   1.527   1.012   4.023
 6680SOL     OW20938   2.035   6.956   6.210
 6680SOL    HW120939   2.130   6.971   6.234
 6680SOL    HW220940   2.002   6.873   6.256
 6681SOL     OW20941   5.688   5.202   0.244
 6681SOL    HW120942   5.686   5.109   0.280
 6681SOL    HW220943   5.775   5.218   0.198
 6682SOL     OW20944   0.405   5.535   2.620
 6682SOL    HW120945   0.381   5.616   2.567
 6682SOL    HW220946   0.431   5.461   2.558
 6683SOL     OW20947   5.264   1.725   4.132
 6683SOL    HW120948   5.276   1.701   4.035
 6683SOL    HW220949   5.350   1.759   4.169
 6684SOL     OW20950   2.153   0.704   2.172
 6684SOL    HW120951   2.070   0.666   2.213
 6684SOL    HW220952   2.128   0.782   2.114
 6685SOL     OW20953   5.285   3.721   6.276
 6685SOL    HW120954   5.239   3.652   6.331
 6685SOL    HW220955   5.261   3.708   6.180
 6686SOL     OW20956   5.522   3.812   3.973
 6686SOL    HW120957   5.503   3.861   4.058
 6686SOL    HW220958   5.565   3.724   3.995
 6687SOL     OW20959   1.154   1.447   6.919
 6687SOL    HW120960   1.220   1.390   6.870
 6687SOL    HW220961   1.203   1.505   6.985
 6688SOL     OW20962   0.568   4.886   2.928
 6688SOL    HW120963   0.589   4.979   2.898
 6688SOL    HW220964   0.541   4.830   2.850
 6689SOL     OW20965   4.259   4.695   0.614
 6689SOL    HW120966   4.341   4.683   0.558
 6689SOL    HW220967   4.286   4.710   0.709
 6690SOL     OW20968   1.106   1.928   0.520
 6690SOL    HW120969   1.118   1.867   0.599
 6690SOL    HW220970   1.196   1.947   0.479
 6691SOL     OW20971   1.665   4.969   0.996
 6691SOL    HW120972   1.718   4.895   1.039
 6691SOL    HW220973   1.728   5.039   0.963
 6692SOL     OW20974   3.519   4.256   5.963
 6692SOL    HW120975   3.487   4.350   5.979
 6692SOL    HW220976   3.522   4.207   6.050
 6693SOL     OW20977   4.107   3.575   4.730
 6693SOL    HW120978   4.158   3.489   4.740
 6693SOL    HW220979   4.026   3.573   4.789
 6694SOL     OW20980   2.946   6.020   0.050
 6694SOL    HW120981   2.924   6.076   0.130
 6694SOL    HW220982   2.870   6.023   7.009
 6695SOL     OW20983   1.476   1.580   6.565
 6695SOL    HW120984   1.548   1.511   6.572
 6695SOL    HW220985   1.415   1.574   6.644
 6696SOL     OW20986   2.135   3.171   1.822
 6696SOL    HW120987   2.181   3.260   1.817
 6696SOL    HW220988   2.040   3.185   1.851
 6697SOL     OW20989   5.106   2.205   3.840
 6697SOL    HW120990   5.138   2.256   3.760
 6697SOL    HW220991   5.123   2.258   3.923
 6698SOL     OW20992   3.324   4.228   0.618
 6698SOL    HW120993   3.242   4.183   0.584
 6698SOL    HW220994   3.307   4.327   0.627
 6699SOL     OW20995   1.666   3.251   6.731
 6699SOL    HW120996   1.648   3.312   6.808
 6699SOL    HW220997   1.616   3.166   6.742
 6700SOL     OW20998   6.774   6.793   6.168
 6700SOL    HW120999   6.810   6.884   6.191
 6700SOL    HW221000   6.797   6.729   6.241
 6701SOL     OW21001   0.424   2.691   1.036
 6701SOL    HW121002   0.508   2.646   1.065
 6701SOL    HW221003   0.392   2.752   1.109
 6702SOL     OW21004   1.661   3.430   1.095
 6702SOL    HW121005   1.629   3.512   1.047
 6702SOL    HW221006   1.733   3.386   1.042
 6703SOL     OW21007   0.325   2.242   6.775
 6703SOL    HW121008   0.284   2.322   6.818
 6703SOL    HW221009   0.421   2.236   6.801
 6704SOL     OW21010   5.067   2.061   3.345
 6704SOL    HW121011   5.016   2.127   3.401
 6704SOL    HW221012   5.019   2.046   3.259
 6705SOL     OW21013   6.347   1.050   0.520
 6705SOL    HW121014   6.319   1.133   0.473
 6705SOL    HW221015   6.442   1.029   0.497
 6706SOL     OW21016   0.881   5.545   6.808
 6706SOL    HW121017   0.939   5.622   6.836
 6706SOL    HW221018   0.883   5.475   6.879
 6707SOL     OW21019   1.054   5.424   2.441
 6707SOL    HW121020   1.041   5.400   2.344
 6707SOL    HW221021   1.039   5.342   2.497
 6708SOL     OW21022   2.221   6.204   1.640
 6708SOL    HW121023   2.293   6.137   1.622
 6708SOL    HW221024   2.162   6.170   1.714
 6709SOL     OW21025   5.296   1.574   3.147
 6709SOL    HW121026   5.291   1.480   3.113
 6709SOL    HW221027   5.389   1.608   3.139
 6710SOL     OW21028   2.096   1.928   0.544
 6710SOL    HW121029   2.015   1.978   0.574
 6710SOL    HW221030   2.071   1.835   0.518
 6711SOL     OW21031   4.662   3.539   0.327
 6711SOL    HW121032   4.606   3.600   0.384
 6711SOL    HW221033   4.674   3.452   0.374
 6712SOL     OW21034   3.417   6.080   1.177
 6712SOL    HW121035   3.440   6.162   1.124
 6712SOL    HW221036   3.496   6.051   1.231
 6713SOL     OW21037   1.768   1.531   2.765
 6713SOL    HW121038   1.741   1.591   2.690
 6713SOL    HW221039   1.814   1.450   2.729
 6714SOL     OW21040   6.676   0.328   4.064
 6714SOL    HW121041   6.772   0.304   4.082
 6714SOL    HW221042   6.672   0.420   4.024
 6715SOL     OW21043   0.390   2.080   0.728
 6715SOL    HW121044   0.487   2.055   0.729
 6715SOL    HW221045   0.373   2.145   0.654
 6716SOL     OW21046   2.818   5.478   0.318
 6716SOL    HW121047   2.829   5.400   0.256
 6716SOL    HW221048   2.781   5.556   0.268
 6717SOL     OW21049   4.054   1.845   6.316
 6717SOL    HW121050   4.062   1.925   6.256
 6717SOL    HW221051   4.140   1.832   6.365
 6718SOL     OW21052   3.399   6.607   0.021
 6718SOL    HW121053   3.480   6.650   0.061
 6718SOL    HW221054   3.320   6.667   0.034
 6719SOL     OW21055   0.562   0.597   5.507
 6719SOL    HW121056   0.569   0.548   5.594
 6719SOL    HW221057   0.517   0.685   5.522
 6720SOL     OW21058   1.876   4.563   1.591
 6720SOL    HW121059   1.784   4.599   1.599
 6720SOL    HW221060   1.940   4.637   1.573
 6721SOL     OW21061   6.347   6.272   3.248
 6721SOL    HW121062   6.428   6.250   3.194
 6721SOL    HW221063   6.316   6.364   3.225
 6722SOL     OW21064   5.216   4.520   6.925
 6722SOL    HW121065   5.259   4.463   6.855
 6722SOL    HW221066   5.287   4.565   6.979
 6723SOL     OW21067   4.648   0.504   2.815
 6723SOL    HW121068   4.679   0.599   2.810
 6723SOL    HW221069   4.549   0.500   2.802
 6724SOL     OW21070   3.229   4.804   5.595
 6724SOL    HW121071   3.263   4.794   5.502
 6724SOL    HW221072   3.129   4.797   5.595
 6725SOL     OW21073   0.067   5.028   1.862
 6725SOL    HW121074   0.148   4.989   1.906
 6725SOL    HW221075   0.046   4.976   1.779
 6726SOL     OW21076   2.263   2.600   2.097
 6726SOL    HW121077   2.293   2.623   2.004
 6726SOL    HW221078   2.207   2.674   2.133
 6727SOL     OW21079   3.528   4.017   0.163
 6727SOL    HW121080   3.480   4.093   0.207
 6727SOL    HW221081   3.594   3.977   0.226
 6728SOL     OW21082   4.557   1.419   4.596
 6728SOL    HW121083   4.572   1.324   4.622
 6728SOL    HW221084   4.527   1.423   4.500
 6729SOL     OW21085   5.692   6.152   3.044
 6729SOL    HW121086   5.761   6.148   2.972
 6729SOL    HW221087   5.738   6.157   3.133
 6730SOL     OW21088   1.318   0.461   2.414
 6730SOL    HW121089   1.380   0.446   2.337
 6730SOL    HW221090   1.231   0.496   2.380
 6731SOL     OW21091   2.425   4.171   1.792
 6731SOL    HW121092   2.446   4.267   1.810
 6731SOL    HW221093   2.356   4.140   1.858
 6732SOL     OW21094   2.367   4.727   0.962
 6732SOL    HW121095   2.418   4.771   1.036
 6732SOL    HW221096   2.273   4.710   0.993
 6733SOL     OW21097   5.850   6.031   4.974
 6733SOL    HW121098   5.880   6.108   5.030
 6733SOL    HW221099   5.927   5.970   4.958
 6734SOL     OW21100   3.002   3.649   5.442
 6734SOL    HW121101   2.963   3.670   5.532
 6734SOL    HW221102   3.008   3.733   5.388
 6735SOL     OW21103   0.246   5.738   6.529
 6735SOL    HW121104   0.302   5.821   6.521
 6735SOL    HW221105   0.300   5.658   6.503
 6736SOL     OW21106   2.108   3.870   2.658
 6736SOL    HW121107   2.124   3.957   2.611
 6736SOL    HW221108   2.011   3.845   2.650
 6737SOL     OW21109   1.910   0.065   1.153
 6737SOL    HW121110   1.891   7.003   1.201
 6737SOL    HW221111   1.920   0.139   1.221
 6738SOL     OW21112   4.166   1.163   1.915
 6738SOL    HW121113   4.179   1.064   1.910
 6738SOL    HW221114   4.246   1.209   1.877
 6739SOL     OW21115   4.660   0.407   4.535
 6739SOL    HW121116   4.638   0.432   4.441
 6739SOL    HW221117   4.616   0.320   4.558
 6740SOL     OW21118   6.076   3.338   5.458
 6740SOL    HW121119   6.065   3.435   5.435
 6740SOL    HW221120   6.054   3.325   5.555
 6741SOL     OW21121   0.069   6.944   5.797
 6741SOL    HW121122   0.128   6.874   5.757
 6741SOL    HW221123   0.065   6.932   5.896
 6742SOL     OW21124   6.189   5.918   4.934
 6742SOL    HW121125   6.230   5.834   4.899
 6742SOL    HW221126   6.145   5.900   5.021
 6743SOL     OW21127   5.312   2.464   0.980
 6743SOL    HW121128   5.339   2.559   0.997
 6743SOL    HW221129   5.394   2.408   0.968
 6744SOL     OW21130   4.984   5.236   4.792
 6744SOL    HW121131   5.068   5.183   4.777
 6744SOL    HW221132   5.003   5.333   4.776
 6745SOL     OW21133   0.798   3.459   2.818
 6745SOL    HW121134   0.849   3.378   2.790
 6745SOL    HW221135   0.704   3.452   2.783
 6746SOL     OW21136   0.063   1.040   1.208
 6746SOL    HW121137   0.096   0.953   1.174
 6746SOL    HW221138   6.991   1.053   1.179
 6747SOL     OW21139   4.988   6.445   6.960
 6747SOL    HW121140   4.901   6.454   6.911
 6747SOL    HW221141   5.062   6.478   6.903
 6748SOL     OW21142   0.554   6.680   1.696
 6748SOL    HW121143   0.505   6.756   1.656
 6748SOL    HW221144   0.578   6.614   1.624
 6749SOL     OW21145   3.470   5.817   0.904
 6749SOL    HW121146   3.441   5.755   0.977
 6749SOL    HW221147   3.403   5.890   0.894
 6750SOL     OW21148   2.293   2.911   5.338
 6750SOL    HW121149   2.274   2.827   5.287
 6750SOL    HW221150   2.355   2.969   5.286
 6751SOL     OW21151   3.240   1.770   6.014
 6751SOL    HW121152   3.286   1.825   5.944
 6751SOL    HW221153   3.275   1.794   6.104
 6752SOL     OW21154   6.145   2.180   0.469
 6752SOL    HW121155   6.179   2.263   0.424
 6752SOL    HW221156   6.055   2.157   0.433
 6753SOL     OW21157   6.051   1.366   6.401
 6753SOL    HW121158   6.099   1.449   6.373
 6753SOL    HW221159   6.075   1.291   6.339
 6754SOL     OW21160   4.785   1.362   7.014
 6754SOL    HW121161   4.850   1.426   6.973
 6754SOL    HW221162   4.707   1.350   6.953
 6755SOL     OW21163   5.219   1.966   3.918
 6755SOL    HW121164   5.313   2.000   3.925
 6755SOL    HW221165   5.161   2.036   3.876
 6756SOL     OW21166   5.050   4.176   3.355
 6756SOL    HW121167   5.082   4.113   3.284
 6756SOL    HW221168   5.073   4.139   3.445
 6757SOL     OW21169   5.991   5.006   1.852
 6757SOL    HW121170   5.984   4.906   1.846
 6757SOL    HW221171   6.076   5.036   1.809
 6758SOL     OW21172   5.688   1.307   3.350
 6758SOL    HW121173   5.778   1.305   3.395
 6758SOL    HW221174   5.698   1.340   3.256
 6759SOL     OW21175   1.073   4.727   3.361
 6759SOL    HW121176   1.023   4.676   3.431
 6759SOL    HW221177   1.150   4.673   3.328
 6760SOL     OW21178   0.409   4.419   5.604
 6760SOL    HW121179   0.496   4.383   5.571
 6760SOL    HW221180   0.417   4.517   5.622
 6761SOL     OW21181   6.242   3.322   6.060
 6761SOL    HW121182   6.172   3.383   6.094
 6761SOL    HW221183   6.329   3.343   6.104
 6762SOL     OW21184   6.659   4.039   3.286
 6762SOL    HW121185   6.715   3.983   3.347
 6762SOL    HW221186   6.568   3.998   3.276
 6763SOL     OW21187   6.488   6.365   5.390
 6763SOL    HW121188   6.498   6.461   5.363
 6763SOL    HW221189   6.541   6.308   5.328
 6764SOL     OW21190   1.935   3.176   6.683
 6764SOL    HW121191   1.937   3.079   6.662
 6764SOL    HW221192   1.841   3.210   6.681
 6765SOL     OW21193   5.197   5.310   2.738
 6765SOL    HW121194   5.265   5.380   2.715
 6765SOL    HW221195   5.136   5.346   2.809
 6766SOL     OW21196   1.922   1.804   5.736
 6766SOL    HW121197   1.994   1.807   5.667
 6766SOL    HW221198   1.870   1.719   5.727
 6767SOL     OW21199   0.539   2.426   6.026
 6767SOL    HW121200   0.577   2.518   6.040
 6767SOL    HW221201   0.536   2.378   6.114
 6768SOL     OW21202   6.500   1.561   5.944
 6768SOL    HW121203   6.419   1.509   5.973
 6768SOL    HW221204   6.583   1.509   5.968
 6769SOL     OW21205   1.058   2.622   6.698
 6769SOL    HW121206   1.137   2.668   6.741
 6769SOL    HW221207   1.041   2.664   6.609
 6770SOL     OW21208   6.562   1.490   4.920
 6770SOL    HW121209   6.605   1.507   4.831
 6770SOL    HW221210   6.632   1.461   4.985
 6771SOL     OW21211   5.650   1.573   2.218
 6771SOL    HW121212   5.731   1.554   2.163
 6771SOL    HW221213   5.647   1.671   2.241
 6772SOL     OW21214   1.427   0.576   1.991
 6772SOL    HW121215   1.506   0.517   2.010
 6772SOL    HW221216   1.344   0.529   2.021
 6773SOL     OW21217   1.647   0.507   2.366
 6773SOL    HW121218   1.613   0.462   2.449
 6773SOL    HW221219   1.599   0.593   2.353
 6774SOL     OW21220   3.653   1.412   5.925
 6774SOL    HW121221   3.598   1.443   5.847
 6774SOL    HW221222   3.749   1.412   5.900
 6775SOL     OW21223   1.324   2.657   4.746
 6775SOL    HW121224   1.310   2.564   4.714
 6775SOL    HW221225   1.422   2.679   4.742
 6776SOL     OW21226   2.960   3.754   3.781
 6776SOL    HW121227   3.033   3.719   3.840
 6776SOL    HW221228   2.916   3.678   3.734
 6777SOL     OW21229   0.326   6.713   5.990
 6777SOL    HW121230   0.382   6.710   6.072
 6777SOL    HW221231   0.382   6.744   5.913
 6778SOL     OW21232   6.804   5.972   2.523
 6778SOL    HW121233   6.719   5.933   2.488
 6778SOL    HW221234   6.849   5.906   2.583
 6779SOL     OW21235   4.501   4.761   0.007
 6779SOL    HW121236   4.543   4.759   0.098
 6779SOL    HW221237   4.545   4.831   6.975
 6780SOL     OW21238   4.491   0.148   3.007
 6780SOL    HW121239   4.583   0.158   2.970
 6780SOL    HW221240   4.496   0.128   3.105
 6781SOL     OW21241   6.640   3.249   3.077
 6781SOL    HW121242   6.646   3.152   3.053
 6781SOL    HW221243   6.666   3.262   3.173
 6782SOL     OW21244   0.767   1.463   3.880
 6782SOL    HW121245   0.691   1.526   3.862
 6782SOL    HW221246   0.785   1.459   3.978
 6783SOL     OW21247   0.441   6.446   6.211
 6783SOL    HW121248   0.495   6.517   6.165
 6783SOL    HW221249   0.490   6.416   6.293
 6784SOL     OW21250   1.615   4.615   0.530
 6784SOL    HW121251   1.670   4.531   0.525
 6784SOL    HW221252   1.619   4.652   0.623
 6785SOL     OW21253   5.350   4.975   1.977
 6785SOL    HW121254   5.357   5.050   2.043
 6785SOL    HW221255   5.442   4.941   1.956
 6786SOL     OW21256   6.196   1.738   5.398
 6786SOL    HW121257   6.158   1.831   5.404
 6786SOL    HW221258   6.285   1.736   5.443
 6787SOL     OW21259   3.312   1.490   0.935
 6787SOL    HW121260   3.337   1.482   1.032
 6787SOL    HW221261   3.219   1.455   0.922
 6788SOL     OW21262   1.031   4.404   1.420
 6788SOL    HW121263   1.020   4.492   1.374
 6788SOL    HW221264   0.999   4.331   1.360
 6789SOL     OW21265   5.583   3.862   2.790
 6789SOL    HW121266   5.555   3.866   2.886
 6789SOL    HW221267   5.550   3.776   2.750
 6790SOL     OW21268   0.793   5.745   0.753
 6790SOL    HW121269   0.778   5.836   0.791
 6790SOL    HW221270   0.853   5.751   0.673
 6791SOL     OW21271   2.845   6.498   3.926
 6791SOL    HW121272   2.935   6.469   3.957
 6791SOL    HW221273   2.782   6.499   4.004
 6792SOL     OW21274   3.489   6.055   6.629
 6792SOL    HW121275   3.478   6.137   6.686
 6792SOL    HW221276   3.514   6.082   6.536
 6793SOL     OW21277   3.045   4.060   6.453
 6793SOL    HW121278   3.020   4.156   6.469
 6793SOL    HW221279   3.137   4.043   6.487
 6794SOL     OW21280   5.304   2.716   4.366
 6794SOL    HW121281   5.276   2.812   4.355
 6794SOL    HW221282   5.224   2.660   4.387
 6795SOL     OW21283   0.896   0.622   1.723
 6795SOL    HW121284   0.855   0.542   1.765
 6795SOL    HW221285   0.825   0.690   1.704
 6796SOL     OW21286   6.665   2.489   2.296
 6796SOL    HW121287   6.737   2.518   2.233
 6796SOL    HW221288   6.669   2.546   2.379
 6797SOL     OW21289   2.032   3.374   1.337
 6797SOL    HW121290   2.113   3.430   1.322
 6797SOL    HW221291   2.037   3.292   1.280
 6798SOL     OW21292   4.749   0.645   1.911
 6798SOL    HW121293   4.812   0.572   1.939
 6798SOL    HW221294   4.802   0.725   1.884
 6799SOL     OW21295   5.646   6.640   2.740
 6799SOL    HW121296   5.734   6.642   2.694
 6799SOL    HW221297   5.635   6.722   2.796
 6800SOL     OW21298   6.995   3.019   2.409
 6800SOL    HW121299   0.029   3.010   2.328
 6800SOL    HW221300   6.937   3.100   2.400
 6801SOL     OW21301   1.633   4.892   5.213
 6801SOL    HW121302   1.694   4.835   5.157
 6801SOL    HW221303   1.583   4.954   5.153
 6802SOL     OW21304   2.592   4.562   1.751
 6802SOL    HW121305   2.537   4.640   1.778
 6802SOL    HW221306   2.685   4.573   1.786
 6803SOL     OW21307   5.548   5.404   6.581
 6803SOL    HW121308   5.454   5.397   6.615
 6803SOL    HW221309   5.610   5.417   6.658
 6804SOL     OW21310   3.055   5.296   1.892
 6804SOL    HW121311   3.152   5.318   1.888
 6804SOL    HW221312   3.004   5.375   1.925
 6805SOL     OW21313   0.631   4.851   3.654
 6805SOL    HW121314   0.612   4.810   3.564
 6805SOL    HW221315   0.619   4.781   3.725
 6806SOL     OW21316   6.081   3.479   2.549
 6806SOL    HW121317   6.013   3.413   2.581
 6806SOL    HW221318   6.043   3.531   2.473
 6807SOL     OW21319   2.960   3.580   2.456
 6807SOL    HW121320   2.948   3.488   2.492
 6807SOL    HW221321   2.971   3.644   2.532
 6808SOL     OW21322   3.378   0.016   3.189
 6808SOL    HW121323   3.389   6.973   3.115
 6808SOL    HW221324   3.337   6.995   3.268
 6809SOL     OW21325   5.715   2.591   0.953
 6809SOL    HW121326   5.768   2.506   0.953
 6809SOL    HW221327   5.722   2.635   1.042
 6810SOL     OW21328   2.780   0.281   4.296
 6810SOL    HW121329   2.745   0.284   4.202
 6810SOL    HW221330   2.745   0.199   4.342
 6811SOL     OW21331   6.645   1.446   0.806
 6811SOL    HW121332   6.632   1.408   0.715
 6811SOL    HW221333   6.737   1.425   0.838
 6812SOL     OW21334   3.190   4.281   5.540
 6812SOL    HW121335   3.193   4.327   5.451
 6812SOL    HW221336   3.196   4.348   5.613
 6813SOL     OW21337   0.458   3.959   2.005
 6813SOL    HW121338   0.530   3.930   2.068
 6813SOL    HW221339   0.435   3.883   1.943
 6814SOL     OW21340   4.998   1.679   1.803
 6814SOL    HW121341   4.928   1.748   1.787
 6814SOL    HW221342   4.975   1.625   1.884
 6815SOL     OW21343   0.516   6.229   6.892
 6815SOL    HW121344   0.568   6.151   6.859
 6815SOL    HW221345   0.562   6.270   6.970
 6816SOL     OW21346   6.917   0.059   4.004
 6816SOL    HW121347   6.972   7.002   4.025
 6816SOL    HW221348   6.823   0.031   3.985
 6817SOL     OW21349   5.200   1.069   1.760
 6817SOL    HW121350   5.217   1.100   1.667
 6817SOL    HW221351   5.135   1.131   1.805
 6818SOL     OW21352   0.466   0.472   5.293
 6818SOL    HW121353   0.508   0.531   5.363
 6818SOL    HW221354   0.419   0.396   5.337
 6819SOL     OW21355   5.435   4.022   1.385
 6819SOL    HW121356   5.383   3.953   1.435
 6819SOL    HW221357   5.372   4.086   1.340
 6820SOL     OW21358   2.581   4.145   1.335
 6820SOL    HW121359   2.651   4.107   1.396
 6820SOL    HW221360   2.571   4.243   1.354
 6821SOL     OW21361   3.074   3.081   5.986
 6821SOL    HW121362   3.000   3.060   6.050
 6821SOL    HW221363   3.044   3.062   5.893
 6822SOL     OW21364   6.092   3.932   5.374
 6822SOL    HW121365   6.131   3.902   5.287
 6822SOL    HW221366   6.163   3.932   5.444
 6823SOL     OW21367   6.774   3.119   5.591
 6823SOL    HW121368   6.799   3.209   5.557
 6823SOL    HW221369   6.759   3.057   5.514
 6824SOL     OW21370   0.996   0.832   4.120
 6824SOL    HW121371   0.913   0.864   4.075
 6824SOL    HW221372   0.977   0.815   4.217
 6825SOL     OW21373   4.310   4.515   1.485
 6825SOL    HW121374   4.336   4.549   1.394
 6825SOL    HW221375   4.367   4.436   1.508
 6826SOL     OW21376   5.508   0.654   3.517
 6826SOL    HW121377   5.473   0.602   3.595
 6826SOL    HW221378   5.451   0.734   3.501
 6827SOL     OW21379   4.865   5.693   5.787
 6827SOL    HW121380   4.785   5.706   5.728
 6827SOL    HW221381   4.839   5.711   5.882
 6828SOL     OW21382   2.704   2.378   2.613
 6828SOL    HW121383   2.779   2.339   2.668
 6828SOL    HW221384   2.743   2.430   2.536
 6829SOL     OW21385   5.399   6.348   4.522
 6829SOL    HW121386   5.319   6.307   4.566
 6829SOL    HW221387   5.373   6.377   4.430
 6830SOL     OW21388   3.831   6.007   2.389
 6830SOL    HW121389   3.911   5.946   2.389
 6830SOL    HW221390   3.770   5.980   2.315
 6831SOL     OW21391   1.558   1.068   6.748
 6831SOL    HW121392   1.496   1.050   6.824
 6831SOL    HW221393   1.514   1.039   6.662
 6832SOL     OW21394   2.838   3.048   0.129
 6832SOL    HW121395   2.874   3.082   0.216
 6832SOL    HW221396   2.892   2.969   0.099
 6833SOL     OW21397   4.831   4.853   6.794
 6833SOL    HW121398   4.781   4.919   6.851
 6833SOL    HW221399   4.793   4.853   6.702
 6834SOL     OW21400   5.779   5.513   5.368
 6834SOL    HW121401   5.772   5.414   5.360
 6834SOL    HW221402   5.876   5.540   5.365
 6835SOL     OW21403   3.817   0.297   3.028
 6835SOL    HW121404   3.814   0.212   3.081
 6835SOL    HW221405   3.764   0.367   3.075
 6836SOL     OW21406   0.721   4.557   0.015
 6836SOL    HW121407   0.683   4.485   0.074
 6836SOL    HW221408   0.819   4.541   0.003
 6837SOL     OW21409   6.434   1.459   1.483
 6837SOL    HW121410   6.354   1.428   1.534
 6837SOL    HW221411   6.517   1.436   1.534
 6838SOL     OW21412   3.079   4.035   5.639
 6838SOL    HW121413   3.034   3.959   5.592
 6838SOL    HW221414   3.124   4.094   5.571
 6839SOL     OW21415   5.747   2.514   5.781
 6839SOL    HW121416   5.774   2.604   5.745
 6839SOL    HW221417   5.828   2.464   5.810
 6840SOL     OW21418   3.326   6.530   4.575
 6840SOL    HW121419   3.298   6.618   4.537
 6840SOL    HW221420   3.267   6.458   4.539
 6841SOL     OW21421   4.496   6.917   0.465
 6841SOL    HW121422   4.583   6.938   0.510
 6841SOL    HW221423   4.429   6.988   0.486
 6842SOL     OW21424   0.773   3.448   3.225
 6842SOL    HW121425   0.694   3.457   3.164
 6842SOL    HW221426   0.851   3.496   3.186
 6843SOL     OW21427   4.781   2.801   2.169
 6843SOL    HW121428   4.737   2.875   2.117
 6843SOL    HW221429   4.779   2.823   2.267
 6844SOL     OW21430   3.884   0.115   4.782
 6844SOL    HW121431   3.849   0.075   4.698
 6844SOL    HW221432   3.811   0.118   4.850
 6845SOL     OW21433   3.981   4.088   0.243
 6845SOL    HW121434   3.933   4.046   0.167
 6845SOL    HW221435   3.914   4.125   0.308
 6846SOL     OW21436   4.038   3.724   3.392
 6846SOL    HW121437   4.014   3.801   3.451
 6846SOL    HW221438   4.071   3.648   3.448
 6847SOL     OW21439   6.064   2.910   2.514
 6847SOL    HW121440   5.976   2.911   2.561
 6847SOL    HW221441   6.122   2.838   2.552
 6848SOL     OW21442   0.583   6.037   4.649
 6848SOL    HW121443   0.536   5.951   4.630
 6848SOL    HW221444   0.653   6.022   4.719
 6849SOL     OW21445   3.453   0.308   5.279
 6849SOL    HW121446   3.510   0.317   5.360
 6849SOL    HW221447   3.371   0.366   5.290
 6850SOL     OW21448   6.213   3.889   1.626
 6850SOL    HW121449   6.131   3.835   1.648
 6850SOL    HW221450   6.185   3.981   1.598
 6851SOL     OW21451   1.166   5.863   6.278
 6851SOL    HW121452   1.256   5.874   6.235
 6851SOL    HW221453   1.176   5.816   6.365
 6852SOL     OW21454   6.446   5.411   2.169
 6852SOL    HW121455   6.480   5.459   2.088
 6852SOL    HW221456   6.473   5.315   2.164
 6853SOL     OW21457   6.287   4.369   4.692
 6853SOL    HW121458   6.260   4.373   4.788
 6853SOL    HW221459   6.335   4.453   4.666
 6854SOL     OW21460   6.522   1.841   6.562
 6854SOL    HW121461   6.532   1.829   6.661
 6854SOL    HW221462   6.611   1.832   6.518
 6855SOL     OW21463   3.177   6.414   2.595
 6855SOL    HW121464   3.082   6.446   2.600
 6855SOL    HW221465   3.235   6.486   2.555
 6856SOL     OW21466   0.382   5.370   5.597
 6856SOL    HW121467   0.359   5.276   5.572
 6856SOL    HW221468   0.318   5.402   5.667
 6857SOL     OW21469   4.556   1.385   6.871
 6857SOL    HW121470   4.510   1.453   6.814
 6857SOL    HW221471   4.488   1.331   6.921
 6858SOL     OW21472   3.580   3.279   6.765
 6858SOL    HW121473   3.588   3.227   6.851
 6858SOL    HW221474   3.488   3.265   6.727
 6859SOL     OW21475   3.434   0.786   0.652
 6859SOL    HW121476   3.424   0.830   0.741
 6859SOL    HW221477   3.396   0.846   0.581
 6860SOL     OW21478   4.484   3.691   0.059
 6860SOL    HW121479   4.558   3.660   0.118
 6860SOL    HW221480   4.443   3.773   0.097
 6861SOL     OW21481   5.850   3.803   0.990
 6861SOL    HW121482   5.845   3.806   0.891
 6861SOL    HW221483   5.811   3.718   1.024
 6862SOL     OW21484   2.898   5.647   3.830
 6862SOL    HW121485   2.825   5.621   3.892
 6862SOL    HW221486   2.867   5.638   3.735
 6863SOL     OW21487   1.228   2.847   3.419
 6863SOL    HW121488   1.233   2.930   3.365
 6863SOL    HW221489   1.296   2.851   3.493
 6864SOL     OW21490   3.834   5.599   6.472
 6864SOL    HW121491   3.929   5.625   6.485
 6864SOL    HW221492   3.826   5.500   6.469
 6865SOL     OW21493   0.219   3.708   4.412
 6865SOL    HW121494   0.273   3.644   4.357
 6865SOL    HW221495   0.173   3.773   4.351
 6866SOL     OW21496   1.066   3.255   2.382
 6866SOL    HW121497   1.121   3.338   2.390
 6866SOL    HW221498   1.078   3.200   2.465
 6867SOL     OW21499   2.237   5.137   2.937
 6867SOL    HW121500   2.300   5.117   3.012
 6867SOL    HW221501   2.265   5.221   2.891
 6868SOL     OW21502   2.089   5.565   4.711
 6868SOL    HW121503   2.042   5.653   4.699
 6868SOL    HW221504   2.188   5.580   4.704
 6869SOL     OW21505   0.065   3.426   4.923
 6869SOL    HW121506   0.037   3.430   5.019
 6869SOL    HW221507   0.037   3.510   4.876
 6870SOL     OW21508   5.872   3.330   2.663
 6870SOL    HW121509   5.888   3.273   2.744
 6870SOL    HW221510   5.781   3.312   2.626
 6871SOL     OW21511   4.931   6.102   1.944
 6871SOL    HW121512   4.881   6.128   2.027
 6871SOL    HW221513   4.945   6.003   1.943
 6872SOL     OW21514   3.535   3.733   0.478
 6872SOL    HW121515   3.445   3.773   0.495
 6872SOL    HW221516   3.525   3.645   0.432
 6873SOL     OW21517   5.523   4.435   5.038
 6873SOL    HW121518   5.553   4.465   4.948
 6873SOL    HW221519   5.508   4.336   5.038
 6874SOL     OW21520   1.261   1.941   5.878
 6874SOL    HW121521   1.221   1.975   5.964
 6874SOL    HW221522   1.342   1.996   5.855
 6875SOL     OW21523   4.087   1.534   4.247
 6875SOL    HW121524   3.997   1.492   4.263
 6875SOL    HW221525   4.117   1.514   4.154
 6876SOL     OW21526   3.652   5.903   4.591
 6876SOL    HW121527   3.706   5.966   4.533
 6876SOL    HW221528   3.713   5.859   4.657
 6877SOL     OW21529   1.897   3.566   5.909
 6877SOL    HW121530   1.972   3.625   5.879
 6877SOL    HW221531   1.916   3.533   6.002
 6878SOL     OW21532   1.420   2.049   4.057
 6878SOL    HW121533   1.342   2.029   4.116
 6878SOL    HW221534   1.401   2.131   4.002
 6879SOL     OW21535   0.151   0.944   5.376
 6879SOL    HW121536   0.165   0.951   5.475
 6879SOL    HW221537   0.209   0.870   5.340
 6880SOL     OW21538   2.118   3.558   4.509
 6880SOL    HW121539   2.126   3.657   4.521
 6880SOL    HW221540   2.089   3.537   4.416
 6881SOL     OW21541   5.869   6.008   1.403
 6881SOL    HW121542   5.814   5.951   1.341
 6881SOL    HW221543   5.864   5.971   1.495
 6882SOL     OW21544   2.237   6.318   5.486
 6882SOL    HW121545   2.191   6.406   5.489
 6882SOL    HW221546   2.278   6.304   5.396
 6883SOL     OW21547   3.154   6.123   1.724
 6883SOL    HW121548   3.093   6.173   1.785
 6883SOL    HW221549   3.144   6.157   1.630
 6884SOL     OW21550   2.258   5.231   2.598
 6884SOL    HW121551   2.319   5.218   2.519
 6884SOL    HW221552   2.181   5.168   2.592
 6885SOL     OW21553   4.004   5.563   4.891
 6885SOL    HW121554   4.039   5.634   4.952
 6885SOL    HW221555   4.069   5.486   4.888
 6886SOL     OW21556   5.411   1.455   2.234
 6886SOL    HW121557   5.499   1.502   2.239
 6886SOL    HW221558   5.426   1.356   2.240
 6887SOL     OW21559   5.342   0.549   5.323
 6887SOL    HW121560   5.433   0.507   5.328
 6887SOL    HW221561   5.273   0.478   5.311
 6888SOL     OW21562   6.420   7.014   4.708
 6888SOL    HW121563   6.482   6.944   4.673
 6888SOL    HW221564   6.361   0.022   4.634
 6889SOL     OW21565   1.580   4.867   5.924
 6889SOL    HW121566   1.600   4.811   6.004
 6889SOL    HW221567   1.544   4.809   5.851
 6890SOL     OW21568   1.937   0.214   0.897
 6890SOL    HW121569   1.846   0.252   0.880
 6890SOL    HW221570   1.936   0.161   0.981
 6891SOL     OW21571   3.297   5.353   5.338
 6891SOL    HW121572   3.321   5.428   5.275
 6891SOL    HW221573   3.334   5.373   5.429
 6892SOL     OW21574   3.149   1.471   4.749
 6892SOL    HW121575   3.179   1.559   4.785
 6892SOL    HW221576   3.058   1.449   4.785
 6893SOL     OW21577   5.610   0.795   1.780
 6893SOL    HW121578   5.522   0.760   1.812
 6893SOL    HW221579   5.596   0.860   1.707
 6894SOL     OW21580   6.062   4.987   6.751
 6894SOL    HW121581   5.965   5.001   6.732
 6894SOL    HW221582   6.102   4.926   6.683
 6895SOL     OW21583   4.194   5.511   6.457
 6895SOL    HW121584   4.196   5.609   6.438
 6895SOL    HW221585   4.182   5.462   6.371
 6896SOL     OW21586   4.659   0.757   2.684
 6896SOL    HW121587   4.672   0.750   2.585
 6896SOL    HW221588   4.583   0.819   2.704
 6897SOL     OW21589   3.704   0.879   0.895
 6897SOL    HW121590   3.792   0.852   0.854
 6897SOL    HW221591   3.715   0.887   0.994
 6898SOL     OW21592   3.755   1.407   2.669
 6898SOL    HW121593   3.770   1.375   2.576
 6898SOL    HW221594   3.834   1.459   2.701
 6899SOL     OW21595   5.981   6.259   6.350
 6899SOL    HW121596   5.958   6.165   6.372
 6899SOL    HW221597   6.020   6.263   6.257
 6900SOL     OW21598   4.263   1.839   6.485
 6900SOL    HW121599   4.271   1.740   6.482
 6900SOL    HW221600   4.231   1.868   6.575
 6901SOL     OW21601   1.392   1.106   0.550
 6901SOL    HW121602   1.400   1.022   0.498
 6901SOL    HW221603   1.295   1.130   0.561
 6902SOL     OW21604   6.206   5.732   2.070
 6902SOL    HW121605   6.130   5.736   2.006
 6902SOL    HW221606   6.282   5.682   2.028
 6903SOL     OW21607   4.528   4.301   0.535
 6903SOL    HW121608   4.626   4.315   0.517
 6903SOL    HW221609   4.488   4.250   0.460
 6904SOL     OW21610   0.702   1.451   2.919
 6904SOL    HW121611   0.795   1.473   2.893
 6904SOL    HW221612   0.688   1.352   2.915
 6905SOL     OW21613   3.824   5.736   1.342
 6905SOL    HW121614   3.878   5.699   1.266
 6905SOL    HW221615   3.872   5.814   1.382
 6906SOL     OW21616   6.125   6.455   3.167
 6906SOL    HW121617   6.083   6.486   3.252
 6906SOL    HW221618   6.066   6.479   3.090
 6907SOL     OW21619   3.352   0.938   1.230
 6907SOL    HW121620   3.322   0.989   1.311
 6907SOL    HW221621   3.292   0.859   1.217
 6908SOL     OW21622   6.002   0.048   6.744
 6908SOL    HW121623   5.951   7.016   6.679
 6908SOL    HW221624   5.945   0.123   6.777
 6909SOL     OW21625   2.822   2.681   6.663
 6909SOL    HW121626   2.858   2.588   6.674
 6909SOL    HW221627   2.857   2.739   6.736
 6910SOL     OW21628   5.513   0.898   1.536
 6910SOL    HW121629   5.526   0.997   1.531
 6910SOL    HW221630   5.416   0.876   1.526
 6911SOL     OW21631   4.091   0.526   5.252
 6911SOL    HW121632   4.178   0.504   5.207
 6911SOL    HW221633   4.085   0.625   5.264
 6912SOL     OW21634   4.215   4.649   1.872
 6912SOL    HW121635   4.271   4.609   1.944
 6912SOL    HW221636   4.177   4.575   1.815
 6913SOL     OW21637   4.368   5.714   5.565
 6913SOL    HW121638   4.455   5.690   5.607
 6913SOL    HW221639   4.296   5.656   5.603
 6914SOL     OW21640   5.930   5.251   0.121
 6914SOL    HW121641   6.024   5.257   0.157
 6914SOL    HW221642   5.917   5.320   0.050
 6915SOL     OW21643   1.169   5.656   1.057
 6915SOL    HW121644   1.172   5.592   1.134
 6915SOL    HW221645   1.134   5.608   0.976
 6916SOL     OW21646   6.096   0.538   5.493
 6916SOL    HW121647   6.193   0.542   5.468
 6916SOL    HW221648   6.046   0.609   5.443
 6917SOL     OW21649   4.467   0.364   7.022
 6917SOL    HW121650   4.478   0.335   0.093
 6917SOL    HW221651   4.380   0.328   6.987
 6918SOL     OW21652   2.292   2.908   3.793
 6918SOL    HW121653   2.214   2.858   3.831
 6918SOL    HW221654   2.327   2.972   3.862
 6919SOL     OW21655   0.846   6.779   3.761
 6919SOL    HW121656   0.773   6.844   3.781
 6919SOL    HW221657   0.853   6.713   3.836
 6920SOL     OW21658   5.121   6.003   4.645
 6920SOL    HW121659   5.214   5.982   4.673
 6920SOL    HW221660   5.119   6.091   4.597
 6921SOL     OW21661   1.042   6.125   4.010
 6921SOL    HW121662   0.996   6.108   3.923
 6921SOL    HW221663   1.012   6.212   4.047
 6922SOL     OW21664   1.876   6.538   0.778
 6922SOL    HW121665   1.858   6.501   0.869
 6922SOL    HW221666   1.974   6.560   0.770
 6923SOL     OW21667   4.948   6.076   4.073
 6923SOL    HW121668   4.998   6.083   4.159
 6923SOL    HW221669   4.933   6.167   4.036
 6924SOL     OW21670   6.752   5.972   1.395
 6924SOL    HW121671   6.839   5.946   1.354
 6924SOL    HW221672   6.681   5.907   1.367
 6925SOL     OW21673   5.697   5.734   2.776
 6925SOL    HW121674   5.721   5.661   2.712
 6925SOL    HW221675   5.659   5.694   2.859
 6926SOL     OW21676   2.731   4.424   5.609
 6926SOL    HW121677   2.804   4.411   5.541
 6926SOL    HW221678   2.752   4.371   5.691
 6927SOL     OW21679   4.089   3.217   0.781
 6927SOL    HW121680   4.028   3.192   0.857
 6927SOL    HW221681   4.182   3.189   0.803
 6928SOL     OW21682   6.673   0.510   6.239
 6928SOL    HW121683   6.664   0.578   6.311
 6928SOL    HW221684   6.717   0.428   6.275
 6929SOL     OW21685   3.019   4.685   1.381
 6929SOL    HW121686   3.057   4.664   1.471
 6929SOL    HW221687   2.983   4.778   1.381
 6930SOL     OW21688   0.908   0.657   2.979
 6930SOL    HW121689   1.003   0.675   3.005
 6930SOL    HW221690   0.900   0.657   2.879
 6931SOL     OW21691   2.023   0.059   0.294
 6931SOL    HW121692   1.992   0.152   0.312
 6931SOL    HW221693   2.081   0.027   0.369
 6932SOL     OW21694   2.715   2.454   6.954
 6932SOL    HW121695   2.777   2.376   6.962
 6932SOL    HW221696   2.681   2.479   0.021
 6933SOL     OW21697   2.413   6.066   5.696
 6933SOL    HW121698   2.341   6.086   5.763
 6933SOL    HW221699   2.372   6.029   5.613
 6934SOL     OW21700   5.557   4.763   6.032
 6934SOL    HW121701   5.555   4.863   6.033
 6934SOL    HW221702   5.570   4.729   6.125
 6935SOL     OW21703   4.444   5.947   3.580
 6935SOL    HW121704   4.497   5.960   3.664
 6935SOL    HW221705   4.393   5.861   3.585
 6936SOL     OW21706   0.979   4.886   0.502
 6936SOL    HW121707   0.923   4.844   0.574
 6936SOL    HW221708   0.962   4.984   0.500
 6937SOL     OW21709   4.458   6.275   5.371
 6937SOL    HW121710   4.495   6.234   5.454
 6937SOL    HW221711   4.422   6.203   5.311
 6938SOL     OW21712   5.517   2.540   5.416
 6938SOL    HW121713   5.617   2.540   5.421
 6938SOL    HW221714   5.479   2.526   5.507
 6939SOL     OW21715   6.826   4.574   1.949
 6939SOL    HW121716   6.779   4.504   1.895
 6939SOL    HW221717   6.864   4.533   2.031
 6940SOL     OW21718   4.292   0.683   4.573
 6940SOL    HW121719   4.231   0.729   4.637
 6940SOL    HW221720   4.387   0.697   4.601
 6941SOL     OW21721   4.112   3.474   4.308
 6941SOL    HW121722   4.123   3.396   4.370
 6941SOL    HW221723   4.128   3.443   4.214
 6942SOL     OW21724   6.581   1.491   6.837
 6942SOL    HW121725   6.662   1.519   6.888
 6942SOL    HW221726   6.569   1.392   6.845
 6943SOL     OW21727   6.393   6.057   0.216
 6943SOL    HW121728   6.481   6.093   0.247
 6943SOL    HW221729   6.339   6.028   0.296
 6944SOL     OW21730   1.557   6.295   6.658
 6944SOL    HW121731   1.514   6.375   6.617
 6944SOL    HW221732   1.489   6.242   6.709
 6945SOL     OW21733   4.435   2.039   5.571
 6945SOL    HW121734   4.422   1.990   5.657
 6945SOL    HW221735   4.533   2.043   5.549
 6946SOL     OW21736   5.952   3.572   3.498
 6946SOL    HW121737   5.930   3.477   3.474
 6946SOL    HW221738   5.914   3.592   3.589
 6947SOL     OW21739   3.354   6.968   1.672
 6947SOL    HW121740   3.446   7.007   1.682
 6947SOL    HW221741   3.336   6.907   1.749
 6948SOL     OW21742   3.749   2.224   5.286
 6948SOL    HW121743   3.769   2.209   5.189
 6948SOL    HW221744   3.815   2.287   5.325
 6949SOL     OW21745   4.734   1.032   2.305
 6949SOL    HW121746   4.746   1.041   2.404
 6949SOL    HW221747   4.757   1.119   2.261
 6950SOL     OW21748   2.772   2.032   3.606
 6950SOL    HW121749   2.695   2.095   3.591
 6950SOL    HW221750   2.851   2.084   3.639
 6951SOL     OW21751   4.518   5.062   5.365
 6951SOL    HW121752   4.453   4.998   5.323
 6951SOL    HW221753   4.603   5.014   5.385
 6952SOL     OW21754   0.149   4.894   5.325
 6952SOL    HW121755   0.159   4.798   5.300
 6952SOL    HW221756   0.141   4.903   5.424
 6953SOL     OW21757   5.218   2.786   5.385
 6953SOL    HW121758   5.187   2.746   5.471
 6953SOL    HW221759   5.206   2.720   5.311
 6954SOL     OW21760   0.694   4.556   2.236
 6954SOL    HW121761   0.679   4.463   2.267
 6954SOL    HW221762   0.762   4.601   2.294
 6955SOL     OW21763   6.668   6.982   2.584
 6955SOL    HW121764   6.642   6.889   2.557
 6955SOL    HW221765   6.678   0.015   2.503
 6956SOL     OW21766   2.599   4.202   0.914
 6956SOL    HW121767   2.580   4.293   0.952
 6956SOL    HW221768   2.665   4.155   0.973
 6957SOL     OW21769   1.114   3.547   0.106
 6957SOL    HW121770   1.103   3.448   0.095
 6957SOL    HW221771   1.157   3.586   0.025
 6958SOL     OW21772   2.245   3.437   6.394
 6958SOL    HW121773   2.218   3.397   6.482
 6958SOL    HW221774   2.313   3.508   6.409
 6959SOL     OW21775   3.736   1.292   3.810
 6959SOL    HW121776   3.667   1.232   3.851
 6959SOL    HW221777   3.749   1.268   3.714
 6960SOL     OW21778   0.730   4.878   0.144
 6960SOL    HW121779   0.680   4.936   0.208
 6960SOL    HW221780   0.674   4.862   0.063
 6961SOL     OW21781   6.843   1.416   2.985
 6961SOL    HW121782   6.913   1.442   2.918
 6961SOL    HW221783   6.887   1.375   3.065
 6962SOL     OW21784   3.681   3.401   0.702
 6962SOL    HW121785   3.612   3.409   0.774
 6962SOL    HW221786   3.717   3.308   0.700
 6963SOL     OW21787   6.231   6.120   2.050
 6963SOL    HW121788   6.181   6.072   2.123
 6963SOL    HW221789   6.183   6.110   1.964
 6964SOL     OW21790   3.741   5.859   5.364
 6964SOL    HW121791   3.662   5.913   5.336
 6964SOL    HW221792   3.771   5.801   5.288
 6965SOL     OW21793   6.050   1.718   5.700
 6965SOL    HW121794   5.953   1.721   5.675
 6965SOL    HW221795   6.101   1.671   5.628
 6966SOL     OW21796   5.255   2.975   4.273
 6966SOL    HW121797   5.235   3.067   4.306
 6966SOL    HW221798   5.211   2.961   4.184
 6967SOL     OW21799   2.415   1.957   5.943
 6967SOL    HW121800   2.507   1.930   5.913
 6967SOL    HW221801   2.386   2.037   5.890
 6968SOL     OW21802   4.251   0.106   3.612
 6968SOL    HW121803   4.270   0.124   3.515
 6968SOL    HW221804   4.319   0.154   3.668
 6969SOL     OW21805   2.989   2.445   1.440
 6969SOL    HW121806   2.914   2.480   1.384
 6969SOL    HW221807   3.059   2.516   1.450
 6970SOL     OW21808   4.413   4.290   0.790
 6970SOL    HW121809   4.374   4.200   0.812
 6970SOL    HW221810   4.461   4.284   0.702
 6971SOL     OW21811   6.037   1.206   2.169
 6971SOL    HW121812   6.056   1.303   2.154
 6971SOL    HW221813   6.044   1.157   2.082
 6972SOL     OW21814   5.546   5.041   4.867
 6972SOL    HW121815   5.463   5.076   4.823
 6972SOL    HW221816   5.565   4.948   4.834
 6973SOL     OW21817   1.796   3.829   3.202
 6973SOL    HW121818   1.746   3.913   3.179
 6973SOL    HW221819   1.802   3.820   3.301
 6974SOL     OW21820   3.401   3.696   4.781
 6974SOL    HW121821   3.348   3.720   4.862
 6974SOL    HW221822   3.381   3.761   4.708
 6975SOL     OW21823   2.879   0.623   5.802
 6975SOL    HW121824   2.912   0.545   5.748
 6975SOL    HW221825   2.919   0.707   5.767
 6976SOL     OW21826   1.121   6.320   0.446
 6976SOL    HW121827   1.033   6.311   0.493
 6976SOL    HW221828   1.186   6.254   0.484
 6977SOL     OW21829   4.682   2.620   2.526
 6977SOL    HW121830   4.641   2.535   2.560
 6977SOL    HW221831   4.772   2.601   2.488
 6978SOL     OW21832   4.813   1.276   3.118
 6978SOL    HW121833   4.881   1.315   3.179
 6978SOL    HW221834   4.732   1.334   3.118
 6979SOL     OW21835   0.362   4.979   3.830
 6979SOL    HW121836   0.454   4.941   3.843
 6979SOL    HW221837   0.321   4.939   3.748
 6980SOL     OW21838   4.413   1.141   4.515
 6980SOL    HW121839   4.344   1.209   4.492
 6980SOL    HW221840   4.485   1.141   4.445
 6981SOL     OW21841   3.211   4.090   0.125
 6981SOL    HW121842   3.148   4.036   0.181
 6981SOL    HW221843   3.195   4.188   0.142
 6982SOL     OW21844   0.806   0.176   4.575
 6982SOL    HW121845   0.806   0.198   4.673
 6982SOL    HW221846   0.753   0.245   4.526
 6983SOL     OW21847   6.820   0.419   3.075
 6983SOL    HW121848   6.901   0.477   3.068
 6983SOL    HW221849   6.782   0.404   2.984
 6984SOL     OW21850   2.303   0.850   5.387
 6984SOL    HW121851   2.255   0.827   5.472
 6984SOL    HW221852   2.315   0.768   5.332
 6985SOL     OW21853   5.424   6.923   3.602
 6985SOL    HW121854   5.390   6.830   3.589
 6985SOL    HW221855   5.390   6.981   3.528
 6986SOL     OW21856   1.641   6.873   5.003
 6986SOL    HW121857   1.554   6.823   4.997
 6986SOL    HW221858   1.622   6.968   5.026
 6987SOL     OW21859   6.531   3.503   6.434
 6987SOL    HW121860   6.600   3.522   6.504
 6987SOL    HW221861   6.443   3.487   6.478
 6988SOL     OW21862   5.437   1.378   5.829
 6988SOL    HW121863   5.385   1.420   5.904
 6988SOL    HW221864   5.381   1.307   5.786
 6989SOL     OW21865   1.850   3.438   3.499
 6989SOL    HW121866   1.909   3.377   3.551
 6989SOL    HW221867   1.893   3.528   3.493
 6990SOL     OW21868   3.974   3.487   0.812
 6990SOL    HW121869   4.008   3.395   0.790
 6990SOL    HW221870   3.922   3.523   0.734
 6991SOL     OW21871   4.481   4.662   5.415
 6991SOL    HW121872   4.523   4.580   5.453
 6991SOL    HW221873   4.401   4.687   5.471
 6992SOL     OW21874   6.175   6.898   4.757
 6992SOL    HW121875   6.266   6.939   4.758
 6992SOL    HW221876   6.178   6.812   4.705
 6993SOL     OW21877   0.247   6.332   3.724
 6993SOL    HW121878   0.274   6.254   3.668
 6993SOL    HW221879   0.212   6.405   3.665
 6994SOL     OW21880   1.251   3.258   0.392
 6994SOL    HW121881   1.249   3.210   0.304
 6994SOL    HW221882   1.179   3.221   0.451
 6995SOL     OW21883   1.335   5.246   3.637
 6995SOL    HW121884   1.293   5.163   3.600
 6995SOL    HW221885   1.412   5.221   3.696
 6996SOL     OW21886   2.007   6.769   6.558
 6996SOL    HW121887   1.989   6.769   6.460
 6996SOL    HW221888   1.942   6.708   6.604
 6997SOL     OW21889   4.967   6.532   4.604
 6997SOL    HW121890   4.958   6.575   4.694
 6997SOL    HW221891   4.876   6.519   4.565
 6998SOL     OW21892   2.349   2.005   2.731
 6998SOL    HW121893   2.258   1.976   2.762
 6998SOL    HW221894   2.419   1.957   2.782
 6999SOL     OW21895   5.104   2.240   0.038
 6999SOL    HW121896   5.114   2.255   0.137
 6999SOL    HW221897   5.034   2.170   0.023
 7000SOL     OW21898   6.907   0.327   1.366
 7000SOL    HW121899   6.943   0.410   1.325
 7000SOL    HW221900   6.920   0.330   1.465
 7001SOL     OW21901   2.445   1.436   5.465
 7001SOL    HW121902   2.524   1.394   5.511
 7001SOL    HW221903   2.362   1.388   5.493
 7002SOL     OW21904   2.125   4.625   2.141
 7002SOL    HW121905   2.059   4.613   2.067
 7002SOL    HW221906   2.214   4.590   2.111
 7003SOL     OW21907   1.731   6.275   6.053
 7003SOL    HW121908   1.749   6.177   6.062
 7003SOL    HW221909   1.710   6.297   5.958
 7004SOL     OW21910   1.588   3.819   6.866
 7004SOL    HW121911   1.665   3.807   6.803
 7004SOL    HW221912   1.612   3.782   6.956
 7005SOL     OW21913   6.068   6.789   5.887
 7005SOL    HW121914   6.035   6.867   5.834
 7005SOL    HW221915   6.097   6.716   5.825
 7006SOL     OW21916   4.598   5.191   4.288
 7006SOL    HW121917   4.658   5.116   4.258
 7006SOL    HW221918   4.509   5.154   4.313
 7007SOL     OW21919   4.735   5.075   2.597
 7007SOL    HW121920   4.835   5.087   2.596
 7007SOL    HW221921   4.714   4.978   2.607
 7008SOL     OW21922   1.253   4.652   4.772
 7008SOL    HW121923   1.218   4.687   4.859
 7008SOL    HW221924   1.299   4.565   4.788
 7009SOL     OW21925   0.487   4.446   2.583
 7009SOL    HW121926   0.461   4.524   2.527
 7009SOL    HW221927   0.408   4.415   2.636
 7010SOL     OW21928   4.352   4.767   6.794
 7010SOL    HW121929   4.413   4.773   6.873
 7010SOL    HW221930   4.376   4.687   6.739
 7011SOL     OW21931   1.298   1.247   5.366
 7011SOL    HW121932   1.279   1.335   5.408
 7011SOL    HW221933   1.270   1.173   5.427
 7012SOL     OW21934   1.634   1.543   1.642
 7012SOL    HW121935   1.704   1.574   1.578
 7012SOL    HW221936   1.645   1.591   1.730
 7013SOL     OW21937   0.207   1.582   1.430
 7013SOL    HW121938   0.192   1.497   1.380
 7013SOL    HW221939   0.126   1.640   1.423
 7014SOL     OW21940   2.081   4.878   0.479
 7014SOL    HW121941   2.141   4.820   0.425
 7014SOL    HW221942   1.985   4.861   0.453
 7015SOL     OW21943   5.116   1.765   2.767
 7015SOL    HW121944   5.135   1.699   2.694
 7015SOL    HW221945   5.181   1.841   2.762
 7016SOL     OW21946   4.144   4.465   1.683
 7016SOL    HW121947   4.125   4.367   1.675
 7016SOL    HW221948   4.189   4.498   1.600
 7017SOL     OW21949   4.469   2.103   4.767
 7017SOL    HW121950   4.450   2.046   4.847
 7017SOL    HW221951   4.531   2.176   4.792
 7018SOL     OW21952   0.370   3.385   3.298
 7018SOL    HW121953   0.282   3.337   3.296
 7018SOL    HW221954   0.401   3.402   3.205
 7019SOL     OW21955   1.438   5.619   1.104
 7019SOL    HW121956   1.483   5.677   1.172
 7019SOL    HW221957   1.339   5.636   1.106
 7020SOL     OW21958   0.230   6.283   6.195
 7020SOL    HW121959   0.323   6.319   6.197
 7020SOL    HW221960   0.230   6.187   6.224
 7021SOL     OW21961   3.771   6.884   5.789
 7021SOL    HW121962   3.807   6.805   5.739
 7021SOL    HW221963   3.678   6.865   5.819
 7022SOL     OW21964   4.545   5.216   6.284
 7022SOL    HW121965   4.644   5.216   6.270
 7022SOL    HW221966   4.512   5.310   6.291
 7023SOL     OW21967   5.802   3.902   2.606
 7023SOL    HW121968   5.792   4.001   2.594
 7023SOL    HW221969   5.726   3.867   2.660
 7024SOL     OW21970   6.884   6.209   1.059
 7024SOL    HW121971   6.895   6.110   1.070
 7024SOL    HW221972   6.855   6.249   1.145
 7025SOL     OW21973   2.386   0.305   0.022
 7025SOL    HW121974   2.335   0.221   0.004
 7025SOL    HW221975   2.398   0.317   0.120
 7026SOL     OW21976   3.641   1.263   1.145
 7026SOL    HW121977   3.704   1.303   1.079
 7026SOL    HW221978   3.662   1.297   1.236
 7027SOL     OW21979   4.707   6.330   4.237
 7027SOL    HW121980   4.616   6.315   4.197
 7027SOL    HW221981   4.776   6.334   4.165
 7028SOL     OW21982   3.129   0.167   4.528
 7028SOL    HW121983   3.090   0.089   4.577
 7028SOL    HW221984   3.081   0.250   4.556
 7029SOL     OW21985   4.489   1.414   4.946
 7029SOL    HW121986   4.418   1.475   4.914
 7029SOL    HW221987   4.499   1.337   4.882
 7030SOL     OW21988   2.052   3.324   3.665
 7030SOL    HW121989   2.070   3.225   3.665
 7030SOL    HW221990   2.123   3.371   3.612
 7031SOL     OW21991   1.256   0.784   4.589
 7031SOL    HW121992   1.262   0.704   4.649
 7031SOL    HW221993   1.193   0.764   4.514
 7032SOL     OW21994   5.948   2.043   3.856
 7032SOL    HW121995   5.939   2.134   3.814
 7032SOL    HW221996   5.997   2.051   3.942
 7033SOL     OW21997   0.252   0.246   4.420
 7033SOL    HW121998   0.205   0.189   4.487
 7033SOL    HW221999   0.194   0.325   4.398
 7034SOL     OW22000   0.185   5.333   2.859
 7034SOL    HW122001   0.169   5.389   2.941
 7034SOL    HW222002   0.283   5.320   2.847
 7035SOL     OW22003   6.579   4.961   2.381
 7035SOL    HW122004   6.635   5.043   2.372
 7035SOL    HW222005   6.503   4.965   2.316
 7036SOL     OW22006   6.531   4.796   0.722
 7036SOL    HW122007   6.508   4.738   0.644
 7036SOL    HW222008   6.468   4.873   0.726
 7037SOL     OW22009   0.934   0.664   6.582
 7037SOL    HW122010   0.980   0.749   6.558
 7037SOL    HW222011   0.840   0.666   6.548
 7038SOL     OW22012   2.142   3.200   4.108
 7038SOL    HW122013   2.215   3.235   4.167
 7038SOL    HW222014   2.120   3.106   4.134
 7039SOL     OW22015   3.711   2.542   6.314
 7039SOL    HW122016   3.713   2.497   6.403
 7039SOL    HW222017   3.706   2.641   6.327
 7040SOL     OW22018   5.157   2.581   7.023
 7040SOL    HW122019   5.248   2.538   0.002
 7040SOL    HW222020   5.142   2.632   0.084
 7041SOL     OW22021   2.439   1.276   3.291
 7041SOL    HW122022   2.362   1.228   3.250
 7041SOL    HW222023   2.408   1.322   3.375
 7042SOL     OW22024   1.478   0.524   6.063
 7042SOL    HW122025   1.512   0.568   6.146
 7042SOL    HW222026   1.509   0.575   5.983
 7043SOL     OW22027   1.355   2.599   2.668
 7043SOL    HW122028   1.415   2.533   2.623
 7043SOL    HW222029   1.396   2.629   2.754
 7044SOL     OW22030   5.269   6.211   1.577
 7044SOL    HW122031   5.206   6.201   1.654
 7044SOL    HW222032   5.361   6.182   1.605
 7045SOL     OW22033   6.401   4.978   0.357
 7045SOL    HW122034   6.401   4.891   0.308
 7045SOL    HW222035   6.315   4.986   0.408
 7046SOL     OW22036   2.641   1.444   3.715
 7046SOL    HW122037   2.663   1.404   3.626
 7046SOL    HW222038   2.678   1.386   3.788
 7047SOL     OW22039   1.385   1.055   2.922
 7047SOL    HW122040   1.304   1.089   2.875
 7047SOL    HW222041   1.390   1.093   3.014
 7048SOL     OW22042   7.017   5.664   0.333
 7048SOL    HW122043   6.945   5.599   0.306
 7048SOL    HW222044   7.013   5.679   0.431
 7049SOL     OW22045   1.922   0.775   6.889
 7049SOL    HW122046   1.941   0.848   6.824
 7049SOL    HW222047   1.824   0.768   6.904
 7050SOL     OW22048   4.020   3.899   4.302
 7050SOL    HW122049   4.046   3.822   4.360
 7050SOL    HW222050   3.948   3.952   4.348
 7051SOL     OW22051   6.415   6.516   3.056
 7051SOL    HW122052   6.317   6.497   3.056
 7051SOL    HW222053   6.442   6.556   3.144
 7052SOL     OW22054   0.167   0.856   4.173
 7052SOL    HW122055   0.079   0.894   4.200
 7052SOL    HW222056   0.221   0.927   4.128
 7053SOL     OW22057   6.574   4.392   5.890
 7053SOL    HW122058   6.531   4.461   5.831
 7053SOL    HW222059   6.608   4.436   5.973
 7054SOL     OW22060   6.481   1.463   1.210
 7054SOL    HW122061   6.457   1.441   1.304
 7054SOL    HW222062   6.574   1.499   1.206
 7055SOL     OW22063   4.235   1.353   4.404
 7055SOL    HW122064   4.222   1.428   4.339
 7055SOL    HW222065   4.191   1.271   4.369
 7056SOL     OW22066   4.027   5.243   3.629
 7056SOL    HW122067   3.974   5.306   3.572
 7056SOL    HW222068   4.072   5.175   3.571
 7057SOL     OW22069   6.941   6.203   3.089
 7057SOL    HW122070   6.907   6.295   3.069
 7057SOL    HW222071   0.007   6.191   3.048
 7058SOL     OW22072   0.402   4.258   5.033
 7058SOL    HW122073   0.390   4.203   4.950
 7058SOL    HW222074   0.498   4.286   5.041
 7059SOL     OW22075   1.890   0.542   2.266
 7059SOL    HW122076   1.926   0.450   2.248
 7059SOL    HW222077   1.794   0.536   2.292
 7060SOL     OW22078   2.717   6.966   0.835
 7060SOL    HW122079   2.672   0.007   0.897
 7060SOL    HW222080   2.649   6.903   0.798
 7061SOL     OW22081   0.067   0.823   3.385
 7061SOL    HW122082   0.035   0.733   3.353
 7061SOL    HW222083   0.155   0.812   3.431
 7062SOL     OW22084   0.195   1.423   5.504
 7062SOL    HW122085   0.257   1.440   5.581
 7062SOL    HW222086   0.131   1.498   5.496
 7063SOL     OW22087   2.099   6.887   2.063
 7063SOL    HW122088   2.191   6.924   2.056
 7063SOL    HW222089   2.054   6.892   1.973
 7064SOL     OW22090   4.242   2.419   0.955
 7064SOL    HW122091   4.320   2.465   0.913
 7064SOL    HW222092   4.158   2.470   0.934
 7065SOL     OW22093   3.962   3.626   2.309
 7065SOL    HW122094   3.969   3.719   2.344
 7065SOL    HW222095   4.011   3.620   2.222
 7066SOL     OW22096   2.822   5.680   1.222
 7066SOL    HW122097   2.825   5.726   1.311
 7066SOL    HW222098   2.739   5.707   1.173
 7067SOL     OW22099   0.483   4.175   4.190
 7067SOL    HW122100   0.406   4.217   4.143
 7067SOL    HW222101   0.536   4.121   4.125
 7068SOL     OW22102   1.143   0.417   2.950
 7068SOL    HW122103   1.101   0.419   2.859
 7068SOL    HW222104   1.170   0.510   2.976
 7069SOL     OW22105   1.448   4.612   5.343
 7069SOL    HW122106   1.473   4.702   5.377
 7069SOL    HW222107   1.376   4.574   5.401
 7070SOL     OW22108   5.213   5.612   4.248
 7070SOL    HW122109   5.237   5.661   4.164
 7070SOL    HW222110   5.115   5.620   4.265
 7071SOL     OW22111   1.529   0.409   5.026
 7071SOL    HW122112   1.543   0.501   4.990
 7071SOL    HW222113   1.432   0.393   5.038
 7072SOL     OW22114   0.050   6.935   6.858
 7072SOL    HW122115   0.067   6.873   6.781
 7072SOL    HW222116   6.977   6.960   6.861
 7073SOL     OW22117   1.759   1.728   6.298
 7073SOL    HW122118   1.670   1.701   6.335
 7073SOL    HW222119   1.775   1.825   6.319
 7074SOL     OW22120   2.924   1.184   0.077
 7074SOL    HW122121   2.967   1.093   0.081
 7074SOL    HW222122   2.827   1.176   0.100
 7075SOL     OW22123   1.025   5.495   2.767
 7075SOL    HW122124   0.981   5.569   2.717
 7075SOL    HW222125   1.020   5.411   2.714
 7076SOL     OW22126   3.669   1.930   6.410
 7076SOL    HW122127   3.647   1.833   6.420
 7076SOL    HW222128   3.759   1.948   6.452
 7077SOL     OW22129   2.023   4.966   6.235
 7077SOL    HW122130   1.961   5.044   6.229
 7077SOL    HW222131   2.080   4.976   6.317
 7078SOL     OW22132   6.606   0.687   2.901
 7078SOL    HW122133   6.599   0.766   2.962
 7078SOL    HW222134   6.689   0.695   2.846
 7079SOL     OW22135   5.100   5.813   5.728
 7079SOL    HW122136   5.084   5.910   5.707
 7079SOL    HW222137   5.013   5.769   5.750
 7080SOL     OW22138   5.883   6.869   4.267
 7080SOL    HW122139   5.834   6.785   4.245
 7080SOL    HW222140   5.977   6.863   4.232
 7081SOL     OW22141   4.333   1.181   5.739
 7081SOL    HW122142   4.356   1.278   5.749
 7081SOL    HW222143   4.395   1.139   5.672
 7082SOL     OW22144   5.115   1.360   6.274
 7082SOL    HW122145   5.064   1.274   6.280
 7082SOL    HW222146   5.198   1.345   6.220
 7083SOL     OW22147   3.130   0.029   5.955
 7083SOL    HW122148   3.216   0.079   5.952
 7083SOL    HW222149   3.096   0.016   5.862
 7084SOL     OW22150   6.642   6.241   0.262
 7084SOL    HW122151   6.588   6.326   0.261
 7084SOL    HW222152   6.739   6.263   0.253
 7085SOL     OW22153   3.561   1.460   0.804
 7085SOL    HW122154   3.467   1.455   0.838
 7085SOL    HW222155   3.618   1.393   0.852
 7086SOL     OW22156   0.574   1.356   5.948
 7086SOL    HW122157   0.540   1.339   6.041
 7086SOL    HW222158   0.659   1.305   5.934
 7087SOL     OW22159   2.374   2.766   4.642
 7087SOL    HW122160   2.421   2.823   4.575
 7087SOL    HW222161   2.332   2.825   4.712
 7088SOL     OW22162   0.634   1.902   5.558
 7088SOL    HW122163   0.701   1.925   5.628
 7088SOL    HW222164   0.627   1.977   5.492
 7089SOL     OW22165   2.751   1.557   1.596
 7089SOL    HW122166   2.832   1.523   1.643
 7089SOL    HW222167   2.776   1.587   1.504
 7090SOL     OW22168   2.552   2.452   4.538
 7090SOL    HW122169   2.455   2.425   4.543
 7090SOL    HW222170   2.558   2.551   4.527
 7091SOL     OW22171   6.739   6.460   0.882
 7091SOL    HW122172   6.825   6.420   0.914
 7091SOL    HW222173   6.754   6.509   0.797
 7092SOL     OW22174   2.935   2.808   0.062
 7092SOL    HW122175   2.985   2.722   0.052
 7092SOL    HW222176   2.836   2.790   0.059
 7093SOL     OW22177   4.260   3.325   5.930
 7093SOL    HW122178   4.292   3.321   5.836
 7093SOL    HW222179   4.174   3.376   5.934
 7094SOL     OW22180   6.621   0.717   6.407
 7094SOL    HW122181   6.675   0.796   6.436
 7094SOL    HW222182   6.548   0.748   6.345
 7095SOL     OW22183   0.723   4.350   6.776
 7095SOL    HW122184   0.721   4.416   6.852
 7095SOL    HW222185   0.653   4.280   6.791
 7096SOL     OW22186   4.946   0.408   2.777
 7096SOL    HW122187   5.025   0.469   2.789
 7096SOL    HW222188   4.862   0.460   2.791
 7097SOL     OW22189   1.713   0.775   1.804
 7097SOL    HW122190   1.618   0.797   1.826
 7097SOL    HW222191   1.734   0.810   1.712
 7098SOL     OW22192   1.556   0.193   5.939
 7098SOL    HW122193   1.583   0.104   5.975
 7098SOL    HW222194   1.520   0.182   5.846
 7099SOL     OW22195   0.347   1.432   5.757
 7099SOL    HW122196   0.368   1.526   5.729
 7099SOL    HW222197   0.424   1.395   5.809
 7100SOL     OW22198   5.408   2.184   1.154
 7100SOL    HW122199   5.439   2.244   1.080
 7100SOL    HW222200   5.465   2.198   1.235
 7101SOL     OW22201   1.403   0.914   4.079
 7101SOL    HW122202   1.380   0.830   4.127
 7101SOL    HW222203   1.332   0.982   4.094
 7102SOL     OW22204   5.477   3.339   1.064
 7102SOL    HW122205   5.547   3.390   1.114
 7102SOL    HW222206   5.387   3.379   1.082
 7103SOL     OW22207   2.513   6.683   6.335
 7103SOL    HW122208   2.551   6.735   6.259
 7103SOL    HW222209   2.460   6.744   6.394
 7104SOL     OW22210   0.593   2.330   1.424
 7104SOL    HW122211   0.553   2.398   1.484
 7104SOL    HW222212   0.596   2.242   1.471
 7105SOL     OW22213   2.330   4.156   5.329
 7105SOL    HW122214   2.417   4.198   5.355
 7105SOL    HW222215   2.347   4.081   5.264
 7106SOL     OW22216   3.205   2.605   5.359
 7106SOL    HW122217   3.242   2.682   5.307
 7106SOL    HW222218   3.142   2.553   5.302
 7107SOL     OW22219   2.279   0.675   6.812
 7107SOL    HW122220   2.226   0.733   6.751
 7107SOL    HW222221   2.220   0.641   6.885
 7108SOL     OW22222   4.498   6.315   1.964
 7108SOL    HW122223   4.578   6.288   1.910
 7108SOL    HW222224   4.513   6.291   2.060
 7109SOL     OW22225   3.548   6.463   6.529
 7109SOL    HW122226   3.545   6.529   6.604
 7109SOL    HW222227   3.481   6.391   6.545
 7110SOL     OW22228   3.339   4.985   3.035
 7110SOL    HW122229   3.326   4.989   3.135
 7110SOL    HW222230   3.341   5.078   2.999
 7111SOL     OW22231   1.445   2.544   3.863
 7111SOL    HW122232   1.435   2.445   3.870
 7111SOL    HW222233   1.445   2.571   3.767
 7112SOL     OW22234   1.634   6.313   2.286
 7112SOL    HW122235   1.723   6.330   2.244
 7112SOL    HW222236   1.573   6.389   2.267
 7113SOL     OW22237   3.842   4.001   4.857
 7113SOL    HW122238   3.754   4.044   4.839
 7113SOL    HW222239   3.889   3.984   4.771
 7114SOL     OW22240   4.328   0.012   0.670
 7114SOL    HW122241   4.345   0.069   0.750
 7114SOL    HW222242   4.283   6.951   0.699
 7115SOL     OW22243   4.662   1.636   1.586
 7115SOL    HW122244   4.737   1.579   1.620
 7115SOL    HW222245   4.656   1.627   1.487
 7116SOL     OW22246   6.459   3.526   2.823
 7116SOL    HW122247   6.554   3.496   2.820
 7116SOL    HW222248   6.431   3.539   2.918
 7117SOL     OW22249   6.558   6.889   2.238
 7117SOL    HW122250   6.559   6.841   2.150
 7117SOL    HW222251   6.653   6.905   2.268
 7118SOL     OW22252   6.277   2.716   2.572
 7118SOL    HW122253   6.306   2.734   2.478
 7118SOL    HW222254   6.329   2.639   2.608
 7119SOL     OW22255   0.729   2.307   2.739
 7119SOL    HW122256   0.827   2.308   2.719
 7119SOL    HW222257   0.678   2.310   2.653
 7120SOL     OW22258   4.851   6.410   3.220
 7120SOL    HW122259   4.903   6.343   3.168
 7120SOL    HW222260   4.794   6.464   3.159
 7121SOL     OW22261   3.319   6.762   1.863
 7121SOL    HW122262   3.385   6.731   1.931
 7121SOL    HW222263   3.236   6.706   1.869
 7122SOL     OW22264   6.566   6.839   6.879
 7122SOL    HW122265   6.539   6.932   6.904
 7122SOL    HW222266   6.505   6.773   6.922
 7123SOL     OW22267   2.176   5.106   0.399
 7123SOL    HW122268   2.128   5.032   0.447
 7123SOL    HW222269   2.111   5.157   0.343
 7124SOL     OW22270   0.397   5.565   1.244
 7124SOL    HW122271   0.490   5.558   1.280
 7124SOL    HW222272   0.360   5.656   1.265
 7125SOL     OW22273   0.065   6.241   2.649
 7125SOL    HW122274   7.020   6.233   2.721
 7125SOL    HW222275   0.029   6.205   2.563
 7126SOL     OW22276   1.640   4.734   0.775
 7126SOL    HW122277   1.693   4.712   0.857
 7126SOL    HW222278   1.547   4.761   0.802
 7127SOL     OW22279   3.024   0.195   4.845
 7127SOL    HW122280   2.989   0.281   4.808
 7127SOL    HW222281   2.972   0.118   4.807
 7128SOL     OW22282   3.409   4.344   1.385
 7128SOL    HW122283   3.420   4.401   1.466
 7128SOL    HW222284   3.493   4.348   1.330
 7129SOL     OW22285   2.414   1.733   1.643
 7129SOL    HW122286   2.411   1.633   1.644
 7129SOL    HW222287   2.455   1.764   1.558
 7130SOL     OW22288   2.718   6.915   2.060
 7130SOL    HW122289   2.662   6.835   2.038
 7130SOL    HW222290   2.698   6.989   1.995
 7131SOL     OW22291   2.809   1.256   3.575
 7131SOL    HW122292   2.856   1.271   3.489
 7131SOL    HW222293   2.855   1.307   3.648
 7132SOL     OW22294   3.661   3.886   2.803
 7132SOL    HW122295   3.628   3.979   2.791
 7132SOL    HW222296   3.760   3.883   2.790
 7133SOL     OW22297   5.747   4.565   2.095
 7133SOL    HW122298   5.826   4.517   2.056
 7133SOL    HW222299   5.750   4.661   2.068
 7134SOL     OW22300   5.740   4.493   3.156
 7134SOL    HW122301   5.800   4.418   3.182
 7134SOL    HW222302   5.668   4.505   3.225
 7135SOL     OW22303   1.228   2.256   5.732
 7135SOL    HW122304   1.168   2.298   5.800
 7135SOL    HW222305   1.177   2.186   5.681
 7136SOL     OW22306   2.402   1.621   6.573
 7136SOL    HW122307   2.339   1.544   6.559
 7136SOL    HW222308   2.479   1.590   6.629
 7137SOL     OW22309   4.121   1.453   4.906
 7137SOL    HW122310   4.028   1.478   4.879
 7137SOL    HW222311   4.177   1.440   4.824
 7138SOL     OW22312   2.251   3.739   6.489
 7138SOL    HW122313   2.167   3.703   6.449
 7138SOL    HW222314   2.328   3.720   6.428
 7139SOL     OW22315   3.193   2.016   6.930
 7139SOL    HW122316   3.290   2.001   6.951
 7139SOL    HW222317   3.148   1.928   6.915
 7140SOL     OW22318   6.637   3.876   5.188
 7140SOL    HW122319   6.628   3.937   5.266
 7140SOL    HW222320   6.575   3.904   5.115
 7141SOL     OW22321   1.696   6.866   1.854
 7141SOL    HW122322   1.781   6.897   1.813
 7141SOL    HW222323   1.621   6.927   1.826
 7142SOL     OW22324   3.874   6.634   3.821
 7142SOL    HW122325   3.896   6.614   3.916
 7142SOL    HW222326   3.942   6.696   3.783
 7143SOL     OW22327   2.192   2.138   4.011
 7143SOL    HW122328   2.191   2.068   4.082
 7143SOL    HW222329   2.279   2.133   3.961
 7144SOL     OW22330   1.058   3.076   3.622
 7144SOL    HW122331   1.112   2.996   3.648
 7144SOL    HW222332   1.119   3.147   3.586
 7145SOL     OW22333   4.233   6.693   6.387
 7145SOL    HW122334   4.238   6.699   6.287
 7145SOL    HW222335   4.303   6.752   6.427
 7146SOL     OW22336   2.721   5.023   1.779
 7146SOL    HW122337   2.698   5.115   1.812
 7146SOL    HW222338   2.805   5.028   1.724
 7147SOL     OW22339   0.782   1.129   3.594
 7147SOL    HW122340   0.749   1.119   3.688
 7147SOL    HW222341   0.852   1.060   3.576
 7148SOL     OW22342   0.323   1.278   0.357
 7148SOL    HW122343   0.252   1.338   0.394
 7148SOL    HW222344   0.369   1.231   0.433
 7149SOL     OW22345   6.874   0.818   4.010
 7149SOL    HW122346   6.854   0.847   4.104
 7149SOL    HW222347   6.904   0.722   4.011
 7150SOL     OW22348   5.930   4.204   6.839
 7150SOL    HW122349   6.026   4.200   6.868
 7150SOL    HW222350   5.871   4.183   6.917
 7151SOL     OW22351   1.717   6.333   1.372
 7151SOL    HW122352   1.720   6.296   1.279
 7151SOL    HW222353   1.773   6.278   1.433
 7152SOL     OW22354   1.396   2.866   3.644
 7152SOL    HW122355   1.379   2.769   3.626
 7152SOL    HW222356   1.492   2.887   3.625
 7153SOL     OW22357   3.291   1.839   3.028
 7153SOL    HW122358   3.216   1.890   2.985
 7153SOL    HW222359   3.364   1.902   3.052
 7154SOL     OW22360   4.347   6.000   4.413
 7154SOL    HW122361   4.348   6.094   4.449
 7154SOL    HW222362   4.440   5.963   4.414
 7155SOL     OW22363   2.107   0.610   2.739
 7155SOL    HW122364   2.057   0.565   2.665
 7155SOL    HW222365   2.160   0.685   2.702
 7156SOL     OW22366   1.309   5.849   5.060
 7156SOL    HW122367   1.265   5.850   4.970
 7156SOL    HW222368   1.293   5.760   5.103
 7157SOL     OW22369   5.200   4.279   1.442
 7157SOL    HW122370   5.173   4.326   1.527
 7157SOL    HW222371   5.246   4.344   1.382
 7158SOL     OW22372   4.741   0.130   4.338
 7158SOL    HW122373   4.682   0.050   4.332
 7158SOL    HW222374   4.820   0.117   4.277
 7159SOL     OW22375   1.228   5.561   0.201
 7159SOL    HW122376   1.129   5.550   0.186
 7159SOL    HW222377   1.244   5.648   0.249
 7160SOL     OW22378   6.704   1.235   2.122
 7160SOL    HW122379   6.666   1.168   2.059
 7160SOL    HW222380   6.665   1.325   2.102
 7161SOL     OW22381   3.526   4.039   3.881
 7161SOL    HW122382   3.509   4.090   3.966
 7161SOL    HW222383   3.473   3.955   3.882
 7162SOL     OW22384   3.159   4.922   3.505
 7162SOL    HW122385   3.238   4.937   3.446
 7162SOL    HW222386   3.101   5.004   3.506
 7163SOL     OW22387   2.456   6.509   3.024
 7163SOL    HW122388   2.377   6.498   2.963
 7163SOL    HW222389   2.522   6.572   2.982
 7164SOL     OW22390   2.829   1.479   3.996
 7164SOL    HW122391   2.898   1.504   4.065
 7164SOL    HW222392   2.742   1.524   4.018
 7165SOL     OW22393   4.993   6.705   2.363
 7165SOL    HW122394   5.028   6.715   2.456
 7165SOL    HW222395   4.962   6.611   2.349
 7166SOL     OW22396   5.412   5.668   2.122
 7166SOL    HW122397   5.400   5.619   2.208
 7166SOL    HW222398   5.479   5.620   2.065
 7167SOL     OW22399   4.967   3.131   5.616
 7167SOL    HW122400   5.044   3.176   5.573
 7167SOL    HW222401   4.926   3.191   5.685
 7168SOL     OW22402   0.763   2.085   4.567
 7168SOL    HW122403   0.680   2.133   4.595
 7168SOL    HW222404   0.768   2.082   4.468
 7169SOL     OW22405   1.759   2.382   6.444
 7169SOL    HW122406   1.751   2.403   6.542
 7169SOL    HW222407   1.782   2.285   6.433
 7170SOL     OW22408   5.907   4.720   3.971
 7170SOL    HW122409   5.866   4.688   3.886
 7170SOL    HW222410   6.006   4.728   3.959
 7171SOL     OW22411   4.501   2.706   6.082
 7171SOL    HW122412   4.443   2.736   6.158
 7171SOL    HW222413   4.450   2.642   6.025
 7172SOL     OW22414   0.918   0.345   1.020
 7172SOL    HW122415   0.931   0.290   1.102
 7172SOL    HW222416   0.950   0.438   1.037
 7173SOL     OW22417   6.139   6.067   5.443
 7173SOL    HW122418   6.227   6.101   5.477
 7173SOL    HW222419   6.135   5.968   5.456
 7174SOL     OW22420   0.584   5.515   6.424
 7174SOL    HW122421   0.652   5.561   6.480
 7174SOL    HW222422   0.602   5.416   6.423
 7175SOL     OW22423   6.258   2.727   5.672
 7175SOL    HW122424   6.247   2.627   5.678
 7175SOL    HW222425   6.349   2.752   5.705
 7176SOL     OW22426   0.015   3.519   1.459
 7176SOL    HW122427   0.006   3.457   1.538
 7176SOL    HW222428   0.039   3.466   1.378
 7177SOL     OW22429   0.770   5.462   2.497
 7177SOL    HW122430   0.726   5.483   2.585
 7177SOL    HW222431   0.865   5.495   2.498
 7178SOL     OW22432   0.320   1.877   6.259
 7178SOL    HW122433   0.281   1.954   6.208
 7178SOL    HW222434   0.362   1.813   6.194
 7179SOL     OW22435   2.026   4.469   6.200
 7179SOL    HW122436   2.108   4.463   6.142
 7179SOL    HW222437   1.974   4.551   6.176
 7180SOL     OW22438   0.756   6.697   3.017
 7180SOL    HW122439   0.760   6.774   2.953
 7180SOL    HW222440   0.818   6.713   3.093
 7181SOL     OW22441   5.925   6.336   2.565
 7181SOL    HW122442   5.976   6.309   2.484
 7181SOL    HW222443   5.836   6.373   2.538
 7182SOL     OW22444   3.648   3.548   5.871
 7182SOL    HW122445   3.634   3.449   5.870
 7182SOL    HW222446   3.561   3.594   5.852
 7183SOL     OW22447   1.677   4.190   3.357
 7183SOL    HW122448   1.777   4.196   3.351
 7183SOL    HW222449   1.638   4.279   3.333
 7184SOL     OW22450   2.489   5.587   2.761
 7184SOL    HW122451   2.421   5.567   2.832
 7184SOL    HW222452   2.550   5.659   2.793
 7185SOL     OW22453   4.671   3.064   6.869
 7185SOL    HW122454   4.760   3.033   6.835
 7185SOL    HW222455   4.605   3.064   6.794
 7186SOL     OW22456   0.368   0.149   3.969
 7186SOL    HW122457   0.460   0.145   3.931
 7186SOL    HW222458   0.373   0.136   4.068
 7187SOL     OW22459   1.847   5.241   1.460
 7187SOL    HW122460   1.752   5.253   1.487
 7187SOL    HW222461   1.906   5.299   1.515
 7188SOL     OW22462   5.207   0.373   1.503
 7188SOL    HW122463   5.228   0.313   1.426
 7188SOL    HW222464   5.131   0.433   1.479
 7189SOL     OW22465   0.065   0.415   5.238
 7189SOL    HW122466   7.021   0.341   5.243
 7189SOL    HW222467   0.152   0.383   5.276
 7190SOL     OW22468   4.604   4.756   3.141
 7190SOL    HW122469   4.676   4.688   3.125
 7190SOL    HW222470   4.600   4.778   3.239
 7191SOL     OW22471   0.693   3.513   1.630
 7191SOL    HW122472   0.722   3.479   1.719
 7191SOL    HW222473   0.750   3.472   1.559
 7192SOL     OW22474   3.784   5.304   6.566
 7192SOL    HW122475   3.753   5.258   6.483
 7192SOL    HW222476   3.734   5.268   6.645
 7193SOL     OW22477   5.286   1.717   3.855
 7193SOL    HW122478   5.252   1.805   3.889
 7193SOL    HW222479   5.348   1.732   3.778
 7194SOL     OW22480   3.488   1.283   1.449
 7194SOL    HW122481   3.586   1.302   1.439
 7194SOL    HW222482   3.452   1.332   1.528
 7195SOL     OW22483   0.352   5.599   1.686
 7195SOL    HW122484   0.323   5.554   1.771
 7195SOL    HW222485   0.342   5.535   1.610
 7196SOL     OW22486   3.739   2.581   1.734
 7196SOL    HW122487   3.732   2.489   1.773
 7196SOL    HW222488   3.754   2.573   1.635
 7197SOL     OW22489   1.014   1.811   4.296
 7197SOL    HW122490   0.918   1.828   4.275
 7197SOL    HW222491   1.022   1.768   4.386
 7198SOL     OW22492   0.274   6.455   6.619
 7198SOL    HW122493   0.229   6.425   6.535
 7198SOL    HW222494   0.345   6.522   6.597
 7199SOL     OW22495   5.659   6.799   2.956
 7199SOL    HW122496   5.635   6.896   2.952
 7199SOL    HW222497   5.592   6.751   3.012
 7200SOL     OW22498   1.964   2.042   2.164
 7200SOL    HW122499   2.044   2.057   2.223
 7200SOL    HW222500   1.887   2.095   2.199
 7201SOL     OW22501   2.193   4.827   3.189
 7201SOL    HW122502   2.277   4.826   3.135
 7201SOL    HW222503   2.151   4.917   3.184
 7202SOL     OW22504   3.725   6.999   5.462
 7202SOL    HW122505   3.745   0.038   5.387
 7202SOL    HW222506   3.742   0.020   5.549
 7203SOL     OW22507   5.896   0.262   6.873
 7203SOL    HW122508   5.897   0.333   6.803
 7203SOL    HW222509   5.809   0.265   6.922
 7204SOL     OW22510   5.744   1.745   3.218
 7204SOL    HW122511   5.678   1.791   3.157
 7204SOL    HW222512   5.831   1.795   3.216
 7205SOL     OW22513   1.643   4.673   1.655
 7205SOL    HW122514   1.602   4.765   1.656
 7205SOL    HW222515   1.597   4.616   1.723
 7206SOL     OW22516   5.561   1.740   1.424
 7206SOL    HW122517   5.494   1.701   1.487
 7206SOL    HW222518   5.515   1.766   1.339
 7207SOL     OW22519   4.096   6.715   2.068
 7207SOL    HW122520   4.089   6.641   2.002
 7207SOL    HW222521   4.123   6.678   2.157
 7208SOL     OW22522   3.218   0.072   5.124
 7208SOL    HW122523   3.150   0.124   5.177
 7208SOL    HW222524   3.202   6.998   5.136
 7209SOL     OW22525   3.138   3.057   4.459
 7209SOL    HW122526   3.098   2.987   4.400
 7209SOL    HW222527   3.231   3.031   4.485
 7210SOL     OW22528   4.858   0.363   4.035
 7210SOL    HW122529   4.836   0.268   4.059
 7210SOL    HW222530   4.896   0.409   4.116
 7211SOL     OW22531   1.397   5.476   2.479
 7211SOL    HW122532   1.495   5.469   2.495
 7211SOL    HW222533   1.349   5.408   2.535
 7212SOL     OW22534   4.917   0.244   3.509
 7212SOL    HW122535   4.905   0.319   3.444
 7212SOL    HW222536   4.907   0.280   3.602
 7213SOL     OW22537   5.059   6.841   5.341
 7213SOL    HW122538   5.039   6.752   5.301
 7213SOL    HW222539   5.088   6.904   5.269
 7214SOL     OW22540   0.283   5.043   5.663
 7214SOL    HW122541   0.343   5.044   5.583
 7214SOL    HW222542   0.321   4.982   5.733
 7215SOL     OW22543   0.773   3.127   2.415
 7215SOL    HW122544   0.695   3.163   2.365
 7215SOL    HW222545   0.858   3.159   2.373
 7216SOL     OW22546   2.371   1.348   1.836
 7216SOL    HW122547   2.311   1.407   1.889
 7216SOL    HW222548   2.323   1.264   1.812
 7217SOL     OW22549   1.096   2.688   2.064
 7217SOL    HW122550   1.173   2.623   2.071
 7217SOL    HW222551   1.028   2.667   2.133
 7218SOL     OW22552   6.675   2.498   6.051
 7218SOL    HW122553   6.757   2.442   6.042
 7218SOL    HW222554   6.664   2.556   5.970
 7219SOL     OW22555   3.152   0.723   1.257
 7219SOL    HW122556   3.165   0.641   1.201
 7219SOL    HW222557   3.059   0.757   1.244
 7220SOL     OW22558   0.213   1.027   3.261
 7220SOL    HW122559   0.182   1.111   3.307
 7220SOL    HW222560   0.172   0.948   3.306
 7221SOL     OW22561   6.141   4.721   5.624
 7221SOL    HW122562   6.106   4.807   5.659
 7221SOL    HW222563   6.145   4.654   5.698
 7222SOL     OW22564   5.806   6.660   3.323
 7222SOL    HW122565   5.853   6.717   3.257
 7222SOL    HW222566   5.838   6.565   3.315
 7223SOL     OW22567   4.367   0.839   5.185
 7223SOL    HW122568   4.403   0.834   5.278
 7223SOL    HW222569   4.422   0.902   5.130
 7224SOL     OW22570   5.489   1.214   4.305
 7224SOL    HW122571   5.540   1.151   4.246
 7224SOL    HW222572   5.433   1.161   4.369
 7225SOL     OW22573   2.232   0.697   1.422
 7225SOL    HW122574   2.134   0.676   1.423
 7225SOL    HW222575   2.250   0.765   1.351
 7226SOL     OW22576   5.781   6.710   6.141
 7226SOL    HW122577   5.856   6.769   6.111
 7226SOL    HW222578   5.783   6.624   6.090
 7227SOL     OW22579   6.937   1.995   6.187
 7227SOL    HW122580   6.984   2.018   6.272
 7227SOL    HW222581   6.903   1.901   6.192
 7228SOL     OW22582   2.219   0.419   2.886
 7228SOL    HW122583   2.194   0.491   2.821
 7228SOL    HW222584   2.137   0.372   2.917
 7229SOL     OW22585   6.809   0.164   3.571
 7229SOL    HW122586   6.898   0.126   3.596
 7229SOL    HW222587   6.742   0.089   3.565
 7230SOL     OW22588   6.215   5.247   1.248
 7230SOL    HW122589   6.136   5.278   1.197
 7230SOL    HW222590   6.297   5.297   1.217
 7231SOL     OW22591   5.886   1.004   6.650
 7231SOL    HW122592   5.875   0.967   6.557
 7231SOL    HW222593   5.940   1.088   6.646
 7232SOL     OW22594   3.662   3.724   0.928
 7232SOL    HW122595   3.568   3.755   0.910
 7232SOL    HW222596   3.716   3.730   0.844
 7233SOL     OW22597   0.301   2.250   5.765
 7233SOL    HW122598   0.352   2.265   5.680
 7233SOL    HW222599   0.363   2.216   5.836
 7234SOL     OW22600   4.676   1.610   3.070
 7234SOL    HW122601   4.624   1.694   3.054
 7234SOL    HW222602   4.758   1.630   3.123
 7235SOL     OW22603   6.277   2.989   4.638
 7235SOL    HW122604   6.218   2.952   4.566
 7235SOL    HW222605   6.276   3.089   4.633
 7236SOL     OW22606   2.197   1.149   3.201
 7236SOL    HW122607   2.219   1.055   3.227
 7236SOL    HW222608   2.132   1.148   3.125
 7237SOL     OW22609   5.771   5.054   5.048
 7237SOL    HW122610   5.691   5.077   4.992
 7237SOL    HW222611   5.765   5.102   5.135
 7238SOL     OW22612   1.519   0.767   1.393
 7238SOL    HW122613   1.501   0.828   1.317
 7238SOL    HW222614   1.439   0.764   1.454
 7239SOL     OW22615   4.324   1.395   1.770
 7239SOL    HW122616   4.334   1.312   1.715
 7239SOL    HW222617   4.363   1.473   1.721
 7240SOL     OW22618   3.232   3.128   1.870
 7240SOL    HW122619   3.214   3.034   1.897
 7240SOL    HW222620   3.250   3.131   1.771
 7241SOL     OW22621   5.143   6.953   4.645
 7241SOL    HW122622   5.116   6.910   4.731
 7241SOL    HW222623   5.243   6.961   4.642
 7242SOL     OW22624   5.827   4.830   0.803
 7242SOL    HW122625   5.760   4.770   0.847
 7242SOL    HW222626   5.814   4.828   0.704
 7243SOL     OW22627   0.685   5.742   0.156
 7243SOL    HW122628   0.594   5.704   0.142
 7243SOL    HW222629   0.709   5.735   0.253
 7244SOL     OW22630   5.705   1.744   0.779
 7244SOL    HW122631   5.771   1.798   0.830
 7244SOL    HW222632   5.617   1.792   0.775
 7245SOL     OW22633   6.402   2.060   4.478
 7245SOL    HW122634   6.481   2.012   4.517
 7245SOL    HW222635   6.323   2.050   4.538
 7246SOL     OW22636   1.378   5.702   5.475
 7246SOL    HW122637   1.388   5.799   5.500
 7246SOL    HW222638   1.453   5.650   5.515
 7247SOL     OW22639   3.815   5.708   3.888
 7247SOL    HW122640   3.880   5.691   3.814
 7247SOL    HW222641   3.731   5.747   3.851
 7248SOL     OW22642   3.341   0.744   4.349
 7248SOL    HW122643   3.330   0.841   4.331
 7248SOL    HW222644   3.414   0.729   4.415
 7249SOL     OW22645   4.984   3.713   5.902
 7249SOL    HW122646   4.886   3.715   5.920
 7249SOL    HW222647   5.011   3.797   5.855
 7250SOL     OW22648   2.907   3.492   0.031
 7250SOL    HW122649   2.867   3.419   7.000
 7250SOL    HW222650   2.883   3.580   7.015
 7251SOL     OW22651   5.657   1.287   5.162
 7251SOL    HW122652   5.741   1.334   5.136
 7251SOL    HW222653   5.619   1.329   5.244
 7252SOL     OW22654   4.287   3.615   5.183
 7252SOL    HW122655   4.376   3.607   5.138
 7252SOL    HW222656   4.245   3.524   5.188
 7253SOL     OW22657   5.300   4.810   1.176
 7253SOL    HW122658   5.319   4.907   1.191
 7253SOL    HW222659   5.220   4.784   1.230
 7254SOL     OW22660   5.583   6.380   5.124
 7254SOL    HW122661   5.560   6.301   5.182
 7254SOL    HW222662   5.679   6.374   5.096
 7255SOL     OW22663   4.109   3.402   2.838
 7255SOL    HW122664   4.125   3.326   2.774
 7255SOL    HW222665   4.015   3.434   2.829
 7256SOL     OW22666   3.581   4.893   3.646
 7256SOL    HW122667   3.660   4.952   3.633
 7256SOL    HW222668   3.523   4.929   3.719
 7257SOL     OW22669   6.221   4.087   3.053
 7257SOL    HW122670   6.212   3.989   3.036
 7257SOL    HW222671   6.254   4.132   2.970
 7258SOL     OW22672   2.421   6.886   5.716
 7258SOL    HW122673   2.446   6.974   5.676
 7258SOL    HW222674   2.503   6.843   5.754
 7259SOL     OW22675   2.917   4.978   6.312
 7259SOL    HW122676   2.967   4.918   6.250
 7259SOL    HW222677   2.975   5.054   6.339
 7260SOL     OW22678   4.379   1.711   2.528
 7260SOL    HW122679   4.472   1.726   2.562
 7260SOL    HW222680   4.332   1.799   2.522
 7261SOL     OW22681   1.593   4.785   1.230
 7261SOL    HW122682   1.663   4.766   1.299
 7261SOL    HW222683   1.519   4.718   1.239
 7262SOL     OW22684   6.040   0.652   5.179
 7262SOL    HW122685   5.968   0.654   5.248
 7262SOL    HW222686   6.107   0.723   5.199
 7263SOL     OW22687   5.186   6.490   1.692
 7263SOL    HW122688   5.225   6.573   1.733
 7263SOL    HW222689   5.260   6.428   1.667
 7264SOL     OW22690   1.285   6.611   4.237
 7264SOL    HW122691   1.256   6.533   4.181
 7264SOL    HW222692   1.227   6.617   4.319
 7265SOL     OW22693   4.469   3.662   6.322
 7265SOL    HW122694   4.419   3.577   6.340
 7265SOL    HW222695   4.421   3.715   6.253
 7266SOL     OW22696   3.593   1.731   2.099
 7266SOL    HW122697   3.527   1.694   2.034
 7266SOL    HW222698   3.612   1.827   2.077
 7267SOL     OW22699   6.097   3.367   4.800
 7267SOL    HW122700   6.040   3.285   4.803
 7267SOL    HW222701   6.187   3.344   4.763
 7268SOL     OW22702   3.630   0.766   0.425
 7268SOL    HW122703   3.572   0.756   0.505
 7268SOL    HW222704   3.576   0.804   0.350
 7269SOL     OW22705   1.235   0.360   2.093
 7269SOL    HW122706   1.144   0.377   2.130
 7269SOL    HW222707   1.284   0.296   2.152
 7270SOL     OW22708   3.364   1.280   2.388
 7270SOL    HW122709   3.344   1.375   2.411
 7270SOL    HW222710   3.398   1.275   2.294
 7271SOL     OW22711   6.115   5.329   3.869
 7271SOL    HW122712   6.101   5.238   3.830
 7271SOL    HW222713   6.175   5.382   3.810
 7272SOL     OW22714   6.667   2.179   1.056
 7272SOL    HW122715   6.647   2.158   0.960
 7272SOL    HW222716   6.660   2.278   1.070
 7273SOL     OW22717   5.433   5.833   5.538
 7273SOL    HW122718   5.352   5.792   5.580
 7273SOL    HW222719   5.512   5.774   5.556
 7274SOL     OW22720   6.065   4.473   4.430
 7274SOL    HW122721   6.160   4.496   4.451
 7274SOL    HW222722   6.023   4.548   4.380
 7275SOL     OW22723   5.499   6.795   1.211
 7275SOL    HW122724   5.416   6.748   1.242
 7275SOL    HW222725   5.499   6.801   1.111
 7276SOL     OW22726   2.781   2.289   3.869
 7276SOL    HW122727   2.739   2.343   3.942
 7276SOL    HW222728   2.730   2.302   3.784
 7277SOL     OW22729   6.058   1.563   4.286
 7277SOL    HW122730   6.123   1.571   4.361
 7277SOL    HW222731   6.010   1.650   4.274
 7278SOL     OW22732   2.776   1.999   3.937
 7278SOL    HW122733   2.790   2.097   3.924
 7278SOL    HW222734   2.731   1.962   3.856
 7279SOL     OW22735   4.239   3.423   1.011
 7279SOL    HW122736   4.151   3.394   1.048
 7279SOL    HW222737   4.229   3.513   0.968
 7280SOL     OW22738   6.592   2.075   5.214
 7280SOL    HW122739   6.682   2.116   5.196
 7280SOL    HW222740   6.595   2.026   5.302
 7281SOL     OW22741   3.389   6.517   2.460
 7281SOL    HW122742   3.455   6.442   2.456
 7281SOL    HW222743   3.432   6.600   2.425
 7282SOL     OW22744   0.283   3.543   1.547
 7282SOL    HW122745   0.193   3.561   1.505
 7282SOL    HW222746   0.340   3.624   1.538
 7283SOL     OW22747   3.858   6.133   2.917
 7283SOL    HW122748   3.893   6.041   2.902
 7283SOL    HW222749   3.898   6.196   2.850
 7284SOL     OW22750   0.626   1.184   2.909
 7284SOL    HW122751   0.535   1.186   2.867
 7284SOL    HW222752   0.672   1.099   2.882
 7285SOL     OW22753   5.325   2.865   2.215
 7285SOL    HW122754   5.314   2.785   2.155
 7285SOL    HW222755   5.248   2.869   2.279
 7286SOL     OW22756   5.923   1.377   4.042
 7286SOL    HW122757   5.879   1.460   4.009
 7286SOL    HW222758   6.022   1.390   4.043
 7287SOL     OW22759   3.177   1.127   4.121
 7287SOL    HW122760   3.235   1.090   4.193
 7287SOL    HW222761   3.106   1.060   4.097
 7288SOL     OW22762   3.189   1.562   2.123
 7288SOL    HW122763   3.163   1.629   2.193
 7288SOL    HW222764   3.247   1.607   2.054
 7289SOL     OW22765   6.132   2.764   2.082
 7289SOL    HW122766   6.092   2.712   2.158
 7289SOL    HW222767   6.147   2.703   2.004
 7290SOL     OW22768   3.896   1.944   4.735
 7290SOL    HW122769   3.957   2.024   4.735
 7290SOL    HW222770   3.802   1.974   4.714
 7291SOL     OW22771   1.642   1.198   0.598
 7291SOL    HW122772   1.645   1.248   0.684
 7291SOL    HW222773   1.550   1.161   0.583
 7292SOL     OW22774   3.211   0.868   2.741
 7292SOL    HW122775   3.304   0.899   2.760
 7292SOL    HW222776   3.191   0.878   2.644
 7293SOL     OW22777   6.287   1.209   4.485
 7293SOL    HW122778   6.383   1.219   4.460
 7293SOL    HW222779   6.232   1.197   4.402
 7294SOL     OW22780   4.010   0.143   2.896
 7294SOL    HW122781   3.938   0.211   2.910
 7294SOL    HW222782   3.971   0.062   2.852
 7295SOL     OW22783   5.325   3.736   1.527
 7295SOL    HW122784   5.394   3.726   1.455
 7295SOL    HW222785   5.283   3.647   1.545
 7296SOL     OW22786   3.508   6.104   2.053
 7296SOL    HW122787   3.593   6.052   2.053
 7296SOL    HW222788   3.450   6.073   2.128
 7297SOL     OW22789   3.444   0.002   0.234
 7297SOL    HW122790   3.445   0.101   0.247
 7297SOL    HW222791   3.403   6.982   0.313
 7298SOL     OW22792   4.397   5.226   1.447
 7298SOL    HW122793   4.353   5.164   1.382
 7298SOL    HW222794   4.330   5.259   1.512
 7299SOL     OW22795   0.226   3.676   6.193
 7299SOL    HW122796   0.303   3.657   6.132
 7299SOL    HW222797   0.172   3.593   6.206
 7300SOL     OW22798   0.863   4.202   1.958
 7300SOL    HW122799   0.866   4.206   1.858
 7300SOL    HW222800   0.955   4.185   1.994
 7301SOL     OW22801   4.214   2.069   0.240
 7301SOL    HW122802   4.299   2.106   0.278
 7301SOL    HW222803   4.175   2.135   0.175
 7302SOL     OW22804   5.533   1.914   6.476
 7302SOL    HW122805   5.461   1.981   6.456
 7302SOL    HW222806   5.541   1.903   6.575
 7303SOL     OW22807   2.834   2.015   1.791
 7303SOL    HW122808   2.790   1.927   1.774
 7303SOL    HW222809   2.791   2.060   1.869
 7304SOL     OW22810   2.124   6.556   0.681
 7304SOL    HW122811   2.115   6.498   0.600
 7304SOL    HW222812   2.171   6.504   0.754
 7305SOL     OW22813   5.839   0.318   6.118
 7305SOL    HW122814   5.765   0.282   6.062
 7305SOL    HW222815   5.827   0.416   6.130
 7306SOL     OW22816   1.186   3.319   1.356
 7306SOL    HW122817   1.213   3.222   1.357
 7306SOL    HW222818   1.130   3.339   1.436
 7307SOL     OW22819   3.179   0.323   1.816
 7307SOL    HW122820   3.216   0.356   1.902
 7307SOL    HW222821   3.245   0.340   1.743
 7308SOL     OW22822   3.727   1.325   3.194
 7308SOL    HW122823   3.744   1.313   3.096
 7308SOL    HW222824   3.767   1.249   3.244
 7309SOL     OW22825   2.299   5.635   3.702
 7309SOL    HW122826   2.261   5.715   3.749
 7309SOL    HW222827   2.348   5.578   3.768
 7310SOL     OW22828   2.393   2.818   6.984
 7310SOL    HW122829   2.374   2.786   6.891
 7310SOL    HW222830   2.415   2.915   6.981
 7311SOL     OW22831   0.088   6.612   5.939
 7311SOL    HW122832   0.173   6.650   5.975
 7311SOL    HW222833   0.074   6.520   5.977
 7312SOL     OW22834   6.190   2.010   4.609
 7312SOL    HW122835   6.090   2.013   4.608
 7312SOL    HW222836   6.220   1.915   4.603
 7313SOL     OW22837   3.157   0.861   2.452
 7313SOL    HW122838   3.129   0.786   2.392
 7313SOL    HW222839   3.256   0.873   2.445
 7314SOL     OW22840   1.854   5.005   5.301
 7314SOL    HW122841   1.846   5.030   5.398
 7314SOL    HW222842   1.774   4.953   5.274
 7315SOL     OW22843   3.467   4.904   2.712
 7315SOL    HW122844   3.557   4.911   2.755
 7315SOL    HW222845   3.397   4.889   2.782
 7316SOL     OW22846   3.734   1.391   1.366
 7316SOL    HW122847   3.829   1.401   1.336
 7316SOL    HW222848   3.698   1.480   1.394
 7317SOL     OW22849   5.176   1.965   0.663
 7317SOL    HW122850   5.098   1.989   0.605
 7317SOL    HW222851   5.168   1.869   0.691
 7318SOL     OW22852   4.800   6.734   1.152
 7318SOL    HW122853   4.768   6.684   1.072
 7318SOL    HW222854   4.885   6.782   1.130
 7319SOL     OW22855   5.054   6.186   6.710
 7319SOL    HW122856   5.153   6.182   6.721
 7319SOL    HW222857   5.011   6.119   6.770
 7320SOL     OW22858   0.508   2.746   6.977
 7320SOL    HW122859   0.510   2.659   0.003
 7320SOL    HW222860   0.492   2.821   0.018
 7321SOL     OW22861   2.297   2.143   5.767
 7321SOL    HW122862   2.212   2.196   5.771
 7321SOL    HW222863   2.290   2.074   5.695
 7322SOL     OW22864   1.360   2.273   3.832
 7322SOL    HW122865   1.296   2.313   3.898
 7322SOL    HW222866   1.312   2.208   3.774
 7323SOL     OW22867   1.394   1.745   0.724
 7323SOL    HW122868   1.441   1.703   0.646
 7323SOL    HW222869   1.299   1.716   0.726
 7324SOL     OW22870   4.915   3.804   4.441
 7324SOL    HW122871   4.838   3.867   4.454
 7324SOL    HW222872   4.950   3.776   4.531
 7325SOL     OW22873   3.862   1.654   6.256
 7325SOL    HW122874   3.795   1.701   6.197
 7325SOL    HW222875   3.933   1.719   6.284
 7326SOL     OW22876   4.102   6.724   0.483
 7326SOL    HW122877   4.174   6.673   0.436
 7326SOL    HW222878   4.014   6.679   0.469
 7327SOL     OW22879   1.825   4.520   3.707
 7327SOL    HW122880   1.877   4.465   3.772
 7327SOL    HW222881   1.732   4.532   3.742
 7328SOL     OW22882   4.820   5.363   5.825
 7328SOL    HW122883   4.875   5.374   5.741
 7328SOL    HW222884   4.724   5.378   5.803
 7329SOL     OW22885   2.502   3.155   0.934
 7329SOL    HW122886   2.571   3.144   1.006
 7329SOL    HW222887   2.535   3.111   0.850
 7330SOL     OW22888   2.850   3.037   0.807
 7330SOL    HW122889   2.841   2.981   0.889
 7330SOL    HW222890   2.938   3.018   0.763
 7331SOL     OW22891   5.224   1.926   2.506
 7331SOL    HW122892   5.251   1.836   2.472
 7331SOL    HW222893   5.144   1.958   2.456
 7332SOL     OW22894   2.811   6.732   5.527
 7332SOL    HW122895   2.890   6.789   5.508
 7332SOL    HW222896   2.734   6.761   5.470
 7333SOL     OW22897   6.244   1.209   1.309
 7333SOL    HW122898   6.245   1.251   1.400
 7333SOL    HW222899   6.153   1.217   1.270
 7334SOL     OW22900   1.760   4.471   5.107
 7334SOL    HW122901   1.761   4.444   5.203
 7334SOL    HW222902   1.812   4.405   5.053
 7335SOL     OW22903   1.113   3.585   2.654
 7335SOL    HW122904   1.108   3.678   2.690
 7335SOL    HW222905   1.181   3.581   2.581
 7336SOL     OW22906   2.312   6.881   0.974
 7336SOL    HW122907   2.342   6.897   0.880
 7336SOL    HW222908   2.367   6.937   1.036
 7337SOL     OW22909   3.209   1.459   3.838
 7337SOL    HW122910   3.215   1.543   3.785
 7337SOL    HW222911   3.137   1.400   3.800
 7338SOL     OW22912   5.067   4.061   1.618
 7338SOL    HW122913   4.970   4.084   1.620
 7338SOL    HW222914   5.121   4.145   1.610
 7339SOL     OW22915   0.218   6.491   4.927
 7339SOL    HW122916   0.316   6.502   4.943
 7339SOL    HW222917   0.181   6.423   4.990
 7340SOL     OW22918   2.518   5.913   6.882
 7340SOL    HW122919   2.488   5.865   6.800
 7340SOL    HW222920   2.441   5.965   6.920
 7341SOL     OW22921   6.323   5.485   3.707
 7341SOL    HW122922   6.317   5.525   3.615
 7341SOL    HW222923   6.413   5.505   3.746
 7342SOL     OW22924   1.041   5.415   0.481
 7342SOL    HW122925   1.071   5.432   0.575
 7342SOL    HW222926   1.102   5.349   0.438
 7343SOL     OW22927   6.529   2.290   3.171
 7343SOL    HW122928   6.441   2.313   3.130
 7343SOL    HW222929   6.533   2.323   3.265
 7344SOL     OW22930   2.263   0.840   6.286
 7344SOL    HW122931   2.354   0.877   6.267
 7344SOL    HW222932   2.260   0.743   6.262
 7345SOL     OW22933   2.257   6.530   6.522
 7345SOL    HW122934   2.213   6.619   6.533
 7345SOL    HW222935   2.327   6.537   6.451
 7346SOL     OW22936   3.993   4.775   2.527
 7346SOL    HW122937   3.897   4.796   2.511
 7346SOL    HW222938   4.041   4.858   2.555
 7347SOL     OW22939   6.600   2.991   3.056
 7347SOL    HW122940   6.693   2.975   3.023
 7347SOL    HW222941   6.535   2.947   2.994
 7348SOL     OW22942   6.731   1.366   6.059
 7348SOL    HW122943   6.778   1.281   6.035
 7348SOL    HW222944   6.731   1.377   6.159
 7349SOL     OW22945   4.023   1.630   1.575
 7349SOL    HW122946   3.974   1.649   1.490
 7349SOL    HW222947   4.080   1.709   1.599
 7350SOL     OW22948   2.760   0.932   2.955
 7350SOL    HW122949   2.826   0.960   3.024
 7350SOL    HW222950   2.724   1.013   2.908
 7351SOL     OW22951   4.407   4.516   0.991
 7351SOL    HW122952   4.385   4.605   0.951
 7351SOL    HW222953   4.406   4.446   0.920
 7352SOL     OW22954   6.759   0.692   3.266
 7352SOL    HW122955   6.701   0.611   3.256
 7352SOL    HW222956   6.761   0.720   3.362
 7353SOL     OW22957   5.609   1.375   5.417
 7353SOL    HW122958   5.537   1.371   5.487
 7353SOL    HW222959   5.685   1.315   5.444
 7354SOL     OW22960   6.003   4.843   4.796
 7354SOL    HW122961   5.972   4.843   4.700
 7354SOL    HW222962   5.989   4.934   4.835
 7355SOL     OW22963   0.507   5.572   0.976
 7355SOL    HW122964   0.606   5.577   0.964
 7355SOL    HW222965   0.486   5.561   1.073
 7356SOL     OW22966   0.263   2.504   5.908
 7356SOL    HW122967   0.263   2.412   5.870
 7356SOL    HW222968   0.355   2.525   5.944
 7357SOL     OW22969   0.783   1.584   6.898
 7357SOL    HW122970   0.832   1.537   6.825
 7357SOL    HW222971   0.734   1.517   6.954
 7358SOL     OW22972   3.402   0.935   3.834
 7358SOL    HW122973   3.433   0.926   3.739
 7358SOL    HW222974   3.420   1.028   3.866
 7359SOL     OW22975   3.280   3.027   3.477
 7359SOL    HW122976   3.368   2.987   3.504
 7359SOL    HW222977   3.285   3.059   3.382
 7360SOL     OW22978   0.555   3.950   6.485
 7360SOL    HW122979   0.553   3.890   6.565
 7360SOL    HW222980   0.474   4.009   6.486
 7361SOL     OW22981   4.499   6.726   1.508
 7361SOL    HW122982   4.467   6.738   1.413
 7361SOL    HW222983   4.521   6.629   1.523
 7362SOL     OW22984   1.937   6.318   6.323
 7362SOL    HW122985   1.856   6.366   6.290
 7362SOL    HW222986   1.998   6.297   6.247
 7363SOL     OW22987   4.851   2.982   6.657
 7363SOL    HW122988   4.896   3.066   6.626
 7363SOL    HW222989   4.921   2.916   6.686
 7364SOL     OW22990   4.696   0.434   1.387
 7364SOL    HW122991   4.612   0.444   1.441
 7364SOL    HW222992   4.712   0.337   1.368
 7365SOL     OW22993   4.574   0.124   1.654
 7365SOL    HW122994   4.652   0.164   1.606
 7365SOL    HW222995   4.578   0.148   1.751
 7366SOL     OW22996   1.188   6.651   0.211
 7366SOL    HW122997   1.253   6.600   0.266
 7366SOL    HW222998   1.229   6.737   0.180
 7367SOL     OW22999   4.777   2.698   0.074
 7367SOL    HW123000   4.809   2.784   0.113
 7367SOL    HW223001   4.837   2.623   0.104
 7368SOL     OW23002   3.178   3.104   4.129
 7368SOL    HW123003   3.188   3.132   4.033
 7368SOL    HW223004   3.226   3.169   4.188
 7369SOL     OW23005   5.277   0.982   5.997
 7369SOL    HW123006   5.315   1.005   5.908
 7369SOL    HW223007   5.230   0.894   5.992
 7370SOL     OW23008   0.998   5.932   1.048
 7370SOL    HW123009   1.039   5.931   1.139
 7370SOL    HW223010   1.043   5.864   0.990
 7371SOL     OW23011   1.901   4.733   4.440
 7371SOL    HW123012   1.979   4.764   4.385
 7371SOL    HW223013   1.861   4.811   4.487
 7372SOL     OW23014   3.022   0.217   5.266
 7372SOL    HW123015   3.021   0.311   5.232
 7372SOL    HW223016   2.928   0.182   5.270
 7373SOL     OW23017   3.718   0.423   0.880
 7373SOL    HW123018   3.785   0.455   0.946
 7373SOL    HW223019   3.696   0.327   0.897
 7374SOL     OW23020   2.283   3.250   6.620
 7374SOL    HW123021   2.296   3.266   6.718
 7374SOL    HW223022   2.371   3.256   6.573
 7375SOL     OW23023   2.637   6.209   3.019
 7375SOL    HW123024   2.668   6.115   3.034
 7375SOL    HW223025   2.567   6.232   3.086
 7376SOL     OW23026   2.993   4.034   6.180
 7376SOL    HW123027   2.983   3.940   6.146
 7376SOL    HW223028   3.015   4.032   6.277
 7377SOL     OW23029   6.153   6.007   1.359
 7377SOL    HW123030   6.053   6.006   1.354
 7377SOL    HW223031   6.186   6.100   1.341
 7378SOL     OW23032   0.289   2.583   5.636
 7378SOL    HW123033   0.294   2.579   5.736
 7378SOL    HW223034   0.193   2.587   5.607
 7379SOL     OW23035   4.242   0.699   0.622
 7379SOL    HW123036   4.258   0.766   0.695
 7379SOL    HW223037   4.304   0.717   0.546
 7380SOL     OW23038   6.809   2.720   5.931
 7380SOL    HW123039   6.829   2.809   5.971
 7380SOL    HW223040   6.895   2.672   5.913
 7381SOL     OW23041   4.751   2.347   0.630
 7381SOL    HW123042   4.773   2.365   0.726
 7381SOL    HW223043   4.730   2.433   0.583
 7382SOL     OW23044   0.833   5.812   3.879
 7382SOL    HW123045   0.833   5.801   3.978
 7382SOL    HW223046   0.750   5.771   3.841
 7383SOL     OW23047   1.180   4.835   3.036
 7383SOL    HW123048   1.239   4.907   3.072
 7383SOL    HW223049   1.140   4.785   3.113
 7384SOL     OW23050   6.392   2.049   1.096
 7384SOL    HW123051   6.316   2.059   1.032
 7384SOL    HW223052   6.449   2.132   1.093
 7385SOL     OW23053   4.924   0.627   1.636
 7385SOL    HW123054   4.991   0.674   1.694
 7385SOL    HW223055   4.891   0.545   1.683
 7386SOL     OW23056   0.118   2.299   6.145
 7386SOL    HW123057   0.177   2.370   6.183
 7386SOL    HW223058   0.161   2.210   6.155
 7387SOL     OW23059   5.473   6.409   3.775
 7387SOL    HW123060   5.507   6.474   3.843
 7387SOL    HW223061   5.479   6.450   3.684
 7388SOL     OW23062   5.330   4.138   5.156
 7388SOL    HW123063   5.270   4.215   5.135
 7388SOL    HW223064   5.326   4.071   5.082
 7389SOL     OW23065   0.649   3.732   4.560
 7389SOL    HW123066   0.667   3.643   4.518
 7389SOL    HW223067   0.610   3.719   4.651
 7390SOL     OW23068   3.536   0.391   6.109
 7390SOL    HW123069   3.592   0.474   6.102
 7390SOL    HW223070   3.470   0.402   6.184
 7391SOL     OW23071   0.132   4.775   0.010
 7391SOL    HW123072   0.220   4.794   0.053
 7391SOL    HW223073   0.143   4.703   6.965
 7392SOL     OW23074   2.075   4.730   2.385
 7392SOL    HW123075   2.077   4.681   2.298
 7392SOL    HW223076   2.168   4.742   2.418
 7393SOL     OW23077   0.951   4.136   0.209
 7393SOL    HW123078   1.049   4.136   0.230
 7393SOL    HW223079   0.900   4.107   0.290
 7394SOL     OW23080   2.587   2.591   5.861
 7394SOL    HW123081   2.619   2.654   5.790
 7394SOL    HW223082   2.537   2.515   5.819
 7395SOL     OW23083   2.239   6.975   6.904
 7395SOL    HW123084   2.165   7.005   6.964
 7395SOL    HW223085   2.211   6.985   6.808
 7396SOL     OW23086   6.613   0.011   1.842
 7396SOL    HW123087   6.549   0.080   1.877
 7396SOL    HW223088   6.587   7.010   1.748
 7397SOL     OW23089   6.350   4.247   4.444
 7397SOL    HW123090   6.325   4.273   4.538
 7397SOL    HW223091   6.345   4.328   4.385
 7398SOL     OW23092   4.724   6.627   3.074
 7398SOL    HW123093   4.628   6.608   3.050
 7398SOL    HW223094   4.738   6.726   3.077
 7399SOL     OW23095   5.390   4.516   4.641
 7399SOL    HW123096   5.296   4.506   4.675
 7399SOL    HW223097   5.411   4.441   4.578
 7400SOL     OW23098   3.218   3.801   0.463
 7400SOL    HW123099   3.153   3.726   0.477
 7400SOL    HW223100   3.256   3.794   0.371
 7401SOL     OW23101   5.866   2.269   5.310
 7401SOL    HW123102   5.934   2.323   5.359
 7401SOL    HW223103   5.866   2.295   5.213
 7402SOL     OW23104   2.872   6.312   4.306
 7402SOL    HW123105   2.789   6.286   4.257
 7402SOL    HW223106   2.952   6.294   4.248
 7403SOL     OW23107   3.019   2.610   1.184
 7403SOL    HW123108   3.115   2.581   1.189
 7403SOL    HW223109   2.960   2.530   1.178
 7404SOL     OW23110   0.900   1.941   2.563
 7404SOL    HW123111   0.871   2.023   2.513
 7404SOL    HW223112   0.974   1.896   2.513
 7405SOL     OW23113   3.998   4.833   6.222
 7405SOL    HW123114   3.911   4.785   6.234
 7405SOL    HW223115   4.061   4.806   6.295
 7406SOL     OW23116   0.267   6.409   1.983
 7406SOL    HW123117   0.352   6.361   2.008
 7406SOL    HW223118   0.253   6.485   2.046
 7407SOL     OW23119   2.953   0.510   6.064
 7407SOL    HW123120   2.938   0.412   6.071
 7407SOL    HW223121   2.939   0.540   5.970
 7408SOL     OW23122   0.892   3.625   5.118
 7408SOL    HW123123   0.831   3.686   5.168
 7408SOL    HW223124   0.934   3.560   5.182
 7409SOL     OW23125   2.603   6.785   5.393
 7409SOL    HW123126   2.550   6.725   5.333
 7409SOL    HW223127   2.573   6.880   5.378
 7410SOL     OW23128   4.825   5.232   6.320
 7410SOL    HW123129   4.828   5.316   6.265
 7410SOL    HW223130   4.849   5.154   6.263
 7411SOL     OW23131   4.963   4.863   5.835
 7411SOL    HW123132   4.957   4.953   5.878
 7411SOL    HW223133   4.874   4.819   5.836
 7412SOL     OW23134   1.418   1.248   6.470
 7412SOL    HW123135   1.480   1.284   6.540
 7412SOL    HW223136   1.340   1.311   6.460
 7413SOL     OW23137   6.536   3.769   3.999
 7413SOL    HW123138   6.602   3.733   4.065
 7413SOL    HW223139   6.495   3.853   4.035
 7414SOL     OW23140   0.570   4.888   1.518
 7414SOL    HW123141   0.634   4.821   1.481
 7414SOL    HW223142   0.481   4.877   1.473
 7415SOL     OW23143   3.246   1.814   3.358
 7415SOL    HW123144   3.235   1.736   3.297
 7415SOL    HW223145   3.201   1.794   3.445
 7416SOL     OW23146   6.340   6.862   3.357
 7416SOL    HW123147   6.383   6.888   3.270
 7416SOL    HW223148   6.372   6.923   3.429
 7417SOL     OW23149   0.747   5.471   0.675
 7417SOL    HW123150   0.764   5.562   0.712
 7417SOL    HW223151   0.679   5.477   0.602
 7418SOL     OW23152   1.019   3.642   0.473
 7418SOL    HW123153   1.112   3.609   0.460
 7418SOL    HW223154   0.998   3.710   0.402
 7419SOL     OW23155   5.727   1.851   5.470
 7419SOL    HW123156   5.760   1.921   5.533
 7419SOL    HW223157   5.639   1.815   5.502
 7420SOL     OW23158   6.791   5.620   2.387
 7420SOL    HW123159   6.722   5.690   2.408
 7420SOL    HW223160   6.882   5.659   2.398
 7421SOL     OW23161   4.439   2.218   1.108
 7421SOL    HW123162   4.458   2.285   1.036
 7421SOL    HW223163   4.389   2.140   1.068
 7422SOL     OW23164   0.789   1.435   0.538
 7422SOL    HW123165   0.749   1.348   0.564
 7422SOL    HW223166   0.798   1.494   0.618
 7423SOL     OW23167   2.492   4.445   0.083
 7423SOL    HW123168   2.468   4.505   0.007
 7423SOL    HW223169   2.408   4.402   0.118
 7424SOL     OW23170   5.249   0.218   4.825
 7424SOL    HW123171   5.267   0.130   4.869
 7424SOL    HW223172   5.281   0.215   4.730
 7425SOL     OW23173   3.983   0.409   4.865
 7425SOL    HW123174   4.061   0.450   4.818
 7425SOL    HW223175   3.901   0.419   4.809
 7426SOL     OW23176   0.084   1.833   0.064
 7426SOL    HW123177   0.077   1.786   7.000
 7426SOL    HW223178   0.124   1.924   0.050
 7427SOL     OW23179   5.157   5.710   5.106
 7427SOL    HW123180   5.079   5.771   5.095
 7427SOL    HW223181   5.239   5.764   5.125
 7428SOL     OW23182   4.080   1.201   5.824
 7428SOL    HW123183   4.166   1.214   5.775
 7428SOL    HW223184   4.087   1.240   5.916
 7429SOL     OW23185   6.519   6.507   4.043
 7429SOL    HW123186   6.596   6.509   4.106
 7429SOL    HW223187   6.449   6.572   4.074
 7430SOL     OW23188   0.636   4.244   4.576
 7430SOL    HW123189   0.669   4.193   4.496
 7430SOL    HW223190   0.578   4.185   4.631
 7431SOL     OW23191   0.564   4.194   2.465
 7431SOL    HW123192   0.644   4.190   2.404
 7431SOL    HW223193   0.553   4.287   2.499
 7432SOL     OW23194   1.428   6.719   5.024
 7432SOL    HW123195   1.439   6.655   5.100
 7432SOL    HW223196   1.334   6.717   4.992
 7433SOL     OW23197   0.307   6.099   0.840
 7433SOL    HW123198   0.273   6.062   0.926
 7433SOL    HW223199   0.247   6.071   0.765
 7434SOL     OW23200   3.841   0.020   0.150
 7434SOL    HW123201   3.777   0.021   0.226
 7434SOL    HW223202   3.929   7.007   0.180
 7435SOL     OW23203   1.723   6.190   0.008
 7435SOL    HW123204   1.741   6.128   0.084
 7435SOL    HW223205   1.755   6.148   6.946
 7436SOL     OW23206   4.190   3.419   0.267
 7436SOL    HW123207   4.232   3.468   0.191
 7436SOL    HW223208   4.145   3.336   0.234
 7437SOL     OW23209   6.959   6.420   5.658
 7437SOL    HW123210   6.941   6.438   5.562
 7437SOL    HW223211   6.921   6.494   5.714
 7438SOL     OW23212   5.618   3.743   1.582
 7438SOL    HW123213   5.563   3.782   1.657
 7438SOL    HW223214   5.711   3.726   1.615
 7439SOL     OW23215   1.065   6.339   3.326
 7439SOL    HW123216   1.121   6.421   3.322
 7439SOL    HW223217   1.061   6.305   3.420
 7440SOL     OW23218   0.482   1.689   3.812
 7440SOL    HW123219   0.397   1.668   3.861
 7440SOL    HW223220   0.470   1.774   3.761
 7441SOL     OW23221   6.250   0.226   3.613
 7441SOL    HW123222   6.275   0.322   3.620
 7441SOL    HW223223   6.318   0.178   3.558
 7442SOL     OW23224   1.939   0.641   5.803
 7442SOL    HW123225   1.948   0.591   5.717
 7442SOL    HW223226   2.013   0.616   5.864
 7443SOL     OW23227   6.884   1.901   1.818
 7443SOL    HW123228   6.981   1.888   1.840
 7443SOL    HW223229   6.872   1.985   1.766
 7444SOL     OW23230   0.198   2.621   4.850
 7444SOL    HW123231   0.107   2.627   4.892
 7444SOL    HW223232   0.236   2.530   4.865
 7445SOL     OW23233   5.983   3.256   1.901
 7445SOL    HW123234   5.995   3.157   1.913
 7445SOL    HW223235   6.059   3.292   1.847
 7446SOL     OW23236   6.298   3.303   2.801
 7446SOL    HW123237   6.342   3.393   2.791
 7446SOL    HW223238   6.313   3.269   2.893
 7447SOL     OW23239   0.097   3.976   6.212
 7447SOL    HW123240   0.055   4.023   6.135
 7447SOL    HW223241   0.109   3.879   6.191
 7448SOL     OW23242   0.507   6.813   6.370
 7448SOL    HW123243   0.425   6.845   6.323
 7448SOL    HW223244   0.481   6.746   6.440
 7449SOL     OW23245   4.192   0.187   1.384
 7449SOL    HW123246   4.256   0.134   1.441
 7449SOL    HW223247   4.126   0.233   1.444
 7450SOL     OW23248   3.863   0.633   2.157
 7450SOL    HW123249   3.883   0.536   2.172
 7450SOL    HW223250   3.764   0.647   2.155
 7451SOL     OW23251   1.455   0.460   2.849
 7451SOL    HW123252   1.439   0.465   2.948
 7451SOL    HW223253   1.398   0.529   2.803
 7452SOL     OW23254   1.746   6.580   3.392
 7452SOL    HW123255   1.679   6.576   3.466
 7452SOL    HW223256   1.710   6.636   3.317
 7453SOL     OW23257   5.854   4.788   5.758
 7453SOL    HW123258   5.868   4.844   5.677
 7453SOL    HW223259   5.772   4.732   5.745
 7454SOL     OW23260   0.737   3.605   6.695
 7454SOL    HW123261   0.659   3.543   6.710
 7454SOL    HW223262   0.816   3.572   6.745
 7455SOL     OW23263   5.179   0.811   0.945
 7455SOL    HW123264   5.225   0.883   0.893
 7455SOL    HW223265   5.121   0.758   0.883
 7456SOL     OW23266   0.794   3.640   5.446
 7456SOL    HW123267   0.761   3.735   5.451
 7456SOL    HW223268   0.719   3.578   5.471
 7457SOL     OW23269   6.504   6.902   5.772
 7457SOL    HW123270   6.431   6.964   5.803
 7457SOL    HW223271   6.497   6.892   5.672
 7458SOL     OW23272   2.181   0.326   1.209
 7458SOL    HW123273   2.173   0.350   1.112
 7458SOL    HW223274   2.090   0.314   1.248
 7459SOL     OW23275   4.399   6.867   4.636
 7459SOL    HW123276   4.388   6.880   4.735
 7459SOL    HW223277   4.483   6.912   4.606
 7460SOL     OW23278   1.009   5.790   6.868
 7460SOL    HW123279   0.925   5.839   6.892
 7460SOL    HW223280   1.068   5.849   6.813
 7461SOL     OW23281   4.134   1.115   4.288
 7461SOL    HW123282   4.048   1.088   4.245
 7461SOL    HW223283   4.197   1.037   4.287
 7462SOL     OW23284   1.990   0.935   2.907
 7462SOL    HW123285   1.974   0.853   2.963
 7462SOL    HW223286   1.987   1.016   2.965
 7463SOL     OW23287   3.552   3.723   2.027
 7463SOL    HW123288   3.649   3.743   2.043
 7463SOL    HW223289   3.541   3.627   2.004
 7464SOL     OW23290   4.926   6.973   0.429
 7464SOL    HW123291   5.023   6.949   0.424
 7464SOL    HW223292   4.915   0.047   0.410
 7465SOL     OW23293   3.918   0.439   2.567
 7465SOL    HW123294   3.881   0.450   2.659
 7465SOL    HW223295   3.914   0.527   2.519
 7466SOL     OW23296   6.540   0.098   6.757
 7466SOL    HW123297   6.452   0.051   6.748
 7466SOL    HW223298   6.557   0.119   6.854
 7467SOL     OW23299   5.045   1.749   0.806
 7467SOL    HW123300   4.953   1.751   0.768
 7467SOL    HW223301   5.040   1.758   0.905
 7468SOL     OW23302   6.265   3.766   4.264
 7468SOL    HW123303   6.252   3.675   4.225
 7468SOL    HW223304   6.217   3.772   4.352
 7469SOL     OW23305   5.953   0.852   2.259
 7469SOL    HW123306   6.049   0.862   2.234
 7469SOL    HW223307   5.897   0.850   2.176
 7470SOL     OW23308   0.108   3.406   2.762
 7470SOL    HW123309   0.008   3.408   2.762
 7470SOL    HW223310   0.139   3.314   2.738
 7471SOL     OW23311   6.287   4.825   5.853
 7471SOL    HW123312   6.229   4.883   5.910
 7471SOL    HW223313   6.248   4.734   5.847
 7472SOL     OW23314   4.383   4.965   3.051
 7472SOL    HW123315   4.444   4.924   2.983
 7472SOL    HW223316   4.307   4.903   3.069
 7473SOL     OW23317   0.734   3.021   5.302
 7473SOL    HW123318   0.778   3.088   5.362
 7473SOL    HW223319   0.782   3.016   5.215
 7474SOL     OW23320   3.304   1.628   2.842
 7474SOL    HW123321   3.306   1.700   2.910
 7474SOL    HW223322   3.220   1.635   2.787
 7475SOL     OW23323   4.405   1.126   6.761
 7475SOL    HW123324   4.457   1.047   6.794
 7475SOL    HW223325   4.325   1.140   6.819
 7476SOL     OW23326   2.552   0.116   4.907
 7476SOL    HW123327   2.502   0.134   4.823
 7476SOL    HW223328   2.622   0.046   4.890
 7477SOL     OW23329   4.857   3.840   3.845
 7477SOL    HW123330   4.864   3.842   3.745
 7477SOL    HW223331   4.825   3.929   3.877
 7478SOL     OW23332   1.380   4.749   1.812
 7478SOL    HW123333   1.363   4.722   1.717
 7478SOL    HW223334   1.373   4.669   1.872
 7479SOL     OW23335   4.324   0.541   5.424
 7479SOL    HW123336   4.323   0.448   5.387
 7479SOL    HW223337   4.287   0.604   5.355
 7480SOL     OW23338   6.559   5.442   0.868
 7480SOL    HW123339   6.549   5.508   0.942
 7480SOL    HW223340   6.540   5.350   0.902
 7481SOL     OW23341   6.053   6.172   0.306
 7481SOL    HW123342   6.129   6.117   0.340
 7481SOL    HW223343   6.088   6.250   0.254
 7482SOL     OW23344   5.418   6.655   3.937
 7482SOL    HW123345   5.492   6.716   3.907
 7482SOL    HW223346   5.354   6.706   3.995
 7483SOL     OW23347   3.128   0.732   6.155
 7483SOL    HW123348   3.070   0.814   6.157
 7483SOL    HW223349   3.070   0.651   6.142
 7484SOL     OW23350   3.456   0.350   1.939
 7484SOL    HW123351   3.450   0.402   1.854
 7484SOL    HW223352   3.550   0.318   1.952
 7485SOL     OW23353   1.250   0.351   5.040
 7485SOL    HW123354   1.245   0.328   4.943
 7485SOL    HW223355   1.159   0.378   5.072
 7486SOL     OW23356   1.188   1.828   5.157
 7486SOL    HW123357   1.199   1.762   5.082
 7486SOL    HW223358   1.091   1.851   5.166
 7487SOL     OW23359   3.734   5.335   2.957
 7487SOL    HW123360   3.669   5.303   3.026
 7487SOL    HW223361   3.685   5.359   2.873
 7488SOL     OW23362   4.002   1.019   5.450
 7488SOL    HW123363   4.006   1.016   5.550
 7488SOL    HW223364   4.053   1.098   5.416
 7489SOL     OW23365   6.844   3.866   3.425
 7489SOL    HW123366   6.939   3.839   3.411
 7489SOL    HW223367   6.784   3.790   3.401
 7490SOL     OW23368   5.577   1.048   3.352
 7490SOL    HW123369   5.607   1.143   3.344
 7490SOL    HW223370   5.643   0.989   3.305
 7491SOL     OW23371   0.309   6.988   6.957
 7491SOL    HW123372   0.217   6.972   6.920
 7491SOL    HW223373   0.334   6.912   7.017
 7492SOL     OW23374   2.358   2.234   3.660
 7492SOL    HW123375   2.331   2.185   3.577
 7492SOL    HW223376   2.389   2.169   3.729
 7493SOL     OW23377   5.336   4.982   6.800
 7493SOL    HW123378   5.301   4.915   6.866
 7493SOL    HW223379   5.351   4.938   6.712
 7494SOL     OW23380   5.169   2.038   1.430
 7494SOL    HW123381   5.170   2.047   1.331
 7494SOL    HW223382   5.122   2.117   1.470
 7495SOL     OW23383   0.876   1.824   2.222
 7495SOL    HW123384   0.830   1.912   2.210
 7495SOL    HW223385   0.949   1.834   2.290
 7496SOL     OW23386   0.251   5.489   5.816
 7496SOL    HW123387   0.224   5.468   5.910
 7496SOL    HW223388   0.334   5.544   5.817
 7497SOL     OW23389   2.117   5.029   2.335
 7497SOL    HW123390   2.188   5.052   2.268
 7497SOL    HW223391   2.138   4.940   2.376
 7498SOL     OW23392   5.670   2.177   4.508
 7498SOL    HW123393   5.619   2.169   4.422
 7498SOL    HW223394   5.614   2.143   4.584
 7499SOL     OW23395   4.018   4.961   4.047
 7499SOL    HW123396   3.944   4.936   4.110
 7499SOL    HW223397   4.085   5.017   4.096
 7500SOL     OW23398   4.793   4.125   1.944
 7500SOL    HW123399   4.847   4.187   2.001
 7500SOL    HW223400   4.702   4.164   1.928
 7501SOL     OW23401   0.519   4.751   4.140
 7501SOL    HW123402   0.510   4.783   4.046
 7501SOL    HW223403   0.593   4.802   4.185
 7502SOL     OW23404   1.888   2.226   4.198
 7502SOL    HW123405   1.862   2.256   4.289
 7502SOL    HW223406   1.848   2.137   4.179
 7503SOL     OW23407   2.368   2.772   6.694
 7503SOL    HW123408   2.454   2.811   6.662
 7503SOL    HW223409   2.372   2.672   6.688
 7504SOL     OW23410   3.756   5.067   3.590
 7504SOL    HW123411   3.795   5.009   3.519
 7504SOL    HW223412   3.778   5.163   3.571
 7505SOL     OW23413   1.602   1.266   4.259
 7505SOL    HW123414   1.547   1.204   4.315
 7505SOL    HW223415   1.582   1.360   4.284
 7506SOL     OW23416   3.440   1.276   3.165
 7506SOL    HW123417   3.410   1.204   3.104
 7506SOL    HW223418   3.537   1.263   3.187
 7507SOL     OW23419   1.768   6.168   5.557
 7507SOL    HW123420   1.737   6.207   5.644
 7507SOL    HW223421   1.691   6.165   5.493
 7508SOL     OW23422   4.949   5.586   4.144
 7508SOL    HW123423   4.909   5.672   4.115
 7508SOL    HW223424   4.925   5.569   4.240
 7509SOL     OW23425   4.081   3.686   6.495
 7509SOL    HW123426   4.138   3.757   6.537
 7509SOL    HW223427   4.080   3.699   6.396
 7510SOL     OW23428   3.814   4.019   4.433
 7510SOL    HW123429   3.724   3.978   4.418
 7510SOL    HW223430   3.852   3.989   4.521
 7511SOL     OW23431   0.897   0.460   2.034
 7511SOL    HW123432   0.952   0.537   2.003
 7511SOL    HW223433   0.885   0.395   1.960
 7512SOL     OW23434   1.956   2.747   1.851
 7512SOL    HW123435   1.946   2.684   1.773
 7512SOL    HW223436   2.051   2.749   1.880
 7513SOL     OW23437   1.396   3.424   6.323
 7513SOL    HW123438   1.337   3.369   6.383
 7513SOL    HW223439   1.384   3.521   6.344
 7514SOL     OW23440   3.171   5.724   3.307
 7514SOL    HW123441   3.220   5.718   3.221
 7514SOL    HW223442   3.146   5.632   3.338
 7515SOL     OW23443   0.172   5.015   2.801
 7515SOL    HW123444   0.249   5.034   2.740
 7515SOL    HW223445   0.206   4.978   2.888
 7516SOL     OW23446   1.346   1.869   1.894
 7516SOL    HW123447   1.376   1.778   1.923
 7516SOL    HW223448   1.249   1.881   1.916
 7517SOL     OW23449   0.717   4.789   0.580
 7517SOL    HW123450   0.682   4.763   0.490
 7517SOL    HW223451   0.656   4.754   0.651
 7518SOL     OW23452   5.057   4.837   3.628
 7518SOL    HW123453   5.147   4.812   3.665
 7518SOL    HW223454   5.069   4.882   3.540
 7519SOL     OW23455   1.596   0.185   4.175
 7519SOL    HW123456   1.537   0.238   4.237
 7519SOL    HW223457   1.684   0.167   4.220
 7520SOL     OW23458   2.573   0.083   3.953
 7520SOL    HW123459   2.571   7.007   3.947
 7520SOL    HW223460   2.518   0.122   3.879
 7521SOL     OW23461   4.266   3.369   5.643
 7521SOL    HW123462   4.263   3.461   5.603
 7521SOL    HW223463   4.360   3.334   5.639
 7522SOL     OW23464   1.550   0.164   2.423
 7522SOL    HW123465   1.628   0.115   2.383
 7522SOL    HW223466   1.582   0.228   2.493
 7523SOL     OW23467   6.256   6.907   6.289
 7523SOL    HW123468   6.349   6.934   6.264
 7523SOL    HW223469   6.209   6.871   6.209
 7524SOL     OW23470   6.254   1.112   4.758
 7524SOL    HW123471   6.252   1.136   4.661
 7524SOL    HW223472   6.190   1.038   4.776
 7525SOL     OW23473   0.843   6.676   0.612
 7525SOL    HW123474   0.867   6.670   0.709
 7525SOL    HW223475   0.751   6.638   0.598
 7526SOL     OW23476   3.676   3.307   4.709
 7526SOL    HW123477   3.655   3.267   4.620
 7526SOL    HW223478   3.592   3.343   4.750
 7527SOL     OW23479   4.623   5.630   2.119
 7527SOL    HW123480   4.589   5.630   2.213
 7527SOL    HW223481   4.600   5.544   2.075
 7528SOL     OW23482   5.692   3.552   6.409
 7528SOL    HW123483   5.681   3.650   6.424
 7528SOL    HW223484   5.785   3.533   6.380
 7529SOL     OW23485   2.907   0.402   4.728
 7529SOL    HW123486   2.900   0.398   4.628
 7529SOL    HW223487   2.818   0.427   4.766
 7530SOL     OW23488   6.898   2.861   3.246
 7530SOL    HW123489   6.801   2.858   3.271
 7530SOL    HW223490   6.940   2.772   3.263
 7531SOL     OW23491   2.887   1.261   4.646
 7531SOL    HW123492   2.824   1.198   4.601
 7531SOL    HW223493   2.979   1.248   4.609
 7532SOL     OW23494   4.921   4.897   2.425
 7532SOL    HW123495   4.849   4.893   2.356
 7532SOL    HW223496   4.890   4.852   2.509
 7533SOL     OW23497   3.751   0.500   4.750
 7533SOL    HW123498   3.706   0.452   4.674
 7533SOL    HW223499   3.683   0.521   4.820
 7534SOL     OW23500   5.615   6.430   4.341
 7534SOL    HW123501   5.587   6.358   4.404
 7534SOL    HW223502   5.642   6.511   4.393
 7535SOL     OW23503   3.388   4.492   0.887
 7535SOL    HW123504   3.370   4.394   0.887
 7535SOL    HW223505   3.306   4.541   0.916
 7536SOL     OW23506   3.607   6.021   4.901
 7536SOL    HW123507   3.508   6.019   4.883
 7536SOL    HW223508   3.651   5.945   4.852
 7537SOL     OW23509   2.246   4.660   5.497
 7537SOL    HW123510   2.254   4.729   5.569
 7537SOL    HW223511   2.264   4.703   5.408
 7538SOL     OW23512   2.918   3.542   3.631
 7538SOL    HW123513   2.891   3.474   3.699
 7538SOL    HW223514   2.965   3.496   3.555
 7539SOL     OW23515   1.597   2.262   4.229
 7539SOL    HW123516   1.534   2.339   4.223
 7539SOL    HW223517   1.565   2.188   4.169
 7540SOL     OW23518   2.140   0.861   6.655
 7540SOL    HW123519   2.092   0.903   6.578
 7540SOL    HW223520   2.148   0.928   6.729
 7541SOL     OW23521   0.024   2.500   5.577
 7541SOL    HW123522   0.065   2.411   5.560
 7541SOL    HW223523   6.990   2.526   5.500
 7542SOL     OW23524   1.897   0.265   6.008
 7542SOL    HW123525   1.873   0.282   5.913
 7542SOL    HW223526   1.918   0.351   6.054
 7543SOL     OW23527   3.299   2.462   0.191
 7543SOL    HW123528   3.226   2.465   0.260
 7543SOL    HW223529   3.387   2.461   0.238
 7544SOL     OW23530   1.091   2.300   2.243
 7544SOL    HW123531   1.116   2.397   2.246
 7544SOL    HW223532   1.003   2.287   2.289
 7545SOL     OW23533   4.475   0.476   3.702
 7545SOL    HW123534   4.438   0.441   3.788
 7545SOL    HW223535   4.488   0.575   3.709
 7546SOL     OW23536   5.282   0.043   5.876
 7546SOL    HW123537   5.302   6.972   5.851
 7546SOL    HW223538   5.252   0.093   5.795
 7547SOL     OW23539   2.743   0.152   0.213
 7547SOL    HW123540   2.727   0.211   0.292
 7547SOL    HW223541   2.720   0.202   0.130
 7548SOL     OW23542   1.218   3.628   1.698
 7548SOL    HW123543   1.184   3.683   1.621
 7548SOL    HW223544   1.252   3.688   1.770
 7549SOL     OW23545   5.809   1.934   2.710
 7549SOL    HW123546   5.804   2.024   2.753
 7549SOL    HW223547   5.883   1.881   2.751
 7550SOL     OW23548   1.183   4.974   1.251
 7550SOL    HW123549   1.271   4.993   1.207
 7550SOL    HW223550   1.109   4.997   1.188
 7551SOL     OW23551   4.954   4.223   6.756
 7551SOL    HW123552   5.053   4.224   6.744
 7551SOL    HW223553   4.931   4.168   6.836
 7552SOL     OW23554   3.317   5.348   3.797
 7552SOL    HW123555   3.416   5.345   3.783
 7552SOL    HW223556   3.290   5.438   3.832
 7553SOL     OW23557   4.205   4.190   5.920
 7553SOL    HW123558   4.202   4.251   5.841
 7553SOL    HW223559   4.225   4.242   6.002
 7554SOL     OW23560   0.199   1.608   0.670
 7554SOL    HW123561   0.114   1.603   0.723
 7554SOL    HW223562   0.270   1.652   0.726
 7555SOL     OW23563   1.409   6.238   5.854
 7555SOL    HW123564   1.398   6.140   5.870
 7555SOL    HW223565   1.349   6.267   5.780
 7556SOL     OW23566   6.561   3.638   3.782
 7556SOL    HW123567   6.549   3.692   3.865
 7556SOL    HW223568   6.630   3.682   3.724
 7557SOL     OW23569   3.763   3.657   0.650
 7557SOL    HW123570   3.692   3.702   0.596
 7557SOL    HW223571   3.738   3.562   0.666
 7558SOL     OW23572   1.835   2.400   3.193
 7558SOL    HW123573   1.764   2.407   3.123
 7558SOL    HW223574   1.912   2.459   3.168
 7559SOL     OW23575   1.515   4.834   0.365
 7559SOL    HW123576   1.536   4.743   0.401
 7559SOL    HW223577   1.416   4.845   0.359
 7560SOL     OW23578   4.516   0.199   5.526
 7560SOL    HW123579   4.580   0.194   5.449
 7560SOL    HW223580   4.529   0.118   5.584
 7561SOL     OW23581   6.887   3.586   0.371
 7561SOL    HW123582   6.794   3.582   0.407
 7561SOL    HW223583   6.947   3.629   0.440
 7562SOL     OW23584   4.386   6.367   5.049
 7562SOL    HW123585   4.328   6.288   5.066
 7562SOL    HW223586   4.482   6.339   5.051
 7563SOL     OW23587   2.762   1.404   2.995
 7563SOL    HW123588   2.756   1.388   3.093
 7563SOL    HW223589   2.714   1.489   2.972
 7564SOL     OW23590   5.265   5.950   4.283
 7564SOL    HW123591   5.338   5.950   4.215
 7564SOL    HW223592   5.212   6.034   4.275
 7565SOL     OW23593   5.139   5.130   6.639
 7565SOL    HW123594   5.040   5.142   6.643
 7565SOL    HW223595   5.165   5.050   6.692
 7566SOL     OW23596   1.524   5.834   4.929
 7566SOL    HW123597   1.508   5.895   4.852
 7566SOL    HW223598   1.447   5.841   4.993
 7567SOL     OW23599   2.639   2.837   0.308
 7567SOL    HW123600   2.556   2.876   0.348
 7567SOL    HW223601   2.673   2.897   0.236
 7568SOL     OW23602   4.437   4.556   2.805
 7568SOL    HW123603   4.514   4.524   2.749
 7568SOL    HW223604   4.359   4.577   2.746
 7569SOL     OW23605   3.955   0.456   1.056
 7569SOL    HW123606   3.938   0.482   1.151
 7569SOL    HW223607   4.027   0.515   1.019
 7570SOL     OW23608   6.119   5.404   4.859
 7570SOL    HW123609   6.069   5.346   4.923
 7570SOL    HW223610   6.217   5.384   4.866
 7571SOL     OW23611   5.701   4.061   1.357
 7571SOL    HW123612   5.747   3.977   1.385
 7571SOL    HW223613   5.603   4.054   1.378
 7572SOL     OW23614   0.732   1.202   3.313
 7572SOL    HW123615   0.734   1.187   3.412
 7572SOL    HW223616   0.819   1.171   3.274
 7573SOL     OW23617   2.923   5.376   5.460
 7573SOL    HW123618   2.964   5.439   5.394
 7573SOL    HW223619   2.984   5.297   5.473
 7574SOL     OW23620   4.869   6.095   2.428
 7574SOL    HW123621   4.819   6.028   2.483
 7574SOL    HW223622   4.833   6.186   2.446
 7575SOL     OW23623   4.700   2.613   4.623
 7575SOL    HW123624   4.775   2.679   4.617
 7575SOL    HW223625   4.625   2.653   4.676
 7576SOL     OW23626   6.662   3.663   1.647
 7576SOL    HW123627   6.675   3.691   1.551
 7576SOL    HW223628   6.564   3.659   1.667
 7577SOL     OW23629   4.571   0.684   4.631
 7577SOL    HW123630   4.587   0.690   4.730
 7577SOL    HW223631   4.622   0.606   4.594
 7578SOL     OW23632   2.891   5.445   4.437
 7578SOL    HW123633   2.884   5.359   4.386
 7578SOL    HW223634   2.950   5.431   4.517
 7579SOL     OW23635   4.502   2.506   3.453
 7579SOL    HW123636   4.544   2.544   3.536
 7579SOL    HW223637   4.406   2.486   3.471
 7580SOL     OW23638   2.161   3.714   2.137
 7580SOL    HW123639   2.252   3.748   2.161
 7580SOL    HW223640   2.169   3.643   2.068
 7581SOL     OW23641   5.692   1.246   1.328
 7581SOL    HW123642   5.776   1.193   1.334
 7581SOL    HW223643   5.639   1.216   1.249
 7582SOL     OW23644   3.236   2.074   1.138
 7582SOL    HW123645   3.252   2.167   1.106
 7582SOL    HW223646   3.293   2.010   1.086
 7583SOL     OW23647   6.861   3.877   2.778
 7583SOL    HW123648   6.931   3.856   2.847
 7583SOL    HW223649   6.906   3.911   2.696
 7584SOL     OW23650   1.871   1.771   1.083
 7584SOL    HW123651   1.924   1.687   1.069
 7584SOL    HW223652   1.890   1.807   1.174
 7585SOL     OW23653   1.722   5.227   6.542
 7585SOL    HW123654   1.624   5.245   6.549
 7585SOL    HW223655   1.772   5.312   6.557
 7586SOL     OW23656   2.053   1.467   2.484
 7586SOL    HW123657   2.146   1.492   2.458
 7586SOL    HW223658   2.001   1.441   2.403
 7587SOL     OW23659   1.772   0.789   5.968
 7587SOL    HW123660   1.691   0.805   5.911
 7587SOL    HW223661   1.844   0.748   5.913
 7588SOL     OW23662   1.452   4.251   2.002
 7588SOL    HW123663   1.465   4.315   2.077
 7588SOL    HW223664   1.476   4.296   1.916
 7589SOL     OW23665   5.313   6.109   6.872
 7589SOL    HW123666   5.234   6.163   6.902
 7589SOL    HW223667   5.396   6.164   6.881
 7590SOL     OW23668   1.581   0.427   6.669
 7590SOL    HW123669   1.594   0.417   6.570
 7590SOL    HW223670   1.597   0.339   6.714
 7591SOL     OW23671   6.239   5.571   6.886
 7591SOL    HW123672   6.310   5.571   6.816
 7591SOL    HW223673   6.218   5.665   6.912
 7592SOL     OW23674   4.877   5.455   6.090
 7592SOL    HW123675   4.859   5.431   5.994
 7592SOL    HW223676   4.968   5.423   6.116
 7593SOL     OW23677   6.004   3.840   0.406
 7593SOL    HW123678   5.944   3.899   0.460
 7593SOL    HW223679   5.986   3.744   0.428
 7594SOL     OW23680   0.870   6.671   3.498
 7594SOL    HW123681   0.950   6.719   3.462
 7594SOL    HW223682   0.868   6.679   3.597
 7595SOL     OW23683   6.694   2.382   6.997
 7595SOL    HW123684   6.692   2.359   0.071
 7595SOL    HW223685   6.607   2.422   6.970
 7596SOL     OW23686   4.821   4.502   2.106
 7596SOL    HW123687   4.893   4.462   2.049
 7596SOL    HW223688   4.770   4.430   2.152
 7597SOL     OW23689   2.840   6.041   1.593
 7597SOL    HW123690   2.796   6.047   1.682
 7597SOL    HW223691   2.908   6.114   1.584
 7598SOL     OW23692   6.875   1.176   2.358
 7598SOL    HW123693   6.822   1.095   2.331
 7598SOL    HW223694   6.863   1.247   2.289
 7599SOL     OW23695   6.417   2.754   2.330
 7599SOL    HW123696   6.364   2.830   2.292
 7599SOL    HW223697   6.514   2.769   2.313
 7600SOL     OW23698   1.879   1.533   2.248
 7600SOL    HW123699   1.864   1.523   2.150
 7600SOL    HW223700   1.937   1.613   2.265
 7601SOL     OW23701   1.900   0.500   4.977
 7601SOL    HW123702   1.902   0.465   4.884
 7601SOL    HW223703   1.889   0.424   5.041
 7602SOL     OW23704   2.089   3.235   5.154
 7602SOL    HW123705   1.993   3.264   5.164
 7602SOL    HW223706   2.092   3.145   5.110
 7603SOL     OW23707   0.327   1.540   1.806
 7603SOL    HW123708   0.287   1.572   1.891
 7603SOL    HW223709   0.311   1.607   1.733
 7604SOL     OW23710   4.880   5.725   6.852
 7604SOL    HW123711   4.972   5.688   6.838
 7604SOL    HW223712   4.881   5.824   6.840
 7605SOL     OW23713   5.551   3.679   6.156
 7605SOL    HW123714   5.453   3.675   6.133
 7605SOL    HW223715   5.578   3.592   6.197
 7606SOL     OW23716   5.857   1.935   3.553
 7606SOL    HW123717   5.808   1.848   3.562
 7606SOL    HW223718   5.930   1.940   3.622
 7607SOL     OW23719   5.263   0.126   6.159
 7607SOL    HW123720   5.280   0.104   6.063
 7607SOL    HW223721   5.299   0.217   6.179
 7608SOL     OW23722   3.975   3.176   3.878
 7608SOL    HW123723   3.912   3.245   3.843
 7608SOL    HW223724   3.924   3.101   3.919
 7609SOL     OW23725   1.920   2.566   4.103
 7609SOL    HW123726   1.924   2.570   4.004
 7609SOL    HW223727   1.832   2.602   4.134
 7610SOL     OW23728   5.521   1.186   2.284
 7610SOL    HW123729   5.607   1.193   2.334
 7610SOL    HW223730   5.539   1.168   2.187
 7611SOL     OW23731   1.919   1.711   1.653
 7611SOL    HW123732   1.877   1.784   1.707
 7611SOL    HW223733   1.957   1.642   1.716
 7612SOL     OW23734   4.213   1.476   2.551
 7612SOL    HW123735   4.282   1.544   2.525
 7612SOL    HW223736   4.237   1.388   2.509
 7613SOL     OW23737   5.245   0.923   3.176
 7613SOL    HW123738   5.191   1.003   3.149
 7613SOL    HW223739   5.190   0.840   3.167
 7614SOL     OW23740   3.882   1.253   0.333
 7614SOL    HW123741   3.818   1.209   0.270
 7614SOL    HW223742   3.915   1.185   0.399
 7615SOL     OW23743   4.031   4.574   5.840
 7615SOL    HW123744   4.044   4.558   5.938
 7615SOL    HW223745   4.063   4.666   5.817
 7616SOL     OW23746   6.873   4.739   3.408
 7616SOL    HW123747   6.862   4.660   3.349
 7616SOL    HW223748   6.938   4.718   3.481
 7617SOL     OW23749   3.515   6.075   2.515
 7617SOL    HW123750   3.568   6.135   2.455
 7617SOL    HW223751   3.558   6.073   2.606
 7618SOL     OW23752   2.108   2.283   0.507
 7618SOL    HW123753   2.137   2.379   0.498
 7618SOL    HW223754   2.016   2.280   0.546
 7619SOL     OW23755   5.653   3.405   5.688
 7619SOL    HW123756   5.679   3.313   5.661
 7619SOL    HW223757   5.730   3.449   5.734
 7620SOL     OW23758   2.748   6.631   1.554
 7620SOL    HW123759   2.804   6.615   1.635
 7620SOL    HW223760   2.672   6.567   1.553
 7621SOL     OW23761   2.251   2.108   1.143
 7621SOL    HW123762   2.255   2.208   1.136
 7621SOL    HW223763   2.324   2.077   1.205
 7622SOL     OW23764   5.609   1.575   1.152
 7622SOL    HW123765   5.561   1.660   1.131
 7622SOL    HW223766   5.560   1.526   1.225
 7623SOL     OW23767   5.585   6.992   5.198
 7623SOL    HW123768   5.588   0.065   5.171
 7623SOL    HW223769   5.665   6.945   5.160
 7624SOL     OW23770   6.555   0.945   4.504
 7624SOL    HW123771   6.635   0.919   4.559
 7624SOL    HW223772   6.553   1.044   4.493
 7625SOL     OW23773   3.911   6.199   0.864
 7625SOL    HW123774   3.812   6.188   0.856
 7625SOL    HW223775   3.944   6.258   0.790
 7626SOL     OW23776   2.554   4.586   4.651
 7626SOL    HW123777   2.554   4.598   4.750
 7626SOL    HW223778   2.641   4.618   4.613
 7627SOL     OW23779   6.815   1.532   6.999
 7627SOL    HW123780   6.877   1.502   0.048
 7627SOL    HW223781   6.807   1.632   7.002
 7628SOL     OW23782   4.422   1.784   0.809
 7628SOL    HW123783   4.518   1.788   0.835
 7628SOL    HW223784   4.407   1.840   0.728
 7629SOL     OW23785   6.419   5.225   3.580
 7629SOL    HW123786   6.415   5.288   3.502
 7629SOL    HW223787   6.369   5.263   3.657
 7630SOL     OW23788   6.507   1.490   2.123
 7630SOL    HW123789   6.531   1.577   2.165
 7630SOL    HW223790   6.435   1.505   2.055
 7631SOL     OW23791   1.469   1.522   3.726
 7631SOL    HW123792   1.558   1.568   3.727
 7631SOL    HW223793   1.472   1.441   3.784
 7632SOL     OW23794   4.368   1.041   6.192
 7632SOL    HW123795   4.327   1.027   6.283
 7632SOL    HW223796   4.462   1.006   6.193
 7633SOL     OW23797   5.233   5.162   6.363
 7633SOL    HW123798   5.178   5.127   6.439
 7633SOL    HW223799   5.329   5.166   6.391
 7634SOL     OW23800   0.767   2.597   1.920
 7634SOL    HW123801   0.833   2.522   1.929
 7634SOL    HW223802   0.685   2.574   1.972
 7635SOL     OW23803   2.717   5.129   6.208
 7635SOL    HW123804   2.750   5.187   6.134
 7635SOL    HW223805   2.793   5.075   6.245
 7636SOL     OW23806   2.370   0.480   3.821
 7636SOL    HW123807   2.310   0.486   3.901
 7636SOL    HW223808   2.380   0.384   3.794
 7637SOL     OW23809   2.158   6.229   4.208
 7637SOL    HW123810   2.209   6.213   4.123
 7637SOL    HW223811   2.114   6.319   4.203
 7638SOL     OW23812   4.079   4.200   1.385
 7638SOL    HW123813   4.137   4.211   1.466
 7638SOL    HW223814   4.069   4.288   1.340
 7639SOL     OW23815   6.978   2.397   4.614
 7639SOL    HW123816   0.022   2.470   4.626
 7639SOL    HW223817   7.021   2.308   4.631
 7640SOL     OW23818   2.455   3.249   5.580
 7640SOL    HW123819   2.481   3.345   5.593
 7640SOL    HW223820   2.416   3.237   5.489
 7641SOL     OW23821   6.279   2.600   3.494
 7641SOL    HW123822   6.184   2.585   3.520
 7641SOL    HW223823   6.296   2.698   3.482
 7642SOL     OW23824   2.030   1.034   2.643
 7642SOL    HW123825   2.019   1.014   2.741
 7642SOL    HW223826   2.072   0.956   2.597
 7643SOL     OW23827   5.797   2.940   3.326
 7643SOL    HW123828   5.776   2.877   3.400
 7643SOL    HW223829   5.799   2.891   3.239
 7644SOL     OW23830   6.429   4.039   3.498
 7644SOL    HW123831   6.401   4.092   3.578
 7644SOL    HW223832   6.388   4.080   3.416
 7645SOL     OW23833   3.933   2.923   0.155
 7645SOL    HW123834   4.033   2.932   0.151
 7645SOL    HW223835   3.899   2.887   0.068
 7646SOL     OW23836   0.648   1.041   1.840
 7646SOL    HW123837   0.716   1.057   1.911
 7646SOL    HW223838   0.663   1.106   1.765
 7647SOL     OW23839   2.566   5.128   1.098
 7647SOL    HW123840   2.523   5.173   1.176
 7647SOL    HW223841   2.550   5.181   1.015
 7648SOL     OW23842   3.600   0.543   4.075
 7648SOL    HW123843   3.540   0.510   4.148
 7648SOL    HW223844   3.638   0.464   4.026
 7649SOL     OW23845   2.881   1.318   1.705
 7649SOL    HW123846   2.793   1.332   1.750
 7649SOL    HW223847   2.953   1.364   1.757
 7650SOL     OW23848   6.122   4.408   1.254
 7650SOL    HW123849   6.103   4.316   1.218
 7650SOL    HW223850   6.111   4.408   1.353
 7651SOL     OW23851   4.678   2.293   6.390
 7651SOL    HW123852   4.739   2.371   6.408
 7651SOL    HW223853   4.588   2.311   6.429
 7652SOL     OW23854   1.644   3.486   2.828
 7652SOL    HW123855   1.699   3.505   2.747
 7652SOL    HW223856   1.564   3.547   2.831
 7653SOL     OW23857   4.020   2.095   1.479
 7653SOL    HW123858   4.088   2.027   1.452
 7653SOL    HW223859   3.996   2.082   1.575
 7654SOL     OW23860   4.854   3.572   4.289
 7654SOL    HW123861   4.883   3.641   4.354
 7654SOL    HW223862   4.834   3.615   4.201
 7655SOL     OW23863   4.516   5.971   5.486
 7655SOL    HW123864   4.477   5.889   5.527
 7655SOL    HW223865   4.482   5.982   5.393
 7656SOL     OW23866   1.240   6.843   4.054
 7656SOL    HW123867   1.237   6.770   4.123
 7656SOL    HW223868   1.299   6.916   4.087
 7657SOL     OW23869   4.552   1.812   4.143
 7657SOL    HW123870   4.543   1.786   4.047
 7657SOL    HW223871   4.494   1.754   4.200
 7658SOL     OW23872   4.245   0.213   6.758
 7658SOL    HW123873   4.326   0.187   6.707
 7658SOL    HW223874   4.163   0.196   6.703
 7659SOL     OW23875   5.280   6.625   0.329
 7659SOL    HW123876   5.227   6.563   0.272
 7659SOL    HW223877   5.297   6.581   0.418
 7660SOL     OW23878   5.858   4.840   4.541
 7660SOL    HW123879   5.859   4.779   4.462
 7660SOL    HW223880   5.799   4.918   4.522
 7661SOL     OW23881   6.060   3.239   4.044
 7661SOL    HW123882   5.999   3.244   3.965
 7661SOL    HW223883   6.006   3.237   4.128
 7662SOL     OW23884   6.727   5.870   2.844
 7662SOL    HW123885   6.764   5.785   2.807
 7662SOL    HW223886   6.781   5.899   2.923
 7663SOL     OW23887   6.713   5.870   6.810
 7663SOL    HW123888   6.651   5.927   6.863
 7663SOL    HW223889   6.801   5.917   6.799
 7664SOL     OW23890   2.665   5.557   4.996
 7664SOL    HW123891   2.647   5.606   4.910
 7664SOL    HW223892   2.579   5.538   5.042
 7665SOL     OW23893   2.284   5.827   4.168
 7665SOL    HW123894   2.286   5.870   4.078
 7665SOL    HW223895   2.192   5.790   4.185
 7666SOL     OW23896   2.204   1.183   1.180
 7666SOL    HW123897   2.127   1.125   1.153
 7666SOL    HW223898   2.173   1.278   1.183
 7667SOL     OW23899   4.675   5.824   6.293
 7667SOL    HW123900   4.721   5.912   6.281
 7667SOL    HW223901   4.678   5.772   6.208
 7668SOL     OW23902   2.879   3.901   1.475
 7668SOL    HW123903   2.856   3.998   1.465
 7668SOL    HW223904   2.976   3.892   1.500
 7669SOL     OW23905   4.437   6.557   4.851
 7669SOL    HW123906   4.392   6.494   4.915
 7669SOL    HW223907   4.390   6.554   4.763
 7670SOL     OW23908   1.404   5.755   0.856
 7670SOL    HW123909   1.419   5.708   0.943
 7670SOL    HW223910   1.490   5.761   0.805
 7671SOL     OW23911   5.496   2.553   5.092
 7671SOL    HW123912   5.427   2.487   5.065
 7671SOL    HW223913   5.505   2.553   5.192
 7672SOL     OW23914   6.099   0.332   2.140
 7672SOL    HW123915   6.048   0.408   2.100
 7672SOL    HW223916   6.196   0.343   2.123
 7673SOL     OW23917   0.401   4.552   6.895
 7673SOL    HW123918   0.475   4.619   6.885
 7673SOL    HW223919   0.383   4.536   6.992
 7674SOL     OW23920   6.114   1.171   5.377
 7674SOL    HW123921   6.135   1.122   5.462
 7674SOL    HW223922   6.192   1.228   5.352
 7675SOL     OW23923   5.000   6.985   3.208
 7675SOL    HW123924   4.965   0.041   3.159
 7675SOL    HW223925   4.997   6.905   3.148
 7676SOL     OW23926   1.267   0.290   1.833
 7676SOL    HW123927   1.255   0.378   1.786
 7676SOL    HW223928   1.259   0.304   1.932
 7677SOL     OW23929   1.833   2.069   2.919
 7677SOL    HW123930   1.803   1.985   2.874
 7677SOL    HW223931   1.758   2.107   2.973
 7678SOL     OW23932   5.138   6.627   6.132
 7678SOL    HW123933   5.043   6.653   6.148
 7678SOL    HW223934   5.163   6.649   6.038
 7679SOL     OW23935   1.272   4.960   4.904
 7679SOL    HW123936   1.339   4.887   4.918
 7679SOL    HW223937   1.184   4.920   4.878
 7680SOL     OW23938   4.728   1.216   6.719
 7680SOL    HW123939   4.689   1.293   6.769
 7680SOL    HW223940   4.811   1.246   6.672
 7681SOL     OW23941   2.627   1.829   5.849
 7681SOL    HW123942   2.715   1.866   5.819
 7681SOL    HW223943   2.642   1.739   5.890
 7682SOL     OW23944   2.385   0.214   1.378
 7682SOL    HW123945   2.310   0.251   1.324
 7682SOL    HW223946   2.350   0.177   1.464
 7683SOL     OW23947   6.027   1.858   2.902
 7683SOL    HW123948   6.001   1.930   2.966
 7683SOL    HW223949   6.066   1.781   2.952
 7684SOL     OW23950   4.350   2.447   6.248
 7684SOL    HW123951   4.354   2.546   6.234
 7684SOL    HW223952   4.385   2.400   6.167
 7685SOL     OW23953   4.477   4.019   0.791
 7685SOL    HW123954   4.536   4.043   0.869
 7685SOL    HW223955   4.428   3.934   0.812
 7686SOL     OW23956   3.205   0.711   3.903
 7686SOL    HW123957   3.127   0.724   3.842
 7686SOL    HW223958   3.272   0.784   3.887
 7687SOL     OW23959   4.510   4.834   6.083
 7687SOL    HW123960   4.476   4.893   6.156
 7687SOL    HW223961   4.463   4.746   6.086
 7688SOL     OW23962   6.437   0.043   3.517
 7688SOL    HW123963   6.488   0.115   3.470
 7688SOL    HW223964   6.468   0.037   3.612
 7689SOL     OW23965   3.473   6.581   4.786
 7689SOL    HW123966   3.566   6.546   4.774
 7689SOL    HW223967   3.416   6.550   4.711
 7690SOL     OW23968   0.739   5.092   2.805
 7690SOL    HW123969   0.804   5.061   2.874
 7690SOL    HW223970   0.754   5.042   2.719
 7691SOL     OW23971   5.660   3.770   5.766
 7691SOL    HW123972   5.576   3.758   5.713
 7691SOL    HW223973   5.691   3.682   5.800
 7692SOL     OW23974   1.518   6.381   1.581
 7692SOL    HW123975   1.576   6.358   1.659
 7692SOL    HW223976   1.570   6.371   1.496
 7693SOL     OW23977   5.421   1.069   0.564
 7693SOL    HW123978   5.516   1.086   0.592
 7693SOL    HW223979   5.419   1.006   0.487
 7694SOL     OW23980   6.333   4.541   4.307
 7694SOL    HW123981   6.350   4.571   4.401
 7694SOL    HW223982   6.367   4.610   4.243
 7695SOL     OW23983   4.035   0.254   6.567
 7695SOL    HW123984   3.986   0.337   6.539
 7695SOL    HW223985   4.106   0.232   6.500
 7696SOL     OW23986   1.366   4.236   6.048
 7696SOL    HW123987   1.266   4.230   6.050
 7696SOL    HW223988   1.401   4.239   6.142
 7697SOL     OW23989   4.250   1.896   2.033
 7697SOL    HW123990   4.232   1.798   2.033
 7697SOL    HW223991   4.207   1.938   1.954
 7698SOL     OW23992   0.183   3.139   5.697
 7698SOL    HW123993   0.245   3.072   5.738
 7698SOL    HW223994   0.206   3.230   5.730
 7699SOL     OW23995   2.582   4.407   0.361
 7699SOL    HW123996   2.590   4.435   0.265
 7699SOL    HW223997   2.568   4.308   0.366
 7700SOL     OW23998   5.239   6.653   5.002
 7700SOL    HW123999   5.170   6.704   4.951
 7700SOL    HW224000   5.330   6.676   4.969
 7701SOL     OW24001   6.107   2.409   5.374
 7701SOL    HW124002   6.188   2.383   5.320
 7701SOL    HW224003   6.070   2.495   5.339
 7702SOL     OW24004   2.181   6.079   5.843
 7702SOL    HW124005   2.165   6.054   5.938
 7702SOL    HW224006   2.096   6.067   5.791
 7703SOL     OW24007   0.888   2.019   5.775
 7703SOL    HW124008   0.891   2.097   5.837
 7703SOL    HW224009   0.975   2.011   5.727
 7704SOL     OW24010   2.750   4.482   0.753
 7704SOL    HW124011   2.781   4.577   0.746
 7704SOL    HW224012   2.655   4.480   0.784
 7705SOL     OW24013   3.821   4.500   5.423
 7705SOL    HW124014   3.839   4.486   5.520
 7705SOL    HW224015   3.752   4.571   5.411
 7706SOL     OW24016   6.367   0.421   5.263
 7706SOL    HW124017   6.274   0.413   5.228
 7706SOL    HW224018   6.430   0.377   5.199
 7707SOL     OW24019   0.173   5.284   6.323
 7707SOL    HW124020   0.126   5.227   6.390
 7707SOL    HW224021   0.156   5.248   6.231
 7708SOL     OW24022   5.044   0.756   4.372
 7708SOL    HW124023   5.080   0.676   4.419
 7708SOL    HW224024   5.069   0.839   4.422
 7709SOL     OW24025   3.673   2.156   1.671
 7709SOL    HW124026   3.688   2.219   1.747
 7709SOL    HW224027   3.688   2.204   1.584
 7710SOL     OW24028   2.888   2.355   5.937
 7710SOL    HW124029   2.789   2.347   5.924
 7710SOL    HW224030   2.920   2.441   5.898
 7711SOL     OW24031   5.009   6.579   5.285
 7711SOL    HW124032   5.033   6.582   5.382
 7711SOL    HW224033   5.045   6.495   5.244
 7712SOL     OW24034   5.096   5.094   0.334
 7712SOL    HW124035   5.000   5.067   0.327
 7712SOL    HW224036   5.153   5.029   0.285
 7713SOL     OW24037   0.858   5.382   6.264
 7713SOL    HW124038   0.827   5.292   6.232
 7713SOL    HW224039   0.910   5.372   6.348
 7714SOL     OW24040   5.518   3.947   4.293
 7714SOL    HW124041   5.504   4.024   4.355
 7714SOL    HW224042   5.440   3.884   4.299
 7715SOL     OW24043   4.253   2.250   1.788
 7715SOL    HW124044   4.215   2.185   1.723
 7715SOL    HW224045   4.183   2.275   1.855
 7716SOL     OW24046   4.681   2.466   3.669
 7716SOL    HW124047   4.632   2.513   3.742
 7716SOL    HW224048   4.780   2.469   3.687
 7717SOL     OW24049   2.939   0.149   6.583
 7717SOL    HW124050   3.020   0.095   6.606
 7717SOL    HW224051   2.871   0.141   6.655
 7718SOL     OW24052   2.912   6.152   3.976
 7718SOL    HW124053   2.948   6.060   3.961
 7718SOL    HW224054   2.985   6.219   3.964
 7719SOL     OW24055   6.051   2.872   5.535
 7719SOL    HW124056   6.018   2.819   5.457
 7719SOL    HW224057   6.123   2.820   5.582
 7720SOL     OW24058   5.524   6.104   1.598
 7720SOL    HW124059   5.568   6.015   1.583
 7720SOL    HW224060   5.582   6.161   1.656
 7721SOL     OW24061   0.904   4.942   2.967
 7721SOL    HW124062   0.868   4.861   2.919
 7721SOL    HW224063   0.926   4.918   3.061
 7722SOL     OW24064   0.546   6.659   4.055
 7722SOL    HW124065   0.536   6.594   3.979
 7722SOL    HW224066   0.612   6.729   4.030
 7723SOL     OW24067   6.637   2.496   0.715
 7723SOL    HW124068   6.691   2.541   0.786
 7723SOL    HW224069   6.640   2.397   0.729
 7724SOL     OW24070   1.882   5.662   0.588
 7724SOL    HW124071   1.837   5.575   0.570
 7724SOL    HW224072   1.962   5.672   0.529
 7725SOL     OW24073   5.229   3.843   4.539
 7725SOL    HW124074   5.246   3.840   4.440
 7725SOL    HW224075   5.197   3.935   4.564
 7726SOL     OW24076   5.661   4.256   3.674
 7726SOL    HW124077   5.744   4.220   3.716
 7726SOL    HW224078   5.661   4.234   3.576
 7727SOL     OW24079   5.710   3.303   2.133
 7727SOL    HW124080   5.710   3.220   2.077
 7727SOL    HW224081   5.792   3.306   2.189
 7728SOL     OW24082   2.139   2.146   2.350
 7728SOL    HW124083   2.148   2.150   2.449
 7728SOL    HW224084   2.104   2.233   2.315
 7729SOL     OW24085   5.068   2.596   0.386
 7729SOL    HW124086   5.041   2.501   0.373
 7729SOL    HW224087   4.987   2.653   0.398
 7730SOL     OW24088   4.726   6.971   2.382
 7730SOL    HW124089   4.718   0.031   2.328
 7730SOL    HW224090   4.805   6.918   2.352
 7731SOL     OW24091   6.923   1.799   4.772
 7731SOL    HW124092   6.848   1.841   4.822
 7731SOL    HW224093   6.915   1.699   4.777
 7732SOL     OW24094   4.363   4.770   0.873
 7732SOL    HW124095   4.458   4.783   0.843
 7732SOL    HW224096   4.338   4.845   0.935
 7733SOL     OW24097   2.936   6.421   0.770
 7733SOL    HW124098   2.951   6.322   0.768
 7733SOL    HW224099   3.012   6.467   0.724
 7734SOL     OW24100   1.588   2.227   2.971
 7734SOL    HW124101   1.600   2.318   3.010
 7734SOL    HW224102   1.493   2.197   2.984
 7735SOL     OW24103   5.218   4.323   1.008
 7735SOL    HW124104   5.142   4.355   0.950
 7735SOL    HW224105   5.186   4.247   1.065
 7736SOL     OW24106   5.672   4.452   5.962
 7736SOL    HW124107   5.707   4.537   6.002
 7736SOL    HW224108   5.572   4.452   5.965
 7737SOL     OW24109   5.101   2.576   0.660
 7737SOL    HW124110   5.102   2.627   0.574
 7737SOL    HW224111   5.050   2.627   0.729
 7738SOL     OW24112   2.094   4.847   0.086
 7738SOL    HW124113   2.107   4.811   7.018
 7738SOL    HW224114   2.109   4.774   0.153
 7739SOL     OW24115   5.778   3.597   2.396
 7739SOL    HW124116   5.733   3.592   2.307
 7739SOL    HW224117   5.874   3.625   2.384
 7740SOL     OW24118   0.419   6.236   3.950
 7740SOL    HW124119   0.363   6.284   3.882
 7740SOL    HW224120   0.371   6.155   3.982
 7741SOL     OW24121   3.240   5.931   4.053
 7741SOL    HW124122   3.155   5.936   4.000
 7741SOL    HW224123   3.243   5.844   4.102
 7742SOL     OW24124   6.685   1.313   4.208
 7742SOL    HW124125   6.587   1.307   4.190
 7742SOL    HW224126   6.735   1.278   4.129
 7743SOL     OW24127   4.886   2.971   2.683
 7743SOL    HW124128   4.864   3.046   2.746
 7743SOL    HW224129   4.984   2.950   2.691
 7744SOL     OW24130   0.415   6.925   4.965
 7744SOL    HW124131   0.504   6.958   4.933
 7744SOL    HW224132   0.429   6.845   5.024
 7745SOL     OW24133   4.692   3.371   5.302
 7745SOL    HW124134   4.700   3.443   5.234
 7745SOL    HW224135   4.676   3.411   5.392
 7746SOL     OW24136   1.436   0.428   6.946
 7746SOL    HW124137   1.412   0.495   7.016
 7746SOL    HW224138   1.528   0.392   6.965
 7747SOL     OW24139   5.269   5.441   1.263
 7747SOL    HW124140   5.340   5.373   1.248
 7747SOL    HW224141   5.303   5.531   1.235
 7748SOL     OW24142   2.717   3.791   6.391
 7748SOL    HW124143   2.717   3.879   6.437
 7748SOL    HW224144   2.717   3.805   6.292
 7749SOL     OW24145   5.617   4.087   6.204
 7749SOL    HW124146   5.668   4.017   6.254
 7749SOL    HW224147   5.543   4.123   6.261
 7750SOL     OW24148   5.596   5.017   3.110
 7750SOL    HW124149   5.499   5.043   3.110
 7750SOL    HW224150   5.652   5.100   3.121
 7751SOL     OW24151   0.111   2.649   1.106
 7751SOL    HW124152   0.183   2.712   1.077
 7751SOL    HW224153   0.022   2.686   1.077
 7752SOL     OW24154   4.275   1.287   3.536
 7752SOL    HW124155   4.279   1.385   3.559
 7752SOL    HW224156   4.348   1.265   3.471
 7753SOL     OW24157   3.365   1.894   5.220
 7753SOL    HW124158   3.393   1.989   5.208
 7753SOL    HW224159   3.285   1.875   5.164
 7754SOL     OW24160   5.462   5.509   1.837
 7754SOL    HW124161   5.484   5.412   1.839
 7754SOL    HW224162   5.392   5.526   1.767
 7755SOL     OW24163   0.544   5.266   4.824
 7755SOL    HW124164   0.555   5.223   4.734
 7755SOL    HW224165   0.544   5.365   4.814
 7756SOL     OW24166   2.308   4.818   2.010
 7756SOL    HW124167   2.311   4.794   1.913
 7756SOL    HW224168   2.221   4.788   2.049
 7757SOL     OW24169   0.036   4.101   1.437
 7757SOL    HW124170   0.110   4.101   1.505
 7757SOL    HW224171   0.076   4.096   1.346
 7758SOL     OW24172   1.248   2.649   4.444
 7758SOL    HW124173   1.201   2.663   4.532
 7758SOL    HW224174   1.278   2.737   4.408
 7759SOL     OW24175   3.661   1.294   2.363
 7759SOL    HW124176   3.565   1.309   2.386
 7759SOL    HW224177   3.695   1.372   2.310
 7760SOL     OW24178   5.138   3.233   0.215
 7760SOL    HW124179   5.171   3.143   0.244
 7760SOL    HW224180   5.097   3.226   0.124
 7761SOL     OW24181   4.846   4.875   2.879
 7761SOL    HW124182   4.902   4.798   2.911
 7761SOL    HW224183   4.750   4.847   2.877
 7762SOL     OW24184   5.359   2.007   1.652
 7762SOL    HW124185   5.308   1.932   1.693
 7762SOL    HW224186   5.309   2.041   1.572
 7763SOL     OW24187   2.369   0.213   3.778
 7763SOL    HW124188   2.282   0.169   3.802
 7763SOL    HW224189   2.384   0.204   3.679
 7764SOL     OW24190   3.222   4.303   5.879
 7764SOL    HW124191   3.224   4.391   5.832
 7764SOL    HW224192   3.308   4.254   5.864
 7765SOL     OW24193   5.412   4.147   4.722
 7765SOL    HW124194   5.473   4.151   4.643
 7765SOL    HW224195   5.318   4.157   4.691
 7766SOL     OW24196   6.761   2.859   6.409
 7766SOL    HW124197   6.672   2.852   6.454
 7766SOL    HW224198   6.768   2.789   6.338
 7767SOL     OW24199   4.449   0.127   3.833
 7767SOL    HW124200   4.445   0.213   3.882
 7767SOL    HW224201   4.544   0.100   3.820
 7768SOL     OW24202   3.798   5.602   4.390
 7768SOL    HW124203   3.809   5.631   4.295
 7768SOL    HW224204   3.860   5.655   4.448
 7769SOL     OW24205   3.615   2.991   6.639
 7769SOL    HW124206   3.564   3.037   6.566
 7769SOL    HW224207   3.710   2.977   6.609
 7770SOL     OW24208   1.421   3.629   3.971
 7770SOL    HW124209   1.508   3.580   3.974
 7770SOL    HW224210   1.436   3.721   3.935
 7771SOL     OW24211   1.504   3.787   5.649
 7771SOL    HW124212   1.564   3.847   5.702
 7771SOL    HW224213   1.537   3.693   5.655
 7772SOL     OW24214   5.870   6.152   2.046
 7772SOL    HW124215   5.838   6.159   2.141
 7772SOL    HW224216   5.956   6.202   2.037
 7773SOL     OW24217   2.526   6.626   6.671
 7773SOL    HW124218   2.561   6.584   6.755
 7773SOL    HW224219   2.450   6.571   6.636
 7774SOL     OW24220   4.994   1.210   2.435
 7774SOL    HW124221   4.950   1.133   2.479
 7774SOL    HW224222   4.939   1.241   2.357
 7775SOL     OW24223   3.018   1.682   1.618
 7775SOL    HW124224   3.083   1.755   1.640
 7775SOL    HW224225   2.959   1.712   1.543
 7776SOL     OW24226   2.943   0.983   4.083
 7776SOL    HW124227   2.852   1.006   4.050
 7776SOL    HW224228   2.965   0.889   4.057
 7777SOL     OW24229   6.016   5.631   3.097
 7777SOL    HW124230   6.042   5.688   3.019
 7777SOL    HW224231   5.953   5.682   3.156
 7778SOL     OW24232   0.776   4.434   2.695
 7778SOL    HW124233   0.686   4.443   2.653
 7778SOL    HW224234   0.766   4.403   2.790
 7779SOL     OW24235   3.525   6.411   1.819
 7779SOL    HW124236   3.477   6.405   1.907
 7779SOL    HW224237   3.458   6.416   1.745
 7780SOL     OW24238   6.590   5.745   4.368
 7780SOL    HW124239   6.571   5.738   4.466
 7780SOL    HW224240   6.648   5.668   4.339
 7781SOL     OW24241   2.341   3.033   0.613
 7781SOL    HW124242   2.403   2.999   0.684
 7781SOL    HW224243   2.312   3.126   0.637
 7782SOL     OW24244   5.805   3.910   4.870
 7782SOL    HW124245   5.800   3.926   4.772
 7782SOL    HW224246   5.827   3.814   4.887
 7783SOL     OW24247   1.828   6.495   4.143
 7783SOL    HW124248   1.791   6.432   4.075
 7783SOL    HW224249   1.758   6.516   4.210
 7784SOL     OW24250   1.788   1.843   2.036
 7784SOL    HW124251   1.726   1.855   2.113
 7784SOL    HW224252   1.877   1.883   2.058
 7785SOL     OW24253   6.831   5.949   3.067
 7785SOL    HW124254   6.912   5.896   3.091
 7785SOL    HW224255   6.853   6.047   3.070
 7786SOL     OW24256   4.955   0.864   6.482
 7786SOL    HW124257   4.922   0.956   6.463
 7786SOL    HW224258   4.920   0.833   6.570
 7787SOL     OW24259   2.072   2.514   1.401
 7787SOL    HW124260   2.052   2.504   1.304
 7787SOL    HW224261   2.153   2.571   1.413
 7788SOL     OW24262   1.027   3.915   1.994
 7788SOL    HW124263   1.017   3.822   2.029
 7788SOL    HW224264   1.025   3.914   1.894
 7789SOL     OW24265   3.408   0.997   6.274
 7789SOL    HW124266   3.346   0.980   6.198
 7789SOL    HW224267   3.502   0.980   6.245
 7790SOL     OW24268   3.798   5.167   3.870
 7790SOL    HW124269   3.821   5.090   3.810
 7790SOL    HW224270   3.870   5.236   3.866
 7791SOL     OW24271   2.919   5.538   1.980
 7791SOL    HW124272   2.944   5.626   1.940
 7791SOL    HW224273   2.915   5.547   2.080
 7792SOL     OW24274   1.417   1.411   2.736
 7792SOL    HW124275   1.379   1.480   2.673
 7792SOL    HW224276   1.471   1.345   2.684
 7793SOL     OW24277   5.101   1.361   0.761
 7793SOL    HW124278   5.005   1.332   0.770
 7793SOL    HW224279   5.157   1.310   0.826
 7794SOL     OW24280   1.574   0.215   3.100
 7794SOL    HW124281   1.664   0.227   3.142
 7794SOL    HW224282   1.529   0.304   3.091
 7795SOL     OW24283   3.572   3.995   1.316
 7795SOL    HW124284   3.533   3.941   1.391
 7795SOL    HW224285   3.574   4.091   1.342
 7796SOL     OW24286   3.248   1.343   0.625
 7796SOL    HW124287   3.250   1.274   0.697
 7796SOL    HW224288   3.328   1.331   0.566
 7797SOL     OW24289   1.601   5.629   2.980
 7797SOL    HW124290   1.654   5.553   2.944
 7797SOL    HW224291   1.539   5.663   2.908
 7798SOL     OW24292   1.761   3.248   0.500
 7798SOL    HW124293   1.667   3.213   0.501
 7798SOL    HW224294   1.762   3.338   0.455
 7799SOL     OW24295   3.142   6.578   4.149
 7799SOL    HW124296   3.195   6.646   4.200
 7799SOL    HW224297   3.202   6.530   4.085
 7800SOL     OW24298   1.904   0.862   2.405
 7800SOL    HW124299   1.852   0.810   2.472
 7800SOL    HW224300   1.842   0.915   2.348
 7801SOL     OW24301   1.389   2.230   0.828
 7801SOL    HW124302   1.318   2.216   0.897
 7801SOL    HW224303   1.387   2.154   0.762
 7802SOL     OW24304   6.589   4.371   3.755
 7802SOL    HW124305   6.580   4.284   3.804
 7802SOL    HW224306   6.558   4.446   3.814
 7803SOL     OW24307   3.139   2.527   5.618
 7803SOL    HW124308   3.147   2.565   5.526
 7803SOL    HW224309   3.230   2.521   5.659
 7804SOL     OW24310   2.952   1.512   5.517
 7804SOL    HW124311   2.879   1.580   5.510
 7804SOL    HW224312   2.957   1.478   5.611
 7805SOL     OW24313   5.688   3.196   6.389
 7805SOL    HW124314   5.671   3.097   6.387
 7805SOL    HW224315   5.739   3.219   6.471
 7806SOL     OW24316   6.068   1.495   5.311
 7806SOL    HW124317   5.970   1.510   5.298
 7806SOL    HW224318   6.105   1.563   5.373
 7807SOL     OW24319   1.864   5.512   5.346
 7807SOL    HW124320   1.882   5.456   5.265
 7807SOL    HW224321   1.879   5.609   5.324
 7808SOL     OW24322   6.221   3.714   3.797
 7808SOL    HW124323   6.232   3.683   3.702
 7808SOL    HW224324   6.261   3.647   3.859
 7809SOL     OW24325   4.728   6.313   2.442
 7809SOL    HW124326   4.809   6.369   2.424
 7809SOL    HW224327   4.686   6.341   2.528
 7810SOL     OW24328   1.816   6.650   5.670
 7810SOL    HW124329   1.745   6.615   5.730
 7810SOL    HW224330   1.898   6.671   5.723
 7811SOL     OW24331   1.091   6.155   2.907
 7811SOL    HW124332   1.121   6.120   2.996
 7811SOL    HW224333   1.020   6.096   2.870
 7812SOL     OW24334   2.943   0.875   5.487
 7812SOL    HW124335   2.860   0.930   5.498
 7812SOL    HW224336   2.983   0.857   5.577
 7813SOL     OW24337   5.558   0.814   0.989
 7813SOL    HW124338   5.510   0.757   0.922
 7813SOL    HW224339   5.491   0.859   1.049
 7814SOL     OW24340   5.879   2.281   1.835
 7814SOL    HW124341   5.968   2.268   1.791
 7814SOL    HW224342   5.845   2.373   1.815
 7815SOL     OW24343   5.221   5.603   3.745
 7815SOL    HW124344   5.129   5.565   3.758
 7815SOL    HW224345   5.275   5.539   3.691
 7816SOL     OW24346   0.964   1.522   5.317
 7816SOL    HW124347   0.930   1.571   5.396
 7816SOL    HW224348   0.887   1.484   5.265
 7817SOL     OW24349   4.625   1.723   7.014
 7817SOL    HW124350   4.559   1.790   0.025
 7817SOL    HW224351   4.649   1.660   0.064
 7818SOL     OW24352   6.256   0.993   3.205
 7818SOL    HW124353   6.215   0.915   3.252
 7818SOL    HW224354   6.306   1.050   3.270
 7819SOL     OW24355   1.849   3.083   5.187
 7819SOL    HW124356   1.760   3.039   5.193
 7819SOL    HW224357   1.908   3.032   5.124
 7820SOL     OW24358   1.242   1.531   5.347
 7820SOL    HW124359   1.144   1.516   5.341
 7820SOL    HW224360   1.287   1.491   5.267
 7821SOL     OW24361   3.809   5.650   0.006
 7821SOL    HW124362   3.757   5.597   6.963
 7821SOL    HW224363   3.875   5.708   6.983
 7822SOL     OW24364   0.291   1.462   4.731
 7822SOL    HW124365   0.380   1.488   4.691
 7822SOL    HW224366   0.257   1.537   4.787
 7823SOL     OW24367   2.775   3.156   5.927
 7823SOL    HW124368   2.833   3.127   5.851
 7823SOL    HW224369   2.764   3.079   5.991
 7824SOL     OW24370   6.122   3.567   3.183
 7824SOL    HW124371   6.056   3.535   3.115
 7824SOL    HW224372   6.094   3.657   3.217
 7825SOL     OW24373   3.750   3.416   2.659
 7825SOL    HW124374   3.686   3.391   2.586
 7825SOL    HW224375   3.844   3.405   2.627
 7826SOL     OW24376   6.607   0.255   0.713
 7826SOL    HW124377   6.628   0.353   0.705
 7826SOL    HW224378   6.512   0.244   0.743
 7827SOL     OW24379   4.012   3.500   0.490
 7827SOL    HW124380   4.080   3.484   0.418
 7827SOL    HW224381   3.962   3.415   0.507
 7828SOL     OW24382   1.051   6.225   1.303
 7828SOL    HW124383   1.138   6.229   1.254
 7828SOL    HW224384   1.029   6.130   1.324
 7829SOL     OW24385   3.630   3.805   3.162
 7829SOL    HW124386   3.538   3.842   3.175
 7829SOL    HW224387   3.628   3.733   3.093
 7830SOL     OW24388   6.005   3.998   0.156
 7830SOL    HW124389   6.023   3.959   0.246
 7830SOL    HW224390   5.909   4.026   0.150
 7831SOL     OW24391   1.830   2.731   0.476
 7831SOL    HW124392   1.815   2.806   0.540
 7831SOL    HW224393   1.928   2.724   0.455
 7832SOL     OW24394   3.593   2.680   5.602
 7832SOL    HW124395   3.594   2.585   5.635
 7832SOL    HW224396   3.560   2.682   5.508
 7833SOL     OW24397   6.761   6.472   1.492
 7833SOL    HW124398   6.799   6.477   1.399
 7833SOL    HW224399   6.728   6.380   1.509
 7834SOL     OW24400   5.658   0.701   1.426
 7834SOL    HW124401   5.606   0.768   1.478
 7834SOL    HW224402   5.731   0.664   1.483
 7835SOL     OW24403   2.025   1.903   4.168
 7835SOL    HW124404   2.053   1.896   4.264
 7835SOL    HW224405   1.933   1.941   4.163
 7836SOL     OW24406   2.135   0.412   0.404
 7836SOL    HW124407   2.129   0.386   0.501
 7836SOL    HW224408   2.226   0.390   0.369
 7837SOL     OW24409   5.566   6.173   2.535
 7837SOL    HW124410   5.480   6.124   2.522
 7837SOL    HW224411   5.635   6.110   2.571
 7838SOL     OW24412   4.448   6.345   4.107
 7838SOL    HW124413   4.416   6.253   4.084
 7838SOL    HW224414   4.414   6.410   4.039
 7839SOL     OW24415   0.180   4.885   3.568
 7839SOL    HW124416   0.097   4.939   3.581
 7839SOL    HW224417   0.231   4.919   3.489
 7840SOL     OW24418   4.935   3.506   6.242
 7840SOL    HW124419   4.835   3.507   6.237
 7840SOL    HW224420   4.969   3.415   6.218
 7841SOL     OW24421   0.909   1.832   6.545
 7841SOL    HW124422   0.991   1.885   6.564
 7841SOL    HW224423   0.931   1.759   6.480
 7842SOL     OW24424   2.816   6.838   2.317
 7842SOL    HW124425   2.818   6.894   2.400
 7842SOL    HW224426   2.782   6.894   2.241
 7843SOL     OW24427   0.283   2.769   2.128
 7843SOL    HW124428   0.352   2.818   2.075
 7843SOL    HW224429   0.243   2.697   2.072
 7844SOL     OW24430   3.867   1.897   3.674
 7844SOL    HW124431   3.803   1.959   3.628
 7844SOL    HW224432   3.908   1.944   3.752
 7845SOL     OW24433   0.879   1.430   3.610
 7845SOL    HW124434   0.802   1.385   3.564
 7845SOL    HW224435   0.860   1.437   3.708
 7846SOL     OW24436   4.332   6.416   2.421
 7846SOL    HW124437   4.253   6.476   2.413
 7846SOL    HW224438   4.323   6.359   2.502
 7847SOL     OW24439   0.350   0.007   6.688
 7847SOL    HW124440   0.315   0.093   6.650
 7847SOL    HW224441   0.345   0.011   6.788
 7848SOL     OW24442   3.708   4.393   1.446
 7848SOL    HW124443   3.729   4.299   1.419
 7848SOL    HW224444   3.677   4.445   1.366
 7849SOL     OW24445   5.567   4.159   4.945
 7849SOL    HW124446   5.516   4.157   4.859
 7849SOL    HW224447   5.558   4.070   4.990
 7850SOL     OW24448   0.852   2.339   4.859
 7850SOL    HW124449   0.904   2.271   4.911
 7850SOL    HW224450   0.894   2.353   4.770
 7851SOL     OW24451   4.120   6.349   1.157
 7851SOL    HW124452   4.194   6.411   1.185
 7851SOL    HW224453   4.099   6.286   1.232
 7852SOL     OW24454   2.413   6.762   0.368
 7852SOL    HW124455   2.393   6.762   0.270
 7852SOL    HW224456   2.498   6.712   0.384
 7853SOL     OW24457   2.066   2.326   0.070
 7853SOL    HW124458   2.135   2.277   0.125
 7853SOL    HW224459   2.029   2.402   0.123
 7854SOL     OW24460   3.223   4.105   3.439
 7854SOL    HW124461   3.191   4.044   3.367
 7854SOL    HW224462   3.216   4.060   3.527
 7855SOL     OW24463   3.567   0.003   5.200
 7855SOL    HW124464   3.548   6.933   5.228
 7855SOL    HW224465   3.656   0.007   5.155
 7856SOL     OW24466   2.987   3.299   6.754
 7856SOL    HW124467   3.052   3.308   6.828
 7856SOL    HW224468   2.956   3.389   6.725
 7857SOL     OW24469   0.433   3.035   5.729
 7857SOL    HW124470   0.456   3.077   5.642
 7857SOL    HW224471   0.490   3.075   5.801
 7858SOL     OW24472   6.387   3.572   3.096
 7858SOL    HW124473   6.450   3.554   3.172
 7858SOL    HW224474   6.295   3.588   3.133
 7859SOL     OW24475   0.827   6.190   0.577
 7859SOL    HW124476   0.883   6.146   0.647
 7859SOL    HW224477   0.838   6.143   0.490
 7860SOL     OW24478   4.247   6.504   1.523
 7860SOL    HW124479   4.267   6.593   1.563
 7860SOL    HW224480   4.284   6.432   1.583
 7861SOL     OW24481   5.289   3.437   0.721
 7861SOL    HW124482   5.281   3.422   0.623
 7861SOL    HW224483   5.362   3.380   0.758
 7862SOL     OW24484   2.944   4.708   1.675
 7862SOL    HW124485   2.905   4.635   1.731
 7862SOL    HW224486   3.014   4.757   1.727
 7863SOL     OW24487   4.998   5.758   2.518
 7863SOL    HW124488   5.029   5.817   2.443
 7863SOL    HW224489   5.010   5.662   2.491
 7864SOL     OW24490   0.700   6.213   4.481
 7864SOL    HW124491   0.785   6.177   4.442
 7864SOL    HW224492   0.644   6.137   4.514
 7865SOL     OW24493   4.201   1.003   3.294
 7865SOL    HW124494   4.264   1.030   3.221
 7865SOL    HW224495   4.163   1.084   3.337
 7866SOL     OW24496   2.142   2.126   5.055
 7866SOL    HW124497   2.119   2.055   4.988
 7866SOL    HW224498   2.168   2.210   5.007
 7867SOL     OW24499   5.964   4.094   1.860
 7867SOL    HW124500   6.019   4.023   1.903
 7867SOL    HW224501   6.019   4.177   1.849
 7868SOL     OW24502   5.047   0.038   0.686
 7868SOL    HW124503   5.124   0.090   0.723
 7868SOL    HW224504   5.080   6.980   0.640
 7869SOL     OW24505   6.003   1.818   4.229
 7869SOL    HW124506   5.984   1.874   4.149
 7869SOL    HW224507   6.088   1.848   4.272
 7870SOL     OW24508   6.348   6.794   2.885
 7870SOL    HW124509   6.320   6.883   2.850
 7870SOL    HW224510   6.399   6.806   2.970
 7871SOL     OW24511   6.411   3.092   4.199
 7871SOL    HW124512   6.370   3.081   4.108
 7871SOL    HW224513   6.447   3.184   4.209
 7872SOL     OW24514   0.036   4.202   4.680
 7872SOL    HW124515   0.047   4.140   4.758
 7872SOL    HW224516   7.021   4.151   4.603
 7873SOL     OW24517   0.017   5.639   4.756
 7873SOL    HW124518   0.037   5.667   4.850
 7873SOL    HW224519   6.988   5.554   4.757
 7874SOL     OW24520   6.397   0.547   0.539
 7874SOL    HW124521   6.380   0.512   0.630
 7874SOL    HW224522   6.494   0.572   0.530
 7875SOL     OW24523   5.154   3.356   0.492
 7875SOL    HW124524   5.175   3.276   0.549
 7875SOL    HW224525   5.146   3.328   0.397
 7876SOL     OW24526   0.053   1.069   5.147
 7876SOL    HW124527   6.981   1.063   5.175
 7876SOL    HW224528   0.112   1.055   5.226
 7877SOL     OW24529   6.206   2.897   2.959
 7877SOL    HW124530   6.133   2.853   2.908
 7877SOL    HW224531   6.294   2.878   2.915
 7878SOL     OW24532   4.088   3.883   1.421
 7878SOL    HW124533   4.104   3.980   1.408
 7878SOL    HW224534   3.995   3.860   1.394
 7879SOL     OW24535   6.564   0.991   5.053
 7879SOL    HW124536   6.517   0.989   4.964
 7879SOL    HW224537   6.524   1.063   5.110
 7880SOL     OW24538   1.826   6.512   6.134
 7880SOL    HW124539   1.917   6.524   6.095
 7880SOL    HW224540   1.786   6.427   6.100
 7881SOL     OW24541   0.935   5.273   4.393
 7881SOL    HW124542   0.922   5.370   4.411
 7881SOL    HW224543   0.926   5.255   4.295
 7882SOL     OW24544   1.607   4.875   1.913
 7882SOL    HW124545   1.599   4.971   1.886
 7882SOL    HW224546   1.545   4.819   1.857
 7883SOL     OW24547   3.617   2.003   2.759
 7883SOL    HW124548   3.689   2.000   2.689
 7883SOL    HW224549   3.597   1.911   2.791
 7884SOL     OW24550   0.683   3.471   4.503
 7884SOL    HW124551   0.723   3.396   4.556
 7884SOL    HW224552   0.587   3.452   4.485
 7885SOL     OW24553   6.078   5.288   2.279
 7885SOL    HW124554   5.986   5.253   2.298
 7885SOL    HW224555   6.077   5.388   2.282
 7886SOL     OW24556   4.881   3.974   2.500
 7886SOL    HW124557   4.832   3.936   2.578
 7886SOL    HW224558   4.963   3.920   2.482
 7887SOL     OW24559   0.838   3.381   1.447
 7887SOL    HW124560   0.860   3.313   1.377
 7887SOL    HW224561   0.919   3.399   1.503
 7888SOL     OW24562   6.276   1.073   5.082
 7888SOL    HW124563   6.281   1.129   5.000
 7888SOL    HW224564   6.347   1.102   5.147
 7889SOL     OW24565   5.819   5.226   0.774
 7889SOL    HW124566   5.760   5.170   0.716
 7889SOL    HW224567   5.813   5.322   0.744
 7890SOL     OW24568   2.336   2.812   3.545
 7890SOL    HW124569   2.324   2.839   3.640
 7890SOL    HW224570   2.380   2.722   3.541
 7891SOL     OW24571   6.253   1.853   4.334
 7891SOL    HW124572   6.287   1.768   4.373
 7891SOL    HW224573   6.316   1.928   4.356
 7892SOL     OW24574   0.918   1.910   5.118
 7892SOL    HW124575   0.880   1.981   5.059
 7892SOL    HW224576   0.862   1.827   5.111
 7893SOL     OW24577   6.378   6.506   0.634
 7893SOL    HW124578   6.339   6.415   0.619
 7893SOL    HW224579   6.375   6.529   0.731
 7894SOL     OW24580   3.014   0.904   0.097
 7894SOL    HW124581   3.029   0.896   0.196
 7894SOL    HW224582   2.920   0.876   0.076
 7895SOL     OW24583   6.535   6.114   2.850
 7895SOL    HW124584   6.573   6.026   2.823
 7895SOL    HW224585   6.437   6.104   2.867
 7896SOL     OW24586   2.443   1.557   0.490
 7896SOL    HW124587   2.423   1.594   0.581
 7896SOL    HW224588   2.416   1.623   0.420
 7897SOL     OW24589   3.700   1.948   0.697
 7897SOL    HW124590   3.658   1.990   0.616
 7897SOL    HW224591   3.787   1.907   0.671
 7898SOL     OW24592   5.267   6.714   3.269
 7898SOL    HW124593   5.207   6.794   3.281
 7898SOL    HW224594   5.216   6.631   3.291
 7899SOL     OW24595   6.084   4.297   3.619
 7899SOL    HW124596   6.004   4.268   3.671
 7899SOL    HW224597   6.104   4.393   3.638
 7900SOL     OW24598   0.377   3.583   0.172
 7900SOL    HW124599   0.449   3.516   0.156
 7900SOL    HW224600   0.385   3.620   0.264
 7901SOL     OW24601   0.314   2.355   0.285
 7901SOL    HW124602   0.223   2.396   0.280
 7901SOL    HW224603   0.329   2.298   0.205
 7902SOL     OW24604   1.843   6.172   1.540
 7902SOL    HW124605   1.786   6.091   1.536
 7902SOL    HW224606   1.894   6.173   1.626
 7903SOL     OW24607   2.693   2.242   5.605
 7903SOL    HW124608   2.780   2.266   5.562
 7903SOL    HW224609   2.617   2.270   5.547
 7904SOL     OW24610   4.571   2.360   2.634
 7904SOL    HW124611   4.518   2.311   2.565
 7904SOL    HW224612   4.509   2.405   2.698
 7905SOL     OW24613   6.113   2.447   1.082
 7905SOL    HW124614   6.088   2.527   1.137
 7905SOL    HW224615   6.099   2.364   1.136
 7906SOL     OW24616   1.004   5.263   6.477
 7906SOL    HW124617   1.063   5.314   6.540
 7906SOL    HW224618   0.994   5.169   6.510
 7907SOL     OW24619   6.022   6.214   2.330
 7907SOL    HW124620   6.051   6.118   2.339
 7907SOL    HW224621   6.063   6.254   2.249
 7908SOL     OW24622   1.823   6.581   6.646
 7908SOL    HW124623   1.796   6.512   6.713
 7908SOL    HW224624   1.799   6.548   6.554
 7909SOL     OW24625   6.442   3.812   1.120
 7909SOL    HW124626   6.387   3.858   1.190
 7909SOL    HW224627   6.539   3.828   1.138
 7910SOL     OW24628   1.358   4.442   5.851
 7910SOL    HW124629   1.310   4.398   5.776
 7910SOL    HW224630   1.354   4.384   5.932
 7911SOL     OW24631   5.812   4.215   6.014
 7911SOL    HW124632   5.757   4.190   6.094
 7911SOL    HW224633   5.790   4.309   5.987
 7912SOL     OW24634   5.753   5.521   0.702
 7912SOL    HW124635   5.797   5.486   0.619
 7912SOL    HW224636   5.815   5.584   0.749
 7913SOL     OW24637   1.822   4.814   6.804
 7913SOL    HW124638   1.768   4.745   6.851
 7913SOL    HW224639   1.850   4.780   6.714
 7914SOL     OW24640   0.597   6.747   4.796
 7914SOL    HW124641   0.624   6.843   4.806
 7914SOL    HW224642   0.633   6.712   4.710
 7915SOL     OW24643   2.997   4.847   2.380
 7915SOL    HW124644   2.959   4.798   2.302
 7915SOL    HW224645   2.953   4.937   2.387
 7916SOL     OW24646   1.131   0.123   3.701
 7916SOL    HW124647   1.144   0.141   3.799
 7916SOL    HW224648   1.039   0.153   3.674
 7917SOL     OW24649   4.793   1.901   2.140
 7917SOL    HW124650   4.836   1.819   2.178
 7917SOL    HW224651   4.694   1.887   2.132
 7918SOL     OW24652   2.294   2.877   3.292
 7918SOL    HW124653   2.297   2.859   3.390
 7918SOL    HW224654   2.287   2.975   3.276
 7919SOL     OW24655   1.055   6.809   4.741
 7919SOL    HW124656   0.979   6.753   4.773
 7919SOL    HW224657   1.020   6.882   4.682
 7920SOL     OW24658   4.791   0.664   1.067
 7920SOL    HW124659   4.882   0.682   1.029
 7920SOL    HW224660   4.775   0.725   1.144
 7921SOL     OW24661   5.118   2.289   0.965
 7921SOL    HW124662   5.180   2.366   0.979
 7921SOL    HW224663   5.165   2.217   0.914
 7922SOL     OW24664   2.639   0.217   2.216
 7922SOL    HW124665   2.705   0.286   2.243
 7922SOL    HW224666   2.643   0.204   2.117
 7923SOL     OW24667   3.930   1.315   6.982
 7923SOL    HW124668   3.906   1.318   6.885
 7923SOL    HW224669   3.958   1.223   7.007
 7924SOL     OW24670   5.704   5.562   0.338
 7924SOL    HW124671   5.788   5.530   0.382
 7924SOL    HW224672   5.697   5.523   0.247
 7925SOL     OW24673   1.449   5.324   6.584
 7925SOL    HW124674   1.489   5.414   6.596
 7925SOL    HW224675   1.366   5.317   6.640
 7926SOL     OW24676   5.630   5.843   6.368
 7926SOL    HW124677   5.538   5.862   6.334
 7926SOL    HW224678   5.645   5.744   6.371
 7927SOL     OW24679   4.275   0.048   3.339
 7927SOL    HW124680   4.366   0.087   3.324
 7927SOL    HW224681   4.284   6.976   3.366
 7928SOL     OW24682   5.749   2.251   3.558
 7928SOL    HW124683   5.770   2.171   3.501
 7928SOL    HW224684   5.650   2.264   3.563
 7929SOL     OW24685   4.518   4.414   6.050
 7929SOL    HW124686   4.589   4.485   6.045
 7929SOL    HW224687   4.443   4.438   5.989
 7930SOL     OW24688   4.353   6.230   6.334
 7930SOL    HW124689   4.343   6.218   6.236
 7930SOL    HW224690   4.264   6.249   6.375
 7931SOL     OW24691   4.022   1.414   1.351
 7931SOL    HW124692   4.037   1.387   1.446
 7931SOL    HW224693   4.055   1.508   1.338
 7932SOL     OW24694   1.371   4.007   1.871
 7932SOL    HW124695   1.398   4.068   1.946
 7932SOL    HW224696   1.307   4.055   1.810
 7933SOL     OW24697   1.077   1.805   7.007
 7933SOL    HW124698   0.990   1.824   6.960
 7933SOL    HW224699   1.059   1.784   0.079
 7934SOL     OW24700   0.766   5.432   1.035
 7934SOL    HW124701   0.684   5.376   1.023
 7934SOL    HW224702   0.816   5.438   0.948
 7935SOL     OW24703   6.612   3.005   3.342
 7935SOL    HW124704   6.562   2.921   3.363
 7935SOL    HW224705   6.623   3.014   3.243
 7936SOL     OW24706   2.090   5.422   3.333
 7936SOL    HW124707   2.070   5.472   3.249
 7936SOL    HW224708   2.008   5.420   3.390
 7937SOL     OW24709   4.257   1.060   0.683
 7937SOL    HW124710   4.321   0.989   0.712
 7937SOL    HW224711   4.227   1.112   0.763
 7938SOL     OW24712   2.578   6.958   3.313
 7938SOL    HW124713   2.635   7.019   3.367
 7938SOL    HW224714   2.602   6.863   3.333
 7939SOL     OW24715   0.778   0.969   2.815
 7939SOL    HW124716   0.841   1.039   2.848
 7939SOL    HW224717   0.757   0.906   2.890
 7940SOL     OW24718   5.758   1.697   4.498
 7940SOL    HW124719   5.838   1.659   4.545
 7940SOL    HW224720   5.693   1.731   4.566
 7941SOL     OW24721   3.540   6.858   1.023
 7941SOL    HW124722   3.600   6.833   1.099
 7941SOL    HW224723   3.474   6.926   1.054
 7942SOL     OW24724   1.535   4.278   0.921
 7942SOL    HW124725   1.587   4.362   0.940
 7942SOL    HW224726   1.564   4.207   0.984
 7943SOL     OW24727   1.321   6.209   6.136
 7943SOL    HW124728   1.349   6.269   6.210
 7943SOL    HW224729   1.370   6.233   6.052
 7944SOL     OW24730   1.133   2.093   1.374
 7944SOL    HW124731   1.222   2.118   1.410
 7944SOL    HW224732   1.105   2.160   1.305
 7945SOL     OW24733   6.209   3.680   2.764
 7945SOL    HW124734   6.308   3.680   2.779
 7945SOL    HW224735   6.187   3.615   2.691
 7946SOL     OW24736   4.678   1.963   6.683
 7946SOL    HW124737   4.595   1.983   6.734
 7946SOL    HW224738   4.734   2.046   6.677
 7947SOL     OW24739   6.763   3.860   5.786
 7947SOL    HW124740   6.675   3.813   5.787
 7947SOL    HW224741   6.834   3.798   5.752
 7948SOL     OW24742   1.215   5.694   1.355
 7948SOL    HW124743   1.260   5.621   1.407
 7948SOL    HW224744   1.116   5.687   1.366
 7949SOL     OW24745   2.424   5.543   5.828
 7949SOL    HW124746   2.424   5.508   5.922
 7949SOL    HW224747   2.469   5.478   5.768
 7950SOL     OW24748   6.829   4.587   5.794
 7950SOL    HW124749   6.782   4.572   5.707
 7950SOL    HW224750   6.926   4.604   5.777
 7951SOL     OW24751   4.336   6.683   2.881
 7951SOL    HW124752   4.423   6.706   2.837
 7951SOL    HW224753   4.304   6.761   2.934
 7952SOL     OW24754   6.487   3.960   4.993
 7952SOL    HW124755   6.535   4.014   4.924
 7952SOL    HW224756   6.483   3.864   4.964
 7953SOL     OW24757   1.522   0.181   0.283
 7953SOL    HW124758   1.493   0.223   0.197
 7953SOL    HW224759   1.511   0.081   0.277
 7954SOL     OW24760   3.780   3.471   0.016
 7954SOL    HW124761   3.801   3.544   6.975
 7954SOL    HW224762   3.825   3.491   0.104
 7955SOL     OW24763   0.937   0.955   6.474
 7955SOL    HW124764   0.901   0.966   6.566
 7955SOL    HW224765   0.862   0.932   6.411
 7956SOL     OW24766   0.616   6.362   0.743
 7956SOL    HW124767   0.599   6.434   0.676
 7956SOL    HW224768   0.713   6.337   0.740
 7957SOL     OW24769   5.298   1.833   5.941
 7957SOL    HW124770   5.366   1.827   5.868
 7957SOL    HW224771   5.343   1.827   6.030
 7958SOL     OW24772   4.542   2.304   6.837
 7958SOL    HW124773   4.523   2.349   6.925
 7958SOL    HW224774   4.509   2.210   6.840
 7959SOL     OW24775   5.427   2.369   0.310
 7959SOL    HW124776   5.345   2.401   0.358
 7959SOL    HW224777   5.464   2.289   0.357
 7960SOL     OW24778   0.849   1.204   5.247
 7960SOL    HW124779   0.902   1.211   5.163
 7960SOL    HW224780   0.860   1.112   5.286
 7961SOL     OW24781   5.974   0.144   0.331
 7961SOL    HW124782   6.025   0.138   0.245
 7961SOL    HW224783   6.037   0.134   0.408
 7962SOL     OW24784   5.799   6.921   5.053
 7962SOL    HW124785   5.875   6.932   5.117
 7962SOL    HW224786   5.822   6.965   4.966
 7963SOL     OW24787   6.379   6.216   3.519
 7963SOL    HW124788   6.315   6.272   3.570
 7963SOL    HW224789   6.376   6.241   3.422
 7964SOL     OW24790   6.281   3.867   1.352
 7964SOL    HW124791   6.189   3.874   1.312
 7964SOL    HW224792   6.278   3.896   1.448
 7965SOL     OW24793   5.354   2.076   6.365
 7965SOL    HW124794   5.314   2.156   6.410
 7965SOL    HW224795   5.378   2.099   6.271
 7966SOL     OW24796   5.311   3.649   5.365
 7966SOL    HW124797   5.337   3.716   5.295
 7966SOL    HW224798   5.359   3.669   5.450
 7967SOL     OW24799   1.172   4.954   0.148
 7967SOL    HW124800   1.238   4.924   0.217
 7967SOL    HW224801   1.093   4.892   0.149
 7968SOL     OW24802   1.821   2.317   3.950
 7968SOL    HW124803   1.727   2.350   3.958
 7968SOL    HW224804   1.860   2.307   4.042
 7969SOL     OW24805   3.340   4.675   6.973
 7969SOL    HW124806   3.426   4.701   6.930
 7969SOL    HW224807   3.334   4.575   6.980
 7970SOL     OW24808   6.165   2.966   4.199
 7970SOL    HW124809   6.201   2.888   4.147
 7970SOL    HW224810   6.237   3.034   4.212
 7971SOL     OW24811   2.862   1.304   6.864
 7971SOL    HW124812   2.879   1.253   6.949
 7971SOL    HW224813   2.886   1.400   6.878
 7972SOL     OW24814   3.195   4.121   4.355
 7972SOL    HW124815   3.180   4.218   4.377
 7972SOL    HW224816   3.293   4.104   4.349
 7973SOL     OW24817   6.193   4.858   2.048
 7973SOL    HW124818   6.173   4.940   2.103
 7973SOL    HW224819   6.111   4.832   1.997
 7974SOL     OW24820   0.687   3.121   4.886
 7974SOL    HW124821   0.669   3.028   4.856
 7974SOL    HW224822   0.772   3.123   4.939
 7975SOL     OW24823   4.458   0.725   0.420
 7975SOL    HW124824   4.446   0.793   0.349
 7975SOL    HW224825   4.504   0.644   0.382
 7976SOL     OW24826   0.880   0.795   0.233
 7976SOL    HW124827   0.847   0.841   0.316
 7976SOL    HW224828   0.806   0.742   0.193
 7977SOL     OW24829   5.686   5.242   3.281
 7977SOL    HW124830   5.601   5.248   3.333
 7977SOL    HW224831   5.680   5.301   3.200
 7978SOL     OW24832   0.705   4.121   1.490
 7978SOL    HW124833   0.629   4.056   1.500
 7978SOL    HW224834   0.789   4.072   1.471
 7979SOL     OW24835   2.492   2.202   5.026
 7979SOL    HW124836   2.527   2.295   5.033
 7979SOL    HW224837   2.555   2.147   4.970
 7980SOL     OW24838   3.570   5.402   1.488
 7980SOL    HW124839   3.526   5.445   1.410
 7980SOL    HW224840   3.536   5.309   1.499
 7981SOL     OW24841   1.661   3.774   4.335
 7981SOL    HW124842   1.654   3.675   4.346
 7981SOL    HW224843   1.677   3.816   4.425
 7982SOL     OW24844   6.840   1.103   5.990
 7982SOL    HW124845   6.855   1.058   6.078
 7982SOL    HW224846   6.927   1.137   5.955
 7983SOL     OW24847   4.074   0.536   1.832
 7983SOL    HW124848   4.063   0.439   1.853
 7983SOL    HW224849   3.986   0.582   1.841
 7984SOL     OW24850   6.804   2.987   2.826
 7984SOL    HW124851   6.865   3.044   2.772
 7984SOL    HW224852   6.725   2.960   2.771
 7985SOL     OW24853   3.222   3.014   5.318
 7985SOL    HW124854   3.173   3.059   5.244
 7985SOL    HW224855   3.251   2.923   5.287
 7986SOL     OW24856   3.902   1.083   4.130
 7986SOL    HW124857   3.917   1.153   4.059
 7986SOL    HW224858   3.886   0.995   4.086
 7987SOL     OW24859   1.021   3.436   6.388
 7987SOL    HW124860   1.044   3.530   6.414
 7987SOL    HW224861   1.070   3.372   6.448
 7988SOL     OW24862   6.692   0.764   1.264
 7988SOL    HW124863   6.656   0.826   1.194
 7988SOL    HW224864   6.759   0.812   1.321
 7989SOL     OW24865   0.721   4.429   0.735
 7989SOL    HW124866   0.672   4.361   0.679
 7989SOL    HW224867   0.661   4.507   0.751
 7990SOL     OW24868   4.704   5.273   4.813
 7990SOL    HW124869   4.804   5.275   4.813
 7990SOL    HW224870   4.671   5.280   4.719
 7991SOL     OW24871   5.909   1.052   4.644
 7991SOL    HW124872   5.983   1.000   4.686
 7991SOL    HW224873   5.932   1.149   4.644
 7992SOL     OW24874   2.061   0.072   0.018
 7992SOL    HW124875   2.037   0.078   0.115
 7992SOL    HW224876   1.978   0.082   6.986
 7993SOL     OW24877   6.236   5.982   0.418
 7993SOL    HW124878   6.291   5.955   0.497
 7993SOL    HW224879   6.150   5.929   0.418
 7994SOL     OW24880   6.751   0.622   4.291
 7994SOL    HW124881   6.730   0.719   4.295
 7994SOL    HW224882   6.840   0.609   4.247
 7995SOL     OW24883   0.653   5.495   1.313
 7995SOL    HW124884   0.720   5.495   1.239
 7995SOL    HW224885   0.656   5.407   1.360
 7996SOL     OW24886   2.170   0.052   3.191
 7996SOL    HW124887   2.174   6.986   3.148
 7996SOL    HW224888   2.091   0.055   3.253
 7997SOL     OW24889   2.197   1.993   5.575
 7997SOL    HW124890   2.260   1.973   5.499
 7997SOL    HW224891   2.205   1.920   5.643
 7998SOL     OW24892   2.345   0.846   0.978
 7998SOL    HW124893   2.300   0.805   1.057
 7998SOL    HW224894   2.434   0.882   1.005
 7999SOL     OW24895   0.821   0.246   3.708
 7999SOL    HW124896   0.825   0.148   3.690
 7999SOL    HW224897   0.867   0.295   3.634
 8000SOL     OW24898   4.275   5.691   1.220
 8000SOL    HW124899   4.289   5.600   1.260
 8000SOL    HW224900   4.312   5.693   1.127
 8001SOL     OW24901   4.545   4.152   1.375
 8001SOL    HW124902   4.531   4.199   1.463
 8001SOL    HW224903   4.504   4.206   1.302
 8002SOL     OW24904   1.275   0.315   4.761
 8002SOL    HW124905   1.356   0.270   4.722
 8002SOL    HW224906   1.193   0.278   4.718
 8003SOL     OW24907   3.185   5.921   2.683
 8003SOL    HW124908   3.141   6.009   2.668
 8003SOL    HW224909   3.136   5.850   2.631
 8004SOL     OW24910   1.478   3.508   4.329
 8004SOL    HW124911   1.540   3.496   4.406
 8004SOL    HW224912   1.433   3.597   4.335
 8005SOL     OW24913   1.944   0.564   3.453
 8005SOL    HW124914   1.938   0.603   3.545
 8005SOL    HW224915   2.040   0.558   3.426
 8006SOL     OW24916   4.561   5.409   5.777
 8006SOL    HW124917   4.519   5.355   5.703
 8006SOL    HW224918   4.527   5.376   5.865
 8007SOL     OW24919   0.599   0.803   0.792
 8007SOL    HW124920   0.630   0.711   0.816
 8007SOL    HW224921   0.565   0.803   0.697
 8008SOL     OW24922   4.539   5.049   0.753
 8008SOL    HW124923   4.618   5.105   0.778
 8008SOL    HW224924   4.455   5.097   0.779
 8009SOL     OW24925   6.401   1.420   0.508
 8009SOL    HW124926   6.339   1.365   0.451
 8009SOL    HW224927   6.349   1.460   0.583
 8010SOL     OW24928   3.382   0.576   5.690
 8010SOL    HW124929   3.363   0.479   5.701
 8010SOL    HW224930   3.471   0.589   5.647
 8011SOL     OW24931   3.975   2.189   2.455
 8011SOL    HW124932   3.941   2.224   2.368
 8011SOL    HW224933   3.916   2.115   2.487
 8012SOL     OW24934   6.562   1.211   4.450
 8012SOL    HW124935   6.637   1.226   4.515
 8012SOL    HW224936   6.581   1.262   4.366
 8013SOL     OW24937   3.514   0.881   3.123
 8013SOL    HW124938   3.498   0.972   3.085
 8013SOL    HW224939   3.435   0.854   3.178
 8014SOL     OW24940   2.609   2.453   2.872
 8014SOL    HW124941   2.634   2.496   2.786
 8014SOL    HW224942   2.545   2.378   2.855
 8015SOL     OW24943   3.721   6.989   4.296
 8015SOL    HW124944   3.773   6.908   4.270
 8015SOL    HW224945   3.725   0.032   4.221
 8016SOL     OW24946   3.680   2.545   5.347
 8016SOL    HW124947   3.597   2.491   5.358
 8016SOL    HW224948   3.756   2.485   5.324
 8017SOL     OW24949   6.239   5.864   1.162
 8017SOL    HW124950   6.216   5.926   1.237
 8017SOL    HW224951   6.216   5.770   1.187
 8018SOL     OW24952   3.423   3.173   0.546
 8018SOL    HW124953   3.423   3.253   0.486
 8018SOL    HW224954   3.378   3.196   0.632
 8019SOL     OW24955   2.634   3.336   0.311
 8019SOL    HW124956   2.657   3.251   0.357
 8019SOL    HW224957   2.715   3.394   0.303
 8020SOL     OW24958   0.186   0.536   6.161
 8020SOL    HW124959   0.107   0.475   6.164
 8020SOL    HW224960   0.158   0.626   6.128
 8021SOL     OW24961   0.967   3.238   0.571
 8021SOL    HW124962   0.913   3.315   0.603
 8021SOL    HW224963   0.933   3.154   0.613
 8022SOL     OW24964   4.272   6.842   2.306
 8022SOL    HW124965   4.308   6.863   2.397
 8022SOL    HW224966   4.280   6.923   2.248
 8023SOL     OW24967   4.160   5.612   2.076
 8023SOL    HW124968   4.067   5.649   2.084
 8023SOL    HW224969   4.200   5.603   2.167
 8024SOL     OW24970   2.771   0.865   0.003
 8024SOL    HW124971   2.756   0.926   6.948
 8024SOL    HW224972   2.702   0.792   0.002
 8025SOL     OW24973   0.974   6.226   2.155
 8025SOL    HW124974   0.930   6.155   2.100
 8025SOL    HW224975   1.073   6.211   2.157
 8026SOL     OW24976   0.838   6.525   6.370
 8026SOL    HW124977   0.748   6.485   6.386
 8026SOL    HW224978   0.837   6.621   6.397
 8027SOL     OW24979   3.525   0.510   6.716
 8027SOL    HW124980   3.584   0.431   6.725
 8027SOL    HW224981   3.563   0.587   6.767
 8028SOL     OW24982   3.712   5.944   5.910
 8028SOL    HW124983   3.659   6.003   5.970
 8028SOL    HW224984   3.690   5.965   5.815
 8029SOL     OW24985   1.146   0.514   1.674
 8029SOL    HW124986   1.165   0.456   1.595
 8029SOL    HW224987   1.067   0.572   1.655
 8030SOL     OW24988   1.008   4.464   0.974
 8030SOL    HW124989   1.059   4.547   0.997
 8030SOL    HW224990   1.018   4.446   0.876
 8031SOL     OW24991   6.720   0.514   2.202
 8031SOL    HW124992   6.771   0.597   2.182
 8031SOL    HW224993   6.780   0.447   2.246
 8032SOL     OW24994   0.044   2.418   0.326
 8032SOL    HW124995   6.970   2.440   0.318
 8032SOL    HW224996   0.062   2.378   0.416
 8033SOL     OW24997   3.807   4.117   1.467
 8033SOL    HW124998   3.894   4.149   1.429
 8033SOL    HW224999   3.808   4.130   1.567
 8034SOL     OW25000   0.396   0.259   5.612
 8034SOL    HW125001   0.456   0.314   5.670
 8034SOL    HW225002   0.394   0.165   5.646
 8035SOL     OW25003   6.462   0.047   4.103
 8035SOL    HW125004   6.482   0.060   4.005
 8035SOL    HW225005   6.389   0.109   4.131
 8036SOL     OW25006   5.171   3.189   4.417
 8036SOL    HW125007   5.092   3.218   4.363
 8036SOL    HW225008   5.155   3.208   4.513
 8037SOL     OW25009   2.513   0.774   6.151
 8037SOL    HW125010   2.605   0.741   6.171
 8037SOL    HW225011   2.457   0.698   6.118
 8038SOL     OW25012   6.616   5.524   1.994
 8038SOL    HW125013   6.649   5.485   1.908
 8038SOL    HW225014   6.690   5.526   2.061
 8039SOL     OW25015   2.101   2.434   5.127
 8039SOL    HW125016   2.110   2.365   5.199
 8039SOL    HW225017   2.144   2.519   5.157
 8040SOL     OW25018   0.767   6.125   6.256
 8040SOL    HW125019   0.863   6.130   6.283
 8040SOL    HW225020   0.747   6.198   6.191
 8041SOL     OW25021   3.230   1.577   3.232
 8041SOL    HW125022   3.246   1.497   3.290
 8041SOL    HW225023   3.168   1.553   3.158
 8042SOL     OW25024   3.786   4.267   5.927
 8042SOL    HW125025   3.830   4.296   6.012
 8042SOL    HW225026   3.688   4.256   5.941
 8043SOL     OW25027   5.092   5.719   0.098
 8043SOL    HW125028   5.141   5.636   0.126
 8043SOL    HW225029   5.098   5.729   7.022
 8044SOL     OW25030   2.065   2.785   1.304
 8044SOL    HW125031   1.983   2.729   1.309
 8044SOL    HW225032   2.082   2.828   1.393
 8045SOL     OW25033   6.375   3.571   4.487
 8045SOL    HW125034   6.409   3.553   4.394
 8045SOL    HW225035   6.451   3.589   4.548
 8046SOL     OW25036   0.455   4.559   1.306
 8046SOL    HW125037   0.523   4.497   1.344
 8046SOL    HW225038   0.372   4.508   1.284
 8047SOL     OW25039   2.993   5.982   6.681
 8047SOL    HW125040   3.034   6.073   6.694
 8047SOL    HW225041   2.907   5.977   6.732
 8048SOL     OW25042   4.036   2.278   5.548
 8048SOL    HW125043   4.108   2.208   5.556
 8048SOL    HW225044   3.955   2.247   5.597
 8049SOL     OW25045   1.628   1.605   0.178
 8049SOL    HW125046   1.568   1.532   0.146
 8049SOL    HW225047   1.661   1.583   0.270
 8050SOL     OW25048   0.517   4.564   6.253
 8050SOL    HW125049   0.535   4.601   6.345
 8050SOL    HW225050   0.475   4.474   6.261
 8051SOL     OW25051   4.834   6.848   3.474
 8051SOL    HW125052   4.872   6.892   3.555
 8051SOL    HW225053   4.785   6.916   3.419
 8052SOL     OW25054   2.981   1.844   2.517
 8052SOL    HW125055   2.906   1.837   2.582
 8052SOL    HW225056   3.004   1.940   2.502
 8053SOL     OW25057   1.731   2.445   6.706
 8053SOL    HW125058   1.813   2.409   6.750
 8053SOL    HW225059   1.652   2.430   6.765
 8054SOL     OW25060   5.010   3.526   4.924
 8054SOL    HW125061   4.932   3.582   4.950
 8054SOL    HW225062   4.993   3.431   4.950
 8055SOL     OW25063   6.549   0.319   6.573
 8055SOL    HW125064   6.538   0.273   6.660
 8055SOL    HW225065   6.459   0.334   6.531
 8056SOL     OW25066   2.109   1.236   3.882
 8056SOL    HW125067   2.167   1.176   3.826
 8056SOL    HW225068   2.137   1.331   3.867
 8057SOL     OW25069   2.985   2.107   2.186
 8057SOL    HW125070   2.966   2.177   2.117
 8057SOL    HW225071   2.911   2.040   2.187
 8058SOL     OW25072   3.940   6.053   1.835
 8058SOL    HW125073   3.927   5.955   1.819
 8058SOL    HW225074   3.852   6.100   1.828
 8059SOL     OW25075   2.868   2.848   5.833
 8059SOL    HW125076   2.814   2.780   5.785
 8059SOL    HW225077   2.900   2.918   5.767
 8060SOL     OW25078   6.933   0.969   6.238
 8060SOL    HW125079   7.021   1.002   6.272
 8060SOL    HW225080   6.866   0.972   6.312
 8061SOL     OW25081   6.748   0.970   1.972
 8061SOL    HW125082   6.700   0.904   2.030
 8061SOL    HW225083   6.840   0.984   2.007
 8062SOL     OW25084   4.447   4.946   5.661
 8062SOL    HW125085   4.512   5.022   5.665
 8062SOL    HW225086   4.420   4.931   5.565
 8063SOL     OW25087   2.601   4.605   2.848
 8063SOL    HW125088   2.601   4.565   2.940
 8063SOL    HW225089   2.684   4.660   2.836
 8064SOL     OW25090   6.691   1.833   0.519
 8064SOL    HW125091   6.628   1.825   0.596
 8064SOL    HW225092   6.784   1.846   0.554
 8065SOL     OW25093   4.476   6.862   6.933
 8065SOL    HW125094   4.482   6.837   6.837
 8065SOL    HW225095   4.539   6.805   6.986
 8066SOL     OW25096   0.418   0.101   6.060
 8066SOL    HW125097   0.493   0.069   6.116
 8066SOL    HW225098   0.387   0.191   6.092
 8067SOL     OW25099   5.544   0.741   4.211
 8067SOL    HW125100   5.586   0.829   4.190
 8067SOL    HW225101   5.446   0.746   4.193
 8068SOL     OW25102   6.939   3.483   1.740
 8068SOL    HW125103   6.847   3.470   1.704
 8068SOL    HW225104   6.935   3.505   1.837
 8069SOL     OW25105   1.488   3.016   2.602
 8069SOL    HW125106   1.442   3.049   2.520
 8069SOL    HW225107   1.563   2.955   2.575
 8070SOL     OW25108   5.092   3.811   1.059
 8070SOL    HW125109   5.162   3.804   0.988
 8070SOL    HW225110   5.136   3.825   1.148
 8071SOL     OW25111   2.700   0.302   5.989
 8071SOL    HW125112   2.691   0.210   5.949
 8071SOL    HW225113   2.643   0.308   6.071
 8072SOL     OW25114   2.303   1.951   4.767
 8072SOL    HW125115   2.268   2.044   4.751
 8072SOL    HW225116   2.289   1.927   4.863
 8073SOL     OW25117   5.087   0.419   0.081
 8073SOL    HW125118   5.094   0.518   0.091
 8073SOL    HW225119   5.115   0.392   7.012
 8074SOL     OW25120   6.738   0.702   0.061
 8074SOL    HW125121   6.657   0.671   0.011
 8074SOL    HW225122   6.740   0.802   0.062
 8075SOL     OW25123   0.359   0.226   0.847
 8075SOL    HW125124   0.422   0.170   0.794
 8075SOL    HW225125   0.331   0.176   0.929
 8076SOL     OW25126   6.847   6.097   0.727
 8076SOL    HW125127   6.823   6.022   0.666
 8076SOL    HW225128   6.773   6.164   0.728
 8077SOL     OW25129   5.860   4.464   1.075
 8077SOL    HW125130   5.926   4.403   1.119
 8077SOL    HW225131   5.844   4.544   1.132
 8078SOL     OW25132   6.414   0.772   1.290
 8078SOL    HW125133   6.498   0.733   1.254
 8078SOL    HW225134   6.427   0.869   1.310
 8079SOL     OW25135   0.843   1.015   6.721
 8079SOL    HW125136   0.888   1.099   6.692
 8079SOL    HW225137   0.884   0.983   6.807
 8080SOL     OW25138   1.428   3.636   3.465
 8080SOL    HW125139   1.352   3.608   3.524
 8080SOL    HW225140   1.492   3.560   3.455
 8081SOL     OW25141   6.732   6.733   5.128
 8081SOL    HW125142   6.643   6.687   5.132
 8081SOL    HW225143   6.797   6.675   5.079
 8082SOL     OW25144   3.566   1.994   4.257
 8082SOL    HW125145   3.513   2.061   4.309
 8082SOL    HW225146   3.522   1.904   4.263
 8083SOL     OW25147   6.704   2.059   4.469
 8083SOL    HW125148   6.788   2.006   4.474
 8083SOL    HW225149   6.678   2.072   4.373
 8084SOL     OW25150   4.166   1.910   5.730
 8084SOL    HW125151   4.249   1.892   5.784
 8084SOL    HW225152   4.086   1.900   5.789
 8085SOL     OW25153   1.811   5.920   4.310
 8085SOL    HW125154   1.736   5.855   4.304
 8085SOL    HW225155   1.802   5.974   4.394
 8086SOL     OW25156   6.652   1.816   2.714
 8086SOL    HW125157   6.671   1.718   2.718
 8086SOL    HW225158   6.606   1.837   2.627
 8087SOL     OW25159   6.992   1.064   6.643
 8087SOL    HW125160   0.034   1.079   6.718
 8087SOL    HW225161   7.017   1.122   6.565
 8088SOL     OW25162   6.884   0.174   5.206
 8088SOL    HW125163   6.801   0.174   5.263
 8088SOL    HW225164   6.909   0.080   5.184
 8089SOL     OW25165   6.252   2.036   0.106
 8089SOL    HW125166   6.233   2.018   0.010
 8089SOL    HW225167   6.350   2.028   0.123
 8090SOL     OW25168   4.579   2.523   5.378
 8090SOL    HW125169   4.605   2.427   5.386
 8090SOL    HW225170   4.651   2.580   5.419
 8091SOL     OW25171   0.993   4.108   4.615
 8091SOL    HW125172   1.041   4.048   4.679
 8091SOL    HW225173   1.060   4.157   4.559
 8092SOL     OW25174   4.788   1.098   5.532
 8092SOL    HW125175   4.738   1.033   5.589
 8092SOL    HW225176   4.754   1.190   5.550
 8093SOL     OW25177   3.421   6.305   3.112
 8093SOL    HW125178   3.410   6.405   3.109
 8093SOL    HW225179   3.518   6.282   3.100
 8094SOL     OW25180   2.033   3.779   4.124
 8094SOL    HW125181   1.936   3.800   4.123
 8094SOL    HW225182   2.047   3.685   4.155
 8095SOL     OW25183   1.505   4.773   4.924
 8095SOL    HW125184   1.504   4.701   4.993
 8095SOL    HW225185   1.596   4.779   4.882
 8096SOL     OW25186   1.250   4.890   0.425
 8096SOL    HW125187   1.263   4.986   0.453
 8096SOL    HW225188   1.153   4.866   0.437
 8097SOL     OW25189   4.704   6.510   0.242
 8097SOL    HW125190   4.768   6.583   0.262
 8097SOL    HW225191   4.624   6.518   0.301
 8098SOL     OW25192   2.136   5.934   4.961
 8098SOL    HW125193   2.068   5.864   4.942
 8098SOL    HW225194   2.123   5.970   5.053
 8099SOL     OW25195   1.797   4.100   2.511
 8099SOL    HW125196   1.699   4.122   2.515
 8099SOL    HW225197   1.824   4.090   2.415
 8100SOL     OW25198   6.303   0.467   6.456
 8100SOL    HW125199   6.263   0.381   6.425
 8100SOL    HW225200   6.261   0.543   6.405
 8101SOL     OW25201   2.960   5.212   1.239
 8101SOL    HW125202   2.960   5.311   1.224
 8101SOL    HW225203   2.893   5.189   1.310
 8102SOL     OW25204   0.786   4.089   3.753
 8102SOL    HW125205   0.704   4.137   3.721
 8102SOL    HW225206   0.801   4.008   3.697
 8103SOL     OW25207   3.817   1.020   1.383
 8103SOL    HW125208   3.781   1.000   1.291
 8103SOL    HW225209   3.742   1.017   1.449
 8104SOL     OW25210   2.028   5.116   0.106
 8104SOL    HW125211   2.063   5.023   0.117
 8104SOL    HW225212   2.031   5.142   0.009
 8105SOL     OW25213   6.849   6.780   4.075
 8105SOL    HW125214   6.940   6.806   4.109
 8105SOL    HW225215   6.859   6.706   4.009
 8106SOL     OW25216   2.419   6.458   6.146
 8106SOL    HW125217   2.451   6.528   6.209
 8106SOL    HW225218   2.404   6.372   6.196
 8107SOL     OW25219   1.717   6.405   6.836
 8107SOL    HW125220   1.758   6.342   6.903
 8107SOL    HW225221   1.648   6.356   6.783
 8108SOL     OW25222   1.364   1.303   6.818
 8108SOL    HW125223   1.425   1.264   6.887
 8108SOL    HW225224   1.339   1.233   6.752
 8109SOL     OW25225   6.442   2.910   1.878
 8109SOL    HW125226   6.351   2.939   1.849
 8109SOL    HW225227   6.454   2.927   1.976
 8110SOL     OW25228   4.010   4.689   1.074
 8110SOL    HW125229   4.077   4.740   1.020
 8110SOL    HW225230   3.943   4.647   1.013
 8111SOL     OW25231   6.386   1.093   2.638
 8111SOL    HW125232   6.392   1.184   2.597
 8111SOL    HW225233   6.373   1.102   2.737
 8112SOL     OW25234   1.884   5.114   6.856
 8112SOL    HW125235   1.822   5.129   6.934
 8112SOL    HW225236   1.884   5.017   6.832
 8113SOL     OW25237   5.046   4.647   6.395
 8113SOL    HW125238   4.979   4.576   6.374
 8113SOL    HW225239   4.999   4.731   6.423
 8114SOL     OW25240   1.890   3.825   2.922
 8114SOL    HW125241   1.868   3.809   3.018
 8114SOL    HW225242   1.851   3.912   2.892
 8115SOL     OW25243   2.321   1.075   5.760
 8115SOL    HW125244   2.254   1.010   5.794
 8115SOL    HW225245   2.389   1.027   5.705
 8116SOL     OW25246   3.967   3.023   1.454
 8116SOL    HW125247   3.875   3.005   1.418
 8116SOL    HW225248   3.993   2.950   1.516
 8117SOL     OW25249   2.695   6.828   4.168
 8117SOL    HW125250   2.620   6.853   4.106
 8117SOL    HW225251   2.782   6.832   4.119
 8118SOL     OW25252   6.508   3.090   6.852
 8118SOL    HW125253   6.540   3.143   6.931
 8118SOL    HW225254   6.565   3.008   6.842
 8119SOL     OW25255   5.710   6.400   6.717
 8119SOL    HW125256   5.796   6.409   6.766
 8119SOL    HW225257   5.728   6.389   6.619
 8120SOL     OW25258   1.841   6.493   2.252
 8120SOL    HW125259   1.925   6.441   2.265
 8120SOL    HW225260   1.843   6.537   2.163
 8121SOL     OW25261   1.391   2.803   2.298
 8121SOL    HW125262   1.428   2.890   2.267
 8121SOL    HW225263   1.364   2.810   2.394
 8122SOL     OW25264   0.331   4.758   1.443
 8122SOL    HW125265   0.254   4.789   1.387
 8122SOL    HW225266   0.385   4.692   1.391
 8123SOL     OW25267   6.512   1.915   0.326
 8123SOL    HW125268   6.426   1.887   0.368
 8123SOL    HW225269   6.589   1.884   0.382
 8124SOL     OW25270   5.774   5.743   5.243
 8124SOL    HW125271   5.683   5.773   5.212
 8124SOL    HW225272   5.765   5.656   5.291
 8125SOL     OW25273   1.419   5.456   2.163
 8125SOL    HW125274   1.385   5.507   2.242
 8125SOL    HW225275   1.380   5.494   2.079
 8126SOL     OW25276   3.831   5.850   4.857
 8126SOL    HW125277   3.892   5.819   4.784
 8126SOL    HW225278   3.833   5.784   4.932
 8127SOL     OW25279   3.669   1.764   6.109
 8127SOL    HW125280   3.588   1.784   6.165
 8127SOL    HW225281   3.703   1.850   6.070
 8128SOL     OW25282   3.282   2.584   1.285
 8128SOL    HW125283   3.360   2.529   1.253
 8128SOL    HW225284   3.300   2.616   1.378
 8129SOL     OW25285   0.537   2.292   2.523
 8129SOL    HW125286   0.485   2.240   2.591
 8129SOL    HW225287   0.510   2.388   2.527
 8130SOL     OW25288   0.608   6.332   6.434
 8130SOL    HW125289   0.619   6.358   6.530
 8130SOL    HW225290   0.650   6.243   6.419
 8131SOL     OW25291   1.735   2.458   0.050
 8131SOL    HW125292   1.699   2.469   6.981
 8131SOL    HW225293   1.832   2.484   0.052
 8132SOL     OW25294   6.764   1.447   5.121
 8132SOL    HW125295   6.845   1.472   5.174
 8132SOL    HW225296   6.762   1.348   5.108
 8133SOL     OW25297   3.261   4.575   1.219
 8133SOL    HW125298   3.257   4.650   1.286
 8133SOL    HW225299   3.196   4.504   1.246
 8134SOL     OW25300   5.093   2.018   5.881
 8134SOL    HW125301   5.150   1.936   5.882
 8134SOL    HW225302   5.098   2.063   5.970
 8135SOL     OW25303   2.510   6.768   1.903
 8135SOL    HW125304   2.504   6.688   1.963
 8135SOL    HW225305   2.583   6.754   1.837
 8136SOL     OW25306   5.034   4.361   2.016
 8136SOL    HW125307   5.042   4.262   2.029
 8136SOL    HW225308   5.124   4.403   2.021
 8137SOL     OW25309   4.721   2.017   6.085
 8137SOL    HW125310   4.765   1.966   6.011
 8137SOL    HW225311   4.642   1.965   6.118
 8138SOL     OW25312   5.191   1.200   2.238
 8138SOL    HW125313   5.131   1.195   2.318
 8138SOL    HW225314   5.286   1.186   2.267
 8139SOL     OW25315   0.150   1.844   3.190
 8139SOL    HW125316   0.121   1.749   3.200
 8139SOL    HW225317   0.248   1.852   3.210
 8140SOL     OW25318   4.783   2.414   3.181
 8140SOL    HW125319   4.739   2.492   3.226
 8140SOL    HW225320   4.800   2.436   3.086
 8141SOL     OW25321   5.553   4.469   4.155
 8141SOL    HW125322   5.488   4.402   4.190
 8141SOL    HW225323   5.599   4.432   4.074
 8142SOL     OW25324   0.647   6.437   6.687
 8142SOL    HW125325   0.741   6.472   6.694
 8142SOL    HW225326   0.632   6.368   6.758
 8143SOL     OW25327   6.244   3.676   5.653
 8143SOL    HW125328   6.274   3.589   5.692
 8143SOL    HW225329   6.221   3.740   5.727
 8144SOL     OW25330   5.171   0.041   0.055
 8144SOL    HW125331   5.218   0.044   6.990
 8144SOL    HW225332   5.217   0.101   0.120
 8145SOL     OW25333   4.750   6.244   2.853
 8145SOL    HW125334   4.803   6.316   2.897
 8145SOL    HW225335   4.800   6.157   2.859
 8146SOL     OW25336   3.494   1.374   4.503
 8146SOL    HW125337   3.397   1.394   4.491
 8146SOL    HW225338   3.548   1.449   4.466
 8147SOL     OW25339   5.048   0.807   3.000
 8147SOL    HW125340   5.050   0.761   3.088
 8147SOL    HW225341   5.109   0.760   2.936
 8148SOL     OW25342   6.092   4.358   3.328
 8148SOL    HW125343   6.069   4.310   3.412
 8148SOL    HW225344   6.027   4.333   3.256
 8149SOL     OW25345   3.927   5.131   2.957
 8149SOL    HW125346   3.873   5.058   2.915
 8149SOL    HW225347   3.870   5.212   2.967
 8150SOL     OW25348   0.984   5.975   1.431
 8150SOL    HW125349   0.890   5.997   1.456
 8150SOL    HW225350   1.042   5.975   1.512
 8151SOL     OW25351   0.544   2.290   4.697
 8151SOL    HW125352   0.612   2.287   4.770
 8151SOL    HW225353   0.499   2.201   4.689
 8152SOL     OW25354   1.452   0.477   3.119
 8152SOL    HW125355   1.528   0.521   3.168
 8152SOL    HW225356   1.376   0.461   3.182
 8153SOL     OW25357   1.643   6.695   0.159
 8153SOL    HW125358   1.654   6.602   0.196
 8153SOL    HW225359   1.623   6.690   0.062
 8154SOL     OW25360   2.279   6.763   3.414
 8154SOL    HW125361   2.320   6.846   3.375
 8154SOL    HW225362   2.195   6.786   3.462
 8155SOL     OW25363   3.154   3.714   4.393
 8155SOL    HW125364   3.170   3.665   4.308
 8155SOL    HW225365   3.092   3.662   4.451
 8156SOL     OW25366   0.183   0.816   5.678
 8156SOL    HW125367   0.100   0.861   5.712
 8156SOL    HW225368   0.196   0.729   5.727
 8157SOL     OW25369   6.224   2.659   6.797
 8157SOL    HW125370   6.188   2.581   6.847
 8157SOL    HW225371   6.258   2.727   6.862
 8158SOL     OW25372   2.086   5.296   2.309
 8158SOL    HW125373   2.093   5.198   2.327
 8158SOL    HW225374   2.164   5.326   2.254
 8159SOL     OW25375   0.543   5.321   1.825
 8159SOL    HW125376   0.462   5.372   1.854
 8159SOL    HW225377   0.515   5.245   1.767
 8160SOL     OW25378   4.848   1.894   1.847
 8160SOL    HW125379   4.822   1.900   1.943
 8160SOL    HW225380   4.810   1.972   1.797
 8161SOL     OW25381   4.463   2.035   1.954
 8161SOL    HW125382   4.414   1.966   2.008
 8161SOL    HW225383   4.472   2.119   2.007
 8162SOL     OW25384   5.902   0.737   1.854
 8162SOL    HW125385   5.810   0.725   1.816
 8162SOL    HW225386   5.966   0.756   1.780
 8163SOL     OW25387   1.827   3.286   4.860
 8163SOL    HW125388   1.900   3.336   4.813
 8163SOL    HW225389   1.745   3.342   4.864
 8164SOL     OW25390   4.814   2.223   2.682
 8164SOL    HW125391   4.722   2.247   2.651
 8164SOL    HW225392   4.873   2.209   2.602
 8165SOL     OW25393   2.257   5.112   1.625
 8165SOL    HW125394   2.307   5.048   1.683
 8165SOL    HW225395   2.245   5.073   1.534
 8166SOL     OW25396   3.758   6.863   1.232
 8166SOL    HW125397   3.825   6.798   1.196
 8166SOL    HW225398   3.798   6.954   1.233
 8167SOL     OW25399   5.462   3.249   4.073
 8167SOL    HW125400   5.496   3.248   3.979
 8167SOL    HW225401   5.514   3.184   4.128
 8168SOL     OW25402   3.143   1.765   2.299
 8168SOL    HW125403   3.202   1.834   2.258
 8168SOL    HW225404   3.094   1.806   2.377
 8169SOL     OW25405   5.398   3.795   5.120
 8169SOL    HW125406   5.484   3.838   5.146
 8169SOL    HW225407   5.363   3.838   5.037
 8170SOL     OW25408   1.403   4.752   4.557
 8170SOL    HW125409   1.370   4.700   4.636
 8170SOL    HW225410   1.503   4.745   4.551
 8171SOL     OW25411   1.476   1.125   6.237
 8171SOL    HW125412   1.440   1.204   6.286
 8171SOL    HW225413   1.400   1.066   6.209
 8172SOL     OW25414   7.006   6.329   0.855
 8172SOL    HW125415   6.963   6.267   0.920
 8172SOL    HW225416   0.011   6.278   0.774
 8173SOL     OW25417   5.629   2.679   0.071
 8173SOL    HW125418   5.721   2.716   0.066
 8173SOL    HW225419   5.563   2.747   0.037
 8174SOL     OW25420   5.162   6.926   2.006
 8174SOL    HW125421   5.248   6.938   1.957
 8174SOL    HW225422   5.161   6.837   2.051
 8175SOL     OW25423   1.571   2.722   4.724
 8175SOL    HW125424   1.610   2.803   4.767
 8175SOL    HW225425   1.561   2.649   4.792
 8176SOL     OW25426   3.938   5.665   3.339
 8176SOL    HW125427   3.922   5.598   3.267
 8176SOL    HW225428   4.036   5.679   3.352
 8177SOL     OW25429   0.755   6.737   5.391
 8177SOL    HW125430   0.830   6.767   5.450
 8177SOL    HW225431   0.775   6.645   5.356
 8178SOL     OW25432   1.840   0.023   6.030
 8178SOL    HW125433   1.925   7.012   6.070
 8178SOL    HW225434   1.839   0.123   6.038
 8179SOL     OW25435   3.261   0.232   0.132
 8179SOL    HW125436   3.248   0.220   0.033
 8179SOL    HW225437   3.174   0.259   0.174
 8180SOL     OW25438   4.719   4.618   6.065
 8180SOL    HW125439   4.703   4.716   6.077
 8180SOL    HW225440   4.812   4.604   6.032
 8181SOL     OW25441   2.334   1.979   2.234
 8181SOL    HW125442   2.261   2.023   2.286
 8181SOL    HW225443   2.338   2.018   2.143
 8182SOL     OW25444   5.260   2.857   5.911
 8182SOL    HW125445   5.184   2.887   5.854
 8182SOL    HW225446   5.307   2.781   5.867
 8183SOL     OW25447   1.960   2.824   3.720
 8183SOL    HW125448   1.997   2.861   3.806
 8183SOL    HW225449   1.971   2.725   3.719
 8184SOL     OW25450   5.914   6.365   4.599
 8184SOL    HW125451   5.985   6.392   4.665
 8184SOL    HW225452   5.947   6.289   4.543
 8185SOL     OW25453   1.873   2.128   3.214
 8185SOL    HW125454   1.876   2.228   3.210
 8185SOL    HW225455   1.956   2.095   3.260
 8186SOL     OW25456   4.058   4.158   6.720
 8186SOL    HW125457   3.962   4.160   6.696
 8186SOL    HW225458   4.085   4.246   6.760
 8187SOL     OW25459   1.950   1.038   5.731
 8187SOL    HW125460   1.992   0.947   5.734
 8187SOL    HW225461   1.907   1.057   5.819
 8188SOL     OW25462   5.443   3.208   2.625
 8188SOL    HW125463   5.416   3.138   2.559
 8188SOL    HW225464   5.492   3.281   2.577
 8189SOL     OW25465   6.859   5.158   2.974
 8189SOL    HW125466   6.913   5.088   3.021
 8189SOL    HW225467   6.814   5.217   3.041
 8190SOL     OW25468   6.028   3.672   2.318
 8190SOL    HW125469   6.108   3.727   2.344
 8190SOL    HW225470   6.032   3.652   2.220
 8191SOL     OW25471   6.693   4.837   2.045
 8191SOL    HW125472   6.628   4.787   2.102
 8191SOL    HW225473   6.744   4.772   1.988
 8192SOL     OW25474   1.496   3.174   0.457
 8192SOL    HW125475   1.415   3.222   0.422
 8192SOL    HW225476   1.466   3.091   0.505
 8193SOL     OW25477   4.042   0.014   5.444
 8193SOL    HW125478   3.956   0.062   5.426
 8193SOL    HW225479   4.080   0.045   5.532
 8194SOL     OW25480   1.462   7.016   1.876
 8194SOL    HW125481   1.461   0.088   1.846
 8194SOL    HW225482   1.465   7.012   1.976
 8195SOL     OW25483   5.191   1.310   1.219
 8195SOL    HW125484   5.110   1.268   1.259
 8195SOL    HW225485   5.168   1.400   1.183
 8196SOL     OW25486   2.110   0.596   7.001
 8196SOL    HW125487   2.084   0.549   0.062
 8196SOL    HW225488   2.032   0.646   6.965
 8197SOL     OW25489   0.497   0.258   1.173
 8197SOL    HW125490   0.442   0.285   1.252
 8197SOL    HW225491   0.523   0.162   1.181
 8198SOL     OW25492   3.085   0.173   2.741
 8198SOL    HW125493   3.026   0.168   2.822
 8198SOL    HW225494   3.140   0.089   2.735
 8199SOL     OW25495   5.667   5.041   0.592
 8199SOL    HW125496   5.647   4.945   0.607
 8199SOL    HW225497   5.713   5.052   0.503
 8200SOL     OW25498   4.121   3.606   1.800
 8200SOL    HW125499   4.159   3.655   1.721
 8200SOL    HW225500   4.021   3.607   1.795
 8201SOL     OW25501   6.647   0.538   4.964
 8201SOL    HW125502   6.632   0.446   4.999
 8201SOL    HW225503   6.608   0.605   5.028
 8202SOL     OW25504   1.665   3.860   4.606
 8202SOL    HW125505   1.758   3.896   4.603
 8202SOL    HW225506   1.654   3.802   4.687
 8203SOL     OW25507   6.240   4.166   0.127
 8203SOL    HW125508   6.170   4.102   0.156
 8203SOL    HW225509   6.288   4.202   0.207
 8204SOL     OW25510   3.222   0.528   1.073
 8204SOL    HW125511   3.312   0.561   1.044
 8204SOL    HW225512   3.184   0.468   1.002
 8205SOL     OW25513   5.241   5.950   2.987
 8205SOL    HW125514   5.229   5.947   2.888
 8205SOL    HW225515   5.335   5.923   3.009
 8206SOL     OW25516   4.073   1.940   3.891
 8206SOL    HW125517   4.084   2.039   3.901
 8206SOL    HW225518   3.991   1.910   3.941
 8207SOL     OW25519   2.824   5.707   6.843
 8207SOL    HW125520   2.790   5.750   6.759
 8207SOL    HW225521   2.915   5.742   6.864
 8208SOL     OW25522   1.756   5.983   0.191
 8208SOL    HW125523   1.844   5.952   0.228
 8208SOL    HW225524   1.682   5.929   0.230
 8209SOL     OW25525   1.387   5.487   5.003
 8209SOL    HW125526   1.348   5.545   5.074
 8209SOL    HW225527   1.314   5.453   4.944
 8210SOL     OW25528   2.175   1.406   0.082
 8210SOL    HW125529   2.169   1.313   0.118
 8210SOL    HW225530   2.083   1.442   0.065
 8211SOL     OW25531   3.651   3.779   3.640
 8211SOL    HW125532   3.616   3.872   3.625
 8211SOL    HW225533   3.707   3.752   3.562
 8212SOL     OW25534   4.213   5.455   0.151
 8212SOL    HW125535   4.193   5.513   0.072
 8212SOL    HW225536   4.191   5.505   0.235
 8213SOL     OW25537   4.500   4.333   1.600
 8213SOL    HW125538   4.470   4.283   1.681
 8213SOL    HW225539   4.549   4.415   1.627
 8214SOL     OW25540   3.940   5.466   3.135
 8214SOL    HW125541   3.880   5.429   3.064
 8214SOL    HW225542   3.995   5.392   3.174
 8215SOL     OW25543   2.272   5.998   6.408
 8215SOL    HW125544   2.180   5.961   6.395
 8215SOL    HW225545   2.272   6.094   6.382
 8216SOL     OW25546   5.293   5.808   1.436
 8216SOL    HW125547   5.213   5.786   1.492
 8216SOL    HW225548   5.292   5.905   1.413
 8217SOL     OW25549   3.409   6.590   4.019
 8217SOL    HW125550   3.378   6.498   4.043
 8217SOL    HW225551   3.465   6.586   3.936
 8218SOL     OW25552   2.185   6.247   4.898
 8218SOL    HW125553   2.284   6.260   4.898
 8218SOL    HW225554   2.159   6.185   4.972
 8219SOL     OW25555   3.968   3.106   2.995
 8219SOL    HW125556   3.925   3.107   3.085
 8219SOL    HW225557   4.060   3.066   3.003
 8220SOL     OW25558   3.844   4.071   5.751
 8220SOL    HW125559   3.783   4.004   5.793
 8220SOL    HW225560   3.861   4.145   5.816
 8221SOL     OW25561   6.550   3.530   4.289
 8221SOL    HW125562   6.563   3.629   4.286
 8221SOL    HW225563   6.595   3.488   4.211
 8222SOL     OW25564   5.765   2.930   0.140
 8222SOL    HW125565   5.836   2.994   0.112
 8222SOL    HW225566   5.675   2.966   0.113
 8223SOL     OW25567   1.362   6.016   5.575
 8223SOL    HW125568   1.272   6.010   5.532
 8223SOL    HW225569   1.421   6.076   5.521
 8224SOL     OW25570   5.779   1.314   6.394
 8224SOL    HW125571   5.763   1.266   6.308
 8224SOL    HW225572   5.868   1.360   6.391
 8225SOL     OW25573   5.678   3.262   0.188
 8225SOL    HW125574   5.621   3.340   0.214
 8225SOL    HW225575   5.678   3.195   0.261
 8226SOL     OW25576   3.656   1.057   6.534
 8226SOL    HW125577   3.626   1.147   6.566
 8226SOL    HW225578   3.586   0.989   6.557
 8227SOL     OW25579   4.588   2.600   3.021
 8227SOL    HW125580   4.589   2.647   3.109
 8227SOL    HW225581   4.632   2.658   2.952
 8228SOL     OW25582   3.039   0.732   4.960
 8228SOL    HW125583   3.065   0.778   5.045
 8228SOL    HW225584   2.940   0.738   4.948
 8229SOL     OW25585   4.741   4.756   1.044
 8229SOL    HW125586   4.741   4.665   1.086
 8229SOL    HW225587   4.720   4.824   1.114
 8230SOL     OW25588   5.880   1.190   6.030
 8230SOL    HW125589   5.840   1.248   5.958
 8230SOL    HW225590   5.979   1.198   6.028
 8231SOL     OW25591   2.981   1.154   2.083
 8231SOL    HW125592   2.914   1.211   2.129
 8231SOL    HW225593   2.935   1.097   2.015
 8232SOL     OW25594   3.673   6.241   3.092
 8232SOL    HW125595   3.729   6.211   3.015
 8232SOL    HW225596   3.720   6.315   3.140
 8233SOL     OW25597   1.888   1.029   6.729
 8233SOL    HW125598   1.791   1.017   6.711
 8233SOL    HW225599   1.924   1.103   6.671
 8234SOL     OW25600   1.117   2.713   0.277
 8234SOL    HW125601   1.095   2.622   0.241
 8234SOL    HW225602   1.217   2.724   0.279
 8235SOL     OW25603   0.639   0.536   1.351
 8235SOL    HW125604   0.629   0.482   1.268
 8235SOL    HW225605   0.732   0.573   1.356
 8236SOL     OW25606   0.496   6.966   1.197
 8236SOL    HW125607   0.494   6.867   1.212
 8236SOL    HW225608   0.408   6.996   1.160
 8237SOL     OW25609   3.959   4.808   5.324
 8237SOL    HW125610   3.952   4.830   5.421
 8237SOL    HW225611   4.008   4.721   5.313
 8238SOL     OW25612   0.407   5.955   0.090
 8238SOL    HW125613   0.442   5.863   0.075
 8238SOL    HW225614   0.344   5.979   0.016
 8239SOL     OW25615   3.534   1.549   5.697
 8239SOL    HW125616   3.446   1.594   5.681
 8239SOL    HW225617   3.576   1.526   5.609
 8240SOL     OW25618   3.578   3.951   5.021
 8240SOL    HW125619   3.501   3.897   4.986
 8240SOL    HW225620   3.544   4.025   5.078
 8241SOL     OW25621   1.265   3.663   5.223
 8241SOL    HW125622   1.224   3.753   5.233
 8241SOL    HW225623   1.351   3.660   5.274
 8242SOL     OW25624   0.309   2.961   2.332
 8242SOL    HW125625   0.321   2.899   2.254
 8242SOL    HW225626   0.341   3.052   2.307
 8243SOL     OW25627   1.484   6.915   3.693
 8243SOL    HW125628   1.474   6.848   3.766
 8243SOL    HW225629   1.537   6.993   3.726
 8244SOL     OW25630   6.511   0.292   3.835
 8244SOL    HW125631   6.418   0.322   3.812
 8244SOL    HW225632   6.533   0.321   3.928
 8245SOL     OW25633   4.762   2.870   2.445
 8245SOL    HW125634   4.700   2.795   2.466
 8245SOL    HW225635   4.769   2.931   2.524
 8246SOL     OW25636   2.018   4.238   6.659
 8246SOL    HW125637   1.989   4.300   6.586
 8246SOL    HW225638   2.029   4.146   6.622
 8247SOL     OW25639   2.709   4.717   3.287
 8247SOL    HW125640   2.740   4.742   3.379
 8247SOL    HW225641   2.768   4.760   3.219
 8248SOL     OW25642   6.797   5.507   2.979
 8248SOL    HW125643   6.813   5.459   3.065
 8248SOL    HW225644   6.698   5.516   2.964
 8249SOL     OW25645   2.805   1.196   6.627
 8249SOL    HW125646   2.845   1.227   6.713
 8249SOL    HW225647   2.786   1.274   6.568
 8250SOL     OW25648   1.541   2.117   6.925
 8250SOL    HW125649   1.611   2.127   6.854
 8250SOL    HW225650   1.460   2.073   6.887
 8251SOL     OW25651   1.006   1.686   5.560
 8251SOL    HW125652   1.063   1.674   5.641
 8251SOL    HW225653   1.054   1.743   5.493
 8252SOL     OW25654   1.033   2.178   6.857
 8252SOL    HW125655   0.955   2.133   6.814
 8252SOL    HW225656   1.074   2.243   6.793
 8253SOL     OW25657   5.720   4.432   6.364
 8253SOL    HW125658   5.656   4.402   6.434
 8253SOL    HW225659   5.758   4.352   6.317
 8254SOL     OW25660   6.208   5.831   6.984
 8254SOL    HW125661   6.300   5.864   7.004
 8254SOL    HW225662   6.142   5.877   0.019
 8255SOL     OW25663   1.023   0.189   5.389
 8255SOL    HW125664   1.039   0.168   5.292
 8255SOL    HW225665   1.063   0.278   5.410
 8256SOL     OW25666   1.487   5.987   4.036
 8256SOL    HW125667   1.479   6.067   3.976
 8256SOL    HW225668   1.401   5.972   4.083
 8257SOL     OW25669   4.962   3.478   3.727
 8257SOL    HW125670   5.060   3.458   3.723
 8257SOL    HW225671   4.933   3.520   3.641
 8258SOL     OW25672   0.246   2.718   3.279
 8258SOL    HW125673   0.217   2.629   3.314
 8258SOL    HW225674   0.345   2.728   3.291
 8259SOL     OW25675   5.818   2.188   4.235
 8259SOL    HW125676   5.861   2.244   4.306
 8259SOL    HW225677   5.787   2.102   4.275
 8260SOL     OW25678   5.045   2.816   6.722
 8260SOL    HW125679   4.990   2.753   6.776
 8260SOL    HW225680   5.142   2.798   6.739
 8261SOL     OW25681   5.760   1.415   3.095
 8261SOL    HW125682   5.717   1.380   3.012
 8261SOL    HW225683   5.860   1.407   3.086
 8262SOL     OW25684   5.074   4.081   2.063
 8262SOL    HW125685   5.174   4.079   2.060
 8262SOL    HW225686   5.038   3.988   2.054
 8263SOL     OW25687   6.556   1.934   6.242
 8263SOL    HW125688   6.630   1.987   6.283
 8263SOL    HW225689   6.497   1.897   6.314
 8264SOL     OW25690   2.847   0.647   1.462
 8264SOL    HW125691   2.870   0.574   1.527
 8264SOL    HW225692   2.820   0.606   1.375
 8265SOL     OW25693   4.509   5.815   0.337
 8265SOL    HW125694   4.593   5.841   0.384
 8265SOL    HW225695   4.474   5.730   0.376
 8266SOL     OW25696   3.161   1.367   2.917
 8266SOL    HW125697   3.109   1.398   2.997
 8266SOL    HW225698   3.220   1.441   2.884
 8267SOL     OW25699   1.702   2.734   3.315
 8267SOL    HW125700   1.702   2.806   3.247
 8267SOL    HW225701   1.793   2.725   3.355
 8268SOL     OW25702   3.209   4.485   0.649
 8268SOL    HW125703   3.251   4.557   0.704
 8268SOL    HW225704   3.183   4.522   0.560
 8269SOL     OW25705   6.370   2.018   5.055
 8269SOL    HW125706   6.435   2.063   5.117
 8269SOL    HW225707   6.419   1.968   4.984
 8270SOL     OW25708   3.788   4.876   6.977
 8270SOL    HW125709   3.871   4.820   6.985
 8270SOL    HW225710   3.813   4.969   6.952
 8271SOL     OW25711   3.482   6.705   6.208
 8271SOL    HW125712   3.398   6.704   6.263
 8271SOL    HW225713   3.479   6.782   6.144
 8272SOL     OW25714   0.006   0.945   2.091
 8272SOL    HW125715   6.996   0.900   2.174
 8272SOL    HW225716   0.088   0.898   2.058
 8273SOL     OW25717   3.820   0.434   6.534
 8273SOL    HW125718   3.740   0.394   6.578
 8273SOL    HW225719   3.790   0.499   6.463
 8274SOL     OW25720   5.222   6.115   5.457
 8274SOL    HW125721   5.309   6.073   5.483
 8274SOL    HW225722   5.190   6.075   5.371
 8275SOL     OW25723   4.370   1.229   5.132
 8275SOL    HW125724   4.451   1.170   5.129
 8275SOL    HW225725   4.391   1.317   5.089
 8276SOL     OW25726   5.625   2.814   0.547
 8276SOL    HW125727   5.676   2.818   0.633
 8276SOL    HW225728   5.614   2.719   0.519
 8277SOL     OW25729   1.060   6.444   1.413
 8277SOL    HW125730   1.063   6.355   1.366
 8277SOL    HW225731   1.151   6.464   1.451
 8278SOL     OW25732   1.474   0.401   0.957
 8278SOL    HW125733   1.457   0.498   0.973
 8278SOL    HW225734   1.402   0.347   1.000
 8279SOL     OW25735   4.792   5.724   6.051
 8279SOL    HW125736   4.824   5.631   6.072
 8279SOL    HW225737   4.705   5.719   6.001
 8280SOL     OW25738   5.581   4.724   6.794
 8280SOL    HW125739   5.636   4.807   6.777
 8280SOL    HW225740   5.604   4.687   6.884
 8281SOL     OW25741   3.336   5.521   6.131
 8281SOL    HW125742   3.343   5.620   6.119
 8281SOL    HW225743   3.414   5.489   6.184
 8282SOL     OW25744   4.156   2.934   0.955
 8282SOL    HW125745   4.215   2.913   0.877
 8282SOL    HW225746   4.204   2.913   1.040
 8283SOL     OW25747   0.548   0.068   3.186
 8283SOL    HW125748   0.465   0.017   3.207
 8283SOL    HW225749   0.628   0.009   3.202
 8284SOL     OW25750   5.463   1.864   2.064
 8284SOL    HW125751   5.520   1.843   2.143
 8284SOL    HW225752   5.514   1.847   1.980
 8285SOL     OW25753   1.018   4.618   0.429
 8285SOL    HW125754   1.075   4.563   0.490
 8285SOL    HW225755   0.993   4.703   0.476
 8286SOL     OW25756   6.226   2.758   0.051
 8286SOL    HW125757   6.212   2.848   0.092
 8286SOL    HW225758   6.193   2.687   0.112
 8287SOL     OW25759   1.339   0.813   3.234
 8287SOL    HW125760   1.308   0.902   3.268
 8287SOL    HW225761   1.419   0.826   3.175
 8288SOL     OW25762   1.970   0.275   2.198
 8288SOL    HW125763   2.057   0.273   2.249
 8288SOL    HW225764   1.978   0.215   2.118
 8289SOL     OW25765   5.725   7.023   7.023
 8289SOL    HW125766   5.722   6.987   0.092
 8289SOL    HW225767   5.682   0.089   7.020
 8290SOL     OW25768   4.983   2.780   2.002
 8290SOL    HW125769   4.886   2.785   2.024
 8290SOL    HW225770   5.024   2.871   2.009
 8291SOL     OW25771   4.989   6.131   6.454
 8291SOL    HW125772   5.063   6.178   6.407
 8291SOL    HW225773   4.997   6.147   6.553
 8292SOL     OW25774   0.308   3.567   5.452
 8292SOL    HW125775   0.283   3.470   5.452
 8292SOL    HW225776   0.406   3.577   5.468
 8293SOL     OW25777   3.203   4.890   3.792
 8293SOL    HW125778   3.199   4.884   3.692
 8293SOL    HW225779   3.293   4.923   3.820
 8294SOL     OW25780   6.141   3.757   5.893
 8294SOL    HW125781   6.183   3.752   5.984
 8294SOL    HW225782   6.081   3.837   5.888
 8295SOL     OW25783   4.538   5.240   2.747
 8295SOL    HW125784   4.541   5.230   2.847
 8295SOL    HW225785   4.600   5.173   2.706
 8296SOL     OW25786   3.649   0.379   2.322
 8296SOL    HW125787   3.642   0.456   2.386
 8296SOL    HW225788   3.744   0.369   2.293
 8297SOL     OW25789   5.617   4.351   2.003
 8297SOL    HW125790   5.684   4.408   2.050
 8297SOL    HW225791   5.647   4.256   2.006
 8298SOL     OW25792   6.711   6.465   0.569
 8298SOL    HW125793   6.759   6.447   0.483
 8298SOL    HW225794   6.686   6.379   0.612
 8299SOL     OW25795   1.073   3.054   6.343
 8299SOL    HW125796   1.142   3.005   6.289
 8299SOL    HW225797   1.053   3.003   6.427
 8300SOL     OW25798   5.780   5.298   4.615
 8300SOL    HW125799   5.783   5.397   4.599
 8300SOL    HW225800   5.785   5.280   4.713
 8301SOL     OW25801   0.060   5.371   0.298
 8301SOL    HW125802   0.070   5.274   0.321
 8301SOL    HW225803   7.001   5.408   0.341
 8302SOL     OW25804   3.823   6.596   5.752
 8302SOL    HW125805   3.907   6.556   5.715
 8302SOL    HW225806   3.833   6.606   5.851
 8303SOL     OW25807   1.148   4.824   4.473
 8303SOL    HW125808   1.210   4.807   4.397
 8303SOL    HW225809   1.178   4.772   4.553
 8304SOL     OW25810   6.702   2.809   4.210
 8304SOL    HW125811   6.798   2.836   4.197
 8304SOL    HW225812   6.653   2.884   4.254
 8305SOL     OW25813   4.289   6.904   5.557
 8305SOL    HW125814   4.247   6.925   5.469
 8305SOL    HW225815   4.328   6.987   5.597
 8306SOL     OW25816   6.220   0.163   4.208
 8306SOL    HW125817   6.140   0.105   4.194
 8306SOL    HW225818   6.189   0.255   4.232
 8307SOL     OW25819   0.826   4.703   3.983
 8307SOL    HW125820   0.867   4.792   4.004
 8307SOL    HW225821   0.885   4.630   4.019
 8308SOL     OW25822   1.477   5.490   0.534
 8308SOL    HW125823   1.396   5.548   0.541
 8308SOL    HW225824   1.450   5.394   0.535
 8309SOL     OW25825   6.487   4.739   3.034
 8309SOL    HW125826   6.427   4.762   2.957
 8309SOL    HW225827   6.464   4.798   3.112
 8310SOL     OW25828   2.570   6.495   2.614
 8310SOL    HW125829   2.603   6.572   2.667
 8310SOL    HW225830   2.472   6.483   2.630
 8311SOL     OW25831   4.252   6.126   2.073
 8311SOL    HW125832   4.334   6.179   2.051
 8311SOL    HW225833   4.277   6.047   2.128
 8312SOL     OW25834   6.491   1.655   0.628
 8312SOL    HW125835   6.503   1.602   0.544
 8312SOL    HW225836   6.402   1.632   0.668
 8313SOL     OW25837   5.404   3.237   6.177
 8313SOL    HW125838   5.443   3.146   6.170
 8313SOL    HW225839   5.463   3.295   6.233
 8314SOL     OW25840   4.302   5.710   3.604
 8314SOL    HW125841   4.348   5.622   3.617
 8314SOL    HW225842   4.235   5.725   3.677
 8315SOL     OW25843   3.231   2.954   6.659
 8315SOL    HW125844   3.236   2.997   6.569
 8315SOL    HW225845   3.194   2.862   6.651
 8316SOL     OW25846   1.517   1.685   5.174
 8316SOL    HW125847   1.429   1.639   5.166
 8316SOL    HW225848   1.575   1.660   5.096
 8317SOL     OW25849   1.258   2.100   4.935
 8317SOL    HW125850   1.318   2.150   4.873
 8317SOL    HW225851   1.313   2.046   4.998
 8318SOL     OW25852   4.224   6.762   6.130
 8318SOL    HW125853   4.241   6.850   6.086
 8318SOL    HW225854   4.181   6.699   6.064
 8319SOL     OW25855   2.419   5.432   0.096
 8319SOL    HW125856   2.359   5.445   0.017
 8319SOL    HW225857   2.499   5.491   0.087
 8320SOL     OW25858   3.693   4.003   5.530
 8320SOL    HW125859   3.612   4.061   5.522
 8320SOL    HW225860   3.750   4.037   5.605
 8321SOL     OW25861   0.486   0.031   0.698
 8321SOL    HW125862   0.489   7.009   0.609
 8321SOL    HW225863   0.577   0.029   0.740
 8322SOL     OW25864   1.619   0.880   0.881
 8322SOL    HW125865   1.559   0.960   0.874
 8322SOL    HW225866   1.585   0.808   0.820
 8323SOL     OW25867   5.700   4.751   0.116
 8323SOL    HW125868   5.750   4.833   0.085
 8323SOL    HW225869   5.733   4.725   0.206
 8324SOL     OW25870   5.200   6.498   6.816
 8324SOL    HW125871   5.254   6.478   6.734
 8324SOL    HW225872   5.254   6.477   6.898
 8325SOL     OW25873   1.498   6.257   4.754
 8325SOL    HW125874   1.551   6.319   4.811
 8325SOL    HW225875   1.494   6.167   4.798
 8326SOL     OW25876   2.375   1.875   6.667
 8326SOL    HW125877   2.439   1.943   6.633
 8326SOL    HW225878   2.378   1.794   6.608
 8327SOL     OW25879   0.801   6.424   4.978
 8327SOL    HW125880   0.863   6.346   4.966
 8327SOL    HW225881   0.820   6.492   4.907
 8328SOL     OW25882   0.797   6.259   1.187
 8328SOL    HW125883   0.746   6.176   1.164
 8328SOL    HW225884   0.881   6.234   1.235
 8329SOL     OW25885   1.601   2.558   5.506
 8329SOL    HW125886   1.521   2.498   5.512
 8329SOL    HW225887   1.674   2.511   5.456
 8330SOL     OW25888   2.699   6.605   0.380
 8330SOL    HW125889   2.748   6.671   0.323
 8330SOL    HW225890   2.738   6.605   0.472
 8331SOL     OW25891   2.412   2.424   5.728
 8331SOL    HW125892   2.373   2.339   5.763
 8331SOL    HW225893   2.375   2.443   5.637
 8332SOL     OW25894   5.988   3.950   1.365
 8332SOL    HW125895   5.974   4.020   1.295
 8332SOL    HW225896   6.032   3.991   1.445
 8333SOL     OW25897   2.765   4.083   6.506
 8333SOL    HW125898   2.859   4.049   6.504
 8333SOL    HW225899   2.752   4.153   6.437
 8334SOL     OW25900   3.411   2.380   5.350
 8334SOL    HW125901   3.411   2.333   5.438
 8334SOL    HW225902   3.319   2.382   5.313
 8335SOL     OW25903   5.035   4.254   5.856
 8335SOL    HW125904   5.020   4.316   5.933
 8335SOL    HW225905   5.090   4.300   5.787
 8336SOL     OW25906   1.520   3.886   3.861
 8336SOL    HW125907   1.539   3.852   3.769
 8336SOL    HW225908   1.432   3.934   3.860
 8337SOL     OW25909   0.078   1.379   4.150
 8337SOL    HW125910   0.098   1.458   4.208
 8337SOL    HW225911   0.011   1.405   4.080
 8338SOL     OW25912   2.584   5.733   1.082
 8338SOL    HW125913   2.584   5.690   0.992
 8338SOL    HW225914   2.491   5.729   1.120
 8339SOL     OW25915   6.121   0.506   1.598
 8339SOL    HW125916   6.122   0.563   1.516
 8339SOL    HW225917   6.144   0.561   1.677
 8340SOL     OW25918   5.859   2.649   6.584
 8340SOL    HW125919   5.921   2.579   6.549
 8340SOL    HW225920   5.913   2.728   6.617
 8341SOL     OW25921   4.137   0.443   0.724
 8341SOL    HW125922   4.166   0.539   0.727
 8341SOL    HW225923   4.041   0.439   0.697
 8342SOL     OW25924   3.648   1.065   0.182
 8342SOL    HW125925   3.609   1.153   0.156
 8342SOL    HW225926   3.624   1.044   0.277
 8343SOL     OW25927   6.104   5.388   3.006
 8343SOL    HW125928   6.130   5.412   2.912
 8343SOL    HW225929   6.060   5.467   3.050
 8344SOL     OW25930   2.585   4.832   6.207
 8344SOL    HW125931   2.588   4.748   6.261
 8344SOL    HW225932   2.677   4.857   6.178
 8345SOL     OW25933   5.951   0.132   4.091
 8345SOL    HW125934   5.902   0.219   4.097
 8345SOL    HW225935   5.897   0.060   4.134
 8346SOL     OW25936   5.948   3.897   4.147
 8346SOL    HW125937   6.037   3.893   4.193
 8346SOL    HW225938   5.890   3.822   4.178
 8347SOL     OW25939   1.482   1.413   5.944
 8347SOL    HW125940   1.545   1.342   5.976
 8347SOL    HW225941   1.388   1.381   5.954
 8348SOL     OW25942   3.245   5.723   1.452
 8348SOL    HW125943   3.254   5.766   1.542
 8348SOL    HW225944   3.257   5.793   1.381
 8349SOL     OW25945   4.509   6.124   1.520
 8349SOL    HW125946   4.594   6.088   1.556
 8349SOL    HW225947   4.525   6.165   1.430
 8350SOL     OW25948   1.070   6.971   0.116
 8350SOL    HW125949   1.024   7.006   0.198
 8350SOL    HW225950   1.163   6.945   0.140
 8351SOL     OW25951   0.000   2.489   2.787
 8351SOL    HW125952   6.948   2.470   2.849
 8351SOL    HW225953   0.086   2.494   2.838
 8352SOL     OW25954   2.948   6.547   6.459
 8352SOL    HW125955   2.947   6.640   6.422
 8352SOL    HW225956   2.879   6.492   6.413
 8353SOL     OW25957   0.552   6.187   2.513
 8353SOL    HW125958   0.530   6.202   2.417
 8353SOL    HW225959   0.615   6.258   2.544
 8354SOL     OW25960   4.191   1.850   2.887
 8354SOL    HW125961   4.167   1.766   2.937
 8354SOL    HW225962   4.138   1.926   2.924
 8355SOL     OW25963   3.195   5.281   6.129
 8355SOL    HW125964   3.120   5.263   6.066
 8355SOL    HW225965   3.235   5.370   6.109
 8356SOL     OW25966   3.020   4.118   1.236
 8356SOL    HW125967   3.073   4.197   1.267
 8356SOL    HW225968   2.926   4.147   1.216
 8357SOL     OW25969   3.894   6.754   4.504
 8357SOL    HW125970   3.916   6.741   4.600
 8357SOL    HW225971   3.973   6.790   4.455
 8358SOL     OW25972   0.475   1.246   4.931
 8358SOL    HW125973   0.464   1.340   4.964
 8358SOL    HW225974   0.514   1.189   5.003
 8359SOL     OW25975   4.424   2.537   5.640
 8359SOL    HW125976   4.332   2.514   5.607
 8359SOL    HW225977   4.492   2.500   5.577
 8360SOL     OW25978   3.819   6.984   1.517
 8360SOL    HW125979   3.855   0.032   1.457
 8360SOL    HW225980   3.726   6.962   1.490
 8361SOL     OW25981   4.682   1.549   0.194
 8361SOL    HW125982   4.773   1.524   0.227
 8361SOL    HW225983   4.633   1.467   0.167
 8362SOL     OW25984   0.126   3.376   1.275
 8362SOL    HW125985   0.158   3.445   1.210
 8362SOL    HW225986   0.198   3.307   1.288
 8363SOL     OW25987   1.204   3.069   1.293
 8363SOL    HW125988   1.128   3.037   1.349
 8363SOL    HW225989   1.277   3.000   1.295
 8364SOL     OW25990   0.559   2.437   4.031
 8364SOL    HW125991   0.594   2.344   4.040
 8364SOL    HW225992   0.615   2.488   3.966
 8365SOL     OW25993   1.349   2.382   1.426
 8365SOL    HW125994   1.295   2.422   1.352
 8365SOL    HW225995   1.432   2.341   1.389
 8366SOL     OW25996   4.993   5.819   1.976
 8366SOL    HW125997   4.946   5.760   2.041
 8366SOL    HW225998   5.030   5.764   1.901
 8367SOL     OW25999   2.062   4.526   3.345
 8367SOL    HW126000   2.032   4.621   3.358
 8367SOL    HW226001   2.157   4.525   3.314
 8368SOL     OW26002   6.476   4.915   5.687
 8368SOL    HW126003   6.406   4.879   5.749
 8368SOL    HW226004   6.470   5.014   5.684
 8369SOL     OW26005   1.745   6.962   6.987
 8369SOL    HW126006   1.772   6.873   6.949
 8369SOL    HW226007   1.770   6.966   0.060
 8370SOL     OW26008   2.881   2.876   0.461
 8370SOL    HW126009   2.933   2.952   0.421
 8370SOL    HW226010   2.815   2.842   0.395
 8371SOL     OW26011   3.235   3.829   6.357
 8371SOL    HW126012   3.307   3.847   6.424
 8371SOL    HW226013   3.258   3.871   6.270
 8372SOL     OW26014   1.529   6.670   1.655
 8372SOL    HW126015   1.621   6.707   1.666
 8372SOL    HW226016   1.533   6.585   1.602
 8373SOL     OW26017   6.386   0.658   4.088
 8373SOL    HW126018   6.444   0.585   4.124
 8373SOL    HW226019   6.365   0.723   4.161
 8374SOL     OW26020   0.972   1.494   3.319
 8374SOL    HW126021   1.021   1.479   3.405
 8374SOL    HW226022   0.874   1.495   3.337
 8375SOL     OW26023   1.646   2.039   5.421
 8375SOL    HW126024   1.688   1.969   5.363
 8375SOL    HW226025   1.700   2.123   5.415
 8376SOL     OW26026   1.028   2.017   3.615
 8376SOL    HW126027   0.950   2.079   3.612
 8376SOL    HW226028   0.995   1.923   3.617
 8377SOL     OW26029   3.757   5.408   0.699
 8377SOL    HW126030   3.833   5.420   0.636
 8377SOL    HW226031   3.671   5.406   0.648
 8378SOL     OW26032   4.476   5.871   4.792
 8378SOL    HW126033   4.427   5.810   4.855
 8378SOL    HW226034   4.458   5.966   4.817
 8379SOL     OW26035   6.286   2.034   1.622
 8379SOL    HW126036   6.379   2.005   1.599
 8379SOL    HW226037   6.249   1.975   1.693
 8380SOL     OW26038   0.551   6.093   2.177
 8380SOL    HW126039   0.634   6.115   2.228
 8380SOL    HW226040   0.481   6.162   2.197
 8381SOL     OW26041   1.183   2.093   2.424
 8381SOL    HW126042   1.227   2.144   2.497
 8381SOL    HW226043   1.148   2.157   2.355
 8382SOL     OW26044   0.705   6.958   1.789
 8382SOL    HW126045   0.624   7.017   1.777
 8382SOL    HW226046   0.720   6.904   1.706
 8383SOL     OW26047   2.567   6.821   6.109
 8383SOL    HW126048   2.572   6.767   6.025
 8383SOL    HW226049   2.650   6.876   6.118
 8384SOL     OW26050   0.574   3.700   2.920
 8384SOL    HW126051   0.655   3.719   2.975
 8384SOL    HW226052   0.599   3.645   2.840
 8385SOL     OW26053   4.528   1.844   2.210
 8385SOL    HW126054   4.521   1.928   2.264
 8385SOL    HW226055   4.441   1.827   2.163
 8386SOL     OW26056   1.142   5.319   1.663
 8386SOL    HW126057   1.083   5.253   1.617
 8386SOL    HW226058   1.105   5.411   1.651
 8387SOL     OW26059   1.016   1.685   3.053
 8387SOL    HW126060   1.107   1.675   3.012
 8387SOL    HW226061   1.001   1.611   3.118
 8388SOL     OW26062   3.949   4.939   1.480
 8388SOL    HW126063   3.976   4.958   1.574
 8388SOL    HW226064   3.978   4.846   1.456
 8389SOL     OW26065   0.919   3.253   3.850
 8389SOL    HW126066   0.975   3.193   3.792
 8389SOL    HW226067   0.824   3.221   3.848
 8390SOL     OW26068   2.719   0.317   6.456
 8390SOL    HW126069   2.807   0.310   6.503
 8390SOL    HW226070   2.699   0.231   6.409
 8391SOL     OW26071   5.074   6.261   0.448
 8391SOL    HW126072   5.150   6.239   0.388
 8391SOL    HW226073   5.109   6.286   0.539
 8392SOL     OW26074   4.911   6.132   0.243
 8392SOL    HW126075   4.814   6.155   0.246
 8392SOL    HW226076   4.957   6.169   0.323
 8393SOL     OW26077   0.809   4.975   2.073
 8393SOL    HW126078   0.819   5.028   1.989
 8393SOL    HW226079   0.896   4.972   2.121
 8394SOL     OW26080   1.257   1.778   3.433
 8394SOL    HW126081   1.350   1.744   3.417
 8394SOL    HW226082   1.221   1.736   3.516
 8395SOL     OW26083   1.251   6.638   5.809
 8395SOL    HW126084   1.196   6.576   5.864
 8395SOL    HW226085   1.259   6.602   5.716
 8396SOL     OW26086   4.656   2.311   1.253
 8396SOL    HW126087   4.676   2.250   1.329
 8396SOL    HW226088   4.594   2.266   1.189
 8397SOL     OW26089   1.989   5.315   3.664
 8397SOL    HW126090   2.087   5.324   3.681
 8397SOL    HW226091   1.940   5.391   3.707
 8398SOL     OW26092   6.171   1.804   0.229
 8398SOL    HW126093   6.102   1.759   0.173
 8398SOL    HW226094   6.197   1.891   0.187
 8399SOL     OW26095   5.569   5.751   6.659
 8399SOL    HW126096   5.484   5.779   6.702
 8399SOL    HW226097   5.594   5.817   6.588
 8400SOL     OW26098   6.723   6.533   4.213
 8400SOL    HW126099   6.733   6.631   4.232
 8400SOL    HW226100   6.813   6.491   4.205
 8401SOL     OW26101   2.905   3.814   5.669
 8401SOL    HW126102   2.850   3.885   5.713
 8401SOL    HW226103   2.955   3.763   5.739
 8402SOL     OW26104   4.620   0.584   5.182
 8402SOL    HW126105   4.649   0.679   5.172
 8402SOL    HW226106   4.678   0.525   5.127
 8403SOL     OW26107   0.926   2.743   5.333
 8403SOL    HW126108   0.985   2.696   5.399
 8403SOL    HW226109   0.862   2.802   5.381
 8404SOL     OW26110   4.226   4.685   5.508
 8404SOL    HW126111   4.230   4.768   5.451
 8404SOL    HW226112   4.182   4.612   5.456
 8405SOL     OW26113   2.066   2.435   4.826
 8405SOL    HW126114   2.109   2.446   4.916
 8405SOL    HW226115   1.977   2.482   4.826
 8406SOL     OW26116   5.299   3.710   1.919
 8406SOL    HW126117   5.261   3.762   1.842
 8406SOL    HW226118   5.269   3.751   2.005
 8407SOL     OW26119   4.870   3.686   3.050
 8407SOL    HW126120   4.876   3.721   2.956
 8407SOL    HW226121   4.883   3.762   3.114
 8408SOL     OW26122   5.144   4.090   4.118
 8408SOL    HW126123   5.178   4.055   4.031
 8408SOL    HW226124   5.061   4.042   4.143
 8409SOL     OW26125   0.684   1.803   4.000
 8409SOL    HW126126   0.776   1.799   3.962
 8409SOL    HW226127   0.619   1.763   3.934
 8410SOL     OW26128   2.244   5.923   2.432
 8410SOL    HW126129   2.248   5.834   2.477
 8410SOL    HW226130   2.286   5.992   2.491
 8411SOL     OW26131   1.866   3.277   3.106
 8411SOL    HW126132   1.942   3.220   3.076
 8411SOL    HW226133   1.888   3.319   3.194
 8412SOL     OW26134   6.715   2.163   2.491
 8412SOL    HW126135   6.756   2.088   2.440
 8412SOL    HW226136   6.782   2.237   2.500
 8413SOL     OW26137   2.263   4.903   1.446
 8413SOL    HW126138   2.347   4.865   1.486
 8413SOL    HW226139   2.285   4.947   1.359
 8414SOL     OW26140   6.170   0.332   3.177
 8414SOL    HW126141   6.085   0.283   3.195
 8414SOL    HW226142   6.184   0.403   3.246
 8415SOL     OW26143   6.824   4.102   1.617
 8415SOL    HW126144   6.904   4.073   1.564
 8415SOL    HW226145   6.831   4.199   1.637
 8416SOL     OW26146   4.725   4.539   2.386
 8416SOL    HW126147   4.814   4.523   2.430
 8416SOL    HW226148   4.702   4.461   2.329
 8417SOL     OW26149   1.912   5.812   6.548
 8417SOL    HW126150   1.897   5.841   6.643
 8417SOL    HW226151   1.970   5.731   6.547
 8418SOL     OW26152   6.445   5.662   2.632
 8418SOL    HW126153   6.505   5.696   2.704
 8418SOL    HW226154   6.460   5.565   2.618
 8419SOL     OW26155   5.259   6.814   4.068
 8419SOL    HW126156   5.271   6.899   4.016
 8419SOL    HW226157   5.184   6.825   4.132
 8420SOL     OW26158   4.156   2.530   5.537
 8420SOL    HW126159   4.094   2.605   5.513
 8420SOL    HW226160   4.103   2.451   5.567
 8421SOL     OW26161   0.188   0.813   1.141
 8421SOL    HW126162   0.286   0.797   1.146
 8421SOL    HW226163   0.141   0.728   1.118
 8422SOL     OW26164   3.636   0.064   1.953
 8422SOL    HW126165   3.640   6.997   1.911
 8422SOL    HW226166   3.703   0.068   2.028
 8423SOL     OW26167   1.973   3.827   1.445
 8423SOL    HW126168   1.992   3.897   1.514
 8423SOL    HW226169   1.982   3.736   1.486
 8424SOL     OW26170   2.674   2.553   1.720
 8424SOL    HW126171   2.772   2.556   1.737
 8424SOL    HW226172   2.653   2.478   1.656
 8425SOL     OW26173   6.197   4.846   6.383
 8425SOL    HW126174   6.274   4.873   6.440
 8425SOL    HW226175   6.136   4.924   6.370
 8426SOL     OW26176   3.290   3.472   2.520
 8426SOL    HW126177   3.274   3.506   2.427
 8426SOL    HW226178   3.383   3.435   2.526
 8427SOL     OW26179   2.277   2.263   6.816
 8427SOL    HW126180   2.371   2.240   6.843
 8427SOL    HW226181   2.213   2.197   6.854
 8428SOL     OW26182   6.540   4.270   1.213
 8428SOL    HW126183   6.507   4.322   1.133
 8428SOL    HW226184   6.635   4.295   1.232
 8429SOL     OW26185   1.648   6.807   3.201
 8429SOL    HW126186   1.677   6.854   3.117
 8429SOL    HW226187   1.624   6.875   3.270
 8430SOL     OW26188   5.543   3.937   3.045
 8430SOL    HW126189   5.494   4.004   3.101
 8430SOL    HW226190   5.638   3.931   3.076
 8431SOL     OW26191   2.871   3.412   2.211
 8431SOL    HW126192   2.904   3.397   2.304
 8431SOL    HW226193   2.773   3.395   2.207
 8432SOL     OW26194   5.043   6.162   7.021
 8432SOL    HW126195   5.035   6.254   6.982
 8432SOL    HW226196   5.029   6.166   0.096
 8433SOL     OW26197   0.189   1.646   4.250
 8433SOL    HW126198   0.271   1.595   4.223
 8433SOL    HW226199   0.190   1.737   4.207
 8434SOL     OW26200   5.488   6.159   6.483
 8434SOL    HW126201   5.483   6.074   6.430
 8434SOL    HW226202   5.575   6.205   6.465
 8435SOL     OW26203   5.089   2.271   2.004
 8435SOL    HW126204   5.149   2.202   1.964
 8435SOL    HW226205   5.106   2.277   2.102
 8436SOL     OW26206   3.063   4.377   1.656
 8436SOL    HW126207   3.064   4.280   1.682
 8436SOL    HW226208   3.005   4.428   1.719
 8437SOL     OW26209   0.552   1.636   0.775
 8437SOL    HW126210   0.463   1.675   0.800
 8437SOL    HW226211   0.570   1.555   0.830
 8438SOL     OW26212   1.998   5.938   0.847
 8438SOL    HW126213   1.951   5.849   0.855
 8438SOL    HW226214   1.944   6.008   0.892
 8439SOL     OW26215   5.955   0.547   2.064
 8439SOL    HW126216   5.961   0.633   2.015
 8439SOL    HW226217   5.900   0.482   2.013
 8440SOL     OW26218   0.797   2.923   4.242
 8440SOL    HW126219   0.875   2.924   4.305
 8440SOL    HW226220   0.722   2.977   4.281
 8441SOL     OW26221   4.579   5.492   2.614
 8441SOL    HW126222   4.559   5.405   2.659
 8441SOL    HW226223   4.541   5.567   2.668
 8442SOL     OW26224   2.364   2.863   0.411
 8442SOL    HW126225   2.316   2.932   0.357
 8442SOL    HW226226   2.381   2.899   0.503
 8443SOL     OW26227   0.586   1.492   1.574
 8443SOL    HW126228   0.636   1.499   1.488
 8443SOL    HW226229   0.521   1.416   1.569
 8444SOL     OW26230   4.081   1.282   3.342
 8444SOL    HW126231   4.085   1.345   3.265
 8444SOL    HW226232   4.160   1.297   3.402
 8445SOL     OW26233   4.561   5.338   2.064
 8445SOL    HW126234   4.538   5.360   2.159
 8445SOL    HW226235   4.644   5.281   2.063
 8446SOL     OW26236   0.261   3.413   2.988
 8446SOL    HW126237   0.259   3.513   2.988
 8446SOL    HW226238   0.202   3.378   2.916
 8447SOL     OW26239   4.492   3.406   1.100
 8447SOL    HW126240   4.403   3.397   1.055
 8447SOL    HW226241   4.540   3.485   1.063
 8448SOL     OW26242   1.915   3.444   5.656
 8448SOL    HW126243   1.909   3.344   5.646
 8448SOL    HW226244   1.917   3.468   5.753
 8449SOL     OW26245   0.981   1.452   4.415
 8449SOL    HW126246   1.036   1.509   4.476
 8449SOL    HW226247   0.884   1.470   4.431
 8450SOL     OW26248   1.754   5.569   1.407
 8450SOL    HW126249   1.819   5.632   1.366
 8450SOL    HW226250   1.712   5.513   1.335
 8451SOL     OW26251   3.540   2.871   0.547
 8451SOL    HW126252   3.569   2.785   0.505
 8451SOL    HW226253   3.551   2.946   0.481
 8452SOL     OW26254   0.373   5.133   1.491
 8452SOL    HW126255   0.317   5.064   1.536
 8452SOL    HW226256   0.452   5.155   1.548
 8453SOL     OW26257   6.214   5.300   5.153
 8453SOL    HW126258   6.313   5.286   5.163
 8453SOL    HW226259   6.166   5.254   5.228
 8454SOL     OW26260   2.336   6.728   4.707
 8454SOL    HW126261   2.432   6.703   4.693
 8454SOL    HW226262   2.286   6.649   4.743
 8455SOL     OW26263   6.077   2.672   0.756
 8455SOL    HW126264   6.131   2.756   0.759
 8455SOL    HW226265   6.008   2.674   0.828
 8456SOL     OW26266   4.965   5.438   3.759
 8456SOL    HW126267   4.996   5.358   3.707
 8456SOL    HW226268   4.929   5.407   3.847
 8457SOL     OW26269   6.690   6.004   6.132
 8457SOL    HW126270   6.662   5.975   6.041
 8457SOL    HW226271   6.734   6.093   6.127
 8458SOL     OW26272   1.658   2.075   1.219
 8458SOL    HW126273   1.675   1.996   1.277
 8458SOL    HW226274   1.736   2.090   1.159
 8459SOL     OW26275   2.250   5.178   3.262
 8459SOL    HW126276   2.170   5.161   3.205
 8459SOL    HW226277   2.223   5.230   3.343
 8460SOL     OW26278   3.788   1.666   0.918
 8460SOL    HW126279   3.869   1.695   0.969
 8460SOL    HW226280   3.714   1.733   0.931
 8461SOL     OW26281   5.393   4.148   3.210
 8461SOL    HW126282   5.409   4.176   3.305
 8461SOL    HW226283   5.321   4.205   3.170
 8462SOL     OW26284   2.057   3.895   0.995
 8462SOL    HW126285   2.073   3.989   1.025
 8462SOL    HW226286   2.080   3.887   0.898
 8463SOL     OW26287   6.745   0.505   0.745
 8463SOL    HW126288   6.814   0.443   0.782
 8463SOL    HW226289   6.734   0.584   0.805
 8464SOL     OW26290   6.366   3.770   6.478
 8464SOL    HW126291   6.314   3.685   6.480
 8464SOL    HW226292   6.459   3.752   6.446
 8465SOL     OW26293   5.133   3.595   0.869
 8465SOL    HW126294   5.033   3.588   0.866
 8465SOL    HW226295   5.173   3.524   0.811
 8466SOL     OW26296   0.547   1.523   5.254
 8466SOL    HW126297   0.610   1.464   5.305
 8466SOL    HW226298   0.455   1.484   5.257
 8467SOL     OW26299   3.152   1.186   0.415
 8467SOL    HW126300   3.069   1.139   0.446
 8467SOL    HW226301   3.175   1.259   0.479
 8468SOL     OW26302   5.414   4.072   0.693
 8468SOL    HW126303   5.377   3.989   0.734
 8468SOL    HW226304   5.352   4.104   0.621
 8469SOL     OW26305   3.707   2.922   5.425
 8469SOL    HW126306   3.785   2.913   5.487
 8469SOL    HW226307   3.685   3.019   5.412
 8470SOL     OW26308   1.404   5.652   1.641
 8470SOL    HW126309   1.429   5.603   1.725
 8470SOL    HW226310   1.415   5.591   1.563
 8471SOL     OW26311   4.283   2.375   4.539
 8471SOL    HW126312   4.337   2.417   4.466
 8471SOL    HW226313   4.193   2.350   4.503
 8472SOL     OW26314   5.687   2.018   6.770
 8472SOL    HW126315   5.613   1.959   6.802
 8472SOL    HW226316   5.676   2.110   6.807
 8473SOL     OW26317   4.956   5.143   5.904
 8473SOL    HW126318   4.884   5.212   5.916
 8473SOL    HW226319   5.025   5.178   5.841
 8474SOL     OW26320   2.865   4.102   5.257
 8474SOL    HW126321   2.847   4.195   5.289
 8474SOL    HW226322   2.783   4.046   5.267
 8475SOL     OW26323   6.632   1.602   3.096
 8475SOL    HW126324   6.549   1.547   3.107
 8475SOL    HW226325   6.690   1.560   3.026
 8476SOL     OW26326   6.103   1.393   1.794
 8476SOL    HW126327   6.012   1.366   1.762
 8476SOL    HW226328   6.135   1.326   1.861
 8477SOL     OW26329   5.593   0.412   1.649
 8477SOL    HW126330   5.689   0.434   1.665
 8477SOL    HW226331   5.585   0.352   1.569
 8478SOL     OW26332   0.512   6.774   5.549
 8478SOL    HW126333   0.479   6.691   5.594
 8478SOL    HW226334   0.601   6.756   5.506
 8479SOL     OW26335   0.726   2.991   0.449
 8479SOL    HW126336   0.775   2.984   0.362
 8479SOL    HW226337   0.790   3.004   0.524
 8480SOL     OW26338   3.661   4.164   0.971
 8480SOL    HW126339   3.721   4.094   1.009
 8480SOL    HW226340   3.603   4.124   0.900
 8481SOL     OW26341   4.225   2.265   2.373
 8481SOL    HW126342   4.268   2.304   2.454
 8481SOL    HW226343   4.135   2.227   2.397
 8482SOL     OW26344   4.182   0.693   6.565
 8482SOL    HW126345   4.280   0.682   6.554
 8482SOL    HW226346   4.160   0.789   6.576
 8483SOL     OW26347   3.922   4.963   3.385
 8483SOL    HW126348   3.947   4.980   3.290
 8483SOL    HW226349   3.995   4.911   3.430
 8484SOL     OW26350   6.014   6.143   5.182
 8484SOL    HW126351   6.000   6.044   5.186
 8484SOL    HW226352   6.043   6.175   5.272
 8485SOL     OW26353   4.097   1.166   6.274
 8485SOL    HW126354   4.094   1.254   6.227
 8485SOL    HW226355   4.173   1.165   6.339
 8486SOL     OW26356   5.919   2.410   5.087
 8486SOL    HW126357   5.912   2.510   5.085
 8486SOL    HW226358   5.847   2.370   5.030
 8487SOL     OW26359   6.484   2.248   6.205
 8487SOL    HW126360   6.438   2.190   6.272
 8487SOL    HW226361   6.528   2.191   6.136
 8488SOL     OW26362   4.705   4.267   3.039
 8488SOL    HW126363   4.775   4.245   2.971
 8488SOL    HW226364   4.748   4.277   3.129
 8489SOL     OW26365   6.245   1.911   1.870
 8489SOL    HW126366   6.327   1.859   1.844
 8489SOL    HW226367   6.248   1.931   1.968
 8490SOL     OW26368   3.099   6.469   0.318
 8490SOL    HW126369   3.195   6.445   0.338
 8490SOL    HW226370   3.050   6.481   0.404
 8491SOL     OW26371   3.104   5.707   2.327
 8491SOL    HW126372   3.026   5.666   2.280
 8491SOL    HW226373   3.187   5.655   2.306
 8492SOL     OW26374   6.336   6.035   4.314
 8492SOL    HW126375   6.393   5.978   4.254
 8492SOL    HW226376   6.249   6.055   4.269
 8493SOL     OW26377   4.613   0.948   6.133
 8493SOL    HW126378   4.700   0.994   6.153
 8493SOL    HW226379   4.630   0.872   6.071
 8494SOL     OW26380   6.833   3.225   2.356
 8494SOL    HW126381   6.858   3.305   2.300
 8494SOL    HW226382   6.736   3.204   2.343
 8495SOL     OW26383   6.263   5.601   6.524
 8495SOL    HW126384   6.353   5.615   6.485
 8495SOL    HW226385   6.243   5.673   6.590
 8496SOL     OW26386   5.257   2.518   2.730
 8496SOL    HW126387   5.265   2.422   2.704
 8496SOL    HW226388   5.211   2.568   2.657
 8497SOL     OW26389   0.250   0.584   2.839
 8497SOL    HW126390   0.153   0.562   2.830
 8497SOL    HW226391   0.296   0.514   2.894
 8498SOL     OW26392   4.810   6.665   4.128
 8498SOL    HW126393   4.880   6.677   4.198
 8498SOL    HW226394   4.745   6.741   4.132
 8499SOL     OW26395   5.584   6.817   5.747
 8499SOL    HW126396   5.623   6.745   5.804
 8499SOL    HW226397   5.485   6.812   5.749
 8500SOL     OW26398   1.086   0.468   0.011
 8500SOL    HW126399   0.998   0.438   0.048
 8500SOL    HW226400   1.160   0.430   0.067
 8501SOL     OW26401   2.523   1.084   6.031
 8501SOL    HW126402   2.427   1.107   6.015
 8501SOL    HW226403   2.576   1.104   5.949
 8502SOL     OW26404   5.938   3.501   6.617
 8502SOL    HW126405   5.890   3.582   6.649
 8502SOL    HW226406   5.983   3.455   6.693
 8503SOL     OW26407   4.773   2.689   5.500
 8503SOL    HW126408   4.797   2.778   5.463
 8503SOL    HW226409   4.732   2.701   5.590
 8504SOL     OW26410   0.982   0.045   2.600
 8504SOL    HW126411   1.017   0.037   2.693
 8504SOL    HW226412   0.909   0.114   2.598
 8505SOL     OW26413   5.673   2.456   2.982
 8505SOL    HW126414   5.582   2.430   2.948
 8505SOL    HW226415   5.665   2.488   3.077
 8506SOL     OW26416   1.065   6.841   5.947
 8506SOL    HW126417   1.140   6.791   5.904
 8506SOL    HW226418   1.088   6.938   5.951
 8507SOL     OW26419   3.653   5.173   5.366
 8507SOL    HW126420   3.677   5.266   5.394
 8507SOL    HW226421   3.572   5.176   5.306
 8508SOL     OW26422   2.931   1.060   6.314
 8508SOL    HW126423   3.024   1.040   6.283
 8508SOL    HW226424   2.889   0.977   6.349
 8509SOL     OW26425   5.262   2.261   2.613
 8509SOL    HW126426   5.268   2.173   2.660
 8509SOL    HW226427   5.281   2.248   2.516
 8510SOL     OW26428   0.980   2.311   4.604
 8510SOL    HW126429   0.897   2.355   4.571
 8510SOL    HW226430   0.967   2.212   4.608
 8511SOL     OW26431   6.147   1.893   3.756
 8511SOL    HW126432   6.203   1.865   3.834
 8511SOL    HW226433   6.069   1.946   3.789
 8512SOL     OW26434   1.980   6.295   5.317
 8512SOL    HW126435   1.969   6.387   5.281
 8512SOL    HW226436   1.935   6.287   5.406
 8513SOL     OW26437   4.891   5.999   6.877
 8513SOL    HW126438   4.802   6.043   6.874
 8513SOL    HW226439   4.948   6.043   6.946
 8514SOL     OW26440   3.855   5.854   4.107
 8514SOL    HW126441   3.937   5.822   4.156
 8514SOL    HW226442   3.832   5.789   4.035
 8515SOL     OW26443   6.159   2.239   1.774
 8515SOL    HW126444   6.217   2.234   1.855
 8515SOL    HW226445   6.181   2.163   1.712
 8516SOL     OW26446   6.819   1.910   2.401
 8516SOL    HW126447   6.876   1.876   2.326
 8516SOL    HW226448   6.723   1.889   2.382
 8517SOL     OW26449   1.441   3.428   5.838
 8517SOL    HW126450   1.373   3.500   5.832
 8517SOL    HW226451   1.420   3.368   5.916
 8518SOL     OW26452   2.638   5.653   0.782
 8518SOL    HW126453   2.639   5.612   0.690
 8518SOL    HW226454   2.731   5.654   0.819
 8519SOL     OW26455   2.663   5.971   3.639
 8519SOL    HW126456   2.703   5.903   3.699
 8519SOL    HW226457   2.736   6.024   3.596
 8520SOL     OW26458   3.476   6.292   6.749
 8520SOL    HW126459   3.402   6.357   6.763
 8520SOL    HW226460   3.563   6.335   6.774
 8521SOL     OW26461   1.673   0.176   2.088
 8521SOL    HW126462   1.605   0.103   2.094
 8521SOL    HW226463   1.755   0.143   2.042
 8522SOL     OW26464   2.654   6.491   4.782
 8522SOL    HW126465   2.610   6.433   4.850
 8522SOL    HW226466   2.669   6.438   4.698
 8523SOL     OW26467   1.613   6.663   6.923
 8523SOL    HW126468   1.591   6.713   6.840
 8523SOL    HW226469   1.629   6.567   6.901
 8524SOL     OW26470   1.860   1.430   6.831
 8524SOL    HW126471   1.869   1.426   6.930
 8524SOL    HW226472   1.920   1.500   6.794
 8525SOL     OW26473   5.615   3.520   3.901
 8525SOL    HW126474   5.542   3.500   3.835
 8525SOL    HW226475   5.576   3.522   3.993
 8526SOL     OW26476   2.101   3.366   2.159
 8526SOL    HW126477   2.050   3.360   2.073
 8526SOL    HW226478   2.162   3.445   2.156
 8527SOL     OW26479   4.438   0.352   4.015
 8527SOL    HW126480   4.453   0.288   4.089
 8527SOL    HW226481   4.517   0.411   4.004
 8528SOL     OW26482   5.548   1.646   6.867
 8528SOL    HW126483   5.536   1.745   6.861
 8528SOL    HW226484   5.577   1.621   6.959
 8529SOL     OW26485   6.520   6.003   5.642
 8529SOL    HW126486   6.472   5.974   5.558
 8529SOL    HW226487   6.592   5.937   5.664
 8530SOL     OW26488   1.899   4.708   6.158
 8530SOL    HW126489   1.830   4.696   6.229
 8530SOL    HW226490   1.949   4.793   6.175
 8531SOL     OW26491   4.493   4.815   2.097
 8531SOL    HW126492   4.433   4.744   2.133
 8531SOL    HW226493   4.438   4.891   2.062
 8532SOL     OW26494   1.596   3.923   0.899
 8532SOL    HW126495   1.653   3.956   0.824
 8532SOL    HW226496   1.601   3.987   0.975
 8533SOL     OW26497   4.085   6.310   5.750
 8533SOL    HW126498   4.166   6.365   5.771
 8533SOL    HW226499   4.072   6.307   5.651
 8534SOL     OW26500   1.887   2.324   1.230
 8534SOL    HW126501   1.907   2.262   1.306
 8534SOL    HW226502   1.939   2.296   1.150
 8535SOL     OW26503   0.560   3.311   5.233
 8535SOL    HW126504   0.467   3.284   5.210
 8535SOL    HW226505   0.613   3.230   5.260
 8536SOL     OW26506   5.741   1.041   5.588
 8536SOL    HW126507   5.706   1.066   5.678
 8536SOL    HW226508   5.667   1.005   5.532
 8537SOL     OW26509   4.495   6.489   3.030
 8537SOL    HW126510   4.429   6.549   2.985
 8537SOL    HW226511   4.490   6.397   2.990
 8538SOL     OW26512   5.187   0.324   5.251
 8538SOL    HW126513   5.165   0.235   5.211
 8538SOL    HW226514   5.121   0.392   5.218
 8539SOL     OW26515   1.094   2.989   2.476
 8539SOL    HW126516   1.124   2.967   2.569
 8539SOL    HW226517   1.019   2.929   2.449
 8540SOL     OW26518   4.102   0.329   6.973
 8540SOL    HW126519   4.139   0.311   6.882
 8540SOL    HW226520   4.174   0.367   0.007
 8541SOL     OW26521   2.694   6.407   5.083
 8541SOL    HW126522   2.700   6.397   5.182
 8541SOL    HW226523   2.714   6.319   5.039
 8542SOL     OW26524   0.882   5.290   5.473
 8542SOL    HW126525   0.895   5.285   5.572
 8542SOL    HW226526   0.957   5.242   5.427
 8543SOL     OW26527   2.923   2.335   5.260
 8543SOL    HW126528   3.002   2.365   5.206
 8543SOL    HW226529   2.941   2.351   5.357
 8544SOL     OW26530   4.981   4.503   5.642
 8544SOL    HW126531   4.903   4.544   5.595
 8544SOL    HW226532   5.052   4.479   5.575
 8545SOL     OW26533   1.872   7.022   6.446
 8545SOL    HW126534   1.940   7.023   6.372
 8545SOL    HW226535   1.785   6.986   6.411
 8546SOL     OW26536   3.991   1.651   3.784
 8546SOL    HW126537   3.966   1.741   3.749
 8546SOL    HW226538   4.021   1.593   3.708
 8547SOL     OW26539   5.324   6.261   5.875
 8547SOL    HW126540   5.374   6.323   5.815
 8547SOL    HW226541   5.379   6.179   5.892
 8548SOL     OW26542   1.118   4.471   4.392
 8548SOL    HW126543   1.125   4.507   4.299
 8548SOL    HW226544   1.039   4.409   4.398
 8549SOL     OW26545   1.969   0.495   4.045
 8549SOL    HW126546   1.935   0.583   4.078
 8549SOL    HW226547   2.055   0.473   4.092
 8550SOL     OW26548   0.077   4.798   5.598
 8550SOL    HW126549   0.059   4.705   5.628
 8550SOL    HW226550   0.166   4.827   5.630
 8551SOL     OW26551   3.814   1.115   4.845
 8551SOL    HW126552   3.793   1.018   4.860
 8551SOL    HW226553   3.902   1.137   4.887
 8552SOL     OW26554   3.541   1.408   1.902
 8552SOL    HW126555   3.502   1.390   1.993
 8552SOL    HW226556   3.639   1.427   1.912
 8553SOL     OW26557   4.797   3.881   0.684
 8553SOL    HW126558   4.823   3.928   0.768
 8553SOL    HW226559   4.759   3.791   0.706
 8554SOL     OW26560   1.287   0.955   6.460
 8554SOL    HW126561   1.295   1.039   6.406
 8554SOL    HW226562   1.251   0.882   6.403
 8555SOL     OW26563   3.173   2.105   3.116
 8555SOL    HW126564   3.197   2.111   3.213
 8555SOL    HW226565   3.256   2.095   3.061
 8556SOL     OW26566   0.136   5.342   5.296
 8556SOL    HW126567   0.210   5.403   5.326
 8556SOL    HW226568   0.065   5.340   5.366
 8557SOL     OW26569   6.391   1.041   6.904
 8557SOL    HW126570   6.303   1.086   6.890
 8557SOL    HW226571   6.462   1.091   6.853
 8558SOL     OW26572   3.088   6.359   3.900
 8558SOL    HW126573   3.080   6.345   3.802
 8558SOL    HW226574   3.184   6.364   3.926
 8559SOL     OW26575   2.099   3.551   2.395
 8559SOL    HW126576   2.134   3.607   2.320
 8559SOL    HW226577   2.004   3.526   2.377
 8560SOL     OW26578   3.508   3.696   1.280
 8560SOL    HW126579   3.507   3.601   1.312
 8560SOL    HW226580   3.456   3.753   1.343
 8561SOL     OW26581   3.613   0.756   2.763
 8561SOL    HW126582   3.596   0.704   2.846
 8561SOL    HW226583   3.702   0.802   2.770
 8562SOL     OW26584   5.504   2.305   6.630
 8562SOL    HW126585   5.489   2.315   6.728
 8562SOL    HW226586   5.425   2.258   6.589
 8563SOL     OW26587   2.524   5.371   2.603
 8563SOL    HW126588   2.514   5.463   2.642
 8563SOL    HW226589   2.438   5.320   2.616
 8564SOL     OW26590   3.500   5.967   0.623
 8564SOL    HW126591   3.563   5.890   0.632
 8564SOL    HW226592   3.551   6.047   0.590
 8565SOL     OW26593   1.405   5.035   1.066
 8565SOL    HW126594   1.374   5.046   0.971
 8565SOL    HW226595   1.496   4.993   1.067
 8566SOL     OW26596   3.609   0.744   3.398
 8566SOL    HW126597   3.674   0.743   3.321
 8566SOL    HW226598   3.516   0.731   3.363
 8567SOL     OW26599   1.770   2.472   1.674
 8567SOL    HW126600   1.769   2.373   1.658
 8567SOL    HW226601   1.685   2.499   1.719
 8568SOL     OW26602   5.951   0.896   5.646
 8568SOL    HW126603   5.877   0.950   5.605
 8568SOL    HW226604   6.004   0.955   5.707
 8569SOL     OW26605   5.261   1.798   0.392
 8569SOL    HW126606   5.183   1.827   0.337
 8569SOL    HW226607   5.277   1.700   0.378
 8570SOL     OW26608   2.237   1.365   2.855
 8570SOL    HW126609   2.314   1.324   2.904
 8570SOL    HW226610   2.271   1.417   2.777
 8571SOL     OW26611   1.511   0.514   3.732
 8571SOL    HW126612   1.541   0.463   3.812
 8571SOL    HW226613   1.537   0.610   3.743
 8572SOL     OW26614   3.182   3.985   5.888
 8572SOL    HW126615   3.146   4.023   5.803
 8572SOL    HW226616   3.165   4.049   5.963
 8573SOL     OW26617   1.991   5.995   6.343
 8573SOL    HW126618   1.950   5.933   6.410
 8573SOL    HW226619   1.956   6.087   6.357
 8574SOL     OW26620   5.162   1.625   5.653
 8574SOL    HW126621   5.159   1.595   5.558
 8574SOL    HW226622   5.121   1.716   5.661
 8575SOL     OW26623   3.343   6.744   4.229
 8575SOL    HW126624   3.379   6.706   4.144
 8575SOL    HW226625   3.403   6.818   4.260
 8576SOL     OW26626   1.600   4.412   4.427
 8576SOL    HW126627   1.602   4.440   4.523
 8576SOL    HW226628   1.514   4.441   4.386
 8577SOL     OW26629   2.399   0.295   0.312
 8577SOL    HW126630   2.478   0.329   0.362
 8577SOL    HW226631   2.392   0.196   0.324
 8578SOL     OW26632   1.110   0.123   6.036
 8578SOL    HW126633   1.205   0.105   6.060
 8578SOL    HW226634   1.058   0.145   6.118
 8579SOL     OW26635   3.336   0.162   2.141
 8579SOL    HW126636   3.376   0.223   2.073
 8579SOL    HW226637   3.292   0.085   2.095
 8580SOL     OW26638   1.970   0.457   1.584
 8580SOL    HW126639   1.881   0.451   1.630
 8580SOL    HW226640   2.038   0.408   1.638
 8581SOL     OW26641   3.833   3.775   2.083
 8581SOL    HW126642   3.847   3.849   2.017
 8581SOL    HW226643   3.922   3.741   2.115
 8582SOL     OW26644   4.365   5.291   5.948
 8582SOL    HW126645   4.299   5.216   5.957
 8582SOL    HW226646   4.385   5.329   6.038
 8583SOL     OW26647   2.969   0.000   2.502
 8583SOL    HW126648   2.970   0.052   2.587
 8583SOL    HW226649   3.035   6.949   2.508
 8584SOL     OW26650   6.306   1.764   4.629
 8584SOL    HW126651   6.299   1.696   4.702
 8584SOL    HW226652   6.399   1.799   4.624
 8585SOL     OW26653   5.001   2.579   2.499
 8585SOL    HW126654   5.090   2.604   2.462
 8585SOL    HW226655   4.961   2.506   2.444
 8586SOL     OW26656   5.668   5.669   5.563
 8586SOL    HW126657   5.622   5.596   5.613
 8586SOL    HW226658   5.709   5.632   5.479
 8587SOL     OW26659   6.536   1.725   0.083
 8587SOL    HW126660   6.592   1.699   0.161
 8587SOL    HW226661   6.458   1.663   0.075
 8588SOL     OW26662   1.768   0.713   5.124
 8588SOL    HW126663   1.727   0.670   5.205
 8588SOL    HW226664   1.820   0.645   5.073
 8589SOL     OW26665   5.384   3.103   0.100
 8589SOL    HW126666   5.393   3.130   0.196
 8589SOL    HW226667   5.390   3.185   0.042
 8590SOL     OW26668   0.938   1.743   3.901
 8590SOL    HW126669   0.921   1.762   3.804
 8590SOL    HW226670   1.024   1.787   3.928
 8591SOL     OW26671   0.178   4.429   5.496
 8591SOL    HW126672   0.209   4.474   5.413
 8591SOL    HW226673   0.256   4.399   5.550
 8592SOL     OW26674   6.890   1.841   4.134
 8592SOL    HW126675   6.959   1.910   4.109
 8592SOL    HW226676   6.888   1.831   4.233
 8593SOL     OW26677   6.264   1.270   0.068
 8593SOL    HW126678   6.183   1.235   0.021
 8593SOL    HW226679   6.346   1.248   0.016
 8594SOL     OW26680   5.891   4.153   6.357
 8594SOL    HW126681   5.963   4.121   6.295
 8594SOL    HW226682   5.916   4.243   6.393
 8595SOL     OW26683   4.917   6.025   2.884
 8595SOL    HW126684   5.016   6.025   2.871
 8595SOL    HW226685   4.895   5.989   2.974
 8596SOL     OW26686   1.076   2.490   5.037
 8596SOL    HW126687   1.022   2.529   4.962
 8596SOL    HW226688   1.092   2.393   5.021
 8597SOL     OW26689   6.020   2.409   6.491
 8597SOL    HW126690   5.940   2.363   6.531
 8597SOL    HW226691   6.027   2.385   6.394
 8598SOL     OW26692   6.878   0.577   5.465
 8598SOL    HW126693   6.944   0.516   5.510
 8598SOL    HW226694   6.904   0.588   5.369
 8599SOL     OW26695   6.129   4.180   5.122
 8599SOL    HW126696   6.117   4.142   5.214
 8599SOL    HW226697   6.040   4.193   5.080
 8600SOL     OW26698   4.662   2.758   1.789
 8600SOL    HW126699   4.761   2.772   1.781
 8600SOL    HW226700   4.622   2.834   1.839
 8601SOL     OW26701   5.928   5.847   2.869
 8601SOL    HW126702   5.954   5.925   2.812
 8601SOL    HW226703   5.837   5.815   2.844
 8602SOL     OW26704   1.710   7.013   5.380
 8602SOL    HW126705   1.669   0.066   5.329
 8602SOL    HW226706   1.667   7.007   5.470
 8603SOL     OW26707   0.625   0.767   6.546
 8603SOL    HW126708   0.583   0.855   6.525
 8603SOL    HW226709   0.608   0.703   6.471
 8604SOL     OW26710   2.156   5.382   5.927
 8604SOL    HW126711   2.239   5.329   5.907
 8604SOL    HW226712   2.121   5.356   6.017
 8605SOL     OW26713   0.223   4.581   3.916
 8605SOL    HW126714   0.140   4.526   3.910
 8605SOL    HW226715   0.197   4.678   3.925
 8606SOL     OW26716   1.377   0.940   6.916
 8606SOL    HW126717   1.376   0.936   7.016
 8606SOL    HW226718   1.317   0.869   6.879
 8607SOL     OW26719   2.967   2.969   1.182
 8607SOL    HW126720   2.975   2.897   1.113
 8607SOL    HW226721   2.989   3.057   1.141
 8608SOL     OW26722   1.830   5.366   2.181
 8608SOL    HW126723   1.905   5.318   2.228
 8608SOL    HW226724   1.743   5.325   2.207
 8609SOL     OW26725   4.640   1.773   4.436
 8609SOL    HW126726   4.563   1.758   4.374
 8609SOL    HW226727   4.656   1.871   4.446
 8610SOL     OW26728   0.141   5.608   2.767
 8610SOL    HW126729   0.151   5.513   2.797
 8610SOL    HW226730   0.224   5.636   2.719
 8611SOL     OW26731   2.052   1.190   4.809
 8611SOL    HW126732   2.011   1.267   4.858
 8611SOL    HW226733   2.071   1.115   4.874
 8612SOL     OW26734   3.413   3.424   4.817
 8612SOL    HW126735   3.440   3.514   4.784
 8612SOL    HW226736   3.313   3.417   4.818
 8613SOL     OW26737   3.944   3.082   3.270
 8613SOL    HW126738   3.884   3.027   3.328
 8613SOL    HW226739   3.943   3.177   3.303
 8614SOL     OW26740   0.728   2.027   3.538
 8614SOL    HW126741   0.790   2.051   3.463
 8614SOL    HW226742   0.641   2.074   3.524
 8615SOL     OW26743   3.214   1.817   5.447
 8615SOL    HW126744   3.117   1.811   5.423
 8615SOL    HW226745   3.265   1.853   5.369
 8616SOL     OW26746   5.685   4.804   5.109
 8616SOL    HW126747   5.655   4.738   5.040
 8616SOL    HW226748   5.749   4.869   5.068
 8617SOL     OW26749   1.276   6.983   3.202
 8617SOL    HW126750   1.246   0.030   3.138
 8617SOL    HW226751   1.256   6.893   3.164
 8618SOL     OW26752   5.864   4.186   0.913
 8618SOL    HW126753   5.824   4.251   0.848
 8618SOL    HW226754   5.794   4.121   0.943
 8619SOL     OW26755   5.549   5.972   0.777
 8619SOL    HW126756   5.493   6.016   0.707
 8619SOL    HW226757   5.637   5.948   0.739
 8620SOL     OW26758   1.961   6.498   3.887
 8620SOL    HW126759   1.928   6.559   3.816
 8620SOL    HW226760   1.929   6.529   3.977
 8621SOL     OW26761   5.623   3.561   2.174
 8621SOL    HW126762   5.617   3.586   2.077
 8621SOL    HW226763   5.638   3.463   2.182
 8622SOL     OW26764   0.500   5.245   2.859
 8622SOL    HW126765   0.589   5.209   2.832
 8622SOL    HW226766   0.508   5.341   2.885
 8623SOL     OW26767   1.854   2.293   3.545
 8623SOL    HW126768   1.866   2.266   3.641
 8623SOL    HW226769   1.765   2.338   3.535
 8624SOL     OW26770   3.437   4.130   5.178
 8624SOL    HW126771   3.452   4.160   5.272
 8624SOL    HW226772   3.350   4.165   5.144
 8625SOL     OW26773   4.318   3.229   6.164
 8625SOL    HW126774   4.304   3.256   6.068
 8625SOL    HW226775   4.258   3.284   6.223
 8626SOL     OW26776   5.107   1.771   1.487
 8626SOL    HW126777   5.088   1.863   1.451
 8626SOL    HW226778   5.109   1.774   1.587
 8627SOL     OW26779   1.595   0.356   2.613
 8627SOL    HW126780   1.504   0.387   2.641
 8627SOL    HW226781   1.657   0.358   2.692
 8628SOL     OW26782   0.746   6.967   1.084
 8628SOL    HW126783   0.784   6.875   1.087
 8628SOL    HW226784   0.653   6.966   1.121
 8629SOL     OW26785   0.565   7.014   4.508
 8629SOL    HW126786   0.544   6.949   4.435
 8629SOL    HW226787   0.488   7.019   4.571
 8630SOL     OW26788   5.188   2.588   2.149
 8630SOL    HW126789   5.119   2.630   2.090
 8630SOL    HW226790   5.228   2.509   2.103
 8631SOL     OW26791   2.158   6.005   6.108
 8631SOL    HW126792   2.095   5.953   6.165
 8631SOL    HW226793   2.251   5.974   6.125
 8632SOL     OW26794   5.987   5.269   4.241
 8632SOL    HW126795   5.977   5.354   4.190
 8632SOL    HW226796   5.907   5.211   4.226
 8633SOL     OW26797   5.753   4.060   5.309
 8633SOL    HW126798   5.679   4.120   5.341
 8633SOL    HW226799   5.841   4.100   5.334
 8634SOL     OW26800   5.148   4.471   6.567
 8634SOL    HW126801   5.125   4.531   6.490
 8634SOL    HW226802   5.064   4.446   6.616
 8635SOL     OW26803   4.928   2.611   6.857
 8635SOL    HW126804   5.003   2.632   6.919
 8635SOL    HW226805   4.841   2.639   6.899
 8636SOL     OW26806   4.376   6.024   1.839
 8636SOL    HW126807   4.351   5.968   1.760
 8636SOL    HW226808   4.309   6.011   1.912
 8637SOL     OW26809   1.838   2.096   6.761
 8637SOL    HW126810   1.862   2.080   6.665
 8637SOL    HW226811   1.922   2.098   6.816
 8638SOL     OW26812   4.993   3.203   4.108
 8638SOL    HW126813   4.959   3.254   4.187
 8638SOL    HW226814   4.943   3.231   4.026
 8639SOL     OW26815   3.085   4.259   0.421
 8639SOL    HW126816   3.078   4.173   0.470
 8639SOL    HW226817   3.021   4.326   0.460
 8640SOL     OW26818   4.007   2.543   0.590
 8640SOL    HW126819   4.086   2.577   0.641
 8640SOL    HW226820   3.924   2.557   0.644
 8641SOL     OW26821   3.911   5.265   2.574
 8641SOL    HW126822   3.957   5.178   2.592
 8641SOL    HW226823   3.815   5.249   2.553
 8642SOL     OW26824   1.825   5.905   2.942
 8642SOL    HW126825   1.845   5.972   3.014
 8642SOL    HW226826   1.831   5.950   2.853
 8643SOL     OW26827   3.664   6.488   1.091
 8643SOL    HW126828   3.738   6.542   1.132
 8643SOL    HW226829   3.688   6.464   0.997
 8644SOL     OW26830   5.754   2.438   6.128
 8644SOL    HW126831   5.804   2.420   6.043
 8644SOL    HW226832   5.781   2.527   6.165
 8645SOL     OW26833   5.528   5.677   3.003
 8645SOL    HW126834   5.540   5.761   3.056
 8645SOL    HW226835   5.460   5.693   2.931
 8646SOL     OW26836   0.083   2.644   5.158
 8646SOL    HW126837   0.127   2.643   5.248
 8646SOL    HW226838   0.051   2.551   5.136
 8647SOL     OW26839   1.594   5.172   1.932
 8647SOL    HW126840   1.649   5.255   1.921
 8647SOL    HW226841   1.504   5.186   1.890
 8648SOL     OW26842   4.668   5.307   0.458
 8648SOL    HW126843   4.617   5.391   0.480
 8648SOL    HW226844   4.607   5.243   0.411
 8649SOL     OW26845   5.747   1.407   0.962
 8649SOL    HW126846   5.798   1.355   1.030
 8649SOL    HW226847   5.681   1.466   1.009
 8650SOL     OW26848   1.967   6.906   5.461
 8650SOL    HW126849   1.941   6.905   5.558
 8650SOL    HW226850   1.887   6.932   5.406
 8651SOL     OW26851   4.030   1.994   1.737
 8651SOL    HW126852   4.094   1.920   1.721
 8651SOL    HW226853   3.951   1.960   1.789
 8652SOL     OW26854   0.880   2.840   3.652
 8652SOL    HW126855   0.894   2.782   3.733
 8652SOL    HW226856   0.951   2.909   3.648
 8653SOL     OW26857   5.899   1.298   6.666
 8653SOL    HW126858   5.842   1.287   6.584
 8653SOL    HW226859   5.914   1.395   6.683
 8654SOL     OW26860   6.953   4.903   3.177
 8654SOL    HW126861   6.974   4.845   3.098
 8654SOL    HW226862   6.949   4.846   3.259
 8655SOL     OW26863   0.830   0.246   4.831
 8655SOL    HW126864   0.879   0.217   4.913
 8655SOL    HW226865   0.814   0.344   4.834
 8656SOL     OW26866   3.941   6.515   0.934
 8656SOL    HW126867   3.927   6.417   0.948
 8656SOL    HW226868   4.032   6.541   0.967
 8657SOL     OW26869   3.086   1.905   2.841
 8657SOL    HW126870   3.027   1.974   2.884
 8657SOL    HW226871   3.045   1.814   2.854
 8658SOL     OW26872   6.256   4.683   1.452
 8658SOL    HW126873   6.317   4.756   1.421
 8658SOL    HW226874   6.197   4.655   1.377
 8659SOL     OW26875   3.835   0.680   2.435
 8659SOL    HW126876   3.883   0.757   2.476
 8659SOL    HW226877   3.857   0.675   2.338
 8660SOL     OW26878   0.577   4.188   1.914
 8660SOL    HW126879   0.666   4.211   1.954
 8660SOL    HW226880   0.549   4.097   1.946
 8661SOL     OW26881   6.945   3.555   1.994
 8661SOL    HW126882   7.010   3.630   2.007
 8661SOL    HW226883   6.861   3.575   2.044
 8662SOL     OW26884   1.124   2.250   2.751
 8662SOL    HW126885   1.132   2.159   2.790
 8662SOL    HW226886   1.119   2.318   2.824
 8663SOL     OW26887   4.182   4.670   2.725
 8663SOL    HW126888   4.252   4.737   2.700
 8663SOL    HW226889   4.123   4.652   2.646
 8664SOL     OW26890   3.648   6.074   3.818
 8664SOL    HW126891   3.672   6.121   3.733
 8664SOL    HW226892   3.718   6.091   3.887
 8665SOL     OW26893   5.695   3.870   6.960
 8665SOL    HW126894   5.597   3.862   6.943
 8665SOL    HW226895   5.742   3.895   6.875
 8666SOL     OW26896   4.718   0.416   3.072
 8666SOL    HW126897   4.675   0.436   2.984
 8666SOL    HW226898   4.670   0.463   3.145
 8667SOL     OW26899   5.367   2.304   2.357
 8667SOL    HW126900   5.452   2.275   2.401
 8667SOL    HW226901   5.364   2.269   2.263
 8668SOL     OW26902   4.690   2.032   4.438
 8668SOL    HW126903   4.608   2.062   4.487
 8668SOL    HW226904   4.766   2.095   4.458
 8669SOL     OW26905   6.618   6.371   6.628
 8669SOL    HW126906   6.664   6.299   6.680
 8669SOL    HW226907   6.573   6.434   6.692
 8670SOL     OW26908   6.722   5.215   5.353
 8670SOL    HW126909   6.634   5.237   5.311
 8670SOL    HW226910   6.766   5.141   5.302
 8671SOL     OW26911   0.045   2.762   2.981
 8671SOL    HW126912   6.973   2.757   3.006
 8671SOL    HW226913   0.098   2.696   3.035
 8672SOL     OW26914   6.912   1.422   2.697
 8672SOL    HW126915   6.881   1.328   2.688
 8672SOL    HW226916   6.963   1.449   2.616
 8673SOL     OW26917   1.025   1.510   1.257
 8673SOL    HW126918   1.112   1.467   1.231
 8673SOL    HW226919   1.041   1.605   1.284
 8674SOL     OW26920   0.047   4.375   3.229
 8674SOL    HW126921   0.075   4.422   3.313
 8674SOL    HW226922   0.126   4.325   3.191
 8675SOL     OW26923   4.371   2.424   4.794
 8675SOL    HW126924   4.344   2.389   4.705
 8675SOL    HW226925   4.290   2.444   4.848
 8676SOL     OW26926   4.756   1.918   1.483
 8676SOL    HW126927   4.716   2.008   1.470
 8676SOL    HW226928   4.701   1.866   1.548
 8677SOL     OW26929   2.579   0.047   6.368
 8677SOL    HW126930   2.487   0.077   6.342
 8677SOL    HW226931   2.572   7.004   6.443
 8678SOL     OW26932   2.716   2.073   0.354
 8678SOL    HW126933   2.619   2.057   0.339
 8678SOL    HW226934   2.747   2.024   0.435
 8679SOL     OW26935   1.568   1.840   6.596
 8679SOL    HW126936   1.644   1.794   6.642
 8679SOL    HW226937   1.490   1.778   6.588
 8680SOL     OW26938   0.374   0.278   0.516
 8680SOL    HW126939   0.324   0.315   0.595
 8680SOL    HW226940   0.435   0.205   0.547
 8681SOL     OW26941   5.355   5.153   1.557
 8681SOL    HW126942   5.386   5.100   1.479
 8681SOL    HW226943   5.275   5.108   1.597
 8682SOL     OW26944   2.674   0.549   2.625
 8682SOL    HW126945   2.612   0.476   2.653
 8682SOL    HW226946   2.655   0.575   2.530
 8683SOL     OW26947   2.457   4.498   4.227
 8683SOL    HW126948   2.435   4.471   4.320
 8683SOL    HW226949   2.416   4.432   4.163
 8684SOL     OW26950   2.355   4.451   3.245
 8684SOL    HW126951   2.378   4.518   3.315
 8684SOL    HW226952   2.333   4.363   3.288
 8685SOL     OW26953   4.852   3.253   4.902
 8685SOL    HW126954   4.758   3.244   4.936
 8685SOL    HW226955   4.880   3.167   4.860
 8686SOL     OW26956   1.267   5.278   3.120
 8686SOL    HW126957   1.290   5.348   3.053
 8686SOL    HW226958   1.347   5.258   3.177
 8687SOL     OW26959   5.601   4.401   5.476
 8687SOL    HW126960   5.634   4.359   5.560
 8687SOL    HW226961   5.564   4.331   5.416
 8688SOL     OW26962   1.159   3.935   5.204
 8688SOL    HW126963   1.085   3.962   5.144
 8688SOL    HW226964   1.245   3.934   5.153
 8689SOL     OW26965   4.821   3.325   0.839
 8689SOL    HW126966   4.744   3.356   0.784
 8689SOL    HW226967   4.824   3.377   0.925
 8690SOL     OW26968   1.277   1.609   2.322
 8690SOL    HW126969   1.336   1.651   2.253
 8690SOL    HW226970   1.224   1.535   2.281
 8691SOL     OW26971   3.657   2.234   6.257
 8691SOL    HW126972   3.639   2.332   6.245
 8691SOL    HW226973   3.621   2.205   6.345
 8692SOL     OW26974   5.512   3.038   4.250
 8692SOL    HW126975   5.527   3.116   4.311
 8692SOL    HW226976   5.415   3.016   4.246
 8693SOL     OW26977   6.834   6.679   5.526
 8693SOL    HW126978   6.906   6.727   5.577
 8693SOL    HW226979   6.758   6.660   5.588
 8694SOL     OW26980   4.486   3.682   5.883
 8694SOL    HW126981   4.502   3.689   5.784
 8694SOL    HW226982   4.387   3.677   5.901
 8695SOL     OW26983   3.070   4.928   1.106
 8695SOL    HW126984   3.093   4.916   1.009
 8695SOL    HW226985   2.972   4.915   1.118
 8696SOL     OW26986   2.435   5.873   6.193
 8696SOL    HW126987   2.363   5.836   6.251
 8696SOL    HW226988   2.509   5.805   6.183
 8697SOL     OW26989   1.098   3.712   4.935
 8697SOL    HW126990   1.045   3.677   5.012
 8697SOL    HW226991   1.090   3.650   4.857
 8698SOL     OW26992   4.239   4.418   6.826
 8698SOL    HW126993   4.256   4.478   6.904
 8698SOL    HW226994   4.323   4.368   6.804
 8699SOL     OW26995   2.473   2.353   0.720
 8699SOL    HW126996   2.560   2.355   0.671
 8699SOL    HW226997   2.446   2.258   0.736
 8700SOL     OW26998   0.612   1.919   5.052
 8700SOL    HW126999   0.654   1.834   5.082
 8700SOL    HW227000   0.545   1.900   4.980
 8701SOL     OW27001   1.795   3.415   6.471
 8701SOL    HW127002   1.782   3.357   6.391
 8701SOL    HW227003   1.797   3.358   6.553
 8702SOL     OW27004   5.824   4.312   1.412
 8702SOL    HW127005   5.780   4.222   1.422
 8702SOL    HW227006   5.756   4.379   1.382
 8703SOL     OW27007   2.552   5.819   1.818
 8703SOL    HW127008   2.471   5.774   1.854
 8703SOL    HW227009   2.621   5.751   1.793
 8704SOL     OW27010   6.919   1.459   4.878
 8704SOL    HW127011   7.003   1.415   4.910
 8704SOL    HW227012   6.877   1.509   4.954
 8705SOL     OW27013   3.317   2.176   0.293
 8705SOL    HW127014   3.402   2.138   0.257
 8705SOL    HW227015   3.336   2.265   0.335
 8706SOL     OW27016   4.749   2.619   6.428
 8706SOL    HW127017   4.726   2.580   6.338
 8706SOL    HW227018   4.677   2.594   6.493
 8707SOL     OW27019   1.163   1.077   4.099
 8707SOL    HW127020   1.107   1.007   4.055
 8707SOL    HW227021   1.128   1.095   4.191
 8708SOL     OW27022   6.016   2.685   1.252
 8708SOL    HW127023   5.994   2.778   1.283
 8708SOL    HW227024   5.931   2.632   1.246
 8709SOL     OW27025   6.753   6.199   4.107
 8709SOL    HW127026   6.761   6.277   4.045
 8709SOL    HW227027   6.730   6.231   4.198
 8710SOL     OW27028   2.325   1.592   3.381
 8710SOL    HW127029   2.351   1.578   3.285
 8710SOL    HW227030   2.316   1.690   3.399
 8711SOL     OW27031   1.501   1.043   2.119
 8711SOL    HW127032   1.589   1.032   2.167
 8711SOL    HW227033   1.434   1.080   2.183
 8712SOL     OW27034   0.901   4.369   4.256
 8712SOL    HW127035   0.813   4.411   4.234
 8712SOL    HW227036   0.885   4.279   4.297
 8713SOL     OW27037   0.349   3.814   2.285
 8713SOL    HW127038   0.446   3.831   2.270
 8713SOL    HW227039   0.336   3.778   2.378
 8714SOL     OW27040   6.105   4.705   6.597
 8714SOL    HW127041   6.015   4.676   6.564
 8714SOL    HW227042   6.160   4.737   6.520
 8715SOL     OW27043   2.469   4.883   1.170
 8715SOL    HW127044   2.517   4.956   1.120
 8715SOL    HW227045   2.513   4.869   1.258
 8716SOL     OW27046   6.283   0.680   1.800
 8716SOL    HW127047   6.320   0.587   1.791
 8716SOL    HW227048   6.283   0.725   1.711
 8717SOL     OW27049   3.272   2.464   0.493
 8717SOL    HW127050   3.353   2.406   0.502
 8717SOL    HW227051   3.244   2.497   0.583
 8718SOL     OW27052   2.979   5.271   6.593
 8718SOL    HW127053   2.917   5.340   6.630
 8718SOL    HW227054   2.963   5.184   6.638
 8719SOL     OW27055   3.051   1.371   5.128
 8719SOL    HW127056   3.013   1.452   5.084
 8719SOL    HW227057   2.977   1.309   5.155
 8720SOL     OW27058   0.974   6.107   4.485
 8720SOL    HW127059   0.956   6.019   4.528
 8720SOL    HW227060   1.056   6.101   4.428
 8721SOL     OW27061   1.150   7.023   1.234
 8721SOL    HW127062   1.141   6.926   1.214
 8721SOL    HW227063   1.061   0.043   1.230
 8722SOL     OW27064   3.112   1.562   0.544
 8722SOL    HW127065   3.025   1.565   0.593
 8722SOL    HW227066   3.158   1.475   0.562
 8723SOL     OW27067   3.986   6.447   1.991
 8723SOL    HW127068   4.071   6.479   1.947
 8723SOL    HW227069   3.997   6.352   2.018
 8724SOL     OW27070   3.224   1.719   4.817
 8724SOL    HW127071   3.230   1.742   4.914
 8724SOL    HW227072   3.316   1.708   4.780
 8725SOL     OW27073   6.989   0.449   2.756
 8725SOL    HW127074   0.023   0.373   2.787
 8725SOL    HW227075   6.897   0.438   2.793
 8726SOL     OW27076   6.280   0.777   0.408
 8726SOL    HW127077   6.299   0.868   0.443
 8726SOL    HW227078   6.310   0.709   0.475
 8727SOL     OW27079   5.334   5.864   6.718
 8727SOL    HW127080   5.331   5.944   6.778
 8727SOL    HW227081   5.286   5.885   6.632
 8728SOL     OW27082   6.269   6.543   4.352
 8728SOL    HW127083   6.173   6.558   4.327
 8728SOL    HW227084   6.298   6.453   4.320
 8729SOL     OW27085   5.902   5.554   6.149
 8729SOL    HW127086   5.925   5.589   6.058
 8729SOL    HW227087   5.958   5.600   6.218
 8730SOL     OW27088   4.007   4.816   1.817
 8730SOL    HW127089   4.084   4.753   1.816
 8730SOL    HW227090   3.993   4.852   1.909
 8731SOL     OW27091   6.998   1.795   3.666
 8731SOL    HW127092   6.955   1.839   3.587
 8731SOL    HW227093   6.955   1.829   3.750
 8732SOL     OW27094   5.104   6.177   6.033
 8732SOL    HW127095   5.053   6.109   5.979
 8732SOL    HW227096   5.184   6.208   5.981
 8733SOL     OW27097   6.441   4.619   2.310
 8733SOL    HW127098   6.471   4.592   2.218
 8733SOL    HW227099   6.520   4.625   2.371
 8734SOL     OW27100   1.391   5.230   0.541
 8734SOL    HW127101   1.477   5.192   0.508
 8734SOL    HW227102   1.358   5.175   0.618
 8735SOL     OW27103   1.442   3.021   5.919
 8735SOL    HW127104   1.350   2.988   5.937
 8735SOL    HW227105   1.450   3.046   5.822
 8736SOL     OW27106   1.563   5.754   3.273
 8736SOL    HW127107   1.484   5.707   3.235
 8736SOL    HW227108   1.644   5.734   3.217
 8737SOL     OW27109   0.413   5.505   6.739
 8737SOL    HW127110   0.379   5.504   6.645
 8737SOL    HW227111   0.500   5.457   6.744
 8738SOL     OW27112   1.829   2.499   2.213
 8738SOL    HW127113   1.873   2.419   2.173
 8738SOL    HW227114   1.867   2.582   2.173
 8739SOL     OW27115   5.547   4.447   3.365
 8739SOL    HW127116   5.467   4.406   3.410
 8739SOL    HW227117   5.616   4.376   3.350
 8740SOL     OW27118   3.002   1.882   3.188
 8740SOL    HW127119   3.034   1.861   3.281
 8740SOL    HW227120   3.034   1.974   3.163
 8741SOL     OW27121   1.105   1.820   2.400
 8741SOL    HW127122   1.169   1.745   2.383
 8741SOL    HW227123   1.156   1.905   2.412
 8742SOL     OW27124   2.509   2.766   1.702
 8742SOL    HW127125   2.485   2.773   1.605
 8742SOL    HW227126   2.578   2.694   1.714
 8743SOL     OW27127   0.834   3.222   0.304
 8743SOL    HW127128   0.751   3.237   0.358
 8743SOL    HW227129   0.914   3.227   0.363
 8744SOL     OW27130   3.696   3.920   5.916
 8744SOL    HW127131   3.692   3.915   6.016
 8744SOL    HW227132   3.609   3.957   5.882
 8745SOL     OW27133   6.055   2.028   6.646
 8745SOL    HW127134   6.000   2.097   6.694
 8745SOL    HW227135   6.030   2.027   6.549
 8746SOL     OW27136   3.932   4.944   5.058
 8746SOL    HW127137   3.851   4.920   5.004
 8746SOL    HW227138   3.929   4.896   5.146
 8747SOL     OW27139   1.136   0.604   2.283
 8747SOL    HW127140   1.165   0.656   2.203
 8747SOL    HW227141   1.039   0.622   2.302
 8748SOL     OW27142   5.500   2.154   4.313
 8748SOL    HW127143   5.507   2.077   4.250
 8748SOL    HW227144   5.514   2.239   4.262
 8749SOL     OW27145   2.700   1.253   3.911
 8749SOL    HW127146   2.681   1.174   3.969
 8749SOL    HW227147   2.754   1.320   3.962
 8750SOL     OW27148   4.182   3.410   1.504
 8750SOL    HW127149   4.170   3.499   1.547
 8750SOL    HW227150   4.262   3.413   1.443
 8751SOL     OW27151   2.405   0.014   0.323
 8751SOL    HW127152   2.385   6.942   0.346
 8751SOL    HW227153   2.441   0.018   0.229
 8752SOL     OW27154   6.876   3.709   6.083
 8752SOL    HW127155   6.922   3.708   6.172
 8752SOL    HW227156   6.908   3.787   6.030
 8753SOL     OW27157   1.688   1.834   0.886
 8753SOL    HW127158   1.744   1.817   0.967
 8753SOL    HW227159   1.710   1.766   0.815
 8754SOL     OW27160   1.095   6.393   6.255
 8754SOL    HW127161   1.122   6.400   6.159
 8754SOL    HW227162   1.001   6.427   6.265
 8755SOL     OW27163   0.237   2.865   1.537
 8755SOL    HW127164   0.289   2.816   1.606
 8755SOL    HW227165   0.199   2.800   1.471
 8756SOL     OW27166   1.467   1.591   1.947
 8756SOL    HW127167   1.368   1.581   1.956
 8756SOL    HW227168   1.512   1.512   1.987
 8757SOL     OW27169   5.613   6.128   5.206
 8757SOL    HW127170   5.533   6.070   5.220
 8757SOL    HW227171   5.695   6.071   5.201
 8758SOL     OW27172   3.877   5.946   6.123
 8758SOL    HW127173   3.832   5.935   6.034
 8758SOL    HW227174   3.890   6.043   6.142
 8759SOL     OW27175   6.117   1.134   1.915
 8759SOL    HW127176   6.173   1.064   1.960
 8759SOL    HW227177   6.095   1.104   1.823
 8760SOL     OW27178   2.444   2.236   4.185
 8760SOL    HW127179   2.455   2.137   4.176
 8760SOL    HW227180   2.349   2.258   4.204
 8761SOL     OW27181   4.856   2.452   2.885
 8761SOL    HW127182   4.838   2.539   2.839
 8761SOL    HW227183   4.880   2.382   2.818
 8762SOL     OW27184   4.102   6.505   2.877
 8762SOL    HW127185   4.187   6.555   2.861
 8762SOL    HW227186   4.080   6.450   2.797
 8763SOL     OW27187   6.930   1.820   5.094
 8763SOL    HW127188   6.956   1.911   5.063
 8763SOL    HW227189   6.835   1.820   5.123
 8764SOL     OW27190   3.502   4.851   6.428
 8764SOL    HW127191   3.525   4.855   6.526
 8764SOL    HW227192   3.402   4.855   6.418
 8765SOL     OW27193   4.390   6.603   3.993
 8765SOL    HW127194   4.434   6.692   4.008
 8765SOL    HW227195   4.297   6.605   4.029
 8766SOL     OW27196   5.387   7.001   4.995
 8766SOL    HW127197   5.466   6.985   5.054
 8766SOL    HW227198   5.416   7.004   4.900
 8767SOL     OW27199   1.810   0.895   3.924
 8767SOL    HW127200   1.837   0.850   4.009
 8767SOL    HW227201   1.748   0.971   3.945
 8768SOL     OW27202   6.681   1.723   0.841
 8768SOL    HW127203   6.667   1.632   0.802
 8768SOL    HW227204   6.595   1.774   0.839
 8769SOL     OW27205   5.967   0.107   6.289
 8769SOL    HW127206   5.967   0.023   6.235
 8769SOL    HW227207   5.912   0.177   6.243
 8770SOL     OW27208   4.910   2.100   0.239
 8770SOL    HW127209   4.823   2.091   0.286
 8770SOL    HW227210   4.895   2.107   0.140
 8771SOL     OW27211   0.851   2.245   6.200
 8771SOL    HW127212   0.875   2.253   6.103
 8771SOL    HW227213   0.854   2.336   6.242
 8772SOL     OW27214   0.293   0.152   3.532
 8772SOL    HW127215   0.268   0.184   3.623
 8772SOL    HW227216   0.391   0.132   3.528
 8773SOL     OW27217   0.191   1.742   3.511
 8773SOL    HW127218   0.163   1.687   3.433
 8773SOL    HW227219   0.116   1.747   3.577
 8774SOL     OW27220   1.315   1.947   6.905
 8774SOL    HW127221   1.237   1.901   6.948
 8774SOL    HW227222   1.400   1.901   6.932
 8775SOL     OW27223   5.305   2.423   3.147
 8775SOL    HW127224   5.220   2.407   3.197
 8775SOL    HW227225   5.314   2.520   3.126
 8776SOL     OW27226   5.334   2.955   1.576
 8776SOL    HW127227   5.240   2.926   1.556
 8776SOL    HW227228   5.357   3.034   1.520
 8777SOL     OW27229   6.523   2.421   3.409
 8777SOL    HW127230   6.494   2.517   3.412
 8777SOL    HW227231   6.457   2.365   3.459
 8778SOL     OW27232   2.686   3.835   0.094
 8778SOL    HW127233   2.601   3.873   0.057
 8778SOL    HW227234   2.724   3.769   0.030
 8779SOL     OW27235   4.203   5.459   2.902
 8779SOL    HW127236   4.138   5.449   2.826
 8779SOL    HW227237   4.265   5.381   2.903
 8780SOL     OW27238   0.756   4.284   3.948
 8780SOL    HW127239   0.834   4.348   3.945
 8780SOL    HW227240   0.775   4.206   3.889
 8781SOL     OW27241   2.731   0.888   1.392
 8781SOL    HW127242   2.752   0.967   1.449
 8781SOL    HW227243   2.790   0.812   1.418
 8782SOL     OW27244   6.399   2.588   0.898
 8782SOL    HW127245   6.373   2.580   0.802
 8782SOL    HW227246   6.462   2.665   0.908
 8783SOL     OW27247   4.284   4.015   5.309
 8783SOL    HW127248   4.252   3.955   5.381
 8783SOL    HW227249   4.240   4.105   5.318
 8784SOL     OW27250   4.181   0.636   0.053
 8784SOL    HW127251   4.228   0.621   6.990
 8784SOL    HW227252   4.231   0.590   0.127
 8785SOL     OW27253   6.939   5.769   5.559
 8785SOL    HW127254   6.919   5.779   5.461
 8785SOL    HW227255   6.991   5.685   5.574
 8786SOL     OW27256   5.726   1.696   3.489
 8786SOL    HW127257   5.754   1.691   3.393
 8786SOL    HW227258   5.777   1.628   3.543
 8787SOL     OW27259   3.324   5.299   1.838
 8787SOL    HW127260   3.387   5.224   1.819
 8787SOL    HW227261   3.337   5.372   1.771
 8788SOL     OW27262   0.358   6.099   4.409
 8788SOL    HW127263   0.349   6.129   4.505
 8788SOL    HW227264   0.400   6.172   4.356
 8789SOL     OW27265   1.457   2.465   6.482
 8789SOL    HW127266   1.436   2.534   6.413
 8789SOL    HW227267   1.547   2.426   6.464
 8790SOL     OW27268   4.475   2.602   5.010
 8790SOL    HW127269   4.417   2.550   4.947
 8790SOL    HW227270   4.559   2.630   4.963
 8791SOL     OW27271   3.972   6.074   4.959
 8791SOL    HW127272   3.914   5.998   4.930
 8791SOL    HW227273   3.968   6.147   4.890
 8792SOL     OW27274   5.739   5.300   1.668
 8792SOL    HW127275   5.705   5.282   1.760
 8792SOL    HW227276   5.839   5.307   1.670
 8793SOL     OW27277   6.374   6.073   5.182
 8793SOL    HW127278   6.469   6.089   5.206
 8793SOL    HW227279   6.323   6.159   5.187
 8794SOL     OW27280   0.188   1.556   3.008
 8794SOL    HW127281   0.112   1.621   3.002
 8794SOL    HW227282   0.152   1.463   3.000
 8795SOL     OW27283   1.119   6.686   6.641
 8795SOL    HW127284   1.164   6.616   6.696
 8795SOL    HW227285   1.188   6.744   6.598
 8796SOL     OW27286   5.842   4.178   4.951
 8796SOL    HW127287   5.743   4.182   4.940
 8796SOL    HW227288   5.875   4.088   4.921
 8797SOL     OW27289   5.122   6.296   4.617
 8797SOL    HW127290   5.186   6.311   4.692
 8797SOL    HW227291   5.071   6.380   4.598
 8798SOL     OW27292   1.982   6.019   5.667
 8798SOL    HW127293   1.905   6.073   5.634
 8798SOL    HW227294   2.003   5.947   5.600
 8799SOL     OW27295   1.299   5.906   1.678
 8799SOL    HW127296   1.334   5.813   1.688
 8799SOL    HW227297   1.367   5.972   1.709
 8800SOL     OW27298   6.702   5.956   3.987
 8800SOL    HW127299   6.729   6.040   4.035
 8800SOL    HW227300   6.716   5.969   3.889
 8801SOL     OW27301   4.831   3.556   5.721
 8801SOL    HW127302   4.891   3.595   5.790
 8801SOL    HW227303   4.847   3.458   5.714
 8802SOL     OW27304   1.259   6.423   6.725
 8802SOL    HW127305   1.279   6.488   6.798
 8802SOL    HW227306   1.188   6.359   6.756
 8803SOL     OW27307   5.465   5.626   5.213
 8803SOL    HW127308   5.413   5.571   5.279
 8803SOL    HW227309   5.551   5.581   5.192
 8804SOL     OW27310   1.387   6.125   2.296
 8804SOL    HW127311   1.480   6.155   2.317
 8804SOL    HW227312   1.367   6.144   2.200
 8805SOL     OW27313   5.418   4.670   3.217
 8805SOL    HW127314   5.426   4.577   3.254
 8805SOL    HW227315   5.414   4.665   3.117
 8806SOL     OW27316   1.239   0.835   2.125
 8806SOL    HW127317   1.224   0.925   2.083
 8806SOL    HW227318   1.326   0.835   2.175
 8807SOL     OW27319   5.590   2.233   1.350
 8807SOL    HW127320   5.673   2.180   1.368
 8807SOL    HW227321   5.556   2.271   1.436
 8808SOL     OW27322   2.047   1.854   7.003
 8808SOL    HW127323   2.026   1.867   0.077
 8808SOL    HW227324   1.961   1.849   6.951
 8809SOL     OW27325   0.537   3.433   3.043
 8809SOL    HW127326   0.473   3.396   2.975
 8809SOL    HW227327   0.536   3.532   3.039
 8810SOL     OW27328   0.301   2.365   4.919
 8810SOL    HW127329   0.398   2.342   4.914
 8810SOL    HW227330   0.248   2.291   4.878
 8811SOL     OW27331   4.461   4.527   2.492
 8811SOL    HW127332   4.550   4.528   2.447
 8811SOL    HW227333   4.390   4.509   2.424
 8812SOL     OW27334   5.394   0.889   0.358
 8812SOL    HW127335   5.435   0.952   0.292
 8812SOL    HW227336   5.466   0.840   0.406
 8813SOL     OW27337   2.055   3.067   2.205
 8813SOL    HW127338   2.043   3.121   2.288
 8813SOL    HW227339   2.093   3.124   2.133
 8814SOL     OW27340   6.018   6.685   4.916
 8814SOL    HW127341   5.981   6.701   5.008
 8814SOL    HW227342   6.053   6.770   4.878
 8815SOL     OW27343   4.978   1.151   1.311
 8815SOL    HW127344   5.033   1.077   1.272
 8815SOL    HW227345   4.958   1.131   1.407
 8816SOL     OW27346   0.154   0.180   3.794
 8816SOL    HW127347   0.110   0.256   3.842
 8816SOL    HW227348   0.230   0.146   3.849
 8817SOL     OW27349   1.351   2.842   3.085
 8817SOL    HW127350   1.357   2.910   3.158
 8817SOL    HW227351   1.255   2.819   3.069
 8818SOL     OW27352   1.083   6.481   5.980
 8818SOL    HW127353   1.058   6.433   5.896
 8818SOL    HW227354   1.006   6.536   6.011
 8819SOL     OW27355   4.804   6.045   6.251
 8819SOL    HW127356   4.844   6.065   6.341
 8819SOL    HW227357   4.725   6.105   6.235
 8820SOL     OW27358   4.199   6.612   5.241
 8820SOL    HW127359   4.122   6.641   5.298
 8820SOL    HW227360   4.271   6.574   5.298
 8821SOL     OW27361   0.855   4.764   6.359
 8821SOL    HW127362   0.828   4.710   6.439
 8821SOL    HW227363   0.890   4.853   6.389
 8822SOL     OW27364   6.282   0.395   4.927
 8822SOL    HW127365   6.271   0.369   4.831
 8822SOL    HW227366   6.293   0.494   4.934
 8823SOL     OW27367   3.994   1.530   2.752
 8823SOL    HW127368   4.055   1.495   2.681
 8823SOL    HW227369   4.034   1.611   2.794
 8824SOL     OW27370   1.876   0.489   3.757
 8824SOL    HW127371   1.884   0.509   3.854
 8824SOL    HW227372   1.950   0.535   3.708
 8825SOL     OW27373   0.364   6.804   0.115
 8825SOL    HW127374   0.458   6.799   0.149
 8825SOL    HW227375   0.326   6.712   0.109
 8826SOL     OW27376   0.716   4.314   0.192
 8826SOL    HW127377   0.739   4.369   0.272
 8826SOL    HW227378   0.784   4.243   0.179
 8827SOL     OW27379   4.693   6.647   3.393
 8827SOL    HW127380   4.743   6.591   3.328
 8827SOL    HW227381   4.746   6.730   3.414
 8828SOL     OW27382   5.104   2.127   6.119
 8828SOL    HW127383   5.065   2.219   6.114
 8828SOL    HW227384   5.160   2.120   6.202
 8829SOL     OW27385   0.015   1.118   2.574
 8829SOL    HW127386   0.068   1.199   2.598
 8829SOL    HW227387   6.966   1.143   2.510
 8830SOL     OW27388   3.370   0.425   2.982
 8830SOL    HW127389   3.318   0.440   2.898
 8830SOL    HW227390   3.308   0.391   3.053
 8831SOL     OW27391   6.984   3.089   2.673
 8831SOL    HW127392   0.052   3.121   2.698
 8831SOL    HW227393   6.991   3.028   2.594
 8832SOL     OW27394   5.074   0.715   5.546
 8832SOL    HW127395   5.047   0.812   5.550
 8832SOL    HW227396   5.171   0.707   5.570
 8833SOL     OW27397   4.843   2.923   0.696
 8833SOL    HW127398   4.895   3.000   0.732
 8833SOL    HW227399   4.867   2.840   0.747
 8834SOL     OW27400   5.345   4.738   6.430
 8834SOL    HW127401   5.253   4.735   6.467
 8834SOL    HW227402   5.399   4.805   6.480
 8835SOL     OW27403   6.818   1.078   5.270
 8835SOL    HW127404   6.745   1.087   5.202
 8835SOL    HW227405   6.781   1.033   5.352
 8836SOL     OW27406   4.052   1.122   0.891
 8836SOL    HW127407   3.991   1.169   0.826
 8836SOL    HW227408   4.077   1.184   0.965
 8837SOL     OW27409   4.753   5.802   0.526
 8837SOL    HW127410   4.753   5.887   0.578
 8837SOL    HW227411   4.827   5.804   0.458
 8838SOL     OW27412   2.162   3.411   3.280
 8838SOL    HW127413   2.132   3.458   3.363
 8838SOL    HW227414   2.149   3.471   3.201
 8839SOL     OW27415   4.851   4.708   1.521
 8839SOL    HW127416   4.893   4.745   1.603
 8839SOL    HW227417   4.756   4.740   1.514
 8840SOL     OW27418   6.831   1.160   1.104
 8840SOL    HW127419   6.754   1.135   1.163
 8840SOL    HW227420   6.841   1.091   1.032
 8841SOL     OW27421   3.340   1.159   0.858
 8841SOL    HW127422   3.347   1.213   0.941
 8841SOL    HW227423   3.297   1.071   0.879
 8842SOL     OW27424   3.578   2.982   4.076
 8842SOL    HW127425   3.568   2.943   3.985
 8842SOL    HW227426   3.498   2.960   4.131
 8843SOL     OW27427   2.683   5.327   5.352
 8843SOL    HW127428   2.619   5.377   5.293
 8843SOL    HW227429   2.747   5.391   5.394
 8844SOL     OW27430   3.241   2.928   6.150
 8844SOL    HW127431   3.164   2.972   6.102
 8844SOL    HW227432   3.327   2.970   6.119
 8845SOL     OW27433   0.448   3.531   2.225
 8845SOL    HW127434   0.402   3.617   2.245
 8845SOL    HW227435   0.424   3.463   2.294
 8846SOL     OW27436   5.431   4.993   4.428
 8846SOL    HW127437   5.529   5.010   4.434
 8846SOL    HW227438   5.412   4.899   4.457
 8847SOL     OW27439   0.797   2.111   3.821
 8847SOL    HW127440   0.712   2.070   3.786
 8847SOL    HW227441   0.802   2.206   3.790
 8848SOL     OW27442   6.434   2.124   0.679
 8848SOL    HW127443   6.378   2.183   0.623
 8848SOL    HW227444   6.377   2.077   0.747
 8849SOL     OW27445   3.409   5.674   4.012
 8849SOL    HW127446   3.344   5.668   3.936
 8849SOL    HW227447   3.489   5.727   3.984
 8850SOL     OW27448   2.573   1.844   1.442
 8850SOL    HW127449   2.560   1.859   1.344
 8850SOL    HW227450   2.667   1.817   1.460
 8851SOL     OW27451   0.098   5.231   2.539
 8851SOL    HW127452   0.067   5.200   2.449
 8851SOL    HW227453   0.192   5.201   2.555
 8852SOL     OW27454   5.161   3.442   4.636
 8852SOL    HW127455   5.207   3.412   4.720
 8852SOL    HW227456   5.071   3.480   4.659
 8853SOL     OW27457   4.788   2.280   5.381
 8853SOL    HW127458   4.706   2.240   5.340
 8853SOL    HW227459   4.767   2.310   5.474
 8854SOL     OW27460   2.194   1.033   6.123
 8854SOL    HW127461   2.201   1.123   6.168
 8854SOL    HW227462   2.195   0.962   6.193
 8855SOL     OW27463   6.052   5.063   6.306
 8855SOL    HW127464   6.050   5.163   6.303
 8855SOL    HW227465   5.962   5.028   6.331
 8856SOL     OW27466   5.334   0.836   5.308
 8856SOL    HW127467   5.351   0.849   5.210
 8856SOL    HW227468   5.321   0.739   5.326
 8857SOL     OW27469   1.461   3.149   4.889
 8857SOL    HW127470   1.484   3.241   4.923
 8857SOL    HW227471   1.540   3.089   4.899
 8858SOL     OW27472   0.067   3.824   5.774
 8858SOL    HW127473   0.094   3.878   5.855
 8858SOL    HW227474   0.036   3.886   5.702
 8859SOL     OW27475   2.627   6.065   5.314
 8859SOL    HW127476   2.723   6.091   5.301
 8859SOL    HW227477   2.592   6.107   5.397
 8860SOL     OW27478   1.825   1.992   0.539
 8860SOL    HW127479   1.813   2.049   0.457
 8860SOL    HW227480   1.770   2.029   0.613
 8861SOL     OW27481   2.344   2.444   1.494
 8861SOL    HW127482   2.348   2.544   1.497
 8861SOL    HW227483   2.436   2.406   1.497
 8862SOL     OW27484   6.297   2.671   5.294
 8862SOL    HW127485   6.383   2.646   5.339
 8862SOL    HW227486   6.311   2.676   5.196
 8863SOL     OW27487   1.160   5.528   5.495
 8863SOL    HW127488   1.244   5.582   5.503
 8863SOL    HW227489   1.142   5.481   5.581
 8864SOL     OW27490   1.309   3.951   6.362
 8864SOL    HW127491   1.395   3.941   6.312
 8864SOL    HW227492   1.309   4.038   6.412
 8865SOL     OW27493   2.887   1.883   5.738
 8865SOL    HW127494   2.918   1.858   5.830
 8865SOL    HW227495   2.965   1.904   5.680
 8866SOL     OW27496   5.150   6.395   5.024
 8866SOL    HW127497   5.173   6.370   5.119
 8866SOL    HW227498   5.179   6.489   5.007
 8867SOL     OW27499   6.428   1.274   4.184
 8867SOL    HW127500   6.450   1.190   4.135
 8867SOL    HW227501   6.330   1.292   4.179
 8868SOL     OW27502   4.993   3.564   0.557
 8868SOL    HW127503   5.029   3.657   0.549
 8868SOL    HW227504   5.064   3.498   0.533
 8869SOL     OW27505   3.557   2.113   3.244
 8869SOL    HW127506   3.642   2.077   3.282
 8869SOL    HW227507   3.492   2.130   3.318
 8870SOL     OW27508   4.800   1.320   2.240
 8870SOL    HW127509   4.700   1.330   2.236
 8870SOL    HW227510   4.843   1.410   2.242
 8871SOL     OW27511   1.604   2.350   3.670
 8871SOL    HW127512   1.539   2.345   3.594
 8871SOL    HW227513   1.589   2.272   3.732
 8872SOL     OW27514   1.536   2.427   1.839
 8872SOL    HW127515   1.460   2.478   1.798
 8872SOL    HW227516   1.532   2.436   1.938
 8873SOL     OW27517   6.778   5.774   4.908
 8873SOL    HW127518   6.870   5.769   4.946
 8873SOL    HW227519   6.745   5.682   4.887
 8874SOL     OW27520   0.659   1.668   6.288
 8874SOL    HW127521   0.633   1.656   6.384
 8874SOL    HW227522   0.699   1.759   6.275
 8875SOL     OW27523   1.318   1.544   4.747
 8875SOL    HW127524   1.376   1.463   4.738
 8875SOL    HW227525   1.356   1.604   4.818
 8876SOL     OW27526   2.809   0.485   4.477
 8876SOL    HW127527   2.799   0.579   4.445
 8876SOL    HW227528   2.775   0.423   4.407
 8877SOL     OW27529   3.212   6.741   4.473
 8877SOL    HW127530   3.123   6.700   4.451
 8877SOL    HW227531   3.272   6.736   4.394
 8878SOL     OW27532   5.360   4.694   5.604
 8878SOL    HW127533   5.305   4.724   5.526
 8878SOL    HW227534   5.300   4.670   5.680
 8879SOL     OW27535   4.940   5.598   4.432
 8879SOL    HW127536   4.945   5.655   4.514
 8879SOL    HW227537   4.989   5.512   4.449
 8880SOL     OW27538   0.220   6.131   5.350
 8880SOL    HW127539   0.241   6.040   5.314
 8880SOL    HW227540   0.170   6.122   5.436
 8881SOL     OW27541   6.633   1.397   1.654
 8881SOL    HW127542   6.668   1.475   1.707
 8881SOL    HW227543   6.667   1.312   1.695
 8882SOL     OW27544   5.407   2.482   0.051
 8882SOL    HW127545   5.380   2.439   0.137
 8882SOL    HW227546   5.490   2.536   0.066
 8883SOL     OW27547   6.752   1.723   5.315
 8883SOL    HW127548   6.739   1.668   5.398
 8883SOL    HW227549   6.663   1.757   5.283
 8884SOL     OW27550   6.664   1.152   5.743
 8884SOL    HW127551   6.718   1.125   5.822
 8884SOL    HW227552   6.701   1.236   5.703
 8885SOL     OW27553   5.582   3.598   1.907
 8885SOL    HW127554   5.610   3.512   1.863
 8885SOL    HW227555   5.485   3.615   1.890
 8886SOL     OW27556   3.281   5.804   6.107
 8886SOL    HW127557   3.197   5.858   6.109
 8886SOL    HW227558   3.349   5.847   6.167
 8887SOL     OW27559   1.731   0.365   1.093
 8887SOL    HW127560   1.703   0.274   1.124
 8887SOL    HW227561   1.665   0.400   1.026
 8888SOL     OW27562   3.341   1.939   2.665
 8888SOL    HW127563   3.434   1.965   2.692
 8888SOL    HW227564   3.282   1.939   2.745
 8889SOL     OW27565   3.378   0.227   4.670
 8889SOL    HW127566   3.318   0.192   4.599
 8889SOL    HW227567   3.359   0.180   4.757
 8890SOL     OW27568   0.332   4.114   3.258
 8890SOL    HW127569   0.392   4.078   3.186
 8890SOL    HW227570   0.360   4.207   3.281
 8891SOL     OW27571   2.643   1.596   6.037
 8891SOL    HW127572   2.591   1.648   6.104
 8891SOL    HW227573   2.738   1.589   6.068
 8892SOL     OW27574   1.021   6.701   2.525
 8892SOL    HW127575   1.108   6.745   2.546
 8892SOL    HW227576   0.960   6.707   2.604
 8893SOL     OW27577   0.447   0.569   7.009
 8893SOL    HW127578   0.347   0.580   7.004
 8893SOL    HW227579   0.488   0.606   6.925
 8894SOL     OW27580   4.069   3.000   6.149
 8894SOL    HW127581   4.059   2.947   6.064
 8894SOL    HW227582   4.130   3.078   6.133
 8895SOL     OW27583   1.737   0.760   2.589
 8895SOL    HW127584   1.658   0.770   2.529
 8895SOL    HW227585   1.707   0.730   2.679
 8896SOL     OW27586   2.096   4.425   5.018
 8896SOL    HW127587   2.109   4.485   5.097
 8896SOL    HW227588   2.044   4.344   5.046
 8897SOL     OW27589   1.344   2.428   1.112
 8897SOL    HW127590   1.413   2.360   1.139
 8897SOL    HW227591   1.389   2.517   1.099
 8898SOL     OW27592   6.635   2.775   5.213
 8898SOL    HW127593   6.659   2.705   5.145
 8898SOL    HW227594   6.573   2.842   5.172
 8899SOL     OW27595   3.444   5.114   1.479
 8899SOL    HW127596   3.386   5.048   1.431
 8899SOL    HW227597   3.540   5.088   1.469
 8900SOL     OW27598   0.265   1.457   3.600
 8900SOL    HW127599   0.313   1.371   3.582
 8900SOL    HW227600   0.273   1.517   3.520
 8901SOL     OW27601   1.683   6.304   1.805
 8901SOL    HW127602   1.728   6.228   1.853
 8901SOL    HW227603   1.651   6.371   1.872
 8902SOL     OW27604   3.094   5.924   5.048
 8902SOL    HW127605   3.101   5.895   5.143
 8902SOL    HW227606   3.074   5.844   4.991
 8903SOL     OW27607   0.564   0.525   2.879
 8903SOL    HW127608   0.616   0.440   2.871
 8903SOL    HW227609   0.622   0.596   2.919
 8904SOL     OW27610   1.483   4.733   3.278
 8904SOL    HW127611   1.550   4.748   3.351
 8904SOL    HW227612   1.530   4.726   3.190
 8905SOL     OW27613   2.267   4.238   4.900
 8905SOL    HW127614   2.195   4.293   4.943
 8905SOL    HW227615   2.276   4.151   4.947
 8906SOL     OW27616   1.616   5.198   4.446
 8906SOL    HW127617   1.640   5.105   4.473
 8906SOL    HW227618   1.648   5.262   4.515
 8907SOL     OW27619   3.979   2.770   6.566
 8907SOL    HW127620   3.923   2.850   6.546
 8907SOL    HW227621   4.076   2.795   6.566
 8908SOL     OW27622   0.366   2.526   2.245
 8908SOL    HW127623   0.350   2.602   2.182
 8908SOL    HW227624   0.357   2.559   2.339
 8909SOL     OW27625   3.146   0.244   5.529
 8909SOL    HW127626   3.163   0.150   5.559
 8909SOL    HW227627   3.131   0.246   5.430
 8910SOL     OW27628   3.830   2.779   6.973
 8910SOL    HW127629   3.748   2.734   7.009
 8910SOL    HW227630   3.876   2.719   6.908
 8911SOL     OW27631   4.484   1.988   3.746
 8911SOL    HW127632   4.537   1.969   3.828
 8911SOL    HW227633   4.490   2.086   3.724
 8912SOL     OW27634   5.444   1.896   6.849
 8912SOL    HW127635   5.425   1.894   6.948
 8912SOL    HW227636   5.364   1.861   6.800
 8913SOL     OW27637   4.430   4.274   1.155
 8913SOL    HW127638   4.350   4.216   1.172
 8913SOL    HW227639   4.401   4.357   1.107
 8914SOL     OW27640   4.806   2.107   3.581
 8914SOL    HW127641   4.814   2.125   3.679
 8914SOL    HW227642   4.836   2.013   3.562
 8915SOL     OW27643   1.116   5.678   2.545
 8915SOL    HW127644   1.210   5.709   2.535
 8915SOL    HW227645   1.106   5.588   2.503
 8916SOL     OW27646   5.943   3.313   2.274
 8916SOL    HW127647   5.985   3.289   2.362
 8916SOL    HW227648   6.006   3.372   2.223
 8917SOL     OW27649   5.251   5.439   5.046
 8917SOL    HW127650   5.344   5.440   5.009
 8917SOL    HW227651   5.221   5.532   5.062
 8918SOL     OW27652   4.707   4.225   6.138
 8918SOL    HW127653   4.766   4.186   6.068
 8918SOL    HW227654   4.643   4.289   6.095
 8919SOL     OW27655   2.541   3.284   1.450
 8919SOL    HW127656   2.482   3.212   1.413
 8919SOL    HW227657   2.550   3.357   1.382
 8920SOL     OW27658   6.811   5.303   5.615
 8920SOL    HW127659   6.842   5.219   5.659
 8920SOL    HW227660   6.775   5.282   5.524
 8921SOL     OW27661   1.334   5.663   3.884
 8921SOL    HW127662   1.272   5.739   3.862
 8921SOL    HW227663   1.312   5.585   3.825
 8922SOL     OW27664   6.624   4.054   6.851
 8922SOL    HW127665   6.585   4.069   6.942
 8922SOL    HW227666   6.713   4.099   6.845
 8923SOL     OW27667   2.288   4.138   4.283
 8923SOL    HW127668   2.343   4.192   4.346
 8923SOL    HW227669   2.294   4.041   4.308
 8924SOL     OW27670   2.464   5.444   5.146
 8924SOL    HW127671   2.447   5.505   5.224
 8924SOL    HW227672   2.378   5.402   5.117
 8925SOL     OW27673   4.831   6.062   1.595
 8925SOL    HW127674   4.781   6.018   1.669
 8925SOL    HW227675   4.821   6.007   1.511
 8926SOL     OW27676   5.324   0.704   6.876
 8926SOL    HW127677   5.228   0.687   6.852
 8926SOL    HW227678   5.371   0.746   6.799
 8927SOL     OW27679   2.756   1.491   4.387
 8927SOL    HW127680   2.841   1.526   4.347
 8927SOL    HW227681   2.686   1.563   4.383
 8928SOL     OW27682   0.625   0.405   4.523
 8928SOL    HW127683   0.613   0.385   4.426
 8928SOL    HW227684   0.541   0.444   4.560
 8929SOL     OW27685   5.176   4.575   3.845
 8929SOL    HW127686   5.094   4.583   3.789
 8929SOL    HW227687   5.242   4.514   3.800
 8930SOL     OW27688   0.698   5.016   5.418
 8930SOL    HW127689   0.797   5.029   5.406
 8930SOL    HW227690   0.681   4.964   5.502
 8931SOL     OW27691   4.897   1.232   1.792
 8931SOL    HW127692   4.909   1.305   1.725
 8931SOL    HW227693   4.952   1.251   1.873
 8932SOL     OW27694   6.078   0.497   0.054
 8932SOL    HW127695   6.163   0.532   0.093
 8932SOL    HW227696   6.038   0.565   7.016
 8933SOL     OW27697   1.167   0.377   5.521
 8933SOL    HW127698   1.172   0.475   5.503
 8933SOL    HW227699   1.089   0.358   5.581
 8934SOL     OW27700   4.368   6.792   3.371
 8934SOL    HW127701   4.327   6.833   3.451
 8934SOL    HW227702   4.384   6.694   3.387
 8935SOL     OW27703   5.568   1.746   2.783
 8935SOL    HW127704   5.567   1.685   2.863
 8935SOL    HW227705   5.640   1.716   2.720
 8936SOL     OW27706   1.801   4.045   2.806
 8936SOL    HW127707   1.701   4.036   2.807
 8936SOL    HW227708   1.830   4.075   2.715
 8937SOL     OW27709   4.546   0.161   5.112
 8937SOL    HW127710   4.461   0.200   5.075
 8937SOL    HW227711   4.530   0.068   5.143
 8938SOL     OW27712   5.685   6.622   1.226
 8938SOL    HW127713   5.626   6.541   1.222
 8938SOL    HW227714   5.628   6.704   1.229
 8939SOL     OW27715   0.649   3.120   4.358
 8939SOL    HW127716   0.670   3.114   4.455
 8939SOL    HW227717   0.571   3.182   4.344
 8940SOL     OW27718   6.611   3.330   2.010
 8940SOL    HW127719   6.634   3.297   2.101
 8940SOL    HW227720   6.515   3.310   1.991
 8941SOL     OW27721   5.716   2.069   3.253
 8941SOL    HW127722   5.670   2.155   3.273
 8941SOL    HW227723   5.649   1.998   3.232
 8942SOL     OW27724   4.929   4.312   3.721
 8942SOL    HW127725   4.928   4.404   3.680
 8942SOL    HW227726   4.955   4.318   3.817
 8943SOL     OW27727   4.484   2.824   0.477
 8943SOL    HW127728   4.400   2.796   0.431
 8943SOL    HW227729   4.520   2.907   0.434
 8944SOL     OW27730   4.010   5.653   5.563
 8944SOL    HW127731   4.013   5.555   5.582
 8944SOL    HW227732   4.000   5.703   5.650
 8945SOL     OW27733   6.434   4.248   2.311
 8945SOL    HW127734   6.426   4.178   2.382
 8945SOL    HW227735   6.527   4.285   2.310
 8946SOL     OW27736   4.147   1.745   4.709
 8946SOL    HW127737   4.072   1.810   4.695
 8946SOL    HW227738   4.111   1.652   4.713
 8947SOL     OW27739   2.135   4.381   0.890
 8947SOL    HW127740   2.174   4.391   0.798
 8947SOL    HW227741   2.035   4.387   0.884
 8948SOL     OW27742   5.515   0.393   3.076
 8948SOL    HW127743   5.552   0.484   3.091
 8948SOL    HW227744   5.572   0.344   3.010
 8949SOL     OW27745   3.417   6.357   0.814
 8949SOL    HW127746   3.345   6.367   0.883
 8949SOL    HW227747   3.474   6.278   0.836
 8950SOL     OW27748   3.236   3.817   2.710
 8950SOL    HW127749   3.270   3.736   2.664
 8950SOL    HW227750   3.248   3.897   2.650
 8951SOL     OW27751   0.712   0.925   4.258
 8951SOL    HW127752   0.736   0.828   4.249
 8951SOL    HW227753   0.663   0.939   4.344
 8952SOL     OW27754   1.920   4.473   4.459
 8952SOL    HW127755   1.858   4.444   4.386
 8952SOL    HW227756   1.917   4.573   4.468
 8953SOL     OW27757   0.692   5.083   1.405
 8953SOL    HW127758   0.708   5.046   1.314
 8953SOL    HW227759   0.647   5.014   1.462
 8954SOL     OW27760   2.094   4.043   5.413
 8954SOL    HW127761   2.184   4.072   5.381
 8954SOL    HW227762   2.079   4.078   5.505
 8955SOL     OW27763   5.715   2.983   5.439
 8955SOL    HW127764   5.771   2.999   5.358
 8955SOL    HW227765   5.635   2.928   5.414
 8956SOL     OW27766   0.736   6.003   1.110
 8956SOL    HW127767   0.829   5.972   1.093
 8956SOL    HW227768   0.684   5.929   1.153
 8957SOL     OW27769   1.265   6.819   2.592
 8957SOL    HW127770   1.328   6.876   2.540
 8957SOL    HW227771   1.278   6.836   2.690
 8958SOL     OW27772   0.236   3.980   4.646
 8958SOL    HW127773   0.289   3.976   4.561
 8958SOL    HW227774   0.177   3.900   4.652
 8959SOL     OW27775   5.659   2.234   4.045
 8959SOL    HW127776   5.726   2.221   4.118
 8959SOL    HW227777   5.582   2.289   4.079
 8960SOL     OW27778   5.337   5.099   3.103
 8960SOL    HW127779   5.317   5.121   3.007
 8960SOL    HW227780   5.284   5.019   3.130
 8961SOL     OW27781   2.803   1.561   5.119
 8961SOL    HW127782   2.778   1.655   5.142
 8961SOL    HW227783   2.721   1.505   5.114
 8962SOL     OW27784   6.468   5.844   2.160
 8962SOL    HW127785   6.396   5.913   2.146
 8962SOL    HW227786   6.473   5.784   2.080
 8963SOL     OW27787   2.680   6.101   5.805
 8963SOL    HW127788   2.590   6.076   5.770
 8963SOL    HW227789   2.741   6.124   5.729
 8964SOL     OW27790   1.791   3.170   3.385
 8964SOL    HW127791   1.769   3.266   3.397
 8964SOL    HW227792   1.837   3.135   3.467
 8965SOL     OW27793   4.304   5.926   0.604
 8965SOL    HW127794   4.256   5.927   0.516
 8965SOL    HW227795   4.254   5.982   0.670
 8966SOL     OW27796   5.264   6.724   5.521
 8966SOL    HW127797   5.201   6.655   5.558
 8966SOL    HW227798   5.216   6.779   5.453
 8967SOL     OW27799   2.459   0.369   2.999
 8967SOL    HW127800   2.431   0.331   3.088
 8967SOL    HW227801   2.379   0.405   2.951
 8968SOL     OW27802   3.745   4.858   2.565
 8968SOL    HW127803   3.769   4.843   2.661
 8968SOL    HW227804   3.646   4.869   2.556
 8969SOL     OW27805   6.611   1.273   2.882
 8969SOL    HW127806   6.571   1.218   2.956
 8969SOL    HW227807   6.699   1.309   2.912
 8970SOL     OW27808   2.178   0.783   3.273
 8970SOL    HW127809   2.103   0.815   3.331
 8970SOL    HW227810   2.263   0.828   3.301
 8971SOL     OW27811   3.204   3.931   0.902
 8971SOL    HW127812   3.207   3.922   1.002
 8971SOL    HW227813   3.120   3.978   0.876
 8972SOL     OW27814   5.240   4.248   6.720
 8972SOL    HW127815   5.260   4.332   6.670
 8972SOL    HW227816   5.261   4.169   6.662
 8973SOL     OW27817   2.578   1.958   2.897
 8973SOL    HW127818   2.641   1.887   2.927
 8973SOL    HW227819   2.618   2.009   2.822
 8974SOL     OW27820   1.944   4.010   4.468
 8974SOL    HW127821   1.928   4.035   4.372
 8974SOL    HW227822   1.971   4.091   4.520
 8975SOL     OW27823   6.784   4.103   5.934
 8975SOL    HW127824   6.784   4.016   5.883
 8975SOL    HW227825   6.695   4.116   5.977
 8976SOL     OW27826   5.871   0.463   1.688
 8976SOL    HW127827   5.971   0.459   1.681
 8976SOL    HW227828   5.843   0.450   1.783
 8977SOL     OW27829   6.886   4.572   6.437
 8977SOL    HW127830   6.795   4.612   6.431
 8977SOL    HW227831   6.888   4.504   6.510
 8978SOL     OW27832   6.214   5.433   5.477
 8978SOL    HW127833   6.311   5.450   5.493
 8978SOL    HW227834   6.191   5.342   5.511
 8979SOL     OW27835   1.805   5.251   3.510
 8979SOL    HW127836   1.744   5.330   3.516
 8979SOL    HW227837   1.883   5.264   3.572
 8980SOL     OW27838   3.900   0.851   0.538
 8980SOL    HW127839   3.920   0.816   0.629
 8980SOL    HW227840   3.806   0.826   0.512
 8981SOL     OW27841   4.124   2.312   6.786
 8981SOL    HW127842   4.127   2.344   6.881
 8981SOL    HW227843   4.203   2.348   6.737
 8982SOL     OW27844   0.019   1.479   1.799
 8982SOL    HW127845   7.007   1.452   1.888
 8982SOL    HW227846   0.116   1.456   1.794
 8983SOL     OW27847   1.481   6.918   2.496
 8983SOL    HW127848   1.484   7.017   2.486
 8983SOL    HW227849   1.532   6.876   2.421
 8984SOL     OW27850   0.164   1.928   4.640
 8984SOL    HW127851   0.132   1.929   4.545
 8984SOL    HW227852   0.103   1.871   4.695
 8985SOL     OW27853   4.494   1.232   1.948
 8985SOL    HW127854   4.503   1.277   2.037
 8985SOL    HW227855   4.489   1.302   1.876
 8986SOL     OW27856   0.117   6.140   0.153
 8986SOL    HW127857   0.055   6.063   0.171
 8986SOL    HW227858   0.164   6.165   0.237
 8987SOL     OW27859   2.172   6.552   1.970
 8987SOL    HW127860   2.217   6.580   2.055
 8987SOL    HW227861   2.193   6.618   1.898
 8988SOL     OW27862   2.481   0.023   1.106
 8988SOL    HW127863   2.496   0.082   1.185
 8988SOL    HW227864   2.450   0.078   1.028
 8989SOL     OW27865   6.065   1.195   2.849
 8989SOL    HW127866   6.143   1.142   2.882
 8989SOL    HW227867   5.999   1.133   2.807
 8990SOL     OW27868   3.321   1.116   2.982
 8990SOL    HW127869   3.252   1.184   2.956
 8990SOL    HW227870   3.395   1.115   2.915
 8991SOL     OW27871   1.454   2.598   0.590
 8991SOL    HW127872   1.392   2.543   0.646
 8991SOL    HW227873   1.535   2.622   0.643
 8992SOL     OW27874   6.569   4.459   6.164
 8992SOL    HW127875   6.588   4.364   6.188
 8992SOL    HW227876   6.528   4.505   6.242
 8993SOL     OW27877   5.377   4.235   3.944
 8993SOL    HW127878   5.315   4.166   3.907
 8993SOL    HW227879   5.447   4.191   3.999
 8994SOL     OW27880   1.236   6.706   3.088
 8994SOL    HW127881   1.324   6.658   3.093
 8994SOL    HW227882   1.166   6.644   3.054
 8995SOL     OW27883   2.120   3.934   3.919
 8995SOL    HW127884   2.105   3.888   4.006
 8995SOL    HW227885   2.157   4.025   3.935
 8996SOL     OW27886   2.237   3.541   1.316
 8996SOL    HW127887   2.194   3.624   1.282
 8996SOL    HW227888   2.336   3.547   1.301
 8997SOL     OW27889   4.333   0.483   5.122
 8997SOL    HW127890   4.319   0.412   5.053
 8997SOL    HW227891   4.431   0.498   5.135
 8998SOL     OW27892   1.052   1.612   6.369
 8998SOL    HW127893   1.126   1.545   6.370
 8998SOL    HW227894   1.086   1.699   6.334
 8999SOL     OW27895   5.076   2.913   5.739
 8999SOL    HW127896   5.059   2.996   5.685
 8999SOL    HW227897   5.128   2.847   5.684
 9000SOL     OW27898   3.536   4.902   1.026
 9000SOL    HW127899   3.576   4.834   1.088
 9000SOL    HW227900   3.528   4.990   1.075
 9001SOL     OW27901   1.892   4.725   3.204
 9001SOL    HW127902   1.878   4.670   3.121
 9001SOL    HW227903   1.980   4.772   3.198
 9002SOL     OW27904   5.270   4.042   5.594
 9002SOL    HW127905   5.215   3.986   5.532
 9002SOL    HW227906   5.303   3.986   5.669
 9003SOL     OW27907   6.307   3.284   6.864
 9003SOL    HW127908   6.349   3.194   6.870
 9003SOL    HW227909   6.350   3.346   6.929
 9004SOL     OW27910   4.661   5.520   1.315
 9004SOL    HW127911   4.669   5.422   1.296
 9004SOL    HW227912   4.711   5.541   1.399
 9005SOL     OW27913   5.287   3.067   3.743
 9005SOL    HW127914   5.225   3.102   3.813
 9005SOL    HW227915   5.247   2.985   3.700
 9006SOL     OW27916   1.815   6.808   0.849
 9006SOL    HW127917   1.836   6.712   0.828
 9006SOL    HW227918   1.894   6.851   0.891
 9007SOL     OW27919   1.922   5.772   4.988
 9007SOL    HW127920   1.958   5.689   4.947
 9007SOL    HW227921   1.863   5.819   4.922
 9008SOL     OW27922   0.450   4.699   2.490
 9008SOL    HW127923   0.375   4.695   2.424
 9008SOL    HW227924   0.535   4.723   2.444
 9009SOL     OW27925   3.784   5.909   0.144
 9009SOL    HW127926   3.713   5.920   0.213
 9009SOL    HW227927   3.868   5.876   0.187
 9010SOL     OW27928   6.886   5.434   4.695
 9010SOL    HW127929   6.928   5.348   4.726
 9010SOL    HW227930   6.925   5.459   4.606
 9011SOL     OW27931   4.554   2.458   2.298
 9011SOL    HW127932   4.593   2.504   2.218
 9011SOL    HW227933   4.565   2.517   2.378
 9012SOL     OW27934   5.245   5.056   2.823
 9012SOL    HW127935   5.213   4.995   2.751
 9012SOL    HW227936   5.229   5.151   2.796
 9013SOL     OW27937   4.458   6.098   2.533
 9013SOL    HW127938   4.368   6.122   2.568
 9013SOL    HW227939   4.522   6.173   2.553
 9014SOL     OW27940   1.922   0.345   1.292
 9014SOL    HW127941   1.917   0.357   1.391
 9014SOL    HW227942   1.871   0.418   1.246
 9015SOL     OW27943   6.286   1.605   4.875
 9015SOL    HW127944   6.368   1.564   4.915
 9015SOL    HW227945   6.247   1.671   4.939
 9016SOL     OW27946   6.795   5.700   6.394
 9016SOL    HW127947   6.828   5.612   6.426
 9016SOL    HW227948   6.780   5.696   6.295
 9017SOL     OW27949   0.040   3.728   2.890
 9017SOL    HW127950   0.059   3.731   2.792
 9017SOL    HW227951   0.125   3.710   2.941
 9018SOL     OW27952   4.515   1.850   6.152
 9018SOL    HW127953   4.434   1.903   6.178
 9018SOL    HW227954   4.494   1.752   6.160
 9019SOL     OW27955   1.644   5.264   0.271
 9019SOL    HW127956   1.736   5.304   0.268
 9019SOL    HW227957   1.640   5.198   0.346
 9020SOL     OW27958   0.820   5.030   3.749
 9020SOL    HW127959   0.844   5.094   3.676
 9020SOL    HW227960   0.747   4.969   3.718
 9021SOL     OW27961   5.514   5.263   5.508
 9021SOL    HW127962   5.544   5.343   5.561
 9021SOL    HW227963   5.499   5.186   5.570
 9022SOL     OW27964   2.986   6.821   6.902
 9022SOL    HW127965   3.070   6.791   6.945
 9022SOL    HW227966   2.965   6.761   6.824
 9023SOL     OW27967   3.207   3.162   3.850
 9023SOL    HW127968   3.272   3.237   3.839
 9023SOL    HW227969   3.163   3.143   3.762
 9024SOL     OW27970   1.309   0.631   6.440
 9024SOL    HW127971   1.237   0.656   6.505
 9024SOL    HW227972   1.348   0.542   6.467
 9025SOL     OW27973   0.373   3.829   0.095
 9025SOL    HW127974   0.408   3.851   0.004
 9025SOL    HW227975   0.374   3.730   0.108
 9026SOL     OW27976   2.746   3.149   5.547
 9026SOL    HW127977   2.745   3.214   5.471
 9026SOL    HW227978   2.654   3.144   5.587
 9027SOL     OW27979   2.334   2.679   2.675
 9027SOL    HW127980   2.403   2.659   2.605
 9027SOL    HW227981   2.372   2.662   2.766
 9028SOL     OW27982   2.786   4.718   4.480
 9028SOL    HW127983   2.861   4.762   4.431
 9028SOL    HW227984   2.802   4.727   4.579
 9029SOL     OW27985   5.803   5.217   2.350
 9029SOL    HW127986   5.782   5.220   2.448
 9029SOL    HW227987   5.757   5.293   2.304
 9030SOL     OW27988   3.920   2.056   2.067
 9030SOL    HW127989   3.851   2.123   2.038
 9030SOL    HW227990   4.010   2.098   2.065
 9031SOL     OW27991   1.969   1.528   1.053
 9031SOL    HW127992   2.059   1.519   1.095
 9031SOL    HW227993   1.903   1.473   1.103
 9032SOL     OW27994   0.495   2.859   1.946
 9032SOL    HW127995   0.538   2.931   1.892
 9032SOL    HW227996   0.546   2.846   2.031
 9033SOL     OW27997   1.300   3.933   2.236
 9033SOL    HW127998   1.382   3.915   2.290
 9033SOL    HW227999   1.275   4.030   2.244
 9034SOL     OW28000   1.878   6.787   6.822
 9034SOL    HW128001   1.951   6.839   6.776
 9034SOL    HW228002   1.834   6.727   6.757
 9035SOL     OW28003   6.775   0.862   4.619
 9035SOL    HW128004   6.730   0.780   4.653
 9035SOL    HW228005   6.826   0.905   4.693
 9036SOL     OW28006   1.064   1.511   4.026
 9036SOL    HW128007   1.006   1.545   3.952
 9036SOL    HW228008   1.036   1.551   4.113
 9037SOL     OW28009   2.736   3.823   6.093
 9037SOL    HW128010   2.673   3.816   6.015
 9037SOL    HW228011   2.830   3.828   6.059
 9038SOL     OW28012   4.335   5.358   5.310
 9038SOL    HW128013   4.253   5.301   5.307
 9038SOL    HW228014   4.311   5.453   5.290
 9039SOL     OW28015   2.488   4.350   6.771
 9039SOL    HW128016   2.413   4.311   6.718
 9039SOL    HW228017   2.559   4.280   6.784
 9040SOL     OW28018   2.432   2.076   2.002
 9040SOL    HW128019   2.529   2.054   2.012
 9040SOL    HW228020   2.422   2.159   1.947
 9041SOL     OW28021   1.854   2.899   6.036
 9041SOL    HW128022   1.929   2.954   6.000
 9041SOL    HW228023   1.877   2.869   6.129
 9042SOL     OW28024   1.736   5.206   3.154
 9042SOL    HW128025   1.742   5.125   3.096
 9042SOL    HW228026   1.643   5.216   3.189
 9043SOL     OW28027   6.974   2.306   6.972
 9043SOL    HW128028   6.991   2.355   6.887
 9043SOL    HW228029   6.889   2.339   7.013
 9044SOL     OW28030   0.218   4.192   0.223
 9044SOL    HW128031   0.312   4.224   0.212
 9044SOL    HW228032   0.218   4.104   0.270
 9045SOL     OW28033   2.530   4.995   4.161
 9045SOL    HW128034   2.579   4.929   4.218
 9045SOL    HW228035   2.490   5.066   4.218
 9046SOL     OW28036   3.573   4.467   6.448
 9046SOL    HW128037   3.654   4.502   6.401
 9046SOL    HW228038   3.551   4.527   6.525
 9047SOL     OW28039   0.826   4.310   4.805
 9047SOL    HW128040   0.855   4.403   4.782
 9047SOL    HW228041   0.824   4.254   4.723
 9048SOL     OW28042   1.720   1.819   5.296
 9048SOL    HW128043   1.793   1.836   5.230
 9048SOL    HW228044   1.648   1.764   5.253
 9049SOL     OW28045   4.909   6.522   6.475
 9049SOL    HW128046   4.978   6.489   6.411
 9049SOL    HW228047   4.952   6.582   6.542
 9050SOL     OW28048   0.036   5.486   5.636
 9050SOL    HW128049   0.110   5.483   5.703
 9050SOL    HW228050   6.993   5.414   5.656
 9051SOL     OW28051   5.574   6.556   6.279
 9051SOL    HW128052   5.622   6.624   6.223
 9051SOL    HW228053   5.512   6.504   6.220
 9052SOL     OW28054   2.870   4.802   4.768
 9052SOL    HW128055   2.851   4.899   4.783
 9052SOL    HW228056   2.896   4.760   4.855
 9053SOL     OW28057   2.629   1.345   2.428
 9053SOL    HW128058   2.668   1.253   2.432
 9053SOL    HW228059   2.668   1.400   2.502
 9054SOL     OW28060   1.915   6.851   1.314
 9054SOL    HW128061   1.979   6.827   1.241
 9054SOL    HW228062   1.906   6.773   1.376
 9055SOL     OW28063   0.841   2.763   4.687
 9055SOL    HW128064   0.923   2.819   4.688
 9055SOL    HW228065   0.842   2.699   4.764
 9056SOL     OW28066   4.760   2.518   2.119
 9056SOL    HW128067   4.752   2.616   2.139
 9056SOL    HW228068   4.742   2.503   2.022
 9057SOL     OW28069   3.854   6.244   0.302
 9057SOL    HW128070   3.893   6.322   0.254
 9057SOL    HW228071   3.770   6.271   0.348
 9058SOL     OW28072   2.301   2.409   4.536
 9058SOL    HW128073   2.228   2.477   4.534
 9058SOL    HW228074   2.265   2.322   4.569
 9059SOL     OW28075   0.237   1.567   2.060
 9059SOL    HW128076   0.207   1.486   2.111
 9059SOL    HW228077   0.306   1.616   2.115
 9060SOL     OW28078   0.319   5.082   1.237
 9060SOL    HW128079   0.396   5.034   1.196
 9060SOL    HW228080   0.347   5.119   1.326
 9061SOL     OW28081   4.984   3.798   2.141
 9061SOL    HW128082   5.079   3.829   2.137
 9061SOL    HW228083   4.981   3.700   2.160
 9062SOL     OW28084   1.186   5.801   2.942
 9062SOL    HW128085   1.131   5.780   3.023
 9062SOL    HW228086   1.137   5.866   2.884
 9063SOL     OW28087   4.775   1.163   1.097
 9063SOL    HW128088   4.858   1.145   1.149
 9063SOL    HW228089   4.697   1.167   1.159
 9064SOL     OW28090   1.385   5.434   3.402
 9064SOL    HW128091   1.305   5.435   3.461
 9064SOL    HW228092   1.365   5.482   3.316
 9065SOL     OW28093   3.724   4.264   6.938
 9065SOL    HW128094   3.633   4.224   6.922
 9065SOL    HW228095   3.773   4.270   6.851
 9066SOL     OW28096   4.537   4.913   3.916
 9066SOL    HW128097   4.635   4.894   3.915
 9066SOL    HW228098   4.522   5.011   3.901
 9067SOL     OW28099   2.143   6.719   4.444
 9067SOL    HW128100   2.160   6.623   4.467
 9067SOL    HW228101   2.101   6.765   4.522
 9068SOL     OW28102   4.179   0.011   6.190
 9068SOL    HW128103   4.110   6.982   6.241
 9068SOL    HW228104   4.240   0.057   6.255
 9069SOL     OW28105   5.262   2.606   2.408
 9069SOL    HW128106   5.228   2.594   2.315
 9069SOL    HW228107   5.354   2.569   2.415
 9070SOL     OW28108   1.481   0.940   5.621
 9070SOL    HW128109   1.490   1.029   5.666
 9070SOL    HW228110   1.540   0.937   5.540
 9071SOL     OW28111   5.172   2.495   6.611
 9071SOL    HW128112   5.099   2.463   6.671
 9071SOL    HW228113   5.137   2.566   6.550
 9072SOL     OW28114   5.817   6.914   1.962
 9072SOL    HW128115   5.859   6.991   2.011
 9072SOL    HW228116   5.782   6.847   2.027
 9073SOL     OW28117   4.209   3.222   5.344
 9073SOL    HW128118   4.156   3.294   5.390
 9073SOL    HW228119   4.304   3.250   5.338
 9074SOL     OW28120   1.580   0.885   3.058
 9074SOL    HW128121   1.564   0.946   2.981
 9074SOL    HW228122   1.677   0.885   3.081
 9075SOL     OW28123   5.375   6.069   0.572
 9075SOL    HW128124   5.319   6.000   0.526
 9075SOL    HW228125   5.423   6.124   0.503
 9076SOL     OW28126   0.729   6.401   2.552
 9076SOL    HW128127   0.702   6.464   2.625
 9076SOL    HW228128   0.823   6.420   2.525
 9077SOL     OW28129   6.262   2.023   6.870
 9077SOL    HW128130   6.191   2.018   6.800
 9077SOL    HW228131   6.352   2.013   6.827
 9078SOL     OW28132   5.185   6.884   0.448
 9078SOL    HW128133   5.275   6.926   0.441
 9078SOL    HW228134   5.177   6.811   0.380
 9079SOL     OW28135   1.316   1.451   5.728
 9079SOL    HW128136   1.413   1.438   5.748
 9079SOL    HW228137   1.261   1.409   5.801
 9080SOL     OW28138   6.281   4.154   2.538
 9080SOL    HW128139   6.202   4.105   2.575
 9080SOL    HW228140   6.362   4.097   2.546
 9081SOL     OW28141   5.230   1.585   0.697
 9081SOL    HW128142   5.205   1.490   0.715
 9081SOL    HW228143   5.168   1.646   0.747
 9082SOL     OW28144   3.652   5.201   6.374
 9082SOL    HW128145   3.561   5.198   6.414
 9082SOL    HW228146   3.665   5.121   6.315
 9083SOL     OW28147   3.456   0.093   0.673
 9083SOL    HW128148   3.373   0.074   0.620
 9083SOL    HW228149   3.513   0.159   0.623
 9084SOL     OW28150   6.864   4.110   5.010
 9084SOL    HW128151   6.795   4.177   4.982
 9084SOL    HW228152   6.956   4.147   4.993
 9085SOL     OW28153   2.917   5.159   0.546
 9085SOL    HW128154   2.938   5.254   0.570
 9085SOL    HW228155   2.912   5.104   0.630
 9086SOL     OW28156   6.913   3.103   0.350
 9086SOL    HW128157   7.000   3.151   0.347
 9086SOL    HW228158   6.929   3.004   0.342
 9087SOL     OW28159   5.257   1.773   1.731
 9087SOL    HW128160   5.178   1.758   1.791
 9087SOL    HW228161   5.293   1.685   1.701
 9088SOL     OW28162   6.159   5.501   0.126
 9088SOL    HW128163   6.211   5.493   0.040
 9088SOL    HW228164   6.073   5.548   0.108
 9089SOL     OW28165   5.449   5.494   3.626
 9089SOL    HW128166   5.481   5.414   3.576
 9089SOL    HW228167   5.446   5.573   3.564
 9090SOL     OW28168   5.004   5.854   6.141
 9090SOL    HW128169   4.928   5.792   6.119
 9090SOL    HW228170   4.968   5.942   6.170
 9091SOL     OW28171   2.712   2.081   2.012
 9091SOL    HW128172   2.757   2.167   2.037
 9091SOL    HW228173   2.715   2.018   2.090
 9092SOL     OW28174   2.165   1.431   4.984
 9092SOL    HW128175   2.190   1.520   5.022
 9092SOL    HW228176   2.078   1.438   4.936
 9093SOL     OW28177   2.211   3.125   1.016
 9093SOL    HW128178   2.307   3.121   0.990
 9093SOL    HW228179   2.175   3.216   0.994
 9094SOL     OW28180   6.310   3.754   0.794
 9094SOL    HW128181   6.316   3.853   0.806
 9094SOL    HW228182   6.344   3.708   0.876
 9095SOL     OW28183   1.994   2.938   0.041
 9095SOL    HW128184   2.034   2.860   7.017
 9095SOL    HW228185   1.895   2.926   0.045
 9096SOL     OW28186   6.234   3.360   3.323
 9096SOL    HW128187   6.164   3.291   3.341
 9096SOL    HW228188   6.193   3.437   3.274
 9097SOL     OW28189   6.373   5.648   6.264
 9097SOL    HW128190   6.431   5.729   6.269
 9097SOL    HW228191   6.428   5.567   6.285
 9098SOL     OW28192   3.480   4.122   4.411
 9098SOL    HW128193   3.464   4.093   4.506
 9098SOL    HW228194   3.541   4.202   4.410
 9099SOL     OW28195   1.995   1.970   0.270
 9099SOL    HW128196   2.061   1.969   0.346
 9099SOL    HW228197   1.942   2.055   0.273
 9100SOL     OW28198   1.380   2.909   0.005
 9100SOL    HW128199   1.439   2.866   0.074
 9100SOL    HW228200   1.410   3.002   7.012
 9101SOL     OW28201   2.229   1.700   6.838
 9101SOL    HW128202   2.169   1.750   6.900
 9101SOL    HW228203   2.309   1.757   6.817
 9102SOL     OW28204   5.723   6.501   2.439
 9102SOL    HW128205   5.628   6.531   2.432
 9102SOL    HW228206   5.780   6.555   2.377
 9103SOL     OW28207   0.584   4.381   6.518
 9103SOL    HW128208   0.630   4.392   6.607
 9103SOL    HW228209   0.488   4.405   6.528
 9104SOL     OW28210   5.143   0.083   2.580
 9104SOL    HW128211   5.073   0.029   2.627
 9104SOL    HW228212   5.100   0.156   2.528
 9105SOL     OW28213   2.704   1.316   5.506
 9105SOL    HW128214   2.721   1.239   5.568
 9105SOL    HW228215   2.787   1.371   5.498
 9106SOL     OW28216   6.366   4.887   1.852
 9106SOL    HW128217   6.423   4.967   1.869
 9106SOL    HW228218   6.291   4.884   1.919
 9107SOL     OW28219   4.875   0.423   0.775
 9107SOL    HW128220   4.911   0.417   0.682
 9107SOL    HW228221   4.798   0.359   0.785
 9108SOL     OW28222   4.148   6.048   6.861
 9108SOL    HW128223   4.138   6.141   6.896
 9108SOL    HW228224   4.245   6.023   6.862
 9109SOL     OW28225   3.107   1.261   4.490
 9109SOL    HW128226   3.150   1.196   4.427
 9109SOL    HW228227   3.139   1.353   4.470
 9110SOL     OW28228   1.496   2.717   2.873
 9110SOL    HW128229   1.427   2.759   2.932
 9110SOL    HW228230   1.574   2.779   2.865
 9111SOL     OW28231   4.213   4.192   1.644
 9111SOL    HW128232   4.166   4.106   1.666
 9111SOL    HW228233   4.282   4.211   1.714
 9112SOL     OW28234   0.827   5.090   1.819
 9112SOL    HW128235   0.745   5.067   1.765
 9112SOL    HW228236   0.828   5.188   1.837
 9113SOL     OW28237   3.180   5.886   0.064
 9113SOL    HW128238   3.092   5.928   0.040
 9113SOL    HW228239   3.251   5.955   0.066
 9114SOL     OW28240   2.784   4.145   1.557
 9114SOL    HW128241   2.707   4.096   1.599
 9114SOL    HW228242   2.768   4.243   1.561
 9115SOL     OW28243   1.886   4.101   4.206
 9115SOL    HW128244   1.827   4.072   4.131
 9115SOL    HW228245   1.936   4.183   4.179
 9116SOL     OW28246   2.078   1.433   5.609
 9116SOL    HW128247   2.038   1.502   5.548
 9116SOL    HW228248   2.097   1.475   5.698
 9117SOL     OW28249   6.668   2.837   6.823
 9117SOL    HW128250   6.604   2.785   6.879
 9117SOL    HW228251   6.714   2.775   6.759
 9118SOL     OW28252   6.937   5.354   1.644
 9118SOL    HW128253   6.991   5.352   1.728
 9118SOL    HW228254   6.974   5.424   1.582
 9119SOL     OW28255   6.055   0.046   1.005
 9119SOL    HW128256   5.990   0.115   0.976
 9119SOL    HW228257   6.059   6.996   0.938
 9120SOL     OW28258   5.761   0.964   6.108
 9120SOL    HW128259   5.802   1.050   6.080
 9120SOL    HW228260   5.800   0.935   6.195
 9121SOL     OW28261   1.690   1.223   6.923
 9121SOL    HW128262   1.640   1.184   6.847
 9121SOL    HW228263   1.776   1.263   6.890
 9122SOL     OW28264   0.784   2.770   0.810
 9122SOL    HW128265   0.833   2.810   0.887
 9122SOL    HW228266   0.709   2.831   0.784
 9123SOL     OW28267   2.768   6.034   6.826
 9123SOL    HW128268   2.682   5.996   6.861
 9123SOL    HW228269   2.748   6.107   6.761
 9124SOL     OW28270   5.937   4.733   6.003
 9124SOL    HW128271   5.895   4.769   5.921
 9124SOL    HW228272   5.983   4.646   5.982
 9125SOL     OW28273   4.807   5.998   2.188
 9125SOL    HW128274   4.871   5.925   2.164
 9125SOL    HW228275   4.843   6.049   2.266
 9126SOL     OW28276   5.769   0.511   2.293
 9126SOL    HW128277   5.830   0.557   2.357
 9126SOL    HW228278   5.823   0.460   2.226
 9127SOL     OW28279   5.245   6.787   6.768
 9127SOL    HW128280   5.227   6.721   6.841
 9127SOL    HW228281   5.340   6.779   6.739
 9128SOL     OW28282   4.698   2.688   4.910
 9128SOL    HW128283   4.757   2.607   4.913
 9128SOL    HW228284   4.721   2.748   4.987
 9129SOL     OW28285   1.994   1.663   6.436
 9129SOL    HW128286   2.060   1.722   6.390
 9129SOL    HW228287   1.907   1.665   6.386
 9130SOL     OW28288   6.171   5.490   0.877
 9130SOL    HW128289   6.207   5.503   0.784
 9130SOL    HW228290   6.097   5.555   0.893
 9131SOL     OW28291   0.271   4.296   4.072
 9131SOL    HW128292   0.222   4.243   4.002
 9131SOL    HW228293   0.207   4.323   4.143
 9132SOL     OW28294   1.338   3.004   4.691
 9132SOL    HW128295   1.396   2.924   4.672
 9132SOL    HW228296   1.378   3.057   4.765
 9133SOL     OW28297   1.627   4.506   1.022
 9133SOL    HW128298   1.618   4.481   1.118
 9133SOL    HW228299   1.694   4.579   1.012
 9134SOL     OW28300   3.036   4.952   5.943
 9134SOL    HW128301   3.106   4.888   5.912
 9134SOL    HW228302   3.079   5.040   5.964
 9135SOL     OW28303   0.200   6.095   4.151
 9135SOL    HW128304   0.281   6.084   4.209
 9135SOL    HW228305   0.209   6.038   4.070
 9136SOL     OW28306   4.168   5.097   5.993
 9136SOL    HW128307   4.129   5.120   6.083
 9136SOL    HW228308   4.198   5.002   5.993
 9137SOL     OW28309   3.982   1.216   2.503
 9137SOL    HW128310   4.008   1.286   2.436
 9137SOL    HW228311   3.916   1.154   2.462
 9138SOL     OW28312   3.587   4.616   1.046
 9138SOL    HW128313   3.655   4.658   0.985
 9138SOL    HW228314   3.518   4.570   0.992
 9139SOL     OW28315   3.386   1.331   5.424
 9139SOL    HW128316   3.311   1.396   5.419
 9139SOL    HW228317   3.465   1.373   5.469
 9140SOL     OW28318   7.021   2.463   3.499
 9140SOL    HW128319   7.018   2.474   3.599
 9140SOL    HW228320   6.941   2.411   3.469
 9141SOL     OW28321   5.699   0.706   5.627
 9141SOL    HW128322   5.645   0.763   5.565
 9141SOL    HW228323   5.723   0.759   5.708
 9142SOL     OW28324   0.700   3.819   6.309
 9142SOL    HW128325   0.636   3.876   6.360
 9142SOL    HW228326   0.793   3.855   6.319
 9143SOL     OW28327   5.168   4.143   1.201
 9143SOL    HW128328   5.125   4.061   1.240
 9143SOL    HW228329   5.167   4.216   1.270
 9144SOL     OW28330   1.818   4.750   5.096
 9144SOL    HW128331   1.907   4.756   5.052
 9144SOL    HW228332   1.792   4.654   5.105
 9145SOL     OW28333   0.461   4.244   6.820
 9145SOL    HW128334   0.434   4.340   6.810
 9145SOL    HW228335   0.397   4.198   6.880
 9146SOL     OW28336   6.997   1.688   1.376
 9146SOL    HW128337   6.937   1.685   1.456
 9146SOL    HW228338   7.004   1.782   1.343
 9147SOL     OW28339   4.270   6.360   6.059
 9147SOL    HW128340   4.173   6.372   6.040
 9147SOL    HW228341   4.299   6.270   6.027
 9148SOL     OW28342   4.258   5.863   3.104
 9148SOL    HW128343   4.351   5.853   3.068
 9148SOL    HW228344   4.238   5.960   3.118
 9149SOL     OW28345   5.836   3.540   3.753
 9149SOL    HW128346   5.742   3.541   3.787
 9149SOL    HW228347   5.890   3.607   3.803
 9150SOL     OW28348   4.436   1.191   3.333
 9150SOL    HW128349   4.401   1.153   3.248
 9150SOL    HW228350   4.464   1.286   3.319
 9151SOL     OW28351   1.582   3.619   2.426
 9151SOL    HW128352   1.509   3.551   2.437
 9151SOL    HW228353   1.660   3.576   2.379
 9152SOL     OW28354   2.428   5.700   2.521
 9152SOL    HW128355   2.477   5.679   2.605
 9152SOL    HW228356   2.334   5.665   2.527
 9153SOL     OW28357   1.343   3.284   6.062
 9153SOL    HW128358   1.404   3.211   6.031
 9153SOL    HW228359   1.379   3.325   6.146
 9154SOL     OW28360   2.106   5.968   0.598
 9154SOL    HW128361   2.066   5.967   0.689
 9154SOL    HW228362   2.126   5.875   0.569
 9155SOL     OW28363   1.628   4.180   0.214
 9155SOL    HW128364   1.665   4.116   0.281
 9155SOL    HW228365   1.660   4.155   0.122
 9156SOL     OW28366   5.255   2.769   1.878
 9156SOL    HW128367   5.263   2.710   1.798
 9156SOL    HW228368   5.160   2.773   1.908
 9157SOL     OW28369   5.028   3.947   5.743
 9157SOL    HW128370   4.947   3.982   5.697
 9157SOL    HW228371   5.106   4.004   5.722
 9158SOL     OW28372   0.675   4.087   3.341
 9158SOL    HW128373   0.690   4.074   3.244
 9158SOL    HW228374   0.703   4.006   3.391
 9159SOL     OW28375   6.976   3.941   3.078
 9159SOL    HW128376   0.020   4.004   3.114
 9159SOL    HW228377   7.020   3.855   3.050
 9160SOL     OW28378   6.809   0.016   6.786
 9160SOL    HW128379   6.842   0.015   6.692
 9160SOL    HW228380   6.711   0.039   6.787
 9161SOL     OW28381   5.270   3.836   4.258
 9161SOL    HW128382   5.207   3.763   4.234
 9161SOL    HW228383   5.264   3.909   4.189
 9162SOL     OW28384   5.106   2.281   2.289
 9162SOL    HW128385   5.023   2.331   2.313
 9162SOL    HW228386   5.182   2.312   2.346
 9163SOL     OW28387   3.101   1.788   3.850
 9163SOL    HW128388   3.159   1.840   3.787
 9163SOL    HW228389   3.118   1.820   3.944
 9164SOL     OW28390   3.288   6.867   0.412
 9164SOL    HW128391   3.337   6.784   0.440
 9164SOL    HW228392   3.190   6.847   0.406
 9165SOL     OW28393   5.565   6.605   0.285
 9165SOL    HW128394   5.468   6.609   0.310
 9165SOL    HW228395   5.621   6.627   0.366
 9166SOL     OW28396   3.080   5.491   1.458
 9166SOL    HW128397   3.139   5.572   1.465
 9166SOL    HW228398   3.025   5.497   1.374
 9167SOL     OW28399   1.168   4.246   4.853
 9167SOL    HW128400   1.100   4.263   4.782
 9167SOL    HW228401   1.179   4.147   4.866
 9168SOL     OW28402   2.260   0.134   6.408
 9168SOL    HW128403   2.175   0.128   6.460
 9168SOL    HW228404   2.336   0.155   6.471
 9169SOL     OW28405   6.727   6.756   3.342
 9169SOL    HW128406   6.678   6.797   3.419
 9169SOL    HW228407   6.819   6.730   3.372
 9170SOL     OW28408   6.474   5.918   7.013
 9170SOL    HW128409   6.472   6.000   6.956
 9170SOL    HW228410   6.473   5.944   0.086
 9171SOL     OW28411   2.641   5.695   6.146
 9171SOL    HW128412   2.710   5.669   6.213
 9171SOL    HW228413   2.683   5.747   6.072
 9172SOL     OW28414   2.879   1.882   4.166
 9172SOL    HW128415   2.843   1.789   4.165
 9172SOL    HW228416   2.858   1.928   4.079
 9173SOL     OW28417   0.295   5.142   4.925
 9173SOL    HW128418   0.381   5.191   4.911
 9173SOL    HW228419   0.284   5.121   5.022
 9174SOL     OW28420   0.522   5.007   0.288
 9174SOL    HW128421   0.571   5.094   0.285
 9174SOL    HW228422   0.443   5.015   0.349
 9175SOL     OW28423   1.307   6.903   5.338
 9175SOL    HW128424   1.265   6.921   5.426
 9175SOL    HW228425   1.406   6.892   5.350
 9176SOL     OW28426   2.149   0.755   5.622
 9176SOL    HW128427   2.073   0.692   5.637
 9176SOL    HW228428   2.171   0.802   5.708
 9177SOL     OW28429   0.973   4.992   3.979
 9177SOL    HW128430   1.060   4.946   3.959
 9177SOL    HW228431   0.924   5.009   3.893
 9178SOL     OW28432   2.455   4.593   0.538
 9178SOL    HW128433   2.503   4.518   0.492
 9178SOL    HW228434   2.516   4.635   0.604
 9179SOL     OW28435   3.259   4.885   4.698
 9179SOL    HW128436   3.218   4.794   4.706
 9179SOL    HW228437   3.342   4.890   4.753
 9180SOL     OW28438   4.916   2.012   3.099
 9180SOL    HW128439   4.861   2.069   3.039
 9180SOL    HW228440   4.960   1.940   3.045
 9181SOL     OW28441   4.230   1.027   2.260
 9181SOL    HW128442   4.313   0.971   2.256
 9181SOL    HW228443   4.170   1.003   2.184
 9182SOL     OW28444   1.356   6.887   1.651
 9182SOL    HW128445   1.400   6.800   1.628
 9182SOL    HW228446   1.385   6.917   1.742
 9183SOL     OW28447   5.488   5.867   0.165
 9183SOL    HW128448   5.394   5.887   0.137
 9183SOL    HW228449   5.489   5.838   0.260
 9184SOL     OW28450   4.877   0.208   0.522
 9184SOL    HW128451   4.948   0.278   0.515
 9184SOL    HW228452   4.909   0.133   0.579
 9185SOL     OW28453   4.005   1.466   5.324
 9185SOL    HW128454   3.935   1.427   5.264
 9185SOL    HW228455   4.031   1.557   5.291
 9186SOL     OW28456   5.399   0.341   6.431
 9186SOL    HW128457   5.356   0.251   6.434
 9186SOL    HW228458   5.469   0.347   6.502
 9187SOL     OW28459   2.366   6.181   2.150
 9187SOL    HW128460   2.426   6.101   2.147
 9187SOL    HW228461   2.373   6.224   2.240
 9188SOL     OW28462   2.622   6.173   1.464
 9188SOL    HW128463   2.674   6.111   1.522
 9188SOL    HW228464   2.677   6.199   1.385
 9189SOL     OW28465   5.365   5.215   2.188
 9189SOL    HW128466   5.393   5.194   2.281
 9189SOL    HW228467   5.265   5.221   2.183
 9190SOL     OW28468   1.799   4.956   0.650
 9190SOL    HW128469   1.763   4.905   0.727
 9190SOL    HW228470   1.824   4.892   0.577
 9191SOL     OW28471   0.008   0.785   6.064
 9191SOL    HW128472   7.002   0.856   6.129
 9191SOL    HW228473   6.952   0.747   6.017
 9192SOL     OW28474   6.894   3.907   3.916
 9192SOL    HW128475   6.986   3.886   3.882
 9192SOL    HW228476   6.830   3.837   3.883
 9193SOL     OW28477   2.813   3.100   6.732
 9193SOL    HW128478   2.885   3.165   6.708
 9193SOL    HW228479   2.854   3.017   6.769
 9194SOL     OW28480   3.729   0.159   4.097
 9194SOL    HW128481   3.804   0.197   4.153
 9194SOL    HW228482   3.699   0.227   4.031
 9195SOL     OW28483   1.731   1.614   3.709
 9195SOL    HW128484   1.815   1.562   3.695
 9195SOL    HW228485   1.748   1.688   3.774
 9196SOL     OW28486   4.963   2.537   5.631
 9196SOL    HW128487   4.925   2.445   5.640
 9196SOL    HW228488   4.916   2.586   5.557
 9197SOL     OW28489   2.405   3.731   1.549
 9197SOL    HW128490   2.346   3.705   1.473
 9197SOL    HW228491   2.431   3.827   1.540
 9198SOL     OW28492   0.142   5.103   4.424
 9198SOL    HW128493   0.042   5.106   4.432
 9198SOL    HW228494   0.175   5.015   4.456
 9199SOL     OW28495   6.251   4.769   4.800
 9199SOL    HW128496   6.276   4.732   4.889
 9199SOL    HW228497   6.155   4.797   4.801
 9200SOL     OW28498   2.552   0.064   0.577
 9200SOL    HW128499   2.510   0.054   0.486
 9200SOL    HW228500   2.649   0.085   0.567
 9201SOL     OW28501   1.830   4.193   0.638
 9201SOL    HW128502   1.917   4.161   0.600
 9201SOL    HW228503   1.790   4.262   0.578
 9202SOL     OW28504   2.212   0.541   3.398
 9202SOL    HW128505   2.292   0.557   3.456
 9202SOL    HW228506   2.193   0.623   3.343
 9203SOL     OW28507   6.995   6.822   0.538
 9203SOL    HW128508   6.989   6.725   0.559
 9203SOL    HW228509   6.995   6.835   0.439
 9204SOL     OW28510   5.014   0.997   5.600
 9204SOL    HW128511   4.921   1.016   5.570
 9204SOL    HW228512   5.021   1.015   5.698
 9205SOL     OW28513   0.061   4.238   1.845
 9205SOL    HW128514   0.012   4.212   1.929
 9205SOL    HW228515   0.046   4.169   1.775
 9206SOL     OW28516   3.658   5.668   0.402
 9206SOL    HW128517   3.620   5.750   0.359
 9206SOL    HW228518   3.724   5.626   0.340
 9207SOL     OW28519   5.029   5.681   6.499
 9207SOL    HW128520   5.063   5.595   6.462
 9207SOL    HW228521   4.929   5.682   6.496
 9208SOL     OW28522   1.582   3.731   3.055
 9208SOL    HW128523   1.670   3.703   3.093
 9208SOL    HW228524   1.596   3.782   2.970
 9209SOL     OW28525   3.069   0.195   6.330
 9209SOL    HW128526   3.006   0.183   6.253
 9209SOL    HW228527   3.020   0.179   6.415
 9210SOL     OW28528   0.015   0.068   3.255
 9210SOL    HW128529   0.037   0.029   3.165
 9210SOL    HW228530   0.039   0.165   3.256
 9211SOL     OW28531   0.636   1.765   2.493
 9211SOL    HW128532   0.630   1.863   2.474
 9211SOL    HW228533   0.678   1.718   2.415
 9212SOL     OW28534   3.393   4.876   4.277
 9212SOL    HW128535   3.346   4.852   4.192
 9212SOL    HW228536   3.326   4.909   4.344
 9213SOL     OW28537   5.800   4.445   6.801
 9213SOL    HW128538   5.870   4.374   6.815
 9213SOL    HW228539   5.844   4.528   6.767
 9214SOL     OW28540   0.266   4.742   0.803
 9214SOL    HW128541   0.305   4.710   0.717
 9214SOL    HW228542   0.217   4.667   0.847
 9215SOL     OW28543   0.961   0.754   0.938
 9215SOL    HW128544   0.946   0.770   0.840
 9215SOL    HW228545   1.057   0.772   0.959
 9216SOL     OW28546   2.094   6.605   3.114
 9216SOL    HW128547   2.092   6.569   3.208
 9216SOL    HW228548   2.170   6.670   3.105
 9217SOL     OW28549   1.102   2.329   6.637
 9217SOL    HW128550   1.109   2.428   6.632
 9217SOL    HW228551   1.192   2.290   6.658
 9218SOL     OW28552   2.724   0.742   0.659
 9218SOL    HW128553   2.771   0.829   0.678
 9218SOL    HW228554   2.625   0.756   0.665
 9219SOL     OW28555   0.531   1.599   0.475
 9219SOL    HW128556   0.539   1.630   0.570
 9219SOL    HW228557   0.612   1.627   0.424
 9220SOL     OW28558   3.142   6.432   1.795
 9220SOL    HW128559   3.219   6.458   1.737
 9220SOL    HW228560   3.175   6.403   1.884
 9221SOL     OW28561   3.053   5.647   4.130
 9221SOL    HW128562   2.969   5.652   4.183
 9221SOL    HW228563   3.032   5.651   4.032
 9222SOL     OW28564   2.623   2.299   5.860
 9222SOL    HW128565   2.548   2.354   5.823
 9222SOL    HW228566   2.672   2.255   5.784
 9223SOL     OW28567   2.642   2.933   5.387
 9223SOL    HW128568   2.713   2.998   5.413
 9223SOL    HW228569   2.569   2.980   5.338
 9224SOL     OW28570   2.485   5.137   5.286
 9224SOL    HW128571   2.487   5.141   5.186
 9224SOL    HW228572   2.537   5.215   5.323
 9225SOL     OW28573   2.085   6.458   0.040
 9225SOL    HW128574   2.016   6.529   0.044
 9225SOL    HW228575   2.048   6.379   7.014
 9226SOL     OW28576   3.885   6.619   1.216
 9226SOL    HW128577   3.963   6.584   1.163
 9226SOL    HW228578   3.891   6.586   1.310
 9227SOL     OW28579   1.708   5.797   2.114
 9227SOL    HW128580   1.624   5.755   2.080
 9227SOL    HW228581   1.782   5.731   2.113
 9228SOL     OW28582   0.980   0.017   6.516
 9228SOL    HW128583   0.904   0.048   6.572
 9228SOL    HW228584   1.058   7.017   6.574
 9229SOL     OW28585   0.370   5.493   5.337
 9229SOL    HW128586   0.406   5.467   5.427
 9229SOL    HW228587   0.446   5.520   5.278
 9230SOL     OW28588   5.770   0.322   4.069
 9230SOL    HW128589   5.705   0.245   4.071
 9230SOL    HW228590   5.755   0.379   4.150
 9231SOL     OW28591   1.982   2.682   3.376
 9231SOL    HW128592   2.072   2.715   3.347
 9231SOL    HW228593   1.993   2.609   3.443
 9232SOL     OW28594   4.031   4.708   1.357
 9232SOL    HW128595   4.017   4.676   1.263
 9232SOL    HW228596   4.125   4.691   1.384
 9233SOL     OW28597   4.964   4.863   0.934
 9233SOL    HW128598   4.889   4.810   0.974
 9233SOL    HW228599   5.048   4.847   0.986
 9234SOL     OW28600   2.423   6.070   3.540
 9234SOL    HW128601   2.365   6.114   3.609
 9234SOL    HW228602   2.497   6.020   3.585
 9235SOL     OW28603   0.442   2.014   3.169
 9235SOL    HW128604   0.430   1.920   3.198
 9235SOL    HW228605   0.540   2.034   3.158
 9236SOL     OW28606   3.537   2.888   5.798
 9236SOL    HW128607   3.590   2.828   5.738
 9236SOL    HW228608   3.464   2.835   5.842
 9237SOL     OW28609   1.508   3.302   4.146
 9237SOL    HW128610   1.539   3.340   4.059
 9237SOL    HW228611   1.497   3.375   4.212
 9238SOL     OW28612   4.334   3.437   6.426
 9238SOL    HW128613   4.288   3.473   6.507
 9238SOL    HW228614   4.420   3.394   6.454
 9239SOL     OW28615   1.801   3.768   0.446
 9239SOL    HW128616   1.879   3.709   0.427
 9239SOL    HW228617   1.820   3.821   0.529
 9240SOL     OW28618   4.383   0.754   2.457
 9240SOL    HW128619   4.411   0.796   2.543
 9240SOL    HW228620   4.396   0.819   2.382
 9241SOL     OW28621   0.611   5.967   6.704
 9241SOL    HW128622   0.703   5.994   6.674
 9241SOL    HW228623   0.613   5.872   6.735
 9242SOL     OW28624   6.717   6.138   1.745
 9242SOL    HW128625   6.735   6.220   1.800
 9242SOL    HW228626   6.682   6.165   1.655
 9243SOL     OW28627   6.407   6.370   4.605
 9243SOL    HW128628   6.415   6.447   4.542
 9243SOL    HW228629   6.350   6.299   4.563
 9244SOL     OW28630   3.455   5.098   6.797
 9244SOL    HW128631   3.529   5.162   6.819
 9244SOL    HW228632   3.384   5.104   6.866
 9245SOL     OW28633   0.654   5.791   1.236
 9245SOL    HW128634   0.640   5.797   1.334
 9245SOL    HW228635   0.651   5.695   1.207
 9246SOL     OW28636   0.093   4.743   4.360
 9246SOL    HW128637   0.069   4.679   4.433
 9246SOL    HW228638   0.150   4.696   4.292
 9247SOL     OW28639   1.446   6.504   2.148
 9247SOL    HW128640   1.461   6.424   2.090
 9247SOL    HW228641   1.349   6.526   2.149
 9248SOL     OW28642   3.063   1.508   6.455
 9248SOL    HW128643   3.154   1.467   6.465
 9248SOL    HW228644   3.011   1.459   6.385
 9249SOL     OW28645   4.924   6.969   3.934
 9249SOL    HW128646   4.968   0.021   3.982
 9249SOL    HW228647   4.855   6.927   3.993
 9250SOL     OW28648   5.147   3.642   4.084
 9250SOL    HW128649   5.048   3.634   4.075
 9250SOL    HW228650   5.190   3.555   4.061
 9251SOL     OW28651   3.326   2.108   2.452
 9251SOL    HW128652   3.310   2.059   2.537
 9251SOL    HW228653   3.423   2.135   2.447
 9252SOL     OW28654   1.485   6.946   4.329
 9252SOL    HW128655   1.558   6.973   4.392
 9252SOL    HW228656   1.524   6.891   4.255
 9253SOL     OW28657   1.179   0.002   5.545
 9253SOL    HW128658   1.173   0.057   5.628
 9253SOL    HW228659   1.159   0.059   5.466
 9254SOL     OW28660   5.833   3.607   1.681
 9254SOL    HW128661   5.872   3.596   1.590
 9254SOL    HW228662   5.822   3.518   1.724
 9255SOL     OW28663   6.582   4.277   0.521
 9255SOL    HW128664   6.532   4.191   0.536
 9255SOL    HW228665   6.568   4.337   0.599
 9256SOL     OW28666   4.620   4.753   1.852
 9256SOL    HW128667   4.539   4.717   1.805
 9256SOL    HW228668   4.591   4.802   1.934
 9257SOL     OW28669   0.882   3.947   1.110
 9257SOL    HW128670   0.937   3.985   1.035
 9257SOL    HW228671   0.868   3.849   1.096
 9258SOL     OW28672   4.080   3.752   3.772
 9258SOL    HW128673   3.987   3.748   3.807
 9258SOL    HW228674   4.082   3.810   3.690
 9259SOL     OW28675   0.737   3.111   6.945
 9259SOL    HW128676   0.761   3.059   0.003
 9259SOL    HW228677   0.659   3.069   6.900
 9260SOL     OW28678   5.523   3.686   6.690
 9260SOL    HW128679   5.508   3.751   6.615
 9260SOL    HW228680   5.485   3.597   6.666
 9261SOL     OW28681   4.646   0.172   0.197
 9261SOL    HW128682   4.653   0.154   0.295
 9261SOL    HW228683   4.697   0.254   0.175
 9262SOL     OW28684   4.973   1.375   5.354
 9262SOL    HW128685   4.930   1.435   5.422
 9262SOL    HW228686   4.906   1.346   5.287
 9263SOL     OW28687   5.585   3.912   1.867
 9263SOL    HW128688   5.636   3.969   1.931
 9263SOL    HW228689   5.550   3.831   1.915
 9264SOL     OW28690   6.227   3.477   0.184
 9264SOL    HW128691   6.203   3.530   0.103
 9264SOL    HW228692   6.323   3.493   0.206
 9265SOL     OW28693   1.718   0.899   5.445
 9265SOL    HW128694   1.786   0.856   5.506
 9265SOL    HW228695   1.765   0.952   5.375
 9266SOL     OW28696   1.842   6.235   2.073
 9266SOL    HW128697   1.883   6.314   2.027
 9266SOL    HW228698   1.911   6.189   2.128
 9267SOL     OW28699   2.907   5.177   5.240
 9267SOL    HW128700   2.943   5.210   5.153
 9267SOL    HW228701   2.847   5.245   5.280
 9268SOL     OW28702   0.215   1.297   2.677
 9268SOL    HW128703   0.235   1.341   2.589
 9268SOL    HW228704   0.299   1.264   2.719
 9269SOL     OW28705   3.855   1.314   5.727
 9269SOL    HW128706   3.802   1.229   5.716
 9269SOL    HW228707   3.948   1.291   5.756
 9270SOL     OW28708   0.494   6.846   5.801
 9270SOL    HW128709   0.519   6.836   5.705
 9270SOL    HW228710   0.451   6.935   5.815
 9271SOL     OW28711   1.156   5.135   6.917
 9271SOL    HW128712   1.203   5.103   6.834
 9271SOL    HW228713   1.169   5.069   6.991
 9272SOL     OW28714   2.663   4.507   6.579
 9272SOL    HW128715   2.596   4.471   6.644
 9272SOL    HW228716   2.727   4.567   6.627
 9273SOL     OW28717   3.877   6.069   5.463
 9273SOL    HW128718   3.836   5.994   5.410
 9273SOL    HW228719   3.807   6.138   5.483
 9274SOL     OW28720   5.543   2.314   0.923
 9274SOL    HW128721   5.550   2.251   0.846
 9274SOL    HW228722   5.634   2.326   0.964
 9275SOL     OW28723   1.093   0.450   6.103
 9275SOL    HW128724   1.188   0.421   6.105
 9275SOL    HW228725   1.033   0.373   6.123
 9276SOL     OW28726   4.213   6.156   5.119
 9276SOL    HW128727   4.155   6.116   5.049
 9276SOL    HW228728   4.162   6.226   5.170
 9277SOL     OW28729   3.406   2.677   0.703
 9277SOL    HW128730   3.446   2.747   0.644
 9277SOL    HW228731   3.464   2.595   0.701
 9278SOL     OW28732   1.354   2.130   1.529
 9278SOL    HW128733   1.443   2.145   1.572
 9278SOL    HW228734   1.309   2.218   1.512
 9279SOL     OW28735   3.469   6.949   1.323
 9279SOL    HW128736   3.389   6.924   1.378
 9279SOL    HW228737   3.540   6.879   1.334
 9280SOL     OW28738   1.939   0.130   2.826
 9280SOL    HW128739   1.885   0.052   2.792
 9280SOL    HW228740   1.974   0.182   2.749
 9281SOL     OW28741   2.085   2.685   0.399
 9281SOL    HW128742   2.146   2.765   0.395
 9281SOL    HW228743   2.140   2.602   0.404
 9282SOL     OW28744   4.678   1.905   6.407
 9282SOL    HW128745   4.660   1.921   6.504
 9282SOL    HW228746   4.763   1.950   6.380
 9283SOL     OW28747   5.796   2.176   2.831
 9283SOL    HW128748   5.697   2.191   2.841
 9283SOL    HW228749   5.837   2.166   2.922
 9284SOL     OW28750   3.220   3.425   1.624
 9284SOL    HW128751   3.224   3.326   1.638
 9284SOL    HW228752   3.151   3.445   1.554
 9285SOL     OW28753   6.045   3.030   6.485
 9285SOL    HW128754   5.975   3.098   6.503
 9285SOL    HW228755   6.090   3.049   6.398
 9286SOL     OW28756   5.209   6.367   5.289
 9286SOL    HW128757   5.291   6.417   5.315
 9286SOL    HW228758   5.196   6.290   5.351
 9287SOL     OW28759   2.898   6.599   1.796
 9287SOL    HW128760   2.877   6.579   1.892
 9287SOL    HW228761   2.985   6.556   1.772
 9288SOL     OW28762   4.689   2.516   6.178
 9288SOL    HW128763   4.625   2.575   6.129
 9288SOL    HW228764   4.689   2.425   6.137
 9289SOL     OW28765   4.849   3.163   2.901
 9289SOL    HW128766   4.790   3.092   2.939
 9289SOL    HW228767   4.823   3.252   2.939
 9290SOL     OW28768   4.717   2.076   4.968
 9290SOL    HW128769   4.624   2.047   4.990
 9290SOL    HW228770   4.751   2.024   4.890
 9291SOL     OW28771   0.767   2.257   5.330
 9291SOL    HW128772   0.838   2.187   5.319
 9291SOL    HW228773   0.805   2.347   5.310
 9292SOL     OW28774   6.700   3.566   6.670
 9292SOL    HW128775   6.729   3.503   6.742
 9292SOL    HW228776   6.771   3.635   6.655
 9293SOL     OW28777   5.340   4.214   6.984
 9293SOL    HW128778   5.298   4.225   6.893
 9293SOL    HW228779   5.372   4.120   6.994
 9294SOL     OW28780   5.781   6.182   0.270
 9294SOL    HW128781   5.776   6.186   0.170
 9294SOL    HW228782   5.875   6.167   0.298
 9295SOL     OW28783   4.898   1.844   3.510
 9295SOL    HW128784   4.987   1.833   3.464
 9295SOL    HW228785   4.828   1.796   3.457
 9296SOL     OW28786   6.092   0.308   5.690
 9296SOL    HW128787   6.057   0.398   5.662
 9296SOL    HW228788   6.189   0.301   5.668
 9297SOL     OW28789   0.748   0.913   0.447
 9297SOL    HW128790   0.762   1.012   0.436
 9297SOL    HW228791   0.652   0.895   0.469
 9298SOL     OW28792   1.139   6.357   4.967
 9298SOL    HW128793   1.224   6.304   4.966
 9298SOL    HW228794   1.067   6.304   4.922
 9299SOL     OW28795   2.155   2.649   4.267
 9299SOL    HW128796   2.083   2.593   4.226
 9299SOL    HW228797   2.233   2.590   4.290
 9300SOL     OW28798   5.672   4.664   4.325
 9300SOL    HW128799   5.621   4.657   4.411
 9300SOL    HW228800   5.641   4.592   4.263
 9301SOL     OW28801   5.603   4.129   2.728
 9301SOL    HW128802   5.608   4.034   2.757
 9301SOL    HW228803   5.692   4.159   2.694
 9302SOL     OW28804   2.070   1.746   2.273
 9302SOL    HW128805   2.117   1.810   2.212
 9302SOL    HW228806   2.034   1.795   2.352
 9303SOL     OW28807   3.518   5.209   0.873
 9303SOL    HW128808   3.554   5.178   0.961
 9303SOL    HW228809   3.424   5.176   0.861
 9304SOL     OW28810   4.568   3.352   0.728
 9304SOL    HW128811   4.517   3.272   0.761
 9304SOL    HW228812   4.531   3.435   0.769
 9305SOL     OW28813   5.376   2.930   2.508
 9305SOL    HW128814   5.399   2.849   2.562
 9305SOL    HW228815   5.356   2.902   2.414
 9306SOL     OW28816   6.924   4.197   3.812
 9306SOL    HW128817   6.916   4.097   3.816
 9306SOL    HW228818   6.904   4.229   3.720
 9307SOL     OW28819   1.994   1.183   6.513
 9307SOL    HW128820   2.016   1.094   6.473
 9307SOL    HW228821   2.062   1.207   6.582
 9308SOL     OW28822   6.729   3.087   1.149
 9308SOL    HW128823   6.693   3.136   1.228
 9308SOL    HW228824   6.659   3.083   1.077
 9309SOL     OW28825   4.575   3.566   6.686
 9309SOL    HW128826   4.622   3.566   6.598
 9309SOL    HW228827   4.563   3.660   6.718
 9310SOL     OW28828   3.758   5.799   0.611
 9310SOL    HW128829   3.713   5.728   0.557
 9310SOL    HW228830   3.815   5.855   0.550
 9311SOL     OW28831   6.144   2.940   0.834
 9311SOL    HW128832   6.203   2.956   0.913
 9311SOL    HW228833   6.169   3.004   0.761
 9312SOL     OW28834   1.479   4.772   5.685
 9312SOL    HW128835   1.493   4.844   5.617
 9312SOL    HW228836   1.397   4.719   5.662
 9313SOL     OW28837   5.901   6.772   2.594
 9313SOL    HW128838   5.868   6.762   2.500
 9313SOL    HW228839   5.849   6.844   2.640
 9314SOL     OW28840   5.343   4.813   0.509
 9314SOL    HW128841   5.280   4.884   0.540
 9314SOL    HW228842   5.311   4.775   0.423
 9315SOL     OW28843   6.751   6.439   6.356
 9315SOL    HW128844   6.761   6.525   6.405
 9315SOL    HW228845   6.655   6.425   6.331
 9316SOL     OW28846   3.920   6.059   3.920
 9316SOL    HW128847   3.956   6.007   3.842
 9316SOL    HW228848   3.917   6.000   4.001
 9317SOL     OW28849   5.902   4.299   4.617
 9317SOL    HW128850   5.970   4.338   4.555
 9317SOL    HW228851   5.912   4.340   4.707
 9318SOL     OW28852   6.422   0.243   6.220
 9318SOL    HW128853   6.503   0.303   6.225
 9318SOL    HW228854   6.451   0.149   6.203
 9319SOL     OW28855   0.178   3.314   4.662
 9319SOL    HW128856   0.104   3.264   4.617
 9319SOL    HW228857   0.210   3.262   4.741
 9320SOL     OW28858   4.604   2.844   6.671
 9320SOL    HW128859   4.539   2.920   6.674
 9320SOL    HW228860   4.696   2.880   6.655
 9321SOL     OW28861   6.390   5.870   3.215
 9321SOL    HW128862   6.303   5.886   3.263
 9321SOL    HW228863   6.439   5.957   3.206
 9322SOL     OW28864   0.697   6.661   6.996
 9322SOL    HW128865   0.788   6.701   7.003
 9322SOL    HW228866   0.701   6.564   7.021
 9323SOL     OW28867   0.039   1.506   6.100
 9323SOL    HW128868   0.109   1.542   6.162
 9323SOL    HW228869   6.976   1.498   6.148
 9324SOL     OW28870   1.976   5.963   6.909
 9324SOL    HW128871   1.942   5.879   6.951
 9324SOL    HW228872   1.926   5.980   6.824
 9325SOL     OW28873   6.934   2.830   0.879
 9325SOL    HW128874   6.864   2.760   0.892
 9325SOL    HW228875   6.948   2.844   0.781
 9326SOL     OW28876   2.332   6.167   1.230
 9326SOL    HW128877   2.374   6.239   1.286
 9326SOL    HW228878   2.403   6.107   1.194
 9327SOL     OW28879   3.834   1.114   3.336
 9327SOL    HW128880   3.923   1.161   3.337
 9327SOL    HW228881   3.810   1.087   3.429
 9328SOL     OW28882   2.840   0.781   2.119
 9328SOL    HW128883   2.853   0.776   2.218
 9328SOL    HW228884   2.759   0.728   2.094
 9329SOL     OW28885   1.467   3.461   1.668
 9329SOL    HW128886   1.379   3.508   1.672
 9329SOL    HW228887   1.538   3.518   1.709
 9330SOL     OW28888   5.725   0.448   0.335
 9330SOL    HW128889   5.822   0.465   0.356
 9330SOL    HW228890   5.686   0.529   0.292
 9331SOL     OW28891   0.564   1.043   6.643
 9331SOL    HW128892   0.648   1.002   6.679
 9331SOL    HW228893   0.532   1.115   6.704
 9332SOL     OW28894   3.753   3.781   4.089
 9332SOL    HW128895   3.841   3.795   4.043
 9332SOL    HW228896   3.685   3.845   4.052
 9333SOL     OW28897   5.486   5.294   1.253
 9333SOL    HW128898   5.530   5.357   1.316
 9333SOL    HW228899   5.488   5.201   1.291
 9334SOL     OW28900   3.036   6.927   4.990
 9334SOL    HW128901   3.097   6.991   4.943
 9334SOL    HW228902   3.086   6.844   5.014
 9335SOL     OW28903   0.708   0.685   1.060
 9335SOL    HW128904   0.796   0.717   1.026
 9335SOL    HW228905   0.691   0.593   1.027
 9336SOL     OW28906   3.164   6.515   5.494
 9336SOL    HW128907   3.158   6.611   5.520
 9336SOL    HW228908   3.255   6.480   5.517
 9337SOL     OW28909   4.853   0.173   3.067
 9337SOL    HW128910   4.944   0.207   3.043
 9337SOL    HW228911   4.787   0.247   3.058
 9338SOL     OW28912   3.972   0.670   1.252
 9338SOL    HW128913   4.005   0.740   1.315
 9338SOL    HW228914   4.042   0.599   1.242
 9339SOL     OW28915   4.069   5.694   0.939
 9339SOL    HW128916   3.985   5.727   0.896
 9339SOL    HW228917   4.136   5.768   0.941
 9340SOL     OW28918   5.741   3.176   0.745
 9340SOL    HW128919   5.792   3.250   0.789
 9340SOL    HW228920   5.782   3.088   0.770
 9341SOL     OW28921   6.835   5.276   6.131
 9341SOL    HW128922   6.891   5.354   6.102
 9341SOL    HW228923   6.738   5.297   6.114
 9342SOL     OW28924   1.167   6.013   6.005
 9342SOL    HW128925   1.230   5.948   6.046
 9342SOL    HW228926   1.181   6.103   6.046
 9343SOL     OW28927   6.462   5.434   4.652
 9343SOL    HW128928   6.375   5.480   4.635
 9343SOL    HW228929   6.487   5.380   4.572
 9344SOL     OW28930   4.772   6.709   1.425
 9344SOL    HW128931   4.680   6.701   1.462
 9344SOL    HW228932   4.768   6.716   1.326
 9345SOL     OW28933   6.709   2.889   0.500
 9345SOL    HW128934   6.680   2.979   0.530
 9345SOL    HW228935   6.808   2.879   0.512
 9346SOL     OW28936   6.277   6.981   6.834
 9346SOL    HW128937   6.196   6.991   6.777
 9346SOL    HW228938   6.250   6.957   6.927
 9347SOL     OW28939   1.481   6.277   1.999
 9347SOL    HW128940   1.393   6.235   1.978
 9347SOL    HW228941   1.545   6.208   2.033
 9348SOL     OW28942   2.895   5.098   6.991
 9348SOL    HW128943   2.795   5.090   6.986
 9348SOL    HW228944   2.932   5.020   0.019
 9349SOL     OW28945   1.876   6.350   2.542
 9349SOL    HW128946   1.810   6.392   2.478
 9349SOL    HW228947   1.907   6.263   2.505
 9350SOL     OW28948   0.746   2.731   5.902
 9350SOL    HW128949   0.676   2.719   5.973
 9350SOL    HW228950   0.707   2.784   5.826
 9351SOL     OW28951   2.414   1.171   6.865
 9351SOL    HW128952   2.401   1.265   6.832
 9351SOL    HW228953   2.326   1.125   6.870
 9352SOL     OW28954   2.350   4.833   5.673
 9352SOL    HW128955   2.413   4.885   5.615
 9352SOL    HW228956   2.384   4.830   5.766
 9353SOL     OW28957   6.070   0.677   0.929
 9353SOL    HW128958   6.147   0.654   0.989
 9353SOL    HW228959   6.033   0.594   0.889
 9354SOL     OW28960   0.718   1.642   6.579
 9354SOL    HW128961   0.788   1.574   6.600
 9354SOL    HW228962   0.752   1.734   6.598
 9355SOL     OW28963   0.324   2.018   5.478
 9355SOL    HW128964   0.409   2.052   5.438
 9355SOL    HW228965   0.341   1.929   5.521
 9356SOL     OW28966   5.600   0.074   3.312
 9356SOL    HW128967   5.547   0.126   3.379
 9356SOL    HW228968   5.617   7.006   3.347
 9357SOL     OW28969   0.725   1.761   0.161
 9357SOL    HW128970   0.731   1.769   0.061
 9357SOL    HW228971   0.816   1.744   0.198
 9358SOL     OW28972   0.612   3.175   1.463
 9358SOL    HW128973   0.611   3.245   1.535
 9358SOL    HW228974   0.702   3.174   1.419
 9359SOL     OW28975   0.923   0.077   5.026
 9359SOL    HW128976   1.012   0.067   5.069
 9359SOL    HW228977   0.856   0.019   5.073
 9360SOL     OW28978   0.737   0.247   5.824
 9360SOL    HW128979   0.744   0.188   5.904
 9360SOL    HW228980   0.757   0.194   5.741
 9361SOL     OW28981   2.055   5.986   3.800
 9361SOL    HW128982   1.992   6.045   3.851
 9361SOL    HW228983   2.039   5.890   3.825
 9362SOL     OW28984   2.126   0.345   1.789
 9362SOL    HW128985   2.216   0.302   1.803
 9362SOL    HW228986   2.122   0.430   1.841
 9363SOL     OW28987   1.914   4.886   2.556
 9363SOL    HW128988   1.833   4.895   2.498
 9363SOL    HW228989   1.985   4.836   2.506
 9364SOL     OW28990   1.491   2.674   0.962
 9364SOL    HW128991   1.565   2.639   0.905
 9364SOL    HW228992   1.419   2.712   0.903
 9365SOL     OW28993   3.274   1.011   4.584
 9365SOL    HW128994   3.272   1.100   4.630
 9365SOL    HW228995   3.185   0.965   4.596
 9366SOL     OW28996   4.538   5.985   2.179
 9366SOL    HW128997   4.631   5.976   2.214
 9366SOL    HW228998   4.501   6.074   2.204
 9367SOL     OW28999   6.877   0.959   1.438
 9367SOL    HW129000   6.969   0.985   1.408
 9367SOL    HW229001   6.882   0.915   1.527
 9368SOL     OW29002   2.733   0.345   2.875
 9368SOL    HW129003   2.653   0.348   2.935
 9368SOL    HW229004   2.764   0.250   2.866
 9369SOL     OW29005   3.367   5.110   0.595
 9369SOL    HW129006   3.305   5.108   0.673
 9369SOL    HW229007   3.460   5.128   0.626
 9370SOL     OW29008   4.406   1.754   4.869
 9370SOL    HW129009   4.477   1.723   4.805
 9370SOL    HW229010   4.320   1.767   4.820
 9371SOL     OW29011   4.576   4.991   1.223
 9371SOL    HW129012   4.582   4.972   1.321
 9371SOL    HW229013   4.602   5.086   1.206
 9372SOL     OW29014   4.302   5.918   1.575
 9372SOL    HW129015   4.377   5.917   1.510
 9372SOL    HW229016   4.267   6.011   1.584
 9373SOL     OW29017   0.103   2.997   1.025
 9373SOL    HW129018   0.109   2.967   1.120
 9373SOL    HW229019   0.033   2.943   0.978
 9374SOL     OW29020   0.260   5.954   5.980
 9374SOL    HW129021   0.336   6.013   5.951
 9374SOL    HW229022   0.175   5.987   5.938
 9375SOL     OW29023   0.535   1.138   6.944
 9375SOL    HW129024   0.578   1.051   6.965
 9375SOL    HW229025   0.579   1.210   6.998
 9376SOL     OW29026   2.379   3.939   1.331
 9376SOL    HW129027   2.356   4.006   1.402
 9376SOL    HW229028   2.295   3.902   1.291
 9377SOL     OW29029   1.833   0.804   3.191
 9377SOL    HW129030   1.850   0.891   3.236
 9377SOL    HW229031   1.917   0.774   3.144
 9378SOL     OW29032   3.841   1.539   5.111
 9378SOL    HW129033   3.746   1.515   5.093
 9378SOL    HW229034   3.883   1.575   5.028
 9379SOL     OW29035   5.040   6.782   4.291
 9379SOL    HW129036   4.984   6.830   4.359
 9379SOL    HW229037   5.112   6.731   4.338
 9380SOL     OW29038   5.639   5.460   0.083
 9380SOL    HW129039   5.679   5.373   0.110
 9380SOL    HW229040   5.540   5.450   0.073
 9381SOL     OW29041   5.537   1.619   5.230
 9381SOL    HW129042   5.623   1.636   5.279
 9381SOL    HW229043   5.505   1.526   5.250
 9382SOL     OW29044   2.995   5.261   5.944
 9382SOL    HW129045   2.896   5.274   5.935
 9382SOL    HW229046   3.038   5.269   5.854
 9383SOL     OW29047   6.052   3.979   2.741
 9383SOL    HW129048   6.091   3.893   2.775
 9383SOL    HW229049   5.981   3.959   2.673
 9384SOL     OW29050   3.653   0.490   1.599
 9384SOL    HW129051   3.668   0.574   1.651
 9384SOL    HW229052   3.733   0.431   1.606
 9385SOL     OW29053   4.713   1.531   4.127
 9385SOL    HW129054   4.790   1.542   4.191
 9385SOL    HW229055   4.675   1.621   4.106
 9386SOL     OW29056   4.842   6.377   0.558
 9386SOL    HW129057   4.922   6.332   0.519
 9386SOL    HW229058   4.847   6.476   0.542
 9387SOL     OW29059   3.015   1.441   0.119
 9387SOL    HW129060   2.956   1.500   0.064
 9387SOL    HW229061   2.984   1.346   0.109
 9388SOL     OW29062   2.518   0.023   5.340
 9388SOL    HW129063   2.434   0.005   5.391
 9388SOL    HW229064   2.502   0.100   5.277
 9389SOL     OW29065   1.954   4.294   2.014
 9389SOL    HW129066   2.037   4.285   2.068
 9389SOL    HW229067   1.960   4.375   1.956
 9390SOL     OW29068   4.600   4.817   4.311
 9390SOL    HW129069   4.540   4.762   4.252
 9390SOL    HW229070   4.688   4.770   4.321
 9391SOL     OW29071   1.500   4.117   4.575
 9391SOL    HW129072   1.564   4.106   4.499
 9391SOL    HW229073   1.481   4.214   4.589
 9392SOL     OW29074   5.078   4.592   2.819
 9392SOL    HW129075   5.136   4.648   2.879
 9392SOL    HW229076   5.093   4.496   2.839
 9393SOL     OW29077   1.769   5.994   6.099
 9393SOL    HW129078   1.706   5.939   6.045
 9393SOL    HW229079   1.846   5.937   6.128
 9394SOL     OW29080   4.134   0.552   0.405
 9394SOL    HW129081   4.182   0.602   0.477
 9394SOL    HW229082   4.047   0.596   0.386
 9395SOL     OW29083   1.287   1.397   1.204
 9395SOL    HW129084   1.355   1.395   1.278
 9395SOL    HW229085   1.330   1.430   1.120
 9396SOL     OW29086   0.652   0.149   6.188
 9396SOL    HW129087   0.661   0.248   6.184
 9396SOL    HW229088   0.625   0.121   6.280
 9397SOL     OW29089   3.435   1.052   5.014
 9397SOL    HW129090   3.473   1.139   4.983
 9397SOL    HW229091   3.339   1.066   5.041
 9398SOL     OW29092   0.733   2.106   0.200
 9398SOL    HW129093   0.743   2.147   0.291
 9398SOL    HW229094   0.734   2.007   0.208
 9399SOL     OW29095   1.164   2.155   4.168
 9399SOL    HW129096   1.086   2.194   4.217
 9399SOL    HW229097   1.206   2.083   4.224
 9400SOL     OW29098   5.946   1.573   1.094
 9400SOL    HW129099   5.882   1.647   1.118
 9400SOL    HW229100   5.905   1.516   1.023
 9401SOL     OW29101   0.121   2.334   3.759
 9401SOL    HW129102   0.209   2.289   3.748
 9401SOL    HW229103   0.052   2.287   3.703
 9402SOL     OW29104   2.678   6.783   4.429
 9402SOL    HW129105   2.696   6.794   4.331
 9402SOL    HW229106   2.603   6.718   4.441
 9403SOL     OW29107   5.159   2.034   1.136
 9403SOL    HW129108   5.072   2.033   1.086
 9403SOL    HW229109   5.199   2.125   1.129
 9404SOL     OW29110   2.338   2.363   1.167
 9404SOL    HW129111   2.398   2.395   1.240
 9404SOL    HW229112   2.288   2.441   1.128
 9405SOL     OW29113   6.028   5.553   5.314
 9405SOL    HW129114   6.074   5.502   5.386
 9405SOL    HW229115   6.093   5.576   5.242
 9406SOL     OW29116   1.012   2.294   0.360
 9406SOL    HW129117   0.941   2.306   0.430
 9406SOL    HW229118   1.094   2.254   0.402
 9407SOL     OW29119   2.031   5.094   4.572
 9407SOL    HW129120   2.084   5.011   4.556
 9407SOL    HW229121   2.021   5.109   4.671
 9408SOL     OW29122   6.609   4.133   4.732
 9408SOL    HW129123   6.658   4.059   4.686
 9408SOL    HW229124   6.527   4.156   4.680
 9409SOL     OW29125   6.140   5.255   1.782
 9409SOL    HW129126   6.109   5.262   1.687
 9409SOL    HW229127   6.146   5.347   1.821
 9410SOL     OW29128   3.949   0.730   0.773
 9410SOL    HW129129   3.921   0.643   0.734
 9410SOL    HW229130   4.012   0.714   0.849
 9411SOL     OW29131   3.392   3.902   3.261
 9411SOL    HW129132   3.395   3.992   3.305
 9411SOL    HW229133   3.313   3.897   3.200
 9412SOL     OW29134   4.552   6.892   2.042
 9412SOL    HW129135   4.539   6.796   2.066
 9412SOL    HW229136   4.513   6.910   1.952
 9413SOL     OW29137   4.913   3.953   2.893
 9413SOL    HW129138   4.946   3.862   2.868
 9413SOL    HW229139   4.898   4.007   2.810
 9414SOL     OW29140   2.395   2.243   2.923
 9414SOL    HW129141   2.375   2.165   2.982
 9414SOL    HW229142   2.370   2.219   2.829
 9415SOL     OW29143   5.604   0.682   2.168
 9415SOL    HW129144   5.660   0.619   2.223
 9415SOL    HW229145   5.568   0.633   2.088
 9416SOL     OW29146   5.575   5.445   5.720
 9416SOL    HW129147   5.643   5.427   5.790
 9416SOL    HW229148   5.487   5.463   5.763
 9417SOL     OW29149   3.096   5.505   2.814
 9417SOL    HW129150   3.008   5.477   2.776
 9417SOL    HW229151   3.136   5.577   2.757
 9418SOL     OW29152   3.007   2.005   4.995
 9418SOL    HW129153   2.960   1.995   4.907
 9418SOL    HW229154   3.047   2.096   5.002
 9419SOL     OW29155   1.944   2.567   6.391
 9419SOL    HW129156   1.866   2.511   6.418
 9419SOL    HW229157   2.029   2.517   6.410
 9420SOL     OW29158   5.289   4.291   5.728
 9420SOL    HW129159   5.381   4.292   5.767
 9420SOL    HW229160   5.281   4.215   5.663
 9421SOL     OW29161   3.721   6.378   6.804
 9421SOL    HW129162   3.755   6.291   6.840
 9421SOL    HW229163   3.799   6.438   6.784
 9422SOL     OW29164   2.242   6.345   5.762
 9422SOL    HW129165   2.252   6.342   5.663
 9422SOL    HW229166   2.218   6.254   5.797
 9423SOL     OW29167   4.695   4.793   2.290
 9423SOL    HW129168   4.613   4.803   2.234
 9423SOL    HW229169   4.716   4.696   2.300
 9424SOL     OW29170   6.522   0.458   4.234
 9424SOL    HW129171   6.590   0.527   4.256
 9424SOL    HW229172   6.565   0.383   4.184
 9425SOL     OW29173   0.117   3.908   0.853
 9425SOL    HW129174   0.200   3.957   0.877
 9425SOL    HW229175   0.081   3.860   0.934
 9426SOL     OW29176   5.191   3.149   6.047
 9426SOL    HW129177   5.182   3.054   6.077
 9426SOL    HW229178   5.278   3.186   6.081
 9427SOL     OW29179   4.888   4.153   2.710
 9427SOL    HW129180   4.802   4.196   2.680
 9427SOL    HW229181   4.953   4.154   2.634
 9428SOL     OW29182   0.991   6.396   5.743
 9428SOL    HW129183   0.929   6.472   5.727
 9428SOL    HW229184   0.954   6.313   5.700
 9429SOL     OW29185   2.302   2.473   3.782
 9429SOL    HW129186   2.287   2.399   3.717
 9429SOL    HW229187   2.261   2.449   3.870
 9430SOL     OW29188   1.849   1.307   3.973
 9430SOL    HW129189   1.766   1.289   3.921
 9430SOL    HW229190   1.927   1.264   3.928
 9431SOL     OW29191   0.836   4.545   5.718
 9431SOL    HW129192   0.747   4.545   5.672
 9431SOL    HW229193   0.836   4.475   5.790
 9432SOL     OW29194   6.821   1.238   4.549
 9432SOL    HW129195   6.862   1.198   4.467
 9432SOL    HW229196   6.848   1.334   4.556
 9433SOL     OW29197   4.817   5.240   2.044
 9433SOL    HW129198   4.796   5.142   2.042
 9433SOL    HW229199   4.902   5.255   2.096
 9434SOL     OW29200   3.942   5.451   3.881
 9434SOL    HW129201   3.876   5.506   3.934
 9434SOL    HW229202   3.961   5.497   3.794
 9435SOL     OW29203   6.081   3.934   1.024
 9435SOL    HW129204   6.119   3.938   0.931
 9435SOL    HW229205   6.001   3.874   1.025
 9436SOL     OW29206   2.883   0.783   3.232
 9436SOL    HW129207   2.880   0.739   3.142
 9436SOL    HW229208   2.931   0.723   3.297
 9437SOL     OW29209   5.459   0.637   4.871
 9437SOL    HW129210   5.449   0.599   4.963
 9437SOL    HW229211   5.406   0.583   4.806
 9438SOL     OW29212   4.646   0.312   2.603
 9438SOL    HW129213   4.654   0.379   2.678
 9438SOL    HW229214   4.580   0.346   2.536
 9439SOL     OW29215   2.060   3.780   0.739
 9439SOL    HW129216   2.022   3.704   0.687
 9439SOL    HW229217   2.157   3.763   0.758
 9440SOL     OW29218   1.517   5.188   4.000
 9440SOL    HW129219   1.442   5.248   4.027
 9440SOL    HW229220   1.531   5.194   3.902
 9441SOL     OW29221   0.375   6.653   4.517
 9441SOL    HW129222   0.418   6.674   4.605
 9441SOL    HW229223   0.292   6.600   4.532
 9442SOL     OW29224   5.983   3.194   1.105
 9442SOL    HW129225   6.075   3.229   1.120
 9442SOL    HW229226   5.951   3.147   1.187
 9443SOL     OW29227   2.251   4.309   1.365
 9443SOL    HW129228   2.273   4.232   1.425
 9443SOL    HW229229   2.303   4.300   1.280
 9444SOL     OW29230   2.154   4.820   6.523
 9444SOL    HW129231   2.244   4.829   6.567
 9444SOL    HW229232   2.105   4.906   6.530
 9445SOL     OW29233   0.478   1.360   4.126
 9445SOL    HW129234   0.432   1.305   4.196
 9445SOL    HW229235   0.434   1.345   4.037
 9446SOL     OW29236   6.165   3.986   4.899
 9446SOL    HW129237   6.159   3.887   4.916
 9446SOL    HW229238   6.167   4.034   4.987
 9447SOL     OW29239   5.085   4.909   2.210
 9447SOL    HW129240   5.032   4.911   2.295
 9447SOL    HW229241   5.057   4.829   2.156
 9448SOL     OW29242   5.987   2.251   6.791
 9448SOL    HW129243   5.993   2.290   6.883
 9448SOL    HW229244   6.067   2.279   6.738
 9449SOL     OW29245   5.426   6.928   1.915
 9449SOL    HW129246   5.482   7.005   1.883
 9449SOL    HW229247   5.486   6.857   1.951
 9450SOL     OW29248   1.094   0.224   3.316
 9450SOL    HW129249   1.191   0.245   3.319
 9450SOL    HW229250   1.049   0.259   3.398
 9451SOL     OW29251   3.913   5.022   0.217
 9451SOL    HW129252   3.911   5.103   0.158
 9451SOL    HW229253   3.825   5.012   0.264
 9452SOL     OW29254   6.236   4.007   6.447
 9452SOL    HW129255   6.261   3.910   6.456
 9452SOL    HW229256   6.258   4.038   6.355
 9453SOL     OW29257   5.606   4.771   1.737
 9453SOL    HW129258   5.568   4.744   1.649
 9453SOL    HW229259   5.568   4.712   1.809
 9454SOL     OW29260   6.339   4.965   0.742
 9454SOL    HW129261   6.337   5.009   0.832
 9454SOL    HW229262   6.255   4.914   0.727
 9455SOL     OW29263   4.404   0.386   1.448
 9455SOL    HW129264   4.342   0.332   1.392
 9455SOL    HW229265   4.398   0.355   1.543
 9456SOL     OW29266   6.205   2.048   3.262
 9456SOL    HW129267   6.239   2.115   3.196
 9456SOL    HW229268   6.272   1.974   3.271
 9457SOL     OW29269   6.644   6.277   4.346
 9457SOL    HW129270   6.548   6.277   4.318
 9457SOL    HW229271   6.680   6.370   4.342
 9458SOL     OW29272   5.958   4.309   0.174
 9458SOL    HW129273   5.867   4.286   0.137
 9458SOL    HW229274   6.010   4.359   0.104
 9459SOL     OW29275   4.720   4.309   4.908
 9459SOL    HW129276   4.698   4.251   4.987
 9459SOL    HW229277   4.653   4.384   4.902
 9460SOL     OW29278   1.133   2.997   1.985
 9460SOL    HW129279   1.085   3.001   2.072
 9460SOL    HW229280   1.085   2.935   1.923
 9461SOL     OW29281   1.717   1.287   1.744
 9461SOL    HW129282   1.672   1.376   1.736
 9461SOL    HW229283   1.786   1.279   1.672
 9462SOL     OW29284   6.764   1.321   5.486
 9462SOL    HW129285   6.696   1.357   5.423
 9462SOL    HW229286   6.814   1.246   5.443
 9463SOL     OW29287   6.432   3.882   0.074
 9463SOL    HW129288   6.386   3.883   7.008
 9463SOL    HW229289   6.483   3.967   0.086
 9464SOL     OW29290   1.315   0.768   1.560
 9464SOL    HW129291   1.279   0.689   1.610
 9464SOL    HW229292   1.258   0.848   1.580
 9465SOL     OW29293   6.988   5.912   0.194
 9465SOL    HW129294   6.894   5.913   0.227
 9465SOL    HW229295   0.010   5.829   0.226
 9466SOL     OW29296   4.549   3.695   5.358
 9466SOL    HW129297   4.550   3.633   5.436
 9466SOL    HW229298   4.606   3.658   5.285
 9467SOL     OW29299   1.120   3.608   0.796
 9467SOL    HW129300   1.159   3.563   0.877
 9467SOL    HW229301   1.151   3.562   0.713
 9468SOL     OW29302   5.906   1.289   0.652
 9468SOL    HW129303   5.929   1.386   0.655
 9468SOL    HW229304   5.896   1.254   0.746
 9469SOL     OW29305   6.762   0.113   1.435
 9469SOL    HW129306   6.670   0.148   1.424
 9469SOL    HW229307   6.828   0.178   1.397
 9470SOL     OW29308   3.937   3.224   0.533
 9470SOL    HW129309   3.893   3.183   0.613
 9470SOL    HW229310   4.026   3.181   0.518
 9471SOL     OW29311   6.619   2.563   5.410
 9471SOL    HW129312   6.604   2.659   5.387
 9471SOL    HW229313   6.615   2.551   5.509
 9472SOL     OW29314   1.502   3.487   5.429
 9472SOL    HW129315   1.552   3.475   5.515
 9472SOL    HW229316   1.515   3.580   5.396
 9473SOL     OW29317   2.960   3.236   1.084
 9473SOL    HW129318   3.030   3.276   1.143
 9473SOL    HW229319   2.965   3.279   0.993
 9474SOL     OW29320   5.643   4.493   0.878
 9474SOL    HW129321   5.740   4.492   0.901
 9474SOL    HW229322   5.606   4.400   0.886
 9475SOL     OW29323   4.770   3.981   5.993
 9475SOL    HW129324   4.723   4.028   5.919
 9475SOL    HW229325   4.747   3.884   5.991
 9476SOL     OW29326   4.318   3.859   1.174
 9476SOL    HW129327   4.290   3.954   1.171
 9476SOL    HW229328   4.416   3.853   1.153
 9477SOL     OW29329   2.522   4.449   1.012
 9477SOL    HW129330   2.440   4.507   1.020
 9477SOL    HW229331   2.604   4.506   1.019
 9478SOL     OW29332   5.404   4.145   6.393
 9478SOL    HW129333   5.412   4.103   6.483
 9478SOL    HW229334   5.369   4.078   6.327
 9479SOL     OW29335   4.515   0.992   1.848
 9479SOL    HW129336   4.527   0.916   1.911
 9479SOL    HW229337   4.472   1.069   1.896
 9480SOL     OW29338   5.749   0.895   0.290
 9480SOL    HW129339   5.849   0.896   0.293
 9480SOL    HW229340   5.717   0.942   0.208
 9481SOL     OW29341   4.555   0.575   3.243
 9481SOL    HW129342   4.542   0.670   3.271
 9481SOL    HW229343   4.494   0.555   3.166
 9482SOL     OW29344   6.192   5.233   5.833
 9482SOL    HW129345   6.175   5.217   5.736
 9482SOL    HW229346   6.106   5.226   5.884
 9483SOL     OW29347   6.320   6.293   6.797
 9483SOL    HW129348   6.296   6.255   6.886
 9483SOL    HW229349   6.252   6.363   6.771
 9484SOL     OW29350   3.135   5.721   4.588
 9484SOL    HW129351   3.055   5.741   4.531
 9484SOL    HW229352   3.218   5.743   4.537
 9485SOL     OW29353   0.042   1.667   5.466
 9485SOL    HW129354   0.106   1.737   5.432
 9485SOL    HW229355   7.013   1.705   5.542
 9486SOL     OW29356   6.475   5.579   6.749
 9486SOL    HW129357   6.476   5.505   6.682
 9486SOL    HW229358   6.569   5.608   6.769
 9487SOL     OW29359   3.501   3.552   3.855
 9487SOL    HW129360   3.501   3.566   3.954
 9487SOL    HW229361   3.504   3.640   3.808
 9488SOL     OW29362   1.820   0.834   1.062
 9488SOL    HW129363   1.779   0.850   0.972
 9488SOL    HW229364   1.846   0.738   1.071
 9489SOL     OW29365   5.726   4.071   0.099
 9489SOL    HW129366   5.736   3.985   0.049
 9489SOL    HW229367   5.628   4.092   0.110
 9490SOL     OW29368   5.973   3.467   5.033
 9490SOL    HW129369   6.045   3.449   4.966
 9490SOL    HW229370   5.970   3.393   5.100
 9491SOL     OW29371   5.803   0.231   2.702
 9491SOL    HW129372   5.762   0.310   2.657
 9491SOL    HW229373   5.807   0.248   2.801
 9492SOL     OW29374   4.946   2.561   3.731
 9492SOL    HW129375   4.945   2.537   3.828
 9492SOL    HW229376   5.034   2.602   3.707
 9493SOL     OW29377   3.699   6.182   1.791
 9493SOL    HW129378   3.673   6.277   1.807
 9493SOL    HW229379   3.624   6.122   1.817
 9494SOL     OW29380   5.609   2.289   2.025
 9494SOL    HW129381   5.570   2.381   2.022
 9494SOL    HW229382   5.617   2.253   1.933
 9495SOL     OW29383   5.518   3.090   1.155
 9495SOL    HW129384   5.525   3.186   1.125
 9495SOL    HW229385   5.518   3.030   1.075
 9496SOL     OW29386   5.752   2.799   1.143
 9496SOL    HW129387   5.692   2.836   1.214
 9496SOL    HW229388   5.793   2.874   1.091
 9497SOL     OW29389   4.669   5.094   5.036
 9497SOL    HW129390   4.636   5.169   5.094
 9497SOL    HW229391   4.666   5.122   4.940
 9498SOL     OW29392   1.000   5.776   5.096
 9498SOL    HW129393   1.054   5.714   5.154
 9498SOL    HW229394   0.934   5.723   5.043
 9499SOL     OW29395   5.816   5.925   4.475
 9499SOL    HW129396   5.901   5.875   4.496
 9499SOL    HW229397   5.778   5.963   4.559
 9500SOL     OW29398   2.889   1.591   0.760
 9500SOL    HW129399   2.882   1.673   0.817
 9500SOL    HW229400   2.797   1.555   0.743
 9501SOL     OW29401   2.069   3.957   5.115
 9501SOL    HW129402   2.077   3.993   5.208
 9501SOL    HW229403   2.160   3.955   5.073
 9502SOL     OW29404   5.717   4.903   4.027
 9502SOL    HW129405   5.791   4.838   4.043
 9502SOL    HW229406   5.737   4.957   3.946
 9503SOL     OW29407   6.277   0.670   0.162
 9503SOL    HW129408   6.318   0.741   0.104
 9503SOL    HW229409   6.288   0.695   0.258
 9504SOL     OW29410   6.144   5.536   1.802
 9504SOL    HW129411   6.239   5.551   1.828
 9504SOL    HW229412   6.129   5.569   1.709
 9505SOL     OW29413   4.358   4.338   6.502
 9505SOL    HW129414   4.262   4.309   6.507
 9505SOL    HW229415   4.377   4.379   6.413
 9506SOL     OW29416   2.689   1.040   0.935
 9506SOL    HW129417   2.739   1.018   0.851
 9506SOL    HW229418   2.748   1.021   1.014
 9507SOL     OW29419   6.265   0.135   1.788
 9507SOL    HW129420   6.293   0.092   1.874
 9507SOL    HW229421   6.239   0.064   1.722
 9508SOL     OW29422   4.366   0.864   2.711
 9508SOL    HW129423   4.292   0.830   2.769
 9508SOL    HW229424   4.381   0.961   2.728
 9509SOL     OW29425   5.466   1.076   3.752
 9509SOL    HW129426   5.393   1.070   3.684
 9509SOL    HW229427   5.511   1.165   3.745
 9510SOL     OW29428   1.982   2.731   2.542
 9510SOL    HW129429   1.902   2.747   2.599
 9510SOL    HW229430   2.037   2.814   2.536
 9511SOL     OW29431   0.561   1.816   1.173
 9511SOL    HW129432   0.620   1.735   1.176
 9511SOL    HW229433   0.605   1.888   1.120
 9512SOL     OW29434   6.480   1.762   1.819
 9512SOL    HW129435   6.550   1.809   1.874
 9512SOL    HW229436   6.512   1.754   1.725
 9513SOL     OW29437   4.551   4.039   5.320
 9513SOL    HW129438   4.568   3.970   5.390
 9513SOL    HW229439   4.456   4.032   5.289
 9514SOL     OW29440   3.561   2.594   0.431
 9514SOL    HW129441   3.542   2.507   0.477
 9514SOL    HW229442   3.657   2.597   0.404
 9515SOL     OW29443   0.815   5.654   3.514
 9515SOL    HW129444   0.733   5.696   3.551
 9515SOL    HW229445   0.791   5.596   3.436
 9516SOL     OW29446   0.231   3.974   5.950
 9516SOL    HW129447   0.210   4.067   5.978
 9516SOL    HW229448   0.310   3.974   5.888
 9517SOL     OW29449   0.144   6.521   1.049
 9517SOL    HW129450   0.065   6.582   1.058
 9517SOL    HW229451   0.114   6.434   1.008
 9518SOL     OW29452   0.834   0.725   1.309
 9518SOL    HW129453   0.898   0.793   1.347
 9518SOL    HW229454   0.798   0.759   1.222
 9519SOL     OW29455   0.878   2.483   5.232
 9519SOL    HW129456   0.885   2.574   5.274
 9519SOL    HW229457   0.950   2.474   5.162
 9520SOL     OW29458   3.729   6.557   1.937
 9520SOL    HW129459   3.821   6.519   1.950
 9520SOL    HW229460   3.684   6.510   1.862
 9521SOL     OW29461   5.134   5.248   3.614
 9521SOL    HW129462   5.198   5.283   3.682
 9521SOL    HW229463   5.178   5.176   3.560
 9522SOL     OW29464   2.987   5.014   6.740
 9522SOL    HW129465   2.983   5.063   6.827
 9522SOL    HW229466   2.972   4.916   6.756
 9523SOL     OW29467   2.166   6.584   5.377
 9523SOL    HW129468   2.204   6.618   5.463
 9523SOL    HW229469   2.168   6.657   5.308
 9524SOL     OW29470   4.932   2.694   0.855
 9524SOL    HW129471   5.001   2.758   0.889
 9524SOL    HW229472   4.851   2.699   0.914
 9525SOL     OW29473   4.090   0.220   4.563
 9525SOL    HW129474   3.998   0.251   4.538
 9525SOL    HW229475   4.084   0.128   4.602
 9526SOL     OW29476   5.038   6.165   1.721
 9526SOL    HW129477   4.981   6.116   1.655
 9526SOL    HW229478   5.004   6.149   1.814
 9527SOL     OW29479   6.862   2.404   0.870
 9527SOL    HW129480   6.901   2.452   0.792
 9527SOL    HW229481   6.786   2.346   0.840
 9528SOL     OW29482   6.949   1.288   1.604
 9528SOL    HW129483   0.009   1.326   1.566
 9528SOL    HW229484   6.927   1.334   1.690
 9529SOL     OW29485   1.229   3.437   5.058
 9529SOL    HW129486   1.229   3.503   5.133
 9529SOL    HW229487   1.304   3.457   4.996
 9530SOL     OW29488   1.682   1.805   3.912
 9530SOL    HW129489   1.588   1.821   3.883
 9530SOL    HW229490   1.686   1.720   3.965
 9531SOL     OW29491   2.896   6.546   3.493
 9531SOL    HW129492   2.829   6.513   3.559
 9531SOL    HW229493   2.954   6.616   3.536
 9532SOL     OW29494   3.392   1.355   2.120
 9532SOL    HW129495   3.323   1.427   2.128
 9532SOL    HW229496   3.352   1.276   2.075
 9533SOL     OW29497   0.714   1.676   5.112
 9533SOL    HW129498   0.650   1.635   5.176
 9533SOL    HW229499   0.795   1.618   5.104
 9534SOL     OW29500   5.635   1.674   4.249
 9534SOL    HW129501   5.695   1.689   4.327
 9534SOL    HW229502   5.606   1.578   4.247
 9535SOL     OW29503   3.426   2.168   4.398
 9535SOL    HW129504   3.470   2.250   4.435
 9535SOL    HW229505   3.349   2.143   4.457
 9536SOL     OW29506   2.681   6.306   6.673
 9536SOL    HW129507   2.646   6.326   6.765
 9536SOL    HW229508   2.742   6.380   6.644
 9537SOL     OW29509   2.841   6.727   0.581
 9537SOL    HW129510   2.751   6.723   0.624
 9537SOL    HW229511   2.883   6.815   0.600
 9538SOL     OW29512   6.234   3.803   3.008
 9538SOL    HW129513   6.195   3.755   2.929
 9538SOL    HW229514   6.312   3.751   3.043
 9539SOL     OW29515   0.290   4.105   6.967
 9539SOL    HW129516   0.281   4.016   6.923
 9539SOL    HW229517   0.229   4.109   0.023
 9540SOL     OW29518   5.270   3.197   5.804
 9540SOL    HW129519   5.346   3.134   5.791
 9540SOL    HW229520   5.233   3.186   5.896
 9541SOL     OW29521   6.817   1.907   3.478
 9541SOL    HW129522   6.777   1.816   3.463
 9541SOL    HW229523   6.859   1.939   3.393
 9542SOL     OW29524   4.580   4.407   4.421
 9542SOL    HW129525   4.512   4.463   4.467
 9542SOL    HW229526   4.578   4.426   4.323
 9543SOL     OW29527   5.434   2.507   1.952
 9543SOL    HW129528   5.371   2.584   1.966
 9543SOL    HW229529   5.428   2.476   1.857
 9544SOL     OW29530   4.363   1.032   1.405
 9544SOL    HW129531   4.269   1.051   1.379
 9544SOL    HW229532   4.377   0.933   1.409
 9545SOL     OW29533   1.382   0.133   4.582
 9545SOL    HW129534   1.289   0.129   4.544
 9545SOL    HW229535   1.412   0.040   4.605
 9546SOL     OW29536   2.272   4.766   1.757
 9546SOL    HW129537   2.182   4.808   1.770
 9546SOL    HW229538   2.273   4.716   1.671
 9547SOL     OW29539   5.904   5.215   3.447
 9547SOL    HW129540   5.977   5.149   3.426
 9547SOL    HW229541   5.830   5.205   3.381
 9548SOL     OW29542   5.334   0.125   2.759
 9548SOL    HW129543   5.380   0.211   2.739
 9548SOL    HW229544   5.256   0.114   2.698
 9549SOL     OW29545   2.330   5.951   0.265
 9549SOL    HW129546   2.334   6.051   0.260
 9549SOL    HW229547   2.360   5.921   0.355
 9550SOL     OW29548   1.810   1.242   0.197
 9550SOL    HW129549   1.875   1.180   0.242
 9550SOL    HW229550   1.737   1.189   0.155
 9551SOL     OW29551   1.907   5.498   4.899
 9551SOL    HW129552   1.956   5.537   4.822
 9551SOL    HW229553   1.808   5.507   4.883
 9552SOL     OW29554   0.434   5.150   3.610
 9552SOL    HW129555   0.427   5.085   3.686
 9552SOL    HW229556   0.351   5.147   3.556
 9553SOL     OW29557   5.585   4.669   6.285
 9553SOL    HW129558   5.613   4.584   6.329
 9553SOL    HW229559   5.499   4.700   6.324
 9554SOL     OW29560   1.803   1.522   1.422
 9554SOL    HW129561   1.855   1.608   1.429
 9554SOL    HW229562   1.751   1.523   1.337
 9555SOL     OW29563   0.344   2.668   6.244
 9555SOL    HW129564   0.266   2.725   6.218
 9555SOL    HW229565   0.311   2.579   6.275
 9556SOL     OW29566   6.713   1.162   1.353
 9556SOL    HW129567   6.776   1.095   1.391
 9556SOL    HW229568   6.721   1.248   1.403
 9557SOL     OW29569   5.066   1.729   2.235
 9557SOL    HW129570   5.095   1.643   2.194
 9557SOL    HW229571   5.092   1.805   2.175
 9558SOL     OW29572   6.737   3.963   1.212
 9558SOL    HW129573   6.693   4.051   1.230
 9558SOL    HW229574   6.785   3.967   1.125
 9559SOL     OW29575   0.527   3.925   2.631
 9559SOL    HW129576   0.468   3.934   2.711
 9559SOL    HW229577   0.520   4.009   2.576
 9560SOL     OW29578   3.933   2.438   5.340
 9560SOL    HW129579   3.983   2.394   5.415
 9560SOL    HW229580   3.999   2.480   5.277
 9561SOL     OW29581   3.040   6.227   6.088
 9561SOL    HW129582   3.024   6.325   6.083
 9561SOL    HW229583   3.092   6.197   6.008
 9562SOL     OW29584   5.694   5.072   4.482
 9562SOL    HW129585   5.706   5.150   4.544
 9562SOL    HW229586   5.694   5.104   4.387
 9563SOL     OW29587   0.655   6.810   6.753
 9563SOL    HW129588   0.647   6.747   6.830
 9563SOL    HW229589   0.671   6.902   6.787
 9564SOL     OW29590   1.228   0.699   5.909
 9564SOL    HW129591   1.316   0.717   5.865
 9564SOL    HW229592   1.223   0.603   5.935
 9565SOL     OW29593   3.309   5.962   4.847
 9565SOL    HW129594   3.268   6.030   4.908
 9565SOL    HW229595   3.267   5.873   4.862
 9566SOL     OW29596   3.157   4.798   6.219
 9566SOL    HW129597   3.212   4.868   6.173
 9566SOL    HW229598   3.110   4.743   6.151
 9567SOL     OW29599   5.990   5.095   4.885
 9567SOL    HW129600   6.070   5.098   4.945
 9567SOL    HW229601   5.907   5.099   4.941
 9568SOL     OW29602   5.284   4.009   6.194
 9568SOL    HW129603   5.201   4.024   6.142
 9568SOL    HW229604   5.278   3.922   6.243
 9569SOL     OW29605   5.813   7.020   1.482
 9569SOL    HW129606   5.718   6.990   1.495
 9569SOL    HW229607   5.815   0.096   1.479
 9570SOL     OW29608   1.229   1.680   6.705
 9570SOL    HW129609   1.205   1.776   6.690
 9570SOL    HW229610   1.224   1.660   6.802
 9571SOL     OW29611   2.769   2.175   0.933
 9571SOL    HW129612   2.793   2.261   0.887
 9571SOL    HW229613   2.721   2.115   0.870
 9572SOL     OW29614   0.374   4.018   0.885
 9572SOL    HW129615   0.390   4.062   0.796
 9572SOL    HW229616   0.430   3.936   0.892
 9573SOL     OW29617   4.654   1.045   3.018
 9573SOL    HW129618   4.702   0.989   2.950
 9573SOL    HW229619   4.718   1.108   3.060
 9574SOL     OW29620   2.648   2.441   3.428
 9574SOL    HW129621   2.641   2.458   3.329
 9574SOL    HW229622   2.582   2.499   3.476
 9575SOL     OW29623   4.118   1.439   3.120
 9575SOL    HW129624   4.140   1.533   3.094
 9575SOL    HW229625   4.089   1.388   3.039
 9576SOL     OW29626   3.804   3.300   5.522
 9576SOL    HW129627   3.747   3.273   5.444
 9576SOL    HW229628   3.870   3.227   5.541
 9577SOL     OW29629   0.934   6.095   3.731
 9577SOL    HW129630   0.876   6.165   3.689
 9577SOL    HW229631   0.941   6.016   3.669
 9578SOL     OW29632   0.050   3.795   1.305
 9578SOL    HW129633   0.044   3.782   1.404
 9578SOL    HW229634   0.076   3.890   1.285
 9579SOL     OW29635   2.023   5.109   3.106
 9579SOL    HW129636   1.939   5.075   3.064
 9579SOL    HW229637   2.096   5.111   3.038
 9580SOL     OW29638   4.216   3.709   5.894
 9580SOL    HW129639   4.160   3.786   5.865
 9580SOL    HW229640   4.162   3.625   5.889
 9581SOL     OW29641   0.996   5.739   5.837
 9581SOL    HW129642   0.927   5.731   5.765
 9581SOL    HW229643   1.059   5.661   5.832
 9582SOL     OW29644   4.648   5.195   3.367
 9582SOL    HW129645   4.609   5.282   3.336
 9582SOL    HW229646   4.744   5.208   3.390
 9583SOL     OW29647   2.026   4.790   1.573
 9583SOL    HW129648   1.995   4.847   1.649
 9583SOL    HW229649   2.087   4.843   1.514
 9584SOL     OW29650   5.169   4.909   0.126
 9584SOL    HW129651   5.243   4.976   0.129
 9584SOL    HW229652   5.150   4.886   0.031
 9585SOL     OW29653   6.988   0.891   3.006
 9585SOL    HW129654   7.011   0.876   2.910
 9585SOL    HW229655   0.040   0.939   3.051
 9586SOL     OW29656   5.249   3.526   2.493
 9586SOL    HW129657   5.163   3.578   2.496
 9586SOL    HW229658   5.254   3.464   2.572
 9587SOL     OW29659   4.610   6.456   1.503
 9587SOL    HW129660   4.707   6.463   1.526
 9587SOL    HW229661   4.597   6.387   1.432
 9588SOL     OW29662   6.353   1.177   3.443
 9588SOL    HW129663   6.263   1.162   3.485
 9588SOL    HW229664   6.416   1.105   3.471
 9589SOL     OW29665   3.202   2.109   4.548
 9589SOL    HW129666   3.150   2.050   4.485
 9589SOL    HW229667   3.138   2.166   4.600
 9590SOL     OW29668   0.480   4.743   4.707
 9590SOL    HW129669   0.570   4.786   4.713
 9590SOL    HW229670   0.490   4.647   4.680
 9591SOL     OW29671   1.226   4.579   2.712
 9591SOL    HW129672   1.317   4.547   2.736
 9591SOL    HW229673   1.164   4.500   2.704
 9592SOL     OW29674   4.636   5.676   1.091
 9592SOL    HW129675   4.683   5.764   1.097
 9592SOL    HW229676   4.649   5.626   1.177
 9593SOL     OW29677   2.231   2.014   3.049
 9593SOL    HW129678   2.165   2.080   3.012
 9593SOL    HW229679   2.221   1.927   3.000
 9594SOL     OW29680   5.833   0.264   0.947
 9594SOL    HW129681   5.801   0.358   0.940
 9594SOL    HW229682   5.767   0.211   1.001
 9595SOL     OW29683   1.254   5.632   5.215
 9595SOL    HW129684   1.206   5.544   5.219
 9595SOL    HW229685   1.286   5.657   5.306
 9596SOL     OW29686   5.216   5.881   2.134
 9596SOL    HW129687   5.290   5.814   2.139
 9596SOL    HW229688   5.146   5.849   2.070
 9597SOL     OW29689   2.533   4.436   1.326
 9597SOL    HW129690   2.478   4.485   1.258
 9597SOL    HW229691   2.629   4.463   1.316
 9598SOL     OW29692   0.349   6.415   5.933
 9598SOL    HW129693   0.255   6.384   5.919
 9598SOL    HW229694   0.362   6.443   6.028
 9599SOL     OW29695   3.870   2.131   5.046
 9599SOL    HW129696   3.784   2.113   4.998
 9599SOL    HW229697   3.938   2.162   4.980
 9600SOL     OW29698   1.694   6.484   6.417
 9600SOL    HW129699   1.693   6.459   6.320
 9600SOL    HW229700   1.611   6.536   6.439
 9601SOL     OW29701   0.805   6.506   5.259
 9601SOL    HW129702   0.813   6.425   5.317
 9601SOL    HW229703   0.775   6.479   5.167
 9602SOL     OW29704   1.395   5.343   6.308
 9602SOL    HW129705   1.428   5.355   6.401
 9602SOL    HW229706   1.455   5.279   6.259
 9603SOL     OW29707   1.046   4.858   2.398
 9603SOL    HW129708   1.046   4.948   2.356
 9603SOL    HW229709   1.140   4.826   2.409
 9604SOL     OW29710   0.330   0.522   6.404
 9604SOL    HW129711   0.270   0.588   6.449
 9604SOL    HW229712   0.301   0.511   6.309
 9605SOL     OW29713   2.910   4.657   0.972
 9605SOL    HW129714   2.825   4.673   1.023
 9605SOL    HW229715   2.951   4.571   1.003
 9606SOL     OW29716   0.260   0.280   5.378
 9606SOL    HW129717   0.294   0.259   5.470
 9606SOL    HW229718   0.280   0.204   5.317
 9607SOL     OW29719   0.274   2.124   2.401
 9607SOL    HW129720   0.211   2.118   2.477
 9607SOL    HW229721   0.368   2.124   2.435
 9608SOL     OW29722   6.489   0.999   2.114
 9608SOL    HW129723   6.494   1.033   2.020
 9608SOL    HW229724   6.426   1.056   2.167
 9609SOL     OW29725   1.439   2.167   3.386
 9609SOL    HW129726   1.479   2.095   3.444
 9609SOL    HW229727   1.500   2.246   3.384
 9610SOL     OW29728   3.827   1.069   5.251
 9610SOL    HW129729   3.735   1.101   5.275
 9610SOL    HW229730   3.876   1.042   5.334
 9611SOL     OW29731   5.094   5.845   0.730
 9611SOL    HW129732   5.181   5.800   0.751
 9611SOL    HW229733   5.103   5.896   0.644
 9612SOL     OW29734   5.435   3.511   3.704
 9612SOL    HW129735   5.397   3.589   3.655
 9612SOL    HW229736   5.393   3.427   3.671
 9613SOL     OW29737   5.638   1.021   4.717
 9613SOL    HW129738   5.730   1.005   4.682
 9613SOL    HW229739   5.633   1.111   4.760
 9614SOL     OW29740   2.717   2.303   0.537
 9614SOL    HW129741   2.789   2.357   0.492
 9614SOL    HW229742   2.714   2.212   0.496
 9615SOL     OW29743   0.602   5.760   3.672
 9615SOL    HW129744   0.525   5.708   3.638
 9615SOL    HW229745   0.589   5.857   3.651
 9616SOL     OW29746   1.104   2.567   0.933
 9616SOL    HW129747   1.195   2.555   0.973
 9616SOL    HW229748   1.043   2.608   1.000
 9617SOL     OW29749   0.296   2.777   2.541
 9617SOL    HW129750   0.283   2.819   2.631
 9617SOL    HW229751   0.301   2.849   2.471
 9618SOL     OW29752   4.750   3.715   1.694
 9618SOL    HW129753   4.661   3.760   1.680
 9618SOL    HW229754   4.802   3.766   1.762
 9619SOL     OW29755   0.534   6.696   1.233
 9619SOL    HW129756   0.625   6.659   1.220
 9619SOL    HW229757   0.469   6.648   1.176
 9620SOL     OW29758   3.557   1.300   0.080
 9620SOL    HW129759   3.611   1.245   0.017
 9620SOL    HW229760   3.612   1.378   0.111
 9621SOL     OW29761   0.370   0.808   1.578
 9621SOL    HW129762   0.430   0.735   1.610
 9621SOL    HW229763   0.286   0.808   1.633
 9622SOL     OW29764   6.258   5.703   5.726
 9622SOL    HW129765   6.289   5.611   5.748
 9622SOL    HW229766   6.215   5.703   5.636
 9623SOL     OW29767   2.891   5.777   5.702
 9623SOL    HW129768   2.988   5.792   5.720
 9623SOL    HW229769   2.881   5.733   5.613
 9624SOL     OW29770   4.245   5.505   5.727
 9624SOL    HW129771   4.335   5.464   5.719
 9624SOL    HW229772   4.180   5.454   5.670
 9625SOL     OW29773   4.470   4.552   6.627
 9625SOL    HW129774   4.566   4.570   6.603
 9625SOL    HW229775   4.442   4.465   6.585
 9626SOL     OW29776   2.788   2.551   6.402
 9626SOL    HW129777   2.747   2.630   6.448
 9626SOL    HW229778   2.743   2.536   6.314
 9627SOL     OW29779   0.273   5.790   0.596
 9627SOL    HW129780   0.360   5.746   0.616
 9627SOL    HW229781   0.268   5.811   0.498
 9628SOL     OW29782   5.625   1.099   5.843
 9628SOL    HW129783   5.687   1.165   5.886
 9628SOL    HW229784   5.638   1.009   5.883
 9629SOL     OW29785   0.622   5.627   4.007
 9629SOL    HW129786   0.604   5.718   4.045
 9629SOL    HW229787   0.583   5.620   3.916
 9630SOL     OW29788   5.188   0.927   6.330
 9630SOL    HW129789   5.212   0.980   6.249
 9630SOL    HW229790   5.108   0.969   6.375
 9631SOL     OW29791   4.381   6.285   0.695
 9631SOL    HW129792   4.449   6.294   0.768
 9631SOL    HW229793   4.364   6.375   0.655
 9632SOL     OW29794   2.453   5.051   3.093
 9632SOL    HW129795   2.473   4.953   3.090
 9632SOL    HW229796   2.517   5.100   3.034
 9633SOL     OW29797   3.634   2.927   5.003
 9633SOL    HW129798   3.668   2.857   5.066
 9633SOL    HW229799   3.590   3.000   5.055
 9634SOL     OW29800   5.633   4.808   2.956
 9634SOL    HW129801   5.698   4.759   3.014
 9634SOL    HW229802   5.621   4.901   2.991
 9635SOL     OW29803   0.752   4.695   4.533
 9635SOL    HW129804   0.793   4.720   4.446
 9635SOL    HW229805   0.690   4.617   4.520
 9636SOL     OW29806   5.948   3.782   3.855
 9636SOL    HW129807   6.046   3.764   3.863
 9636SOL    HW229808   5.917   3.831   3.936
 9637SOL     OW29809   1.571   3.421   6.916
 9637SOL    HW129810   1.527   3.485   6.854
 9637SOL    HW229811   1.660   3.458   6.944
 9638SOL     OW29812   6.155   5.144   5.564
 9638SOL    HW129813   6.254   5.160   5.565
 9638SOL    HW229814   6.132   5.087   5.485
 9639SOL     OW29815   5.020   2.247   1.558
 9639SOL    HW129816   4.998   2.330   1.507
 9639SOL    HW229817   4.971   2.247   1.645
 9640SOL     OW29818   3.557   0.065   2.939
 9640SOL    HW129819   3.624   0.037   3.009
 9640SOL    HW229820   3.473   0.096   2.984
 9641SOL     OW29821   0.336   3.049   4.808
 9641SOL    HW129822   0.424   3.004   4.789
 9641SOL    HW229823   0.353   3.138   4.850
 9642SOL     OW29824   0.598   2.854   4.855
 9642SOL    HW129825   0.545   2.801   4.921
 9642SOL    HW229826   0.668   2.795   4.813
 9643SOL     OW29827   5.536   4.761   4.774
 9643SOL    HW129828   5.622   4.713   4.788
 9643SOL    HW229829   5.479   4.710   4.711
 9644SOL     OW29830   1.137   4.608   3.870
 9644SOL    HW129831   1.146   4.707   3.876
 9644SOL    HW229832   1.162   4.578   3.778
 9645SOL     OW29833   1.312   5.090   6.697
 9645SOL    HW129834   1.403   5.107   6.735
 9645SOL    HW229835   1.321   5.046   6.608
 9646SOL     OW29836   3.032   5.354   0.817
 9646SOL    HW129837   2.941   5.326   0.847
 9646SOL    HW229838   3.026   5.391   0.724
 9647SOL     OW29839   5.493   6.658   3.114
 9647SOL    HW129840   5.408   6.693   3.154
 9647SOL    HW229841   5.543   6.606   3.183
 9648SOL     OW29842   3.124   2.107   1.384
 9648SOL    HW129843   3.024   2.120   1.382
 9648SOL    HW229844   3.158   2.093   1.291
 9649SOL     OW29845   0.234   5.469   0.872
 9649SOL    HW129846   0.330   5.480   0.899
 9649SOL    HW229847   0.223   5.379   0.829
 9650SOL     OW29848   0.675   4.882   4.997
 9650SOL    HW129849   0.661   4.881   4.898
 9650SOL    HW229850   0.691   4.788   5.029
 9651SOL     OW29851   3.890   2.087   6.910
 9651SOL    HW129852   3.905   2.011   6.973
 9651SOL    HW229853   3.819   2.062   6.843
 9652SOL     OW29854   0.329   3.953   0.367
 9652SOL    HW129855   0.411   4.002   0.335
 9652SOL    HW229856   0.330   3.860   0.331
 9653SOL     OW29857   5.160   4.659   5.787
 9653SOL    HW129858   5.106   4.589   5.740
 9653SOL    HW229859   5.100   4.717   5.841
 9654SOL     OW29860   3.764   3.629   3.404
 9654SOL    HW129861   3.857   3.648   3.372
 9654SOL    HW229862   3.706   3.609   3.325
 9655SOL     OW29863   4.557   1.434   1.156
 9655SOL    HW129864   4.645   1.458   1.114
 9655SOL    HW229865   4.562   1.341   1.191
 9656SOL     OW29866   4.581   4.279   6.854
 9656SOL    HW129867   4.539   4.220   6.923
 9656SOL    HW229868   4.593   4.371   6.892
 9657SOL     OW29869   5.200   4.608   3.414
 9657SOL    HW129870   5.260   4.654   3.348
 9657SOL    HW229871   5.105   4.619   3.385
 9658SOL     OW29872   5.342   1.212   2.727
 9658SOL    HW129873   5.350   1.281   2.799
 9658SOL    HW229874   5.296   1.252   2.647
 9659SOL     OW29875   3.422   2.942   6.828
 9659SOL    HW129876   3.340   2.965   6.776
 9659SOL    HW229877   3.503   2.969   6.777
 9660SOL     OW29878   1.575   6.567   1.294
 9660SOL    HW129879   1.662   6.542   1.335
 9660SOL    HW229880   1.565   6.522   1.205
 9661SOL     OW29881   4.193   3.347   1.860
 9661SOL    HW129882   4.166   3.443   1.855
 9661SOL    HW229883   4.226   3.317   1.771
 9662SOL     OW29884   4.571   6.996   5.681
 9662SOL    HW129885   4.543   6.928   5.748
 9662SOL    HW229886   4.615   6.951   5.603
 9663SOL     OW29887   0.908   5.406   3.003
 9663SOL    HW129888   0.925   5.311   2.975
 9663SOL    HW229889   0.966   5.467   2.949
 9664SOL     OW29890   3.095   4.892   2.891
 9664SOL    HW129891   3.112   4.894   2.792
 9664SOL    HW229892   3.173   4.932   2.939
 9665SOL     OW29893   6.626   4.676   6.392
 9665SOL    HW129894   6.547   4.616   6.403
 9665SOL    HW229895   6.635   4.734   6.473
 9666SOL     OW29896   5.235   3.812   0.765
 9666SOL    HW129897   5.191   3.728   0.797
 9666SOL    HW229898   5.334   3.805   0.777
 9667SOL     OW29899   5.372   6.420   0.021
 9667SOL    HW129900   5.336   6.368   0.098
 9667SOL    HW229901   5.459   6.381   7.015
 9668SOL     OW29902   1.691   1.035   6.387
 9668SOL    HW129903   1.605   1.057   6.342
 9668SOL    HW229904   1.727   1.117   6.431
 9669SOL     OW29905   2.990   0.343   6.987
 9669SOL    HW129906   2.958   0.403   0.037
 9669SOL    HW229907   3.044   0.397   6.922
 9670SOL     OW29908   0.507   0.843   1.168
 9670SOL    HW129909   0.547   0.791   1.092
 9670SOL    HW229910   0.484   0.780   1.243
 9671SOL     OW29911   1.384   5.066   6.426
 9671SOL    HW129912   1.331   5.039   6.345
 9671SOL    HW229913   1.400   5.165   6.423
 9672SOL     OW29914   0.668   3.521   3.962
 9672SOL    HW129915   0.650   3.511   4.060
 9672SOL    HW229916   0.624   3.603   3.928
 9673SOL     OW29917   2.230   2.501   6.495
 9673SOL    HW129918   2.231   2.402   6.507
 9673SOL    HW229919   2.289   2.526   6.419
 9674SOL     OW29920   1.718   6.854   3.871
 9674SOL    HW129921   1.702   6.949   3.844
 9674SOL    HW229922   1.791   6.816   3.814
 9675SOL     OW29923   6.487   4.608   5.696
 9675SOL    HW129924   6.477   4.707   5.709
 9675SOL    HW229925   6.559   4.591   5.628
 9676SOL     OW29926   0.579   3.481   5.490
 9676SOL    HW129927   0.598   3.414   5.562
 9676SOL    HW229928   0.581   3.436   5.401
 9677SOL     OW29929   6.920   4.800   2.584
 9677SOL    HW129930   6.900   4.884   2.635
 9677SOL    HW229931   7.016   4.801   2.555
 9678SOL     OW29932   3.591   3.202   5.415
 9678SOL    HW129933   3.539   3.280   5.382
 9678SOL    HW229934   3.560   3.177   5.506
 9679SOL     OW29935   1.480   1.287   3.861
 9679SOL    HW129936   1.510   1.201   3.904
 9679SOL    HW229937   1.423   1.338   3.925
 9680SOL     OW29938   4.436   0.444   2.479
 9680SOL    HW129939   4.388   0.439   2.566
 9680SOL    HW229940   4.434   0.538   2.445
 9681SOL     OW29941   1.388   3.524   1.284
 9681SOL    HW129942   1.482   3.525   1.319
 9681SOL    HW229943   1.335   3.456   1.335
 9682SOL     OW29944   4.697   0.027   5.975
 9682SOL    HW129945   4.647   7.020   5.894
 9682SOL    HW229946   4.777   0.079   5.946
 9683SOL     OW29947   3.831   6.055   4.292
 9683SOL    HW129948   3.782   5.997   4.226
 9683SOL    HW229949   3.929   6.048   4.276
 9684SOL     OW29950   0.034   3.556   5.806
 9684SOL    HW129951   0.035   3.655   5.791
 9684SOL    HW229952   7.014   3.536   5.893
 9685SOL     OW29953   3.304   4.586   1.685
 9685SOL    HW129954   3.381   4.591   1.749
 9685SOL    HW229955   3.238   4.519   1.717
 9686SOL     OW29956   0.400   1.681   5.680
 9686SOL    HW129957   0.474   1.748   5.688
 9686SOL    HW229958   0.372   1.673   5.585
 9687SOL     OW29959   5.630   1.360   3.827
 9687SOL    HW129960   5.631   1.366   3.728
 9687SOL    HW229961   5.544   1.398   3.862
 9688SOL     OW29962   0.264   4.939   1.638
 9688SOL    HW129963   0.284   4.856   1.586
 9688SOL    HW229964   0.297   4.929   1.732
 9689SOL     OW29965   1.649   5.472   1.174
 9689SOL    HW129966   1.660   5.376   1.150
 9689SOL    HW229967   1.562   5.506   1.138
 9690SOL     OW29968   0.240   4.587   5.250
 9690SOL    HW129969   0.261   4.591   5.152
 9690SOL    HW229970   0.143   4.609   5.264
 9691SOL     OW29971   3.973   3.402   2.010
 9691SOL    HW129972   3.944   3.331   2.074
 9691SOL    HW229973   4.036   3.364   1.943
 9692SOL     OW29974   5.026   4.508   0.470
 9692SOL    HW129975   4.995   4.578   0.405
 9692SOL    HW229976   5.070   4.552   0.548
 9693SOL     OW29977   4.672   3.495   6.206
 9693SOL    HW129978   4.677   3.396   6.211
 9693SOL    HW229979   4.603   3.528   6.270
 9694SOL     OW29980   2.591   6.254   0.969
 9694SOL    HW129981   2.623   6.328   0.910
 9694SOL    HW229982   2.604   6.279   1.065
 9695SOL     OW29983   1.059   2.902   4.050
 9695SOL    HW129984   0.975   2.849   4.037
 9695SOL    HW229985   1.088   2.895   4.145
 9696SOL     OW29986   4.849   3.061   3.354
 9696SOL    HW129987   4.856   3.160   3.352
 9696SOL    HW229988   4.877   3.027   3.444
 9697SOL     OW29989   0.185   0.462   1.632
 9697SOL    HW129990   0.276   0.449   1.592
 9697SOL    HW229991   0.193   0.481   1.729
 9698SOL     OW29992   0.205   3.467   1.805
 9698SOL    HW129993   0.106   3.455   1.814
 9698SOL    HW229994   0.225   3.509   1.716
 9699SOL     OW29995   0.802   5.901   2.043
 9699SOL    HW129996   0.813   5.990   1.999
 9699SOL    HW229997   0.723   5.854   2.004
 9700SOL     OW29998   5.392   0.714   6.161
 9700SOL    HW129999   5.420   0.810   6.169
 9700SOL    HW230000   5.431   0.674   6.078
 9701SOL     OW30001   5.082   4.007   0.655
 9701SOL    HW130002   5.141   3.931   0.682
 9701SOL    HW230003   5.055   3.997   0.559
 9702SOL     OW30004   3.421   3.811   1.775
 9702SOL    HW130005   3.476   3.778   1.852
 9702SOL    HW230006   3.426   3.910   1.770
 9703SOL     OW30007   6.167   5.124   3.433
 9703SOL    HW130008   6.235   5.123   3.359
 9703SOL    HW230009   6.189   5.053   3.500
 9704SOL     OW30010   1.059   4.401   2.310
 9704SOL    HW130011   1.068   4.439   2.218
 9704SOL    HW230012   0.995   4.456   2.364
 9705SOL     OW30013   0.484   3.575   5.744
 9705SOL    HW130014   0.552   3.543   5.678
 9705SOL    HW230015   0.500   3.671   5.766
 9706SOL     OW30016   0.667   1.050   2.429
 9706SOL    HW130017   0.683   0.965   2.479
 9706SOL    HW230018   0.614   1.031   2.346
 9707SOL     OW30019   0.967   5.088   2.289
 9707SOL    HW130020   0.877   5.130   2.296
 9707SOL    HW230021   1.036   5.159   2.271
 9708SOL     OW30022   2.910   0.431   1.603
 9708SOL    HW130023   2.968   0.356   1.572
 9708SOL    HW230024   2.822   0.394   1.633
 9709SOL     OW30025   5.087   1.955   2.075
 9709SOL    HW130026   5.161   1.990   2.018
 9709SOL    HW230027   5.009   1.932   2.017
 9710SOL     OW30028   4.892   5.098   4.443
 9710SOL    HW130029   4.990   5.110   4.434
 9710SOL    HW230030   4.851   5.085   4.353
 9711SOL     OW30031   2.714   0.783   6.658
 9711SOL    HW130032   2.805   0.764   6.694
 9711SOL    HW230033   2.677   0.865   6.702
 9712SOL     OW30034   4.700   0.440   5.413
 9712SOL    HW130035   4.756   0.484   5.483
 9712SOL    HW230036   4.652   0.510   5.359
 9713SOL     OW30037   2.038   0.218   2.607
 9713SOL    HW130038   2.114   0.193   2.548
 9713SOL    HW230039   2.012   0.313   2.589
 9714SOL     OW30040   2.116   3.059   4.387
 9714SOL    HW130041   2.170   2.977   4.365
 9714SOL    HW230042   2.021   3.032   4.402
 9715SOL     OW30043   0.294   2.878   6.462
 9715SOL    HW130044   0.379   2.926   6.484
 9715SOL    HW230045   0.315   2.785   6.433
 9716SOL     OW30046   2.664   6.425   0.782
 9716SOL    HW130047   2.628   6.422   0.689
 9716SOL    HW230048   2.764   6.432   0.778
 9717SOL     OW30049   3.854   2.507   5.824
 9717SOL    HW130050   3.939   2.478   5.868
 9717SOL    HW230051   3.796   2.427   5.808
 9718SOL     OW30052   3.975   2.613   6.822
 9718SOL    HW130053   4.062   2.655   6.797
 9718SOL    HW230054   3.935   2.569   6.742
 9719SOL     OW30055   4.450   0.530   5.879
 9719SOL    HW130056   4.464   0.476   5.796
 9719SOL    HW230057   4.352   0.548   5.891
 9720SOL     OW30058   2.000   2.108   2.636
 9720SOL    HW130059   2.047   2.122   2.723
 9720SOL    HW230060   1.912   2.156   2.638
 9721SOL     OW30061   0.753   1.638   1.180
 9721SOL    HW130062   0.729   1.559   1.123
 9721SOL    HW230063   0.826   1.613   1.243
 9722SOL     OW30064   4.351   2.718   5.352
 9722SOL    HW130065   4.265   2.766   5.331
 9722SOL    HW230066   4.348   2.685   5.446
 9723SOL     OW30067   5.885   0.483   4.815
 9723SOL    HW130068   5.908   0.386   4.826
 9723SOL    HW230069   5.837   0.515   4.897
 9724SOL     OW30070   1.499   4.386   1.271
 9724SOL    HW130071   1.445   4.307   1.242
 9724SOL    HW230072   1.573   4.356   1.330
 9725SOL     OW30073   5.538   5.651   3.911
 9725SOL    HW130074   5.554   5.723   3.844
 9725SOL    HW230075   5.476   5.582   3.872
 9726SOL     OW30076   6.581   7.014   2.860
 9726SOL    HW130077   6.605   6.979   2.769
 9726SOL    HW230078   6.484   0.016   2.861
 9727SOL     OW30079   6.066   2.775   1.617
 9727SOL    HW130080   6.083   2.701   1.682
 9727SOL    HW230081   5.972   2.769   1.584
 9728SOL     OW30082   5.249   2.187   4.379
 9728SOL    HW130083   5.186   2.116   4.348
 9728SOL    HW230084   5.339   2.172   4.338
 9729SOL     OW30085   0.550   3.439   2.719
 9729SOL    HW130086   0.503   3.459   2.634
 9729SOL    HW230087   0.547   3.341   2.737
 9730SOL     OW30088   0.833   5.392   3.283
 9730SOL    HW130089   0.741   5.430   3.293
 9730SOL    HW230090   0.865   5.406   3.190
 9731SOL     OW30091   6.314   2.639   1.419
 9731SOL    HW130092   6.321   2.587   1.503
 9731SOL    HW230093   6.218   2.660   1.400
 9732SOL     OW30094   1.487   3.291   2.675
 9732SOL    HW130095   1.545   3.333   2.744
 9732SOL    HW230096   1.520   3.199   2.655
 9733SOL     OW30097   6.189   5.152   2.061
 9733SOL    HW130098   6.124   5.184   2.130
 9733SOL    HW230099   6.171   5.198   1.974
 9734SOL     OW30100   4.287   5.161   6.592
 9734SOL    HW130101   4.191   5.184   6.573
 9734SOL    HW230102   4.305   5.066   6.566
 9735SOL     OW30103   0.453   1.851   0.228
 9735SOL    HW130104   0.388   1.785   0.190
 9735SOL    HW230105   0.546   1.818   0.212
 9736SOL     OW30106   5.104   2.665   5.147
 9736SOL    HW130107   5.061   2.600   5.084
 9736SOL    HW230108   5.081   2.758   5.119
 9737SOL     OW30109   5.494   3.031   4.707
 9737SOL    HW130110   5.525   2.951   4.760
 9737SOL    HW230111   5.465   3.103   4.770
 9738SOL     OW30112   2.459   6.409   1.336
 9738SOL    HW130113   2.519   6.469   1.283
 9738SOL    HW230114   2.490   6.406   1.431
 9739SOL     OW30115   5.766   6.998   0.292
 9739SOL    HW130116   5.784   6.907   0.331
 9739SOL    HW230117   5.847   0.032   0.303
 9740SOL     OW30118   6.549   0.701   1.536
 9740SOL    HW130119   6.587   0.611   1.513
 9740SOL    HW230120   6.485   0.729   1.465
 9741SOL     OW30121   2.597   2.425   3.150
 9741SOL    HW130122   2.625   2.460   3.061
 9741SOL    HW230123   2.544   2.495   3.198
 9742SOL     OW30124   4.093   2.061   6.159
 9742SOL    HW130125   4.118   2.134   6.222
 9742SOL    HW230126   4.016   2.091   6.102
 9743SOL     OW30127   6.622   3.832   4.312
 9743SOL    HW130128   6.705   3.818   4.259
 9743SOL    HW230129   6.571   3.909   4.274
 9744SOL     OW30130   2.008   1.648   2.744
 9744SOL    HW130131   2.050   1.572   2.693
 9744SOL    HW230132   1.915   1.622   2.770
 9745SOL     OW30133   0.323   0.085   5.809
 9745SOL    HW130134   0.226   0.069   5.823
 9745SOL    HW230135   0.372   0.070   5.895
 9746SOL     OW30136   3.123   6.170   5.544
 9746SOL    HW130137   3.092   6.219   5.462
 9746SOL    HW230138   3.105   6.072   5.534
 9747SOL     OW30139   3.529   1.785   3.690
 9747SOL    HW130140   3.614   1.814   3.646
 9747SOL    HW230141   3.549   1.752   3.783
 9748SOL     OW30142   0.430   1.682   2.198
 9748SOL    HW130143   0.359   1.719   2.258
 9748SOL    HW230144   0.510   1.657   2.253
 9749SOL     OW30145   6.953   0.850   1.679
 9749SOL    HW130146   6.906   0.826   1.764
 9749SOL    HW230147   6.987   0.767   1.635
 9750SOL     OW30148   5.553   2.795   5.785
 9750SOL    HW130149   5.545   2.736   5.865
 9750SOL    HW230150   5.513   2.885   5.805
 9751SOL     OW30151   3.160   6.778   1.256
 9751SOL    HW130152   3.132   6.799   1.162
 9751SOL    HW230153   3.087   6.805   1.319
 9752SOL     OW30154   3.258   2.936   0.540
 9752SOL    HW130155   3.292   2.870   0.473
 9752SOL    HW230156   3.324   3.011   0.549
 9753SOL     OW30157   6.784   5.792   3.739
 9753SOL    HW130158   6.800   5.776   3.641
 9753SOL    HW230159   6.707   5.736   3.770
 9754SOL     OW30160   3.315   0.864   2.021
 9754SOL    HW130161   3.360   0.839   2.107
 9754SOL    HW230162   3.240   0.802   2.002
 9755SOL     OW30163   3.657   3.830   6.973
 9755SOL    HW130164   3.621   3.893   0.019
 9755SOL    HW230165   3.595   3.827   6.896
 9756SOL     OW30166   5.547   0.563   5.906
 9756SOL    HW130167   5.607   0.539   5.830
 9756SOL    HW230168   5.535   0.484   5.965
 9757SOL     OW30169   5.716   3.735   4.222
 9757SOL    HW130170   5.683   3.816   4.270
 9757SOL    HW230171   5.648   3.663   4.226
 9758SOL     OW30172   2.589   0.580   2.072
 9758SOL    HW130173   2.567   0.678   2.069
 9758SOL    HW230174   2.511   0.528   2.036
 9759SOL     OW30175   6.673   2.061   1.322
 9759SOL    HW130176   6.771   2.073   1.339
 9759SOL    HW230177   6.654   2.075   1.225
 9760SOL     OW30178   4.744   0.323   6.683
 9760SOL    HW130179   4.775   0.302   6.590
 9760SOL    HW230180   4.823   0.326   6.745
 9761SOL     OW30181   0.918   2.499   1.227
 9761SOL    HW130182   0.920   2.590   1.186
 9761SOL    HW230183   0.825   2.461   1.220
 9762SOL     OW30184   3.015   0.891   5.757
 9762SOL    HW130185   3.106   0.852   5.741
 9762SOL    HW230186   3.015   0.938   5.845
 9763SOL     OW30187   6.535   2.810   1.398
 9763SOL    HW130188   6.512   2.880   1.465
 9763SOL    HW230189   6.454   2.754   1.379
 9764SOL     OW30190   0.691   2.620   2.672
 9764SOL    HW130191   0.743   2.535   2.677
 9764SOL    HW230192   0.752   2.697   2.685
 9765SOL     OW30193   6.744   1.587   1.196
 9765SOL    HW130194   6.825   1.600   1.254
 9765SOL    HW230195   6.688   1.670   1.199
 9766SOL     OW30196   0.563   2.820   3.120
 9766SOL    HW130197   0.653   2.844   3.156
 9766SOL    HW230198   0.492   2.862   3.176
 9767SOL     OW30199   3.143   1.795   5.121
 9767SOL    HW130200   3.093   1.764   5.202
 9767SOL    HW230201   3.088   1.863   5.072
 9768SOL     OW30202   4.940   2.473   0.116
 9768SOL    HW130203   4.972   2.422   0.196
 9768SOL    HW230204   5.010   2.470   0.045
 9769SOL     OW30205   3.281   1.667   5.668
 9769SOL    HW130206   3.198   1.672   5.724
 9769SOL    HW230207   3.260   1.697   5.575
 9770SOL     OW30208   1.969   2.805   5.364
 9770SOL    HW130209   1.896   2.785   5.299
 9770SOL    HW230210   1.953   2.893   5.407
 9771SOL     OW30211   3.577   1.047   1.543
 9771SOL    HW130212   3.511   1.008   1.607
 9771SOL    HW230213   3.533   1.118   1.489
 9772SOL     OW30214   1.039   0.512   1.209
 9772SOL    HW130215   0.993   0.596   1.235
 9772SOL    HW230216   1.136   0.531   1.191
 9773SOL     OW30217   5.977   5.879   1.965
 9773SOL    HW130218   5.901   5.817   1.984
 9773SOL    HW230219   5.949   5.973   1.984
 9774SOL     OW30220   2.425   5.170   4.329
 9774SOL    HW130221   2.427   5.140   4.425
 9774SOL    HW230222   2.331   5.195   4.304
 9775SOL     OW30223   1.527   1.258   2.519
 9775SOL    HW130224   1.610   1.218   2.558
 9775SOL    HW230225   1.552   1.336   2.461
 9776SOL     OW30226   2.352   5.653   1.244
 9776SOL    HW130227   2.304   5.623   1.327
 9776SOL    HW230228   2.311   5.609   1.164
 9777SOL     OW30229   4.562   2.169   5.302
 9777SOL    HW130230   4.478   2.217   5.277
 9777SOL    HW230231   4.558   2.075   5.267
 9778SOL     OW30232   1.295   3.914   2.982
 9778SOL    HW130233   1.316   3.845   3.052
 9778SOL    HW230234   1.198   3.909   2.959
 9779SOL     OW30235   2.948   0.259   3.602
 9779SOL    HW130236   2.981   0.304   3.685
 9779SOL    HW230237   3.022   0.206   3.561
 9780SOL     OW30238   0.625   1.373   0.316
 9780SOL    HW130239   0.532   1.404   0.338
 9780SOL    HW230240   0.689   1.412   0.382
 9781SOL     OW30241   1.070   1.465   2.202
 9781SOL    HW130242   0.991   1.450   2.262
 9781SOL    HW230243   1.049   1.538   2.137
 9782SOL     OW30244   0.429   2.680   0.584
 9782SOL    HW130245   0.484   2.757   0.617
 9782SOL    HW230246   0.470   2.594   0.615
 9783SOL     OW30247   4.377   1.142   2.793
 9783SOL    HW130248   4.358   1.189   2.707
 9783SOL    HW230249   4.467   1.171   2.828
 9784SOL     OW30250   1.686   1.414   6.586
 9784SOL    HW130251   1.745   1.388   6.510
 9784SOL    HW230252   1.740   1.456   6.658
 9785SOL     OW30253   0.741   3.983   4.585
 9785SOL    HW130254   0.773   3.888   4.585
 9785SOL    HW230255   0.819   4.045   4.571
 9786SOL     OW30256   2.488   3.998   6.577
 9786SOL    HW130257   2.570   4.045   6.545
 9786SOL    HW230258   2.416   4.064   6.598
 9787SOL     OW30259   2.927   3.647   2.048
 9787SOL    HW130260   2.926   3.587   1.968
 9787SOL    HW230261   2.910   3.592   2.130
 9788SOL     OW30262   3.208   6.964   2.792
 9788SOL    HW130263   3.283   6.978   2.728
 9788SOL    HW230264   3.162   6.877   2.771
 9789SOL     OW30265   3.321   0.937   0.451
 9789SOL    HW130266   3.374   0.911   0.370
 9789SOL    HW230267   3.266   1.018   0.431
 9790SOL     OW30268   4.406   5.674   4.988
 9790SOL    HW130269   4.457   5.740   5.042
 9790SOL    HW230270   4.463   5.594   4.968
 9791SOL     OW30271   0.408   0.567   1.055
 9791SOL    HW130272   0.504   0.556   1.029
 9791SOL    HW230273   0.398   0.551   1.153
 9792SOL     OW30274   3.662   4.438   0.765
 9792SOL    HW130275   3.665   4.396   0.674
 9792SOL    HW230276   3.567   4.457   0.790
 9793SOL     OW30277   6.121   0.811   3.357
 9793SOL    HW130278   6.211   0.775   3.380
 9793SOL    HW230279   6.068   0.740   3.312
 9794SOL     OW30280   4.175   5.122   4.179
 9794SOL    HW130281   4.260   5.074   4.158
 9794SOL    HW230282   4.155   5.187   4.105
 9795SOL     OW30283   1.017   3.659   3.457
 9795SOL    HW130284   1.111   3.637   3.485
 9795SOL    HW230285   1.001   3.624   3.365
 9796SOL     OW30286   2.899   3.464   4.291
 9796SOL    HW130287   2.889   3.549   4.239
 9796SOL    HW230288   2.914   3.486   4.388
 9797SOL     OW30289   3.204   5.525   6.578
 9797SOL    HW130290   3.184   5.619   6.552
 9797SOL    HW230291   3.186   5.513   6.676
 9798SOL     OW30292   6.841   4.300   6.548
 9798SOL    HW130293   6.931   4.275   6.583
 9798SOL    HW230294   6.823   4.248   6.464
 9799SOL     OW30295   3.219   6.801   0.060
 9799SOL    HW130296   3.138   6.832   0.111
 9799SOL    HW230297   3.265   6.880   0.021
 9800SOL     OW30298   6.722   3.860   4.606
 9800SOL    HW130299   6.812   3.889   4.571
 9800SOL    HW230300   6.660   3.845   4.530
 9801SOL     OW30301   4.872   6.246   1.228
 9801SOL    HW130302   4.919   6.276   1.311
 9801SOL    HW230303   4.924   6.172   1.185
 9802SOL     OW30304   3.719   3.893   0.318
 9802SOL    HW130305   3.772   3.809   0.329
 9802SOL    HW230306   3.707   3.937   0.406
 9803SOL     OW30307   1.070   3.725   6.439
 9803SOL    HW130308   1.022   3.774   6.512
 9803SOL    HW230309   1.078   3.784   6.359
 9804SOL     OW30310   0.903   4.344   3.356
 9804SOL    HW130311   0.977   4.359   3.291
 9804SOL    HW230312   0.878   4.248   3.357
 9805SOL     OW30313   0.179   5.916   4.535
 9805SOL    HW130314   0.115   5.859   4.484
 9805SOL    HW230315   0.234   5.970   4.471
 9806SOL     OW30316   3.649   1.827   0.016
 9806SOL    HW130317   3.625   1.730   0.021
 9806SOL    HW230318   3.664   1.853   6.944
 9807SOL     OW30319   3.976   3.371   3.319
 9807SOL    HW130320   4.034   3.419   3.253
 9807SOL    HW230321   4.024   3.363   3.406
 9808SOL     OW30322   3.697   5.457   2.128
 9808SOL    HW130323   3.716   5.477   2.032
 9808SOL    HW230324   3.598   5.452   2.142
 9809SOL     OW30325   6.214   2.468   0.628
 9809SOL    HW130326   6.157   2.540   0.667
 9809SOL    HW230327   6.228   2.486   0.531
 9810SOL     OW30328   2.546   2.445   1.006
 9810SOL    HW130329   2.499   2.375   1.060
 9810SOL    HW230330   2.494   2.463   0.923
 9811SOL     OW30331   5.769   3.953   4.580
 9811SOL    HW130332   5.861   3.915   4.576
 9811SOL    HW230333   5.758   4.020   4.507
 9812SOL     OW30334   3.337   5.774   5.646
 9812SOL    HW130335   3.336   5.858   5.593
 9812SOL    HW230336   3.420   5.769   5.701
 9813SOL     OW30337   4.713   0.725   2.410
 9813SOL    HW130338   4.713   0.630   2.380
 9813SOL    HW230339   4.737   0.785   2.333
 9814SOL     OW30340   0.170   1.637   6.325
 9814SOL    HW130341   0.250   1.688   6.296
 9814SOL    HW230342   0.182   1.605   6.419
 9815SOL     OW30343   4.059   2.200   4.187
 9815SOL    HW130344   3.978   2.159   4.229
 9815SOL    HW230345   4.040   2.222   4.092
 9816SOL     OW30346   2.761   1.316   1.317
 9816SOL    HW130347   2.796   1.410   1.315
 9816SOL    HW230348   2.662   1.318   1.309
 9817SOL     OW30349   6.355   0.405   1.801
 9817SOL    HW130350   6.385   0.384   1.894
 9817SOL    HW230351   6.329   0.320   1.755
 9818SOL     OW30352   4.132   2.986   5.491
 9818SOL    HW130353   4.156   3.066   5.436
 9818SOL    HW230354   4.097   2.914   5.432
 9819SOL     OW30355   3.842   0.730   1.893
 9819SOL    HW130356   3.793   0.705   1.977
 9819SOL    HW230357   3.776   0.751   1.822
 9820SOL     OW30358   3.955   2.602   0.139
 9820SOL    HW130359   3.895   2.609   0.219
 9820SOL    HW230360   3.920   2.661   0.066
 9821SOL     OW30361   0.039   5.294   6.997
 9821SOL    HW130362   0.081   5.372   6.951
 9821SOL    HW230363   0.034   5.312   0.072
 9822SOL     OW30364   0.893   0.421   3.098
 9822SOL    HW130365   0.868   0.511   3.061
 9822SOL    HW230366   0.992   0.413   3.101
 9823SOL     OW30367   3.612   6.716   1.407
 9823SOL    HW130368   3.645   6.655   1.480
 9823SOL    HW230369   3.689   6.747   1.352
 9824SOL     OW30370   1.544   3.883   6.281
 9824SOL    HW130371   1.637   3.874   6.243
 9824SOL    HW230372   1.550   3.895   6.380
 9825SOL     OW30373   3.914   5.106   5.511
 9825SOL    HW130374   3.835   5.152   5.550
 9825SOL    HW230375   3.948   5.037   5.574
 9826SOL     OW30376   4.871   0.518   5.583
 9826SOL    HW130377   4.941   0.589   5.590
 9826SOL    HW230378   4.913   0.433   5.553
 9827SOL     OW30379   0.971   4.064   4.202
 9827SOL    HW130380   1.013   3.995   4.262
 9827SOL    HW230381   0.965   4.028   4.109
 9828SOL     OW30382   3.050   2.486   6.453
 9828SOL    HW130383   3.034   2.443   6.542
 9828SOL    HW230384   2.962   2.511   6.412
 9829SOL     OW30385   2.975   4.329   0.813
 9829SOL    HW130386   2.884   4.367   0.796
 9829SOL    HW230387   3.031   4.339   0.731
 9830SOL     OW30388   6.610   1.029   0.393
 9830SOL    HW130389   6.675   0.959   0.423
 9830SOL    HW230390   6.652   1.084   0.321
 9831SOL     OW30391   5.712   0.164   0.691
 9831SOL    HW130392   5.718   0.216   0.606
 9831SOL    HW230393   5.765   0.208   0.762
 9832SOL     OW30394   3.832   4.848   1.194
 9832SOL    HW130395   3.895   4.795   1.138
 9832SOL    HW230396   3.879   4.929   1.230
 9833SOL     OW30397   4.489   4.313   5.711
 9833SOL    HW130398   4.520   4.385   5.773
 9833SOL    HW230399   4.391   4.321   5.696
 9834SOL     OW30400   1.986   2.184   3.789
 9834SOL    HW130401   1.933   2.215   3.868
 9834SOL    HW230402   2.072   2.145   3.821
 9835SOL     OW30403   4.571   1.685   4.685
 9835SOL    HW130404   4.564   1.741   4.602
 9835SOL    HW230405   4.567   1.588   4.660
 9836SOL     OW30406   5.333   4.946   2.361
 9836SOL    HW130407   5.277   4.965   2.280
 9836SOL    HW230408   5.334   4.848   2.380
 9837SOL     OW30409   1.459   6.604   4.691
 9837SOL    HW130410   1.522   6.556   4.630
 9837SOL    HW230411   1.492   6.597   4.785
 9838SOL     OW30412   6.503   5.348   5.241
 9838SOL    HW130413   6.560   5.338   5.160
 9838SOL    HW230414   6.505   5.444   5.271
 9839SOL     OW30415   0.092   2.122   2.643
 9839SOL    HW130416   0.027   2.050   2.670
 9839SOL    HW230417   0.043   2.207   2.626
 9840SOL     OW30418   6.322   0.584   1.040
 9840SOL    HW130419   6.385   0.629   1.102
 9840SOL    HW230420   6.297   0.494   1.075
 9841SOL     OW30421   1.654   3.474   4.518
 9841SOL    HW130422   1.668   3.524   4.603
 9841SOL    HW230423   1.691   3.381   4.527
 9842SOL     OW30424   3.077   3.213   3.262
 9842SOL    HW130425   3.058   3.281   3.334
 9842SOL    HW230426   3.013   3.137   3.271
 9843SOL     OW30427   5.953   3.483   2.942
 9843SOL    HW130428   6.007   3.422   2.884
 9843SOL    HW230429   5.867   3.438   2.966
 9844SOL     OW30430   5.264   0.475   2.422
 9844SOL    HW130431   5.211   0.545   2.376
 9844SOL    HW230432   5.358   0.506   2.434
 9845SOL     OW30433   0.920   2.071   3.350
 9845SOL    HW130434   0.968   2.001   3.297
 9845SOL    HW230435   0.973   2.155   3.350
 9846SOL     OW30436   3.265   3.423   3.013
 9846SOL    HW130437   3.277   3.474   3.098
 9846SOL    HW230438   3.168   3.416   2.991
 9847SOL     OW30439   2.416   4.451   4.948
 9847SOL    HW130440   2.418   4.362   4.904
 9847SOL    HW230441   2.321   4.478   4.966
 9848SOL     OW30442   5.383   3.683   0.562
 9848SOL    HW130443   5.328   3.650   0.638
 9848SOL    HW230444   5.324   3.725   0.493
 9849SOL     OW30445   0.056   0.040   5.432
 9849SOL    HW130446   0.043   0.057   5.335
 9849SOL    HW230447   0.065   6.965   5.449
 9850SOL     OW30448   4.358   6.858   2.583
 9850SOL    HW130449   4.441   6.809   2.557
 9850SOL    HW230450   4.380   6.952   2.608
 9851SOL     OW30451   5.518   3.032   5.021
 9851SOL    HW130452   5.451   3.093   5.063
 9851SOL    HW230453   5.596   3.020   5.082
 9852SOL     OW30454   4.774   2.276   4.080
 9852SOL    HW130455   4.855   2.284   4.139
 9852SOL    HW230456   4.692   2.288   4.136
 9853SOL     OW30457   0.414   3.955   1.235
 9853SOL    HW130458   0.494   4.015   1.228
 9853SOL    HW230459   0.436   3.866   1.196
 9854SOL     OW30460   4.588   6.047   3.383
 9854SOL    HW130461   4.674   6.085   3.417
 9854SOL    HW230462   4.540   6.001   3.458
 9855SOL     OW30463   1.811   3.479   0.774
 9855SOL    HW130464   1.815   3.381   0.791
 9855SOL    HW230465   1.861   3.528   0.845
 9856SOL     OW30466   3.920   2.417   0.936
 9856SOL    HW130467   3.827   2.388   0.957
 9856SOL    HW230468   3.984   2.370   0.997
 9857SOL     OW30469   6.331   4.202   3.289
 9857SOL    HW130470   6.255   4.267   3.292
 9857SOL    HW230471   6.311   4.131   3.222
 9858SOL     OW30472   4.313   1.498   1.374
 9858SOL    HW130473   4.294   1.399   1.374
 9858SOL    HW230474   4.350   1.524   1.285
 9859SOL     OW30475   6.612   0.460   1.461
 9859SOL    HW130476   6.685   0.485   1.398
 9859SOL    HW230477   6.583   0.365   1.443
 9860SOL     OW30478   0.295   1.322   2.218
 9860SOL    HW130479   0.228   1.291   2.150
 9860SOL    HW230480   0.323   1.245   2.275
 9861SOL     OW30481   3.439   6.752   5.311
 9861SOL    HW130482   3.479   6.681   5.253
 9861SOL    HW230483   3.462   6.734   5.407
 9862SOL     OW30484   0.860   2.510   0.808
 9862SOL    HW130485   0.811   2.595   0.788
 9862SOL    HW230486   0.950   2.533   0.847
 9863SOL     OW30487   2.934   6.996   0.690
 9863SOL    HW130488   2.858   6.996   0.754
 9863SOL    HW230489   3.020   7.002   0.741
 9864SOL     OW30490   4.362   5.873   2.661
 9864SOL    HW130491   4.295   5.928   2.710
 9864SOL    HW230492   4.405   5.929   2.589
 9865SOL     OW30493   1.223   2.816   4.934
 9865SOL    HW130494   1.246   2.758   4.856
 9865SOL    HW230495   1.127   2.802   4.959
 9866SOL     OW30496   4.208   4.759   3.029
 9866SOL    HW130497   4.245   4.708   3.107
 9866SOL    HW230498   4.242   4.719   2.944
 9867SOL     OW30499   3.991   0.558   6.182
 9867SOL    HW130500   4.035   0.647   6.190
 9867SOL    HW230501   4.019   0.500   6.258
 9868SOL     OW30502   0.117   5.285   6.728
 9868SOL    HW130503   0.063   5.271   6.811
 9868SOL    HW230504   0.105   5.380   6.696
 9869SOL     OW30505   1.825   3.790   3.821
 9869SOL    HW130506   1.778   3.811   3.908
 9869SOL    HW230507   1.924   3.796   3.834
 9870SOL     OW30508   5.019   4.360   2.377
 9870SOL    HW130509   4.955   4.332   2.305
 9870SOL    HW230510   5.067   4.280   2.412
 9871SOL     OW30511   1.455   1.657   5.484
 9871SOL    HW130512   1.505   1.647   5.399
 9871SOL    HW230513   1.380   1.590   5.486
 9872SOL     OW30514   1.178   4.874   3.834
 9872SOL    HW130515   1.267   4.898   3.873
 9872SOL    HW230516   1.154   4.939   3.762
 9873SOL     OW30517   1.098   2.722   0.566
 9873SOL    HW130518   1.120   2.628   0.593
 9873SOL    HW230519   1.062   2.721   0.472
 9874SOL     OW30520   0.784   3.136   3.454
 9874SOL    HW130521   0.756   3.224   3.492
 9874SOL    HW230522   0.883   3.139   3.435
 9875SOL     OW30523   0.894   0.815   3.198
 9875SOL    HW130524   0.885   0.776   3.107
 9875SOL    HW230525   0.927   0.744   3.261
 9876SOL     OW30526   6.933   5.718   2.670
 9876SOL    HW130527   6.990   5.642   2.701
 9876SOL    HW230528   6.975   5.760   2.589
 9877SOL     OW30529   3.552   0.143   1.700
 9877SOL    HW130530   3.548   0.243   1.700
 9877SOL    HW230531   3.557   0.110   1.794
 9878SOL     OW30532   0.741   0.373   5.207
 9878SOL    HW130533   0.726   0.466   5.241
 9878SOL    HW230534   0.704   0.307   5.272
 9879SOL     OW30535   5.510   6.051   5.857
 9879SOL    HW130536   5.451   5.974   5.884
 9879SOL    HW230537   5.505   6.063   5.758
 9880SOL     OW30538   1.944   1.562   4.661
 9880SOL    HW130539   2.024   1.619   4.642
 9880SOL    HW230540   1.899   1.538   4.575
 9881SOL     OW30541   0.127   1.989   6.432
 9881SOL    HW130542   0.185   1.942   6.366
 9881SOL    HW230543   0.160   1.971   6.524
 9882SOL     OW30544   1.355   1.632   2.584
 9882SOL    HW130545   1.315   1.706   2.638
 9882SOL    HW230546   1.317   1.633   2.492
 9883SOL     OW30547   2.000   0.729   1.763
 9883SOL    HW130548   1.995   0.649   1.704
 9883SOL    HW230549   1.908   0.757   1.789
 9884SOL     OW30550   3.722   0.761   4.205
 9884SOL    HW130551   3.671   0.684   4.166
 9884SOL    HW230552   3.819   0.752   4.182
 9885SOL     OW30553   6.168   4.703   3.901
 9885SOL    HW130554   6.176   4.660   3.811
 9885SOL    HW230555   6.232   4.780   3.907
 9886SOL     OW30556   1.226   3.480   2.426
 9886SOL    HW130557   1.307   3.427   2.399
 9886SOL    HW230558   1.215   3.558   2.365
 9887SOL     OW30559   4.179   0.524   5.942
 9887SOL    HW130560   4.148   0.581   6.019
 9887SOL    HW230561   4.206   0.435   5.977
 9888SOL     OW30562   0.090   4.480   0.426
 9888SOL    HW130563   0.054   4.448   0.338
 9888SOL    HW230564   0.081   4.580   0.431
 9889SOL     OW30565   0.685   5.244   0.281
 9889SOL    HW130566   0.657   5.273   0.189
 9889SOL    HW230567   0.768   5.189   0.274
 9890SOL     OW30568   1.099   3.158   0.844
 9890SOL    HW130569   1.159   3.212   0.903
 9890SOL    HW230570   1.153   3.091   0.793
 9891SOL     OW30571   4.893   1.465   1.630
 9891SOL    HW130572   4.959   1.482   1.557
 9891SOL    HW230573   4.904   1.534   1.701
 9892SOL     OW30574   0.005   5.861   6.529
 9892SOL    HW130575   6.958   5.809   6.481
 9892SOL    HW230576   0.095   5.825   6.505
 9893SOL     OW30577   2.150   1.453   1.234
 9893SOL    HW130578   2.107   1.459   1.323
 9893SOL    HW230579   2.245   1.482   1.240
 9894SOL     OW30580   1.413   1.485   0.983
 9894SOL    HW130581   1.417   1.585   0.981
 9894SOL    HW230582   1.391   1.451   0.892
 9895SOL     OW30583   4.728   3.685   5.985
 9895SOL    HW130584   4.725   3.633   6.070
 9895SOL    HW230585   4.639   3.681   5.939
 9896SOL     OW30586   6.216   6.885   6.552
 9896SOL    HW130587   6.242   6.903   6.457
 9896SOL    HW230588   6.153   6.808   6.555
 9897SOL     OW30589   5.317   5.268   3.817
 9897SOL    HW130590   5.283   5.185   3.861
 9897SOL    HW230591   5.369   5.322   3.883
 9898SOL     OW30592   2.876   6.146   5.254
 9898SOL    HW130593   2.877   6.136   5.155
 9898SOL    HW230594   2.933   6.224   5.281
 9899SOL     OW30595   0.191   5.535   6.928
 9899SOL    HW130596   0.245   5.549   6.846
 9899SOL    HW230597   0.142   5.619   6.951
 9900SOL     OW30598   2.089   3.594   3.518
 9900SOL    HW130599   2.121   3.602   3.612
 9900SOL    HW230600   2.110   3.678   3.468
 9901SOL     OW30601   2.005   2.586   5.535
 9901SOL    HW130602   1.967   2.658   5.478
 9901SOL    HW230603   2.069   2.626   5.601
 9902SOL     OW30604   2.531   3.978   6.931
 9902SOL    HW130605   2.514   3.904   6.865
 9902SOL    HW230606   2.570   4.057   6.883
 9903SOL     OW30607   5.917   0.433   3.669
 9903SOL    HW130608   5.839   0.455   3.728
 9903SOL    HW230609   5.949   0.340   3.690
 9904SOL     OW30610   6.762   2.577   6.806
 9904SOL    HW130611   6.849   2.624   6.819
 9904SOL    HW230612   6.751   2.506   6.876
 9905SOL     OW30613   4.493   1.284   0.195
 9905SOL    HW130614   4.454   1.221   0.129
 9905SOL    HW230615   4.519   1.234   0.278
 9906SOL     OW30616   4.080   3.239   4.474
 9906SOL    HW130617   4.045   3.146   4.469
 9906SOL    HW230618   4.089   3.266   4.570
 9907SOL     OW30619   0.680   0.180   1.452
 9907SOL    HW130620   0.715   0.273   1.459
 9907SOL    HW230621   0.598   0.171   1.509
 9908SOL     OW30622   4.882   3.405   3.074
 9908SOL    HW130623   4.860   3.370   3.165
 9908SOL    HW230624   4.844   3.497   3.064
 9909SOL     OW30625   2.142   6.790   5.234
 9909SOL    HW130626   2.196   6.842   5.300
 9909SOL    HW230627   2.045   6.813   5.246
 9910SOL     OW30628   0.661   4.456   3.292
 9910SOL    HW130629   0.653   4.428   3.197
 9910SOL    HW230630   0.747   4.421   3.330
 9911SOL     OW30631   2.803   6.132   2.247
 9911SOL    HW130632   2.780   6.129   2.344
 9911SOL    HW230633   2.779   6.222   2.210
 9912SOL     OW30634   5.055   0.669   6.886
 9912SOL    HW130635   5.000   0.598   6.930
 9912SOL    HW230636   4.997   0.725   6.827
 9913SOL     OW30637   5.391   3.200   6.649
 9913SOL    HW130638   5.295   3.228   6.649
 9913SOL    HW230639   5.398   3.105   6.621
 9914SOL     OW30640   6.957   3.204   4.849
 9914SOL    HW130641   7.009   3.274   4.896
 9914SOL    HW230642   6.957   3.223   4.751
 9915SOL     OW30643   5.606   0.701   3.909
 9915SOL    HW130644   5.648   0.614   3.883
 9915SOL    HW230645   5.560   0.690   3.997
 9916SOL     OW30646   2.199   2.237   1.572
 9916SOL    HW130647   2.186   2.283   1.660
 9916SOL    HW230648   2.244   2.299   1.508
 9917SOL     OW30649   6.212   4.430   4.945
 9917SOL    HW130650   6.275   4.505   4.965
 9917SOL    HW230651   6.188   4.383   5.030
 9918SOL     OW30652   4.319   2.284   2.696
 9918SOL    HW130653   4.328   2.195   2.651
 9918SOL    HW230654   4.345   2.275   2.792
 9919SOL     OW30655   6.831   6.456   0.314
 9919SOL    HW130656   6.931   6.455   0.309
 9919SOL    HW230657   6.796   6.533   0.260
 9920SOL     OW30658   4.903   1.497   2.029
 9920SOL    HW130659   4.812   1.456   2.034
 9920SOL    HW230660   4.971   1.426   2.016
 9921SOL     OW30661   3.476   5.770   5.903
 9921SOL    HW130662   3.571   5.802   5.906
 9921SOL    HW230663   3.419   5.828   5.962
 9922SOL     OW30664   0.483   5.215   0.483
 9922SOL    HW130665   0.540   5.243   0.406
 9922SOL    HW230666   0.435   5.295   0.519
 9923SOL     OW30667   5.345   4.797   0.874
 9923SOL    HW130668   5.361   4.707   0.834
 9923SOL    HW230669   5.318   4.787   0.970
 9924SOL     OW30670   0.619   3.988   4.848
 9924SOL    HW130671   0.666   4.000   4.760
 9924SOL    HW230672   0.600   3.891   4.862
 9925SOL     OW30673   5.257   2.658   3.960
 9925SOL    HW130674   5.357   2.668   3.959
 9925SOL    HW230675   5.224   2.657   3.866
 9926SOL     OW30676   2.385   4.981   6.907
 9926SOL    HW130677   2.392   4.943   6.999
 9926SOL    HW230678   2.417   4.914   6.840
 9927SOL     OW30679   6.113   6.990   2.779
 9927SOL    HW130680   6.057   6.918   2.820
 9927SOL    HW230681   6.070   7.021   2.694
 9928SOL     OW30682   4.839   4.418   1.559
 9928SOL    HW130683   4.860   4.499   1.505
 9928SOL    HW230684   4.803   4.446   1.648
 9929SOL     OW30685   1.690   4.378   2.896
 9929SOL    HW130686   1.735   4.458   2.934
 9929SOL    HW230687   1.728   4.295   2.938
 9930SOL     OW30688   6.995   0.328   3.943
 9930SOL    HW130689   6.941   0.347   3.861
 9930SOL    HW230690   6.971   0.238   3.978
 9931SOL     OW30691   0.712   4.883   5.660
 9931SOL    HW130692   0.637   4.909   5.721
 9931SOL    HW230693   0.787   4.844   5.714
 9932SOL     OW30694   1.087   6.426   5.217
 9932SOL    HW130695   1.117   6.401   5.125
 9932SOL    HW230696   0.992   6.459   5.214
 9933SOL     OW30697   0.144   5.850   2.186
 9933SOL    HW130698   0.195   5.931   2.216
 9933SOL    HW230699   0.097   5.870   2.100
 9934SOL     OW30700   6.487   2.511   6.650
 9934SOL    HW130701   6.523   2.449   6.580
 9934SOL    HW230702   6.395   2.540   6.625
 9935SOL     OW30703   3.362   0.819   6.008
 9935SOL    HW130704   3.303   0.787   6.082
 9935SOL    HW230705   3.313   0.814   5.921
 9936SOL     OW30706   0.666   4.501   4.171
 9936SOL    HW130707   0.614   4.586   4.182
 9936SOL    HW230708   0.633   4.452   4.091
 9937SOL     OW30709   6.469   2.508   6.933
 9937SOL    HW130710   6.455   2.514   6.834
 9937SOL    HW230711   6.476   2.599   6.972
 9938SOL     OW30712   6.475   6.250   2.517
 9938SOL    HW130713   6.510   6.156   2.515
 9938SOL    HW230714   6.547   6.313   2.489
 9939SOL     OW30715   3.466   2.868   2.500
 9939SOL    HW130716   3.376   2.887   2.461
 9939SOL    HW230717   3.517   2.809   2.438
 9940SOL     OW30718   0.045   1.042   0.432
 9940SOL    HW130719   0.103   0.960   0.433
 9940SOL    HW230720   0.019   1.064   0.338
 9941SOL     OW30721   2.971   5.026   5.664
 9941SOL    HW130722   3.059   5.054   5.625
 9941SOL    HW230723   2.985   4.989   5.756
 9942SOL     OW30724   2.549   5.338   3.418
 9942SOL    HW130725   2.505   5.249   3.409
 9942SOL    HW230726   2.483   5.406   3.450
 9943SOL     OW30727   1.063   6.824   5.194
 9943SOL    HW130728   1.099   6.753   5.133
 9943SOL    HW230729   1.139   6.878   5.231
 9944SOL     OW30730   0.730   3.814   0.316
 9944SOL    HW130731   0.766   3.749   0.249
 9944SOL    HW230732   0.662   3.872   0.272
 9945SOL     OW30733   6.504   5.635   0.017
 9945SOL    HW130734   6.513   5.722   6.992
 9945SOL    HW230735   6.425   5.585   7.006
 9946SOL     OW30736   5.172   1.305   4.895
 9946SOL    HW130737   5.222   1.385   4.863
 9946SOL    HW230738   5.078   1.331   4.917
 9947SOL     OW30739   6.073   4.600   3.657
 9947SOL    HW130740   6.080   4.666   3.583
 9947SOL    HW230741   5.979   4.601   3.693
 9948SOL     OW30742   5.333   4.304   4.289
 9948SOL    HW130743   5.311   4.280   4.194
 9948SOL    HW230744   5.249   4.306   4.343
 9949SOL     OW30745   5.689   5.380   2.811
 9949SOL    HW130746   5.669   5.315   2.738
 9949SOL    HW230747   5.788   5.384   2.825
 9950SOL     OW30748   3.396   6.011   5.521
 9950SOL    HW130749   3.401   6.086   5.455
 9950SOL    HW230750   3.437   6.040   5.608
 9951SOL     OW30751   5.950   2.091   3.059
 9951SOL    HW130752   6.016   2.148   3.107
 9951SOL    HW230753   5.866   2.083   3.114
 9952SOL     OW30754   0.634   5.435   0.078
 9952SOL    HW130755   0.661   5.517   0.027
 9952SOL    HW230756   0.568   5.382   0.025
 9953SOL     OW30757   6.671   2.336   3.883
 9953SOL    HW130758   6.642   2.398   3.956
 9953SOL    HW230759   6.677   2.243   3.918
 9954SOL     OW30760   4.453   0.423   5.635
 9954SOL    HW130761   4.433   0.483   5.558
 9954SOL    HW230762   4.510   0.347   5.604
 9955SOL     OW30763   0.615   4.469   4.425
 9955SOL    HW130764   0.630   4.465   4.327
 9955SOL    HW230765   0.612   4.377   4.463
 9956SOL     OW30766   1.032   6.059   0.753
 9956SOL    HW130767   1.129   6.065   0.730
 9956SOL    HW230768   1.022   6.019   0.844
 9957SOL     OW30769   6.442   4.683   2.714
 9957SOL    HW130770   6.436   4.758   2.648
 9957SOL    HW230771   6.384   4.607   2.684
 9958SOL     OW30772   2.377   4.161   1.149
 9958SOL    HW130773   2.425   4.232   1.097
 9958SOL    HW230774   2.439   4.119   1.214
 9959SOL     OW30775   3.805   3.520   1.033
 9959SOL    HW130776   3.730   3.564   0.984
 9959SOL    HW230777   3.873   3.487   0.967
 9960SOL     OW30778   0.733   1.602   2.272
 9960SOL    HW130779   0.703   1.545   2.195
 9960SOL    HW230780   0.788   1.678   2.238
 9961SOL     OW30781   2.267   4.569   4.654
 9961SOL    HW130782   2.363   4.564   4.627
 9961SOL    HW230783   2.216   4.497   4.606
 9962SOL     OW30784   5.535   6.184   4.866
 9962SOL    HW130785   5.613   6.231   4.826
 9962SOL    HW230786   5.537   6.193   4.965
 9963SOL     OW30787   3.171   0.606   0.535
 9963SOL    HW130788   3.236   0.650   0.597
 9963SOL    HW230789   3.220   0.571   0.455
 9964SOL     OW30790   4.900   5.960   5.106
 9964SOL    HW130791   4.867   5.880   5.056
 9964SOL    HW230792   4.834   5.985   5.177
 9965SOL     OW30793   3.793   0.341   0.239
 9965SOL    HW130794   3.850   0.405   0.187
 9965SOL    HW230795   3.814   0.247   0.210
 9966SOL     OW30796   6.904   0.057   2.660
 9966SOL    HW130797   6.812   0.029   2.632
 9966SOL    HW230798   6.905   0.074   2.759
 9967SOL     OW30799   1.181   5.227   0.367
 9967SOL    HW130800   1.257   5.222   0.433
 9967SOL    HW230801   1.216   5.257   0.279
 9968SOL     OW30802   3.328   3.222   2.662
 9968SOL    HW130803   3.317   3.123   2.673
 9968SOL    HW230804   3.275   3.253   2.583
 9969SOL     OW30805   1.452   3.181   1.735
 9969SOL    HW130806   1.490   3.135   1.654
 9969SOL    HW230807   1.452   3.279   1.720
 9970SOL     OW30808   5.943   4.680   1.553
 9970SOL    HW130809   5.910   4.641   1.639
 9970SOL    HW230810   5.987   4.768   1.571
 9971SOL     OW30811   2.385   6.220   0.219
 9971SOL    HW130812   2.409   6.188   0.127
 9971SOL    HW230813   2.435   6.304   0.239
 9972SOL     OW30814   6.938   4.691   1.461
 9972SOL    HW130815   6.955   4.655   1.553
 9972SOL    HW230816   6.973   4.626   1.393
 9973SOL     OW30817   5.567   6.902   4.200
 9973SOL    HW130818   5.581   6.838   4.276
 9973SOL    HW230819   5.486   6.874   4.148
 9974SOL     OW30820   2.362   0.868   3.929
 9974SOL    HW130821   2.372   0.805   4.006
 9974SOL    HW230822   2.271   0.909   3.930
 9975SOL     OW30823   6.673   3.501   0.695
 9975SOL    HW130824   6.670   3.546   0.784
 9975SOL    HW230825   6.719   3.412   0.704
 9976SOL     OW30826   2.151   0.090   5.203
 9976SOL    HW130827   2.241   0.123   5.173
 9976SOL    HW230828   2.131   0.126   5.294
 9977SOL     OW30829   6.665   4.481   4.269
 9977SOL    HW130830   6.601   4.544   4.314
 9977SOL    HW230831   6.619   4.436   4.193
 9978SOL     OW30832   0.199   2.810   4.661
 9978SOL    HW130833   0.235   2.895   4.699
 9978SOL    HW230834   0.209   2.737   4.729
 9979SOL     OW30835   0.895   4.060   5.435
 9979SOL    HW130836   0.993   4.063   5.454
 9979SOL    HW230837   0.849   4.006   5.505
 9980SOL     OW30838   3.189   6.805   5.264
 9980SOL    HW130839   3.160   6.721   5.218
 9980SOL    HW230840   3.282   6.794   5.299
 9981SOL     OW30841   3.169   1.853   4.115
 9981SOL    HW130842   3.096   1.870   4.182
 9981SOL    HW230843   3.257   1.860   4.161
 9982SOL     OW30844   6.256   6.122   2.873
 9982SOL    HW130845   6.164   6.086   2.892
 9982SOL    HW230846   6.248   6.215   2.837
 9983SOL     OW30847   0.106   1.373   1.257
 9983SOL    HW130848   0.199   1.338   1.241
 9983SOL    HW230849   0.043   1.296   1.265
 9984SOL     OW30850   2.700   0.945   0.314
 9984SOL    HW130851   2.660   1.023   0.266
 9984SOL    HW230852   2.637   0.867   0.310
 9985SOL     OW30853   1.214   1.306   1.898
 9985SOL    HW130854   1.293   1.261   1.855
 9985SOL    HW230855   1.225   1.405   1.893
 9986SOL     OW30856   5.180   4.393   4.954
 9986SOL    HW130857   5.160   4.435   4.866
 9986SOL    HW230858   5.126   4.309   4.964
 9987SOL     OW30859   0.112   4.632   6.061
 9987SOL    HW130860   0.013   4.628   6.075
 9987SOL    HW230861   0.158   4.571   6.125
 9988SOL     OW30862   6.771   6.922   4.791
 9988SOL    HW130863   6.712   6.938   4.711
 9988SOL    HW230864   6.730   6.965   4.871
 9989SOL     OW30865   1.053   3.372   4.630
 9989SOL    HW130866   1.144   3.393   4.596
 9989SOL    HW230867   1.003   3.457   4.648
 9990SOL     OW30868   1.258   5.149   2.065
 9990SOL    HW130869   1.262   5.174   2.162
 9990SOL    HW230870   1.232   5.053   2.056
 9991SOL     OW30871   3.896   2.049   3.323
 9991SOL    HW130872   3.893   2.056   3.223
 9991SOL    HW230873   3.966   2.111   3.358
 9992SOL     OW30874   6.737   5.674   6.142
 9992SOL    HW130875   6.663   5.737   6.117
 9992SOL    HW230876   6.821   5.701   6.095
 9993SOL     OW30877   1.178   1.086   2.063
 9993SOL    HW130878   1.106   1.077   2.132
 9993SOL    HW230879   1.176   1.179   2.025
 9994SOL     OW30880   6.032   4.684   3.020
 9994SOL    HW130881   6.015   4.672   3.118
 9994SOL    HW230882   6.020   4.780   2.995
 9995SOL     OW30883   4.868   1.445   4.636
 9995SOL    HW130884   4.943   1.498   4.675
 9995SOL    HW230885   4.797   1.430   4.705
 9996SOL     OW30886   2.386   3.142   7.000
 9996SOL    HW130887   2.457   3.176   6.938
 9996SOL    HW230888   2.296   3.166   6.964
 9997SOL     OW30889   2.941   0.010   4.647
 9997SOL    HW130890   2.992   6.968   4.702
 9997SOL    HW230891   2.864   6.988   4.603
 9998SOL     OW30892   5.942   6.562   5.526
 9998SOL    HW130893   5.904   6.533   5.614
 9998SOL    HW230894   5.867   6.583   5.463
 9999SOL     OW30895   6.600   2.493   4.955
 9999SOL    HW130896   6.568   2.427   4.888
 9999SOL    HW230897   6.615   2.448   5.042
10000SOL     OW30898   6.918   4.184   6.834
10000SOL    HW130899   6.986   4.189   6.761
10000SOL    HW230900   6.927   4.097   6.882
10001SOL     OW30901   4.036   7.022   3.246
10001SOL    HW130902   3.978   0.078   3.226
10001SOL    HW230903   4.128   0.030   3.269
10002SOL     OW30904   1.195   1.585   1.900
10002SOL    HW130905   1.206   1.622   1.807
10002SOL    HW230906   1.114   1.625   1.942
10003SOL     OW30907   5.489   2.632   3.657
10003SOL    HW130908   5.503   2.722   3.699
10003SOL    HW230909   5.485   2.642   3.558
10004SOL     OW30910   0.366   2.107   2.663
10004SOL    HW130911   0.375   2.032   2.728
10004SOL    HW230912   0.269   2.124   2.646
10005SOL     OW30913   5.451   6.735   4.627
10005SOL    HW130914   5.396   6.672   4.573
10005SOL    HW230915   5.475   6.691   4.714
10006SOL     OW30916   4.273   1.413   4.677
10006SOL    HW130917   4.364   1.391   4.642
10006SOL    HW230918   4.206   1.399   4.605
10007SOL     OW30919   6.365   3.568   4.003
10007SOL    HW130920   6.416   3.484   3.986
10007SOL    HW230921   6.428   3.646   4.001
10008SOL     OW30922   3.886   6.776   4.157
10008SOL    HW130923   3.959   6.709   4.140
10008SOL    HW230924   3.896   6.852   4.092
10009SOL     OW30925   1.227   4.119   1.653
10009SOL    HW130926   1.129   4.125   1.674
10009SOL    HW230927   1.265   4.212   1.646
10010SOL     OW30928   6.553   1.593   6.295
10010SOL    HW130929   6.472   1.636   6.333
10010SOL    HW230930   6.557   1.609   6.196
10011SOL     OW30931   0.021   6.931   4.455
10011SOL    HW130932   0.079   6.975   4.524
10011SOL    HW230933   6.984   6.865   4.500
10012SOL     OW30934   5.654   0.384   4.327
10012SOL    HW130935   5.574   0.437   4.299
10012SOL    HW230936   5.645   0.360   4.424
10013SOL     OW30937   1.457   0.861   1.899
10013SOL    HW130938   1.453   0.912   1.985
10013SOL    HW230939   1.430   0.766   1.915
10014SOL     OW30940   1.725   5.121   5.942
10014SOL    HW130941   1.667   5.042   5.962
10014SOL    HW230942   1.820   5.090   5.932
10015SOL     OW30943   2.331   4.529   6.915
10015SOL    HW130944   2.273   4.606   6.888
10015SOL    HW230945   2.358   4.477   6.834
10016SOL     OW30946   2.791   0.539   5.119
10016SOL    HW130947   2.742   0.599   5.055
10016SOL    HW230948   2.833   0.464   5.068
10017SOL     OW30949   0.671   2.146   4.072
10017SOL    HW130950   0.710   2.195   4.150
10017SOL    HW230951   0.744   2.121   4.008
10018SOL     OW30952   4.846   6.624   5.912
10018SOL    HW130953   4.882   6.653   6.001
10018SOL    HW230954   4.820   6.705   5.858
10019SOL     OW30955   1.722   1.066   2.290
10019SOL    HW130956   1.706   1.097   2.384
10019SOL    HW230957   1.754   1.143   2.235
10020SOL     OW30958   0.175   2.921   7.012
10020SOL    HW130959   0.121   3.006   7.012
10020SOL    HW230960   0.211   2.905   6.921
10021SOL     OW30961   5.450   3.269   1.861
10021SOL    HW130962   5.381   3.342   1.862
10021SOL    HW230963   5.405   3.181   1.878
10022SOL     OW30964   1.591   0.643   6.279
10022SOL    HW130965   1.526   0.697   6.333
10022SOL    HW230966   1.683   0.681   6.289
10023SOL     OW30967   0.506   3.263   1.104
10023SOL    HW130968   0.457   3.190   1.056
10023SOL    HW230969   0.511   3.241   1.201
10024SOL     OW30970   1.487   4.500   3.482
10024SOL    HW130971   1.485   4.425   3.547
10024SOL    HW230972   1.399   4.548   3.483
10025SOL     OW30973   1.101   1.058   0.562
10025SOL    HW130974   1.059   1.063   0.472
10025SOL    HW230975   1.073   0.974   0.608
10026SOL     OW30976   6.994   0.557   4.119
10026SOL    HW130977   0.020   0.529   4.201
10026SOL    HW230978   6.984   0.479   4.058
10027SOL     OW30979   5.295   2.447   6.016
10027SOL    HW130980   5.334   2.375   5.960
10027SOL    HW230981   5.311   2.427   6.113
10028SOL     OW30982   1.695   0.563   1.319
10028SOL    HW130983   1.653   0.476   1.295
10028SOL    HW230984   1.626   0.625   1.355
10029SOL     OW30985   4.542   1.391   4.310
10029SOL    HW130986   4.610   1.459   4.281
10029SOL    HW230987   4.563   1.303   4.270
10030SOL     OW30988   1.203   0.669   3.025
10030SOL    HW130989   1.247   0.710   3.105
10030SOL    HW230990   1.233   0.718   2.943
10031SOL     OW30991   6.783   4.631   3.968
10031SOL    HW130992   6.736   4.592   4.046
10031SOL    HW230993   6.869   4.583   3.953
10032SOL     OW30994   3.165   1.128   5.055
10032SOL    HW130995   3.182   1.133   4.957
10032SOL    HW230996   3.150   1.220   5.091
10033SOL     OW30997   5.164   3.167   4.738
10033SOL    HW130998   5.250   3.215   4.720
10033SOL    HW230999   5.183   3.073   4.767
10034SOL     OW31000   4.270   0.306   6.061
10034SOL    HW131001   4.323   0.334   6.141
10034SOL    HW231002   4.295   0.213   6.035
10035SOL     OW31003   0.103   6.449   3.509
10035SOL    HW131004   0.056   6.385   3.447
10035SOL    HW231005   0.047   6.531   3.521
10036SOL     OW31006   6.800   0.456   0.163
10036SOL    HW131007   6.723   0.417   0.215
10036SOL    HW231008   6.774   0.545   0.126
10037SOL     OW31009   0.021   6.783   1.108
10037SOL    HW131010   7.019   6.796   1.204
10037SOL    HW231011   6.965   6.803   1.050
10038SOL     OW31012   6.347   0.449   0.802
10038SOL    HW131013   6.259   0.401   0.800
10038SOL    HW231014   6.351   0.509   0.882
10039SOL     OW31015   3.654   0.656   3.016
10039SOL    HW131016   3.721   0.640   3.088
10039SOL    HW231017   3.576   0.707   3.054
10040SOL     OW31018   0.388   2.495   0.827
10040SOL    HW131019   0.313   2.461   0.769
10040SOL    HW231020   0.352   2.564   0.890
10041SOL     OW31021   1.284   6.130   0.537
10041SOL    HW131022   1.298   6.166   0.629
10041SOL    HW231023   1.355   6.063   0.516
10042SOL     OW31024   6.087   2.248   3.422
10042SOL    HW131025   6.036   2.292   3.349
10042SOL    HW231026   6.141   2.172   3.385
10043SOL     OW31027   0.997   3.284   5.089
10043SOL    HW131028   0.964   3.328   5.173
10043SOL    HW231029   1.083   3.326   5.061
10044SOL     OW31030   4.356   2.102   6.042
10044SOL    HW131031   4.275   2.070   6.091
10044SOL    HW231032   4.430   2.117   6.108
10045SOL     OW31033   2.458   0.824   0.712
10045SOL    HW131034   2.377   0.792   0.662
10045SOL    HW231035   2.430   0.869   0.797
10046SOL     OW31036   1.025   5.180   1.099
10046SOL    HW131037   1.107   5.229   1.069
10046SOL    HW231038   0.982   5.231   1.173
10047SOL     OW31039   1.237   3.514   0.390
10047SOL    HW131040   1.247   3.415   0.401
10047SOL    HW231041   1.258   3.540   0.295
10048SOL     OW31042   5.741   4.834   2.036
10048SOL    HW131043   5.721   4.910   1.975
10048SOL    HW231044   5.705   4.854   2.127
10049SOL     OW31045   5.829   1.452   5.007
10049SOL    HW131046   5.777   1.498   4.935
10049SOL    HW231047   5.911   1.409   4.968
10050SOL     OW31048   6.963   3.004   5.741
10050SOL    HW131049   0.017   3.052   5.700
10050SOL    HW231050   6.879   3.029   5.693
10051SOL     OW31051   2.225   1.340   4.455
10051SOL    HW131052   2.156   1.270   4.474
10051SOL    HW231053   2.250   1.386   4.540
10052SOL     OW31054   1.349   0.347   3.590
10052SOL    HW131055   1.329   0.275   3.656
10052SOL    HW231056   1.401   0.420   3.635
10053SOL     OW31057   6.050   5.097   3.082
10053SOL    HW131058   6.088   5.079   3.173
10053SOL    HW231059   6.059   5.194   3.061
10054SOL     OW31060   6.892   4.032   4.143
10054SOL    HW131061   6.896   3.979   4.058
10054SOL    HW231062   6.805   4.082   4.147
10055SOL     OW31063   1.457   2.026   6.456
10055SOL    HW131064   1.507   2.019   6.370
10055SOL    HW231065   1.500   1.967   6.525
10056SOL     OW31066   6.018   2.253   4.432
10056SOL    HW131067   5.981   2.171   4.475
10056SOL    HW231068   6.117   2.257   4.448
10057SOL     OW31069   5.231   4.996   5.902
10057SOL    HW131070   5.203   4.907   5.866
10057SOL    HW231071   5.194   5.007   5.995
10058SOL     OW31072   0.134   4.057   4.911
10058SOL    HW131073   0.218   4.021   4.953
10058SOL    HW231074   0.096   3.988   4.849
10059SOL     OW31075   5.443   6.662   6.495
10059SOL    HW131076   5.393   6.577   6.510
10059SOL    HW231077   5.525   6.644   6.441
10060SOL     OW31078   2.981   1.552   1.896
10060SOL    HW131079   2.988   1.606   1.812
10060SOL    HW231080   3.058   1.574   1.956
10061SOL     OW31081   2.995   0.111   2.230
10061SOL    HW131082   3.045   0.039   2.182
10061SOL    HW231083   2.930   0.069   2.293
10062SOL     OW31084   6.966   6.940   5.147
10062SOL    HW131085   6.877   6.900   5.127
10062SOL    HW231086   0.014   6.872   5.130
10063SOL     OW31087   2.756   2.327   4.313
10063SOL    HW131088   2.813   2.262   4.364
10063SOL    HW231089   2.689   2.368   4.375
10064SOL     OW31090   2.805   0.438   2.154
10064SOL    HW131091   2.748   0.514   2.124
10064SOL    HW231092   2.854   0.400   2.075
10065SOL     OW31093   0.198   1.989   1.462
10065SOL    HW131094   0.102   2.013   1.450
10065SOL    HW231095   0.253   2.039   1.396
10066SOL     OW31096   6.619   4.789   3.517
10066SOL    HW131097   6.715   4.776   3.490
10066SOL    HW231098   6.604   4.748   3.606
10067SOL     OW31099   6.871   3.831   4.978
10067SOL    HW131100   6.855   3.928   4.996
10067SOL    HW231101   6.877   3.782   5.064
10068SOL     OW31102   1.644   2.590   2.400
10068SOL    HW131103   1.715   2.554   2.339
10068SOL    HW231104   1.572   2.632   2.346
10069SOL     OW31105   3.259   4.925   1.355
10069SOL    HW131106   3.294   4.847   1.406
10069SOL    HW231107   3.202   4.894   1.280
10070SOL     OW31108   5.278   0.285   0.752
10070SOL    HW131109   5.295   0.325   0.662
10070SOL    HW231110   5.218   0.346   0.804
10071SOL     OW31111   5.269   1.037   5.521
10071SOL    HW131112   5.296   0.971   5.451
10071SOL    HW231113   5.176   1.016   5.552
10072SOL     OW31114   6.324   2.985   2.153
10072SOL    HW131115   6.247   2.921   2.148
10072SOL    HW231116   6.301   3.067   2.100
10073SOL     OW31117   5.655   5.496   5.040
10073SOL    HW131118   5.746   5.531   5.063
10073SOL    HW231119   5.640   5.409   5.087
10074SOL     OW31120   2.259   4.711   0.348
10074SOL    HW131121   2.219   4.631   0.302
10074SOL    HW231122   2.318   4.680   0.423
10075SOL     OW31123   1.369   2.806   1.557
10075SOL    HW131124   1.273   2.834   1.548
10075SOL    HW231125   1.420   2.833   1.476
10076SOL     OW31126   5.705   4.372   3.953
10076SOL    HW131127   5.805   4.369   3.952
10076SOL    HW231128   5.669   4.279   3.941
10077SOL     OW31129   4.294   3.866   6.486
10077SOL    HW131130   4.306   3.770   6.461
10077SOL    HW231131   4.383   3.912   6.490
10078SOL     OW31132   6.038   5.139   4.615
10078SOL    HW131133   5.953   5.179   4.582
10078SOL    HW231134   6.036   5.133   4.715
10079SOL     OW31135   5.287   4.381   3.524
10079SOL    HW131136   5.351   4.405   3.596
10079SOL    HW231137   5.247   4.464   3.485
10080SOL     OW31138   5.076   1.881   5.632
10080SOL    HW131139   5.075   1.929   5.720
10080SOL    HW231140   5.037   1.940   5.561
10081SOL     OW31141   1.240   4.758   6.781
10081SOL    HW131142   1.220   4.790   6.688
10081SOL    HW231143   1.327   4.797   6.811
10082SOL     OW31144   1.466   4.704   0.999
10082SOL    HW131145   1.516   4.763   1.062
10082SOL    HW231146   1.508   4.613   0.998
10083SOL     OW31147   2.813   5.849   2.332
10083SOL    HW131148   2.779   5.908   2.259
10083SOL    HW231149   2.862   5.905   2.399
10084SOL     OW31150   1.722   2.698   4.261
10084SOL    HW131151   1.777   2.779   4.241
10084SOL    HW231152   1.651   2.688   4.191
10085SOL     OW31153   4.756   0.058   2.001
10085SOL    HW131154   4.828   0.025   1.940
10085SOL    HW231155   4.696   7.006   2.025
10086SOL     OW31156   4.254   6.867   3.084
10086SOL    HW131157   4.165   6.912   3.087
10086SOL    HW231158   4.281   6.840   3.176
10087SOL     OW31159   1.647   6.353   4.956
10087SOL    HW131160   1.706   6.429   4.928
10087SOL    HW231161   1.698   6.293   5.017
10088SOL     OW31162   6.320   2.712   1.131
10088SOL    HW131163   6.319   2.649   1.053
10088SOL    HW231164   6.266   2.674   1.206
10089SOL     OW31165   4.200   0.107   1.907
10089SOL    HW131166   4.143   0.028   1.931
10089SOL    HW231167   4.274   0.116   1.974
10090SOL     OW31168   1.577   6.140   2.739
10090SOL    HW131169   1.588   6.206   2.813
10090SOL    HW231170   1.508   6.174   2.675
10091SOL     OW31171   5.183   5.131   4.366
10091SOL    HW131172   5.169   5.059   4.299
10091SOL    HW231173   5.273   5.122   4.408
10092SOL     OW31174   0.534   1.517   2.715
10092SOL    HW131175   0.609   1.537   2.652
10092SOL    HW231176   0.571   1.505   2.807
10093SOL     OW31177   4.220   4.078   6.343
10093SOL    HW131178   4.194   4.000   6.400
10093SOL    HW231179   4.314   4.064   6.310
10094SOL     OW31180   3.656   2.097   0.473
10094SOL    HW131181   3.607   2.053   0.398
10094SOL    HW231182   3.748   2.122   0.444
10095SOL     OW31183   4.089   3.560   5.443
10095SOL    HW131184   4.056   3.543   5.350
10095SOL    HW231185   4.017   3.536   5.509
10096SOL     OW31186   6.735   3.657   2.149
10096SOL    HW131187   6.733   3.614   2.239
10096SOL    HW231188   6.732   3.757   2.159
10097SOL     OW31189   0.961   1.454   0.932
10097SOL    HW131190   1.005   1.513   1.000
10097SOL    HW231191   0.969   1.358   0.961
10098SOL     OW31192   3.221   6.159   5.008
10098SOL    HW131193   3.153   6.087   5.015
10098SOL    HW231194   3.216   6.219   5.088
10099SOL     OW31195   0.180   5.222   3.523
10099SOL    HW131196   0.148   5.298   3.465
10099SOL    HW231197   0.102   5.165   3.548
10100SOL     OW31198   4.936   4.602   4.069
10100SOL    HW131199   5.035   4.605   4.055
10100SOL    HW231200   4.897   4.529   4.014
10101SOL     OW31201   6.949   2.629   0.129
10101SOL    HW131202   6.887   2.686   0.075
10101SOL    HW231203   6.897   2.571   0.191
10102SOL     OW31204   6.380   4.768   3.360
10102SOL    HW131205   6.371   4.867   3.373
10102SOL    HW231206   6.454   4.733   3.418
10103SOL     OW31207   0.201   6.697   6.732
10103SOL    HW131208   0.241   6.610   6.704
10103SOL    HW231209   0.270   6.769   6.725
10104SOL     OW31210   3.038   0.646   4.690
10104SOL    HW131211   3.062   0.697   4.772
10104SOL    HW231212   2.963   0.583   4.710
10105SOL     OW31213   3.129   1.395   3.509
10105SOL    HW131214   3.127   1.495   3.510
10105SOL    HW231215   3.224   1.363   3.508
10106SOL     OW31216   5.778   4.224   1.662
10106SOL    HW131217   5.834   4.161   1.716
10106SOL    HW231218   5.835   4.298   1.628
10107SOL     OW31219   5.307   5.609   6.111
10107SOL    HW131220   5.406   5.611   6.122
10107SOL    HW231221   5.276   5.696   6.073
10108SOL     OW31222   2.363   2.584   4.867
10108SOL    HW131223   2.395   2.621   4.780
10108SOL    HW231224   2.383   2.650   4.940
10109SOL     OW31225   1.271   3.519   1.028
10109SOL    HW131226   1.322   3.469   0.958
10109SOL    HW231227   1.325   3.523   1.112
10110SOL     OW31228   6.340   5.861   1.730
10110SOL    HW131229   6.338   5.855   1.631
10110SOL    HW231230   6.427   5.902   1.759
10111SOL     OW31231   6.170   2.582   1.823
10111SOL    HW131232   6.175   2.486   1.798
10111SOL    HW231233   6.263   2.618   1.834
10112SOL     OW31234   6.970   2.904   4.151
10112SOL    HW131235   6.969   2.983   4.212
10112SOL    HW231236   0.024   2.911   4.088
10113SOL     OW31237   6.620   6.160   5.862
10113SOL    HW131238   6.573   6.100   5.798
10113SOL    HW231239   6.554   6.207   5.920
10114SOL     OW31240   5.216   3.455   1.862
10114SOL    HW131241   5.237   3.552   1.861
10114SOL    HW231242   5.221   3.421   1.956
10115SOL     OW31243   3.647   2.953   6.273
10115SOL    HW131244   3.582   2.981   6.202
10115SOL    HW231245   3.609   2.878   6.325
10116SOL     OW31246   0.412   0.398   6.073
10116SOL    HW131247   0.489   0.462   6.074
10116SOL    HW231248   0.327   0.448   6.092
10117SOL     OW31249   6.944   4.498   1.244
10117SOL    HW131250   6.914   4.408   1.277
10117SOL    HW231251   6.897   4.519   1.158
10118SOL     OW31252   4.103   5.013   3.789
10118SOL    HW131253   4.077   5.015   3.885
10118SOL    HW231254   4.067   5.094   3.742
10119SOL     OW31255   6.004   6.182   6.872
10119SOL    HW131256   6.069   6.172   6.948
10119SOL    HW231257   5.993   6.279   6.851
10120SOL     OW31258   2.445   2.280   2.620
10120SOL    HW131259   2.441   2.181   2.630
10120SOL    HW231260   2.540   2.309   2.612
10121SOL     OW31261   6.484   5.433   1.655
10121SOL    HW131262   6.526   5.497   1.591
10121SOL    HW231263   6.426   5.484   1.720
10122SOL     OW31264   1.790   0.302   3.243
10122SOL    HW131265   1.850   0.350   3.181
10122SOL    HW231266   1.791   0.347   3.333
10123SOL     OW31267   6.095   6.166   6.112
10123SOL    HW131268   6.050   6.084   6.077
10123SOL    HW231269   6.189   6.144   6.138
10124SOL     OW31270   2.756   5.245   2.082
10124SOL    HW131271   2.735   5.284   2.172
10124SOL    HW231272   2.734   5.312   2.011
10125SOL     OW31273   1.496   1.112   4.942
10125SOL    HW131274   1.486   1.055   4.861
10125SOL    HW231275   1.577   1.083   4.994
10126SOL     OW31276   6.862   6.092   4.986
10126SOL    HW131277   6.913   6.006   4.992
10126SOL    HW231278   6.878   6.147   5.068
10127SOL     OW31279   2.158   6.956   5.848
10127SOL    HW131280   2.079   6.895   5.857
10127SOL    HW231281   2.233   6.907   5.803
10128SOL     OW31282   2.487   1.828   6.917
10128SOL    HW131283   2.562   1.868   6.969
10128SOL    HW231284   2.464   1.888   6.840
10129SOL     OW31285   6.692   2.190   4.862
10129SOL    HW131286   6.766   2.224   4.920
10129SOL    HW231287   6.676   2.254   4.786
10130SOL     OW31288   1.605   2.373   3.353
10130SOL    HW131289   1.600   2.472   3.335
10130SOL    HW231290   1.700   2.343   3.346
10131SOL     OW31291   1.928   0.290   5.138
10131SOL    HW131292   1.859   0.224   5.109
10131SOL    HW231293   1.996   0.244   5.196
10132SOL     OW31294   5.747   0.732   2.607
10132SOL    HW131295   5.722   0.691   2.695
10132SOL    HW231296   5.669   0.781   2.569
10133SOL     OW31297   4.466   5.793   1.400
10133SOL    HW131298   4.477   5.737   1.481
10133SOL    HW231299   4.421   5.740   1.328
10134SOL     OW31300   6.954   6.291   3.345
10134SOL    HW131301   6.856   6.311   3.343
10134SOL    HW231302   6.975   6.222   3.275
10135SOL     OW31303   6.626   6.534   3.532
10135SOL    HW131304   6.671   6.620   3.553
10135SOL    HW231305   6.581   6.499   3.615
10136SOL     OW31306   4.528   0.953   3.841
10136SOL    HW131307   4.545   1.047   3.870
10136SOL    HW231308   4.542   0.891   3.917
10137SOL     OW31309   0.012   5.781   4.339
10137SOL    HW131310   6.964   5.785   4.410
10137SOL    HW231311   6.993   5.771   4.249
10138SOL     OW31312   0.313   2.307   1.600
10138SOL    HW131313   0.291   2.273   1.692
10138SOL    HW231314   0.376   2.384   1.608
10139SOL     OW31315   4.206   2.985   0.140
10139SOL    HW131316   4.246   3.031   0.060
10139SOL    HW231317   4.208   3.047   0.218
10140SOL     OW31318   6.575   5.753   5.384
10140SOL    HW131319   6.500   5.816   5.401
10140SOL    HW231320   6.661   5.805   5.376
10141SOL     OW31321   1.893   2.056   4.799
10141SOL    HW131322   1.796   2.083   4.800
10141SOL    HW231323   1.901   1.959   4.824
10142SOL     OW31324   4.885   5.703   2.197
10142SOL    HW131325   4.932   5.655   2.271
10142SOL    HW231326   4.794   5.663   2.183
10143SOL     OW31327   5.690   3.348   6.101
10143SOL    HW131328   5.633   3.279   6.059
10143SOL    HW231329   5.745   3.306   6.174
10144SOL     OW31330   3.470   0.441   0.721
10144SOL    HW131331   3.497   0.532   0.751
10144SOL    HW231332   3.547   0.396   0.676
10145SOL     OW31333   6.255   0.068   5.158
10145SOL    HW131334   6.319   0.094   5.230
10145SOL    HW231335   6.295   0.088   5.069
10146SOL     OW31336   1.694   2.784   5.650
10146SOL    HW131337   1.657   2.695   5.623
10146SOL    HW231338   1.761   2.772   5.723
10147SOL     OW31339   3.724   5.339   0.289
10147SOL    HW131340   3.677   5.324   0.202
10147SOL    HW231341   3.656   5.343   0.363
10148SOL     OW31342   0.391   5.179   6.652
10148SOL    HW131343   0.322   5.251   6.658
10148SOL    HW231344   0.357   5.098   6.700
10149SOL     OW31345   3.815   3.093   2.613
10149SOL    HW131346   3.837   3.039   2.532
10149SOL    HW231347   3.716   3.095   2.626
10150SOL     OW31348   4.790   4.143   1.636
10150SOL    HW131349   4.806   4.130   1.734
10150SOL    HW231350   4.810   4.238   1.612
10151SOL     OW31351   0.124   1.157   6.028
10151SOL    HW131352   0.097   1.213   5.951
10151SOL    HW231353   0.178   1.212   6.092
10152SOL     OW31354   3.927   6.576   3.453
10152SOL    HW131355   3.932   6.636   3.374
10152SOL    HW231356   4.020   6.558   3.487
10153SOL     OW31357   4.761   3.429   1.635
10153SOL    HW131358   4.803   3.383   1.713
10153SOL    HW231359   4.768   3.528   1.647
10154SOL     OW31360   4.074   5.246   5.313
10154SOL    HW131361   4.039   5.258   5.220
10154SOL    HW231362   4.006   5.197   5.368
10155SOL     OW31363   4.287   2.041   4.273
10155SOL    HW131364   4.213   1.977   4.250
10155SOL    HW231365   4.319   2.022   4.366
10156SOL     OW31366   3.942   2.334   6.205
10156SOL    HW131367   3.986   2.308   6.290
10156SOL    HW231368   3.843   2.323   6.214
10157SOL     OW31369   0.888   4.644   0.758
10157SOL    HW131370   0.816   4.682   0.700
10157SOL    HW231371   0.854   4.561   0.803
10158SOL     OW31372   5.366   5.090   0.164
10158SOL    HW131373   5.387   5.155   0.091
10158SOL    HW231374   5.382   5.134   0.253
10159SOL     OW31375   3.822   2.859   1.828
10159SOL    HW131376   3.795   2.788   1.762
10159SOL    HW231377   3.880   2.819   1.898
10160SOL     OW31378   0.309   4.193   2.450
10160SOL    HW131379   0.407   4.184   2.434
10160SOL    HW231380   0.259   4.134   2.386
10161SOL     OW31381   5.957   3.239   6.059
10161SOL    HW131382   6.012   3.323   6.061
10161SOL    HW231383   5.874   3.255   6.007
10162SOL     OW31384   1.372   2.224   2.614
10162SOL    HW131385   1.432   2.303   2.603
10162SOL    HW231386   1.295   2.248   2.673
10163SOL     OW31387   3.448   4.949   4.877
10163SOL    HW131388   3.370   4.966   4.937
10163SOL    HW231389   3.528   4.925   4.932
10164SOL     OW31390   0.257   1.331   3.896
10164SOL    HW131391   0.164   1.298   3.885
10164SOL    HW231392   0.314   1.297   3.821
10165SOL     OW31393   1.634   3.402   3.926
10165SOL    HW131394   1.713   3.340   3.925
10165SOL    HW231395   1.637   3.461   3.845
10166SOL     OW31396   3.336   6.053   3.186
10166SOL    HW131397   3.340   5.999   3.102
10166SOL    HW231398   3.357   6.148   3.165
10167SOL     OW31399   3.489   2.019   6.661
10167SOL    HW131400   3.456   2.101   6.708
10167SOL    HW231401   3.531   2.045   6.574
10168SOL     OW31402   0.810   1.169   6.086
10168SOL    HW131403   0.859   1.093   6.128
10168SOL    HW231404   0.757   1.216   6.157
10169SOL     OW31405   4.522   5.428   3.323
10169SOL    HW131406   4.464   5.466   3.251
10169SOL    HW231407   4.601   5.487   3.338
10170SOL     OW31408   4.733   6.910   0.614
10170SOL    HW131409   4.748   6.940   0.708
10170SOL    HW231410   4.799   6.956   0.554
10171SOL     OW31411   1.913   4.381   3.929
10171SOL    HW131412   1.994   4.406   3.982
10171SOL    HW231413   1.901   4.281   3.933
10172SOL     OW31414   0.288   0.761   2.521
10172SOL    HW131415   0.365   0.712   2.481
10172SOL    HW231416   0.271   0.845   2.470
10173SOL     OW31417   3.958   3.466   5.224
10173SOL    HW131418   3.903   3.543   5.193
10173SOL    HW231419   3.948   3.390   5.161
10174SOL     OW31420   5.121   4.434   1.628
10174SOL    HW131421   5.152   4.530   1.627
10174SOL    HW231422   5.022   4.431   1.612
10175SOL     OW31423   6.657   6.900   3.927
10175SOL    HW131424   6.568   6.855   3.928
10175SOL    HW231425   6.720   6.851   3.986
10176SOL     OW31426   6.963   1.142   4.768
10176SOL    HW131427   0.003   1.215   4.792
10176SOL    HW231428   6.918   1.164   4.681
10177SOL     OW31429   2.938   1.399   3.757
10177SOL    HW131430   2.954   1.478   3.698
10177SOL    HW231431   2.909   1.430   3.848
10178SOL     OW31432   0.506   1.350   1.836
10178SOL    HW131433   0.574   1.336   1.764
10178SOL    HW231434   0.455   1.435   1.818
10179SOL     OW31435   0.019   5.785   1.033
10179SOL    HW131436   0.107   5.774   0.987
10179SOL    HW231437   7.005   5.695   1.055
10180SOL     OW31438   2.935   6.482   6.056
10180SOL    HW131439   2.987   6.560   6.020
10180SOL    HW231440   2.864   6.456   5.990
10181SOL     OW31441   0.074   3.319   2.415
10181SOL    HW131442   0.033   3.321   2.325
10181SOL    HW231443   0.003   3.332   2.485
10182SOL     OW31444   3.727   0.513   0.443
10182SOL    HW131445   3.687   0.605   0.438
10182SOL    HW231446   3.736   0.476   0.351
10183SOL     OW31447   4.016   6.062   5.706
10183SOL    HW131448   4.042   6.153   5.739
10183SOL    HW231449   4.008   6.064   5.607
10184SOL     OW31450   5.363   2.774   4.955
10184SOL    HW131451   5.419   2.854   4.975
10184SOL    HW231452   5.408   2.692   4.988
10185SOL     OW31453   2.710   4.690   2.463
10185SOL    HW131454   2.753   4.717   2.377
10185SOL    HW231455   2.776   4.701   2.538
10186SOL     OW31456   3.156   2.936   0.815
10186SOL    HW131457   3.124   2.861   0.873
10186SOL    HW231458   3.187   2.899   0.727
10187SOL     OW31459   2.467   3.840   5.607
10187SOL    HW131460   2.410   3.910   5.649
10187SOL    HW231461   2.421   3.803   5.527
10188SOL     OW31462   1.919   6.657   0.074
10188SOL    HW131463   1.851   6.695   0.136
10188SOL    HW231464   1.917   6.706   7.010
10189SOL     OW31465   2.246   1.660   5.066
10189SOL    HW131466   2.257   1.673   5.164
10189SOL    HW231467   2.336   1.666   5.021
10190SOL     OW31468   4.047   3.887   0.964
10190SOL    HW131469   3.993   3.878   0.880
10190SOL    HW231470   4.050   3.798   1.011
10191SOL     OW31471   5.647   0.573   0.085
10191SOL    HW131472   5.628   0.669   0.106
10191SOL    HW231473   5.561   0.523   0.079
10192SOL     OW31474   2.070   0.945   3.859
10192SOL    HW131475   2.064   1.043   3.838
10192SOL    HW231476   1.979   0.911   3.884
10193SOL     OW31477   3.360   3.795   3.941
10193SOL    HW131478   3.311   3.840   4.015
10193SOL    HW231479   3.306   3.717   3.908
10194SOL     OW31480   2.975   6.006   2.943
10194SOL    HW131481   2.909   6.060   2.996
10194SOL    HW231482   3.061   6.056   2.937
10195SOL     OW31483   5.135   0.581   2.858
10195SOL    HW131484   5.164   0.539   2.944
10195SOL    HW231485   5.214   0.619   2.810
10196SOL     OW31486   5.083   4.285   4.402
10196SOL    HW131487   5.034   4.225   4.340
10196SOL    HW231488   5.026   4.364   4.425
10197SOL     OW31489   4.760   1.575   2.779
10197SOL    HW131490   4.749   1.564   2.878
10197SOL    HW231491   4.670   1.584   2.736
10198SOL     OW31492   3.380   1.367   1.701
10198SOL    HW131493   3.431   1.383   1.786
10198SOL    HW231494   3.308   1.300   1.718
10199SOL     OW31495   0.823   1.849   6.934
10199SOL    HW131496   0.827   1.902   6.850
10199SOL    HW231497   0.817   1.752   6.912
10200SOL     OW31498   5.991   6.140   4.452
10200SOL    HW131499   5.923   6.082   4.498
10200SOL    HW231500   6.010   6.104   4.361
10201SOL     OW31501   1.452   4.695   2.948
10201SOL    HW131502   1.358   4.707   2.980
10201SOL    HW231503   1.489   4.609   2.985
10202SOL     OW31504   0.730   1.744   3.297
10202SOL    HW131505   0.713   1.647   3.315
10202SOL    HW231506   0.793   1.752   3.219
10203SOL     OW31507   0.395   2.230   0.955
10203SOL    HW131508   0.454   2.300   0.914
10203SOL    HW231509   0.378   2.158   0.888
10204SOL     OW31510   2.624   6.179   4.156
10204SOL    HW131511   2.639   6.159   4.059
10204SOL    HW231512   2.573   6.104   4.198
10205SOL     OW31513   3.666   0.325   1.249
10205SOL    HW131514   3.610   0.292   1.325
10205SOL    HW231515   3.670   0.424   1.251
10206SOL     OW31516   5.561   6.664   6.783
10206SOL    HW131517   5.593   6.578   6.744
10206SOL    HW231518   5.554   6.656   6.882
10207SOL     OW31519   3.982   1.214   2.797
10207SOL    HW131520   3.989   1.194   2.700
10207SOL    HW231521   3.941   1.304   2.810
10208SOL     OW31522   6.986   3.449   6.127
10208SOL    HW131523   6.946   3.541   6.120
10208SOL    HW231524   6.927   3.391   6.181
10209SOL     OW31525   3.894   6.142   0.035
10209SOL    HW131526   3.874   6.047   0.059
10209SOL    HW231527   3.871   6.201   0.113
10210SOL     OW31528   5.443   5.278   0.371
10210SOL    HW131529   5.447   5.264   0.470
10210SOL    HW231530   5.535   5.270   0.332
10211SOL     OW31531   3.735   5.755   5.654
10211SOL    HW131532   3.778   5.813   5.723
10211SOL    HW231533   3.762   5.787   5.563
10212SOL     OW31534   6.046   6.421   6.086
10212SOL    HW131535   6.059   6.322   6.091
10212SOL    HW231536   6.098   6.466   6.158
10213SOL     OW31537   4.303   0.573   4.328
10213SOL    HW131538   4.303   0.608   4.421
10213SOL    HW231539   4.398   0.558   4.298
10214SOL     OW31540   0.856   0.441   0.206
10214SOL    HW131541   0.801   0.395   0.137
10214SOL    HW231542   0.797   0.476   0.279
10215SOL     OW31543   4.373   2.542   0.407
10215SOL    HW131544   4.332   2.552   0.316
10215SOL    HW231545   4.461   2.494   0.399
10216SOL     OW31546   5.095   0.253   2.979
10216SOL    HW131547   5.072   0.284   2.887
10216SOL    HW231548   5.165   0.182   2.974
10217SOL     OW31549   3.563   2.426   5.673
10217SOL    HW131550   3.509   2.352   5.634
10217SOL    HW231551   3.512   2.468   5.749
10218SOL     OW31552   3.627   1.653   6.435
10218SOL    HW131553   3.603   1.563   6.396
10218SOL    HW231554   3.691   1.640   6.511
10219SOL     OW31555   1.481   5.422   0.104
10219SOL    HW131556   1.537   5.384   0.178
10219SOL    HW231557   1.402   5.469   0.142
10220SOL     OW31558   4.132   2.296   0.114
10220SOL    HW131559   4.196   2.372   0.128
10220SOL    HW231560   4.039   2.332   0.101
10221SOL     OW31561   2.672   1.032   4.056
10221SOL    HW131562   2.620   1.015   4.140
10221SOL    HW231563   2.671   0.950   3.999
10222SOL     OW31564   1.912   4.359   5.359
10222SOL    HW131565   1.885   4.265   5.338
10222SOL    HW231566   2.012   4.365   5.361
10223SOL     OW31567   0.980   4.395   6.406
10223SOL    HW131568   0.889   4.400   6.365
10223SOL    HW231569   0.978   4.332   6.483
10224SOL     OW31570   2.785   6.925   4.907
10224SOL    HW131571   2.769   6.863   4.830
10224SOL    HW231572   2.881   6.918   4.935
10225SOL     OW31573   4.921   6.055   4.845
10225SOL    HW131574   4.992   6.040   4.776
10225SOL    HW231575   4.960   6.043   4.936
10226SOL     OW31576   6.553   2.698   6.239
10226SOL    HW131577   6.548   2.724   6.335
10226SOL    HW231578   6.583   2.776   6.185
10227SOL     OW31579   4.680   5.128   5.681
10227SOL    HW131580   4.779   5.141   5.670
10227SOL    HW231581   4.632   5.183   5.613
10228SOL     OW31582   1.032   3.175   1.748
10228SOL    HW131583   1.100   3.169   1.821
10228SOL    HW231584   0.949   3.128   1.776
10229SOL     OW31585   2.399   0.511   1.513
10229SOL    HW131586   2.359   0.599   1.490
10229SOL    HW231587   2.453   0.477   1.436
10230SOL     OW31588   6.134   6.565   3.450
10230SOL    HW131589   6.224   6.582   3.412
10230SOL    HW231590   6.090   6.651   3.474
10231SOL     OW31591   4.685   6.840   4.560
10231SOL    HW131592   4.772   6.885   4.578
10231SOL    HW231593   4.702   6.747   4.527
10232SOL     OW31594   3.696   2.123   3.739
10232SOL    HW131595   3.661   2.122   3.646
10232SOL    HW231596   3.621   2.108   3.803
10233SOL     OW31597   4.718   0.199   5.320
10233SOL    HW131598   4.709   0.289   5.361
10233SOL    HW231599   4.659   0.194   5.239
10234SOL     OW31600   4.662   5.233   1.508
10234SOL    HW131601   4.565   5.235   1.484
10234SOL    HW231602   4.681   5.305   1.575
10235SOL     OW31603   5.144   0.953   0.386
10235SOL    HW131604   5.139   1.022   0.314
10235SOL    HW231605   5.234   0.909   0.383
10236SOL     OW31606   1.466   5.783   1.302
10236SOL    HW131607   1.450   5.726   1.383
10236SOL    HW231608   1.379   5.824   1.273
10237SOL     OW31609   5.697   2.567   3.258
10237SOL    HW131610   5.740   2.591   3.344
10237SOL    HW231611   5.646   2.482   3.269
10238SOL     OW31612   4.315   5.956   5.263
10238SOL    HW131613   4.246   5.934   5.332
10238SOL    HW231614   4.276   6.017   5.194
10239SOL     OW31615   5.882   3.198   4.883
10239SOL    HW131616   5.842   3.190   4.974
10239SOL    HW231617   5.866   3.113   4.832
10240SOL     OW31618   4.881   3.615   3.494
10240SOL    HW131619   4.887   3.705   3.535
10240SOL    HW231620   4.924   3.617   3.403
10241SOL     OW31621   1.610   1.988   3.204
10241SOL    HW131622   1.707   2.010   3.190
10241SOL    HW231623   1.586   2.006   3.299
10242SOL     OW31624   0.971   5.282   5.723
10242SOL    HW131625   1.046   5.219   5.739
10242SOL    HW231626   0.909   5.282   5.802
10243SOL     OW31627   0.821   6.352   2.843
10243SOL    HW131628   0.861   6.348   2.751
10243SOL    HW231629   0.892   6.380   2.908
10244SOL     OW31630   1.555   5.807   0.235
10244SOL    HW131631   1.511   5.843   0.153
10244SOL    HW231632   1.486   5.770   0.296
10245SOL     OW31633   2.307   2.555   0.641
10245SOL    HW131634   2.356   2.471   0.663
10245SOL    HW231635   2.299   2.564   0.541
10246SOL     OW31636   2.978   3.565   4.547
10246SOL    HW131637   3.064   3.520   4.572
10246SOL    HW231638   2.929   3.591   4.631
10247SOL     OW31639   0.862   6.086   5.945
10247SOL    HW131640   0.955   6.052   5.937
10247SOL    HW231641   0.805   6.017   5.991
10248SOL     OW31642   6.043   0.663   3.867
10248SOL    HW131643   6.005   0.725   3.936
10248SOL    HW231644   5.979   0.654   3.791
10249SOL     OW31645   4.849   0.651   6.292
10249SOL    HW131646   4.878   0.708   6.369
10249SOL    HW231647   4.905   0.568   6.291
10250SOL     OW31648   5.106   6.719   0.644
10250SOL    HW131649   5.011   6.690   0.638
10250SOL    HW231650   5.130   6.775   0.565
10251SOL     OW31651   3.602   4.650   1.316
10251SOL    HW131652   3.629   4.658   1.220
10251SOL    HW231653   3.679   4.679   1.375
10252SOL     OW31654   0.538   4.294   0.959
10252SOL    HW131655   0.519   4.348   0.877
10252SOL    HW231656   0.452   4.274   1.006
10253SOL     OW31657   3.697   4.968   0.408
10253SOL    HW131658   3.720   4.873   0.428
10253SOL    HW231659   3.720   5.025   0.487
10254SOL     OW31660   2.300   1.422   4.696
10254SOL    HW131661   2.246   1.408   4.779
10254SOL    HW231662   2.377   1.482   4.717
10255SOL     OW31663   2.955   5.735   3.003
10255SOL    HW131664   2.911   5.821   3.029
10255SOL    HW231665   3.041   5.755   2.956
10256SOL     OW31666   5.898   6.747   0.402
10256SOL    HW131667   5.811   6.725   0.446
10256SOL    HW231668   5.893   6.722   0.305
10257SOL     OW31669   1.657   5.538   5.506
10257SOL    HW131670   1.595   5.460   5.500
10257SOL    HW231671   1.734   5.524   5.445
10258SOL     OW31672   4.165   0.783   2.895
10258SOL    HW131673   4.144   0.873   2.932
10258SOL    HW231674   4.153   0.713   2.965
10259SOL     OW31675   0.534   3.293   3.833
10259SOL    HW131676   0.603   3.349   3.880
10259SOL    HW231677   0.455   3.350   3.812
10260SOL     OW31678   0.040   5.702   2.414
10260SOL    HW131679   0.102   5.630   2.443
10260SOL    HW231680   0.072   5.741   2.327
10261SOL     OW31681   1.958   0.143   1.939
10261SOL    HW131682   1.988   0.218   1.880
10261SOL    HW231683   2.010   0.061   1.917
10262SOL     OW31684   1.451   6.669   3.930
10262SOL    HW131685   1.508   6.671   4.012
10262SOL    HW231686   1.363   6.714   3.950
10263SOL     OW31687   6.488   3.150   5.446
10263SOL    HW131688   6.401   3.105   5.467
10263SOL    HW231689   6.519   3.200   5.527
10264SOL     OW31690   0.632   6.816   0.217
10264SOL    HW131691   0.652   6.762   0.135
10264SOL    HW231692   0.644   6.913   0.197
10265SOL     OW31693   4.444   1.909   2.827
10265SOL    HW131694   4.349   1.881   2.842
10265SOL    HW231695   4.470   1.974   2.898
10266SOL     OW31696   3.918   3.763   6.911
10266SOL    HW131697   3.944   3.860   6.918
10266SOL    HW231698   3.829   3.750   6.953
10267SOL     OW31699   6.685   1.150   6.349
10267SOL    HW131700   6.593   1.168   6.315
10267SOL    HW231701   6.729   1.236   6.375
10268SOL     OW31702   6.586   3.923   0.884
10268SOL    HW131703   6.490   3.923   0.856
10268SOL    HW231704   6.605   4.004   0.938
10269SOL     OW31705   3.867   2.079   5.933
10269SOL    HW131706   3.781   2.074   5.985
10269SOL    HW231707   3.864   2.157   5.872
10270SOL     OW31708   2.922   6.110   2.015
10270SOL    HW131709   2.875   6.130   2.101
10270SOL    HW231710   3.020   6.124   2.027
10271SOL     OW31711   2.390   5.405   1.076
10271SOL    HW131712   2.348   5.315   1.065
10271SOL    HW231713   2.326   5.475   1.046
10272SOL     OW31714   1.751   1.983   4.144
10272SOL    HW131715   1.708   1.917   4.205
10272SOL    HW231716   1.730   1.959   4.049
10273SOL     OW31717   4.360   6.911   3.937
10273SOL    HW131718   4.285   6.918   4.003
10273SOL    HW231719   4.387   7.002   3.906
10274SOL     OW31720   2.782   4.834   6.504
10274SOL    HW131721   2.851   4.872   6.441
10274SOL    HW231722   2.806   4.740   6.527
10275SOL     OW31723   0.924   6.610   1.952
10275SOL    HW131724   0.915   6.677   2.026
10275SOL    HW231725   0.838   6.560   1.942
10276SOL     OW31726   1.076   6.493   6.963
10276SOL    HW131727   1.026   6.570   7.003
10276SOL    HW231728   1.163   6.482   7.011
10277SOL     OW31729   0.566   5.732   1.797
10277SOL    HW131730   0.537   5.810   1.853
10277SOL    HW231731   0.486   5.693   1.751
10278SOL     OW31732   6.642   0.122   5.392
10278SOL    HW131733   6.676   0.029   5.406
10278SOL    HW231734   6.543   0.121   5.385
10279SOL     OW31735   3.541   6.013   5.204
10279SOL    HW131736   3.530   5.960   5.120
10279SOL    HW231737   3.605   6.088   5.188
10280SOL     OW31738   3.640   2.645   0.083
10280SOL    HW131739   3.580   2.620   0.007
10280SOL    HW231740   3.597   2.717   0.138
10281SOL     OW31741   4.956   0.109   4.165
10281SOL    HW131742   4.965   0.010   4.157
10281SOL    HW231743   5.046   0.149   4.179
10282SOL     OW31744   1.340   2.798   4.200
10282SOL    HW131745   1.413   2.772   4.138
10282SOL    HW231746   1.344   2.897   4.216
10283SOL     OW31747   1.708   4.189   5.991
10283SOL    HW131748   1.701   4.280   5.949
10283SOL    HW231749   1.662   4.191   6.080
10284SOL     OW31750   5.037   3.393   6.848
10284SOL    HW131751   5.114   3.440   6.806
10284SOL    HW231752   4.954   3.448   6.836
10285SOL     OW31753   5.292   1.251   0.926
10285SOL    HW131754   5.290   1.261   1.026
10285SOL    HW231755   5.384   1.273   0.892
10286SOL     OW31756   4.253   0.562   3.912
10286SOL    HW131757   4.235   0.658   3.937
10286SOL    HW231758   4.216   0.502   3.983
10287SOL     OW31759   1.742   4.649   2.303
10287SOL    HW131760   1.816   4.715   2.319
10287SOL    HW231761   1.692   4.634   2.388
10288SOL     OW31762   4.382   6.271   4.508
10288SOL    HW131763   4.358   6.343   4.443
10288SOL    HW231764   4.453   6.304   4.570
10289SOL     OW31765   3.202   1.482   1.514
10289SOL    HW131766   3.133   1.551   1.535
10289SOL    HW231767   3.265   1.472   1.591
10290SOL     OW31768   3.250   2.935   2.747
10290SOL    HW131769   3.235   2.848   2.700
10290SOL    HW231770   3.304   2.919   2.830
10291SOL     OW31771   4.004   0.770   5.333
10291SOL    HW131772   3.914   0.764   5.292
10291SOL    HW231773   4.023   0.865   5.360
10292SOL     OW31774   0.734   2.442   4.488
10292SOL    HW131775   0.751   2.511   4.418
10292SOL    HW231776   0.672   2.479   4.557
10293SOL     OW31777   3.077   5.318   3.036
10293SOL    HW131778   3.090   5.393   2.972
10293SOL    HW231779   2.986   5.278   3.023
10294SOL     OW31780   6.485   1.406   3.371
10294SOL    HW131781   6.444   1.324   3.410
10294SOL    HW231782   6.460   1.414   3.275
10295SOL     OW31783   1.631   4.150   4.330
10295SOL    HW131784   1.635   4.248   4.351
10295SOL    HW231785   1.715   4.123   4.283
10296SOL     OW31786   6.786   3.144   1.852
10296SOL    HW131787   6.736   3.216   1.901
10296SOL    HW231788   6.728   3.108   1.779
10297SOL     OW31789   3.181   5.484   4.920
10297SOL    HW131790   3.273   5.515   4.945
10297SOL    HW231791   3.187   5.421   4.843
10298SOL     OW31792   5.766   3.313   3.119
10298SOL    HW131793   5.838   3.288   3.183
10298SOL    HW231794   5.693   3.362   3.167
10299SOL     OW31795   4.882   4.128   2.280
10299SOL    HW131796   4.895   4.076   2.364
10299SOL    HW231797   4.954   4.104   2.215
10300SOL     OW31798   0.885   5.611   1.832
10300SOL    HW131799   0.795   5.645   1.808
10300SOL    HW231800   0.878   5.517   1.866
10301SOL     OW31801   4.368   1.140   1.643
10301SOL    HW131802   4.345   1.108   1.552
10301SOL    HW231803   4.403   1.064   1.698
10302SOL     OW31804   2.266   4.164   4.001
10302SOL    HW131805   2.258   4.147   4.099
10302SOL    HW231806   2.328   4.241   3.986
10303SOL     OW31807   4.527   2.692   1.569
10303SOL    HW131808   4.565   2.693   1.661
10303SOL    HW231809   4.508   2.786   1.539
10304SOL     OW31810   6.232   6.406   3.649
10304SOL    HW131811   6.213   6.461   3.568
10304SOL    HW231812   6.315   6.439   3.694
10305SOL     OW31813   1.935   5.318   1.205
10305SOL    HW131814   1.881   5.295   1.286
10305SOL    HW231815   2.027   5.345   1.233
10306SOL     OW31816   4.022   4.406   1.169
10306SOL    HW131817   3.987   4.346   1.097
10306SOL    HW231818   4.015   4.501   1.140
10307SOL     OW31819   2.678   1.818   5.179
10307SOL    HW131820   2.748   1.887   5.196
10307SOL    HW231821   2.612   1.817   5.254
10308SOL     OW31822   2.677   5.287   3.692
10308SOL    HW131823   2.764   5.242   3.713
10308SOL    HW231824   2.653   5.269   3.596
10309SOL     OW31825   7.012   6.086   3.555
10309SOL    HW131826   6.957   6.011   3.520
10309SOL    HW231827   6.993   6.169   3.504
10310SOL     OW31828   3.399   3.066   4.560
10310SOL    HW131829   3.433   3.102   4.648
10310SOL    HW231830   3.473   3.015   4.515
10311SOL     OW31831   0.704   0.189   0.547
10311SOL    HW131832   0.686   0.168   0.643
10311SOL    HW231833   0.753   0.113   0.505
10312SOL     OW31834   2.570   4.712   0.758
10312SOL    HW131835   2.510   4.743   0.832
10312SOL    HW231836   2.634   4.785   0.735
10313SOL     OW31837   6.572   5.645   3.841
10313SOL    HW131838   6.510   5.724   3.841
10313SOL    HW231839   6.569   5.600   3.930
10314SOL     OW31840   6.474   5.515   5.526
10314SOL    HW131841   6.514   5.600   5.490
10314SOL    HW231842   6.520   5.491   5.611
10315SOL     OW31843   4.767   6.796   5.487
10315SOL    HW131844   4.764   6.787   5.387
10315SOL    HW231845   4.695   6.740   5.528
10316SOL     OW31846   0.297   3.752   2.983
10316SOL    HW131847   0.392   3.741   2.955
10316SOL    HW231848   0.293   3.807   3.066
10317SOL     OW31849   5.095   4.678   0.237
10317SOL    HW131850   5.133   4.767   0.213
10317SOL    HW231851   4.995   4.685   0.243
10318SOL     OW31852   6.162   5.729   2.892
10318SOL    HW131853   6.247   5.781   2.878
10318SOL    HW231854   6.096   5.754   2.821
10319SOL     OW31855   5.523   6.569   4.843
10319SOL    HW131856   5.599   6.514   4.876
10319SOL    HW231857   5.440   6.513   4.842
10320SOL     OW31858   4.300   5.839   2.181
10320SOL    HW131859   4.390   5.850   2.223
10320SOL    HW231860   4.292   5.748   2.142
10321SOL     OW31861   4.141   0.062   4.303
10321SOL    HW131862   4.192   0.116   4.370
10321SOL    HW231863   4.069   0.118   4.263
10322SOL     OW31864   0.865   2.270   0.022
10322SOL    HW131865   0.937   2.220   6.998
10322SOL    HW231866   0.833   2.215   0.100
10323SOL     OW31867   0.853   2.426   5.599
10323SOL    HW131868   0.916   2.477   5.658
10323SOL    HW231869   0.787   2.377   5.655
10324SOL     OW31870   3.608   2.943   4.441
10324SOL    HW131871   3.706   2.945   4.461
10324SOL    HW231872   3.595   2.936   4.342
10325SOL     OW31873   6.812   3.543   3.541
10325SOL    HW131874   6.750   3.595   3.483
10325SOL    HW231875   6.881   3.498   3.483
10326SOL     OW31876   5.818   1.793   1.438
10326SOL    HW131877   5.730   1.746   1.440
10326SOL    HW231878   5.875   1.759   1.513
10327SOL     OW31879   6.133   1.041   3.556
10327SOL    HW131880   6.130   0.956   3.503
10327SOL    HW231881   6.042   1.062   3.591
10328SOL     OW31882   6.499   3.999   2.485
10328SOL    HW131883   6.516   3.916   2.431
10328SOL    HW231884   6.529   3.984   2.579
10329SOL     OW31885   3.354   5.901   2.951
10329SOL    HW131886   3.452   5.887   2.937
10329SOL    HW231887   3.306   5.885   2.865
10330SOL     OW31888   3.322   3.566   1.051
10330SOL    HW131889   3.331   3.644   1.112
10330SOL    HW231890   3.238   3.575   0.997
10331SOL     OW31891   5.095   1.344   4.222
10331SOL    HW131892   5.091   1.389   4.312
10331SOL    HW231893   5.122   1.411   4.153
10332SOL     OW31894   0.924   1.501   6.110
10332SOL    HW131895   0.987   1.510   6.187
10332SOL    HW231896   0.859   1.577   6.111
10333SOL     OW31897   6.528   4.802   5.424
10333SOL    HW131898   6.521   4.848   5.513
10333SOL    HW231899   6.443   4.818   5.372
10334SOL     OW31900   0.733   5.164   5.170
10334SOL    HW131901   0.783   5.114   5.241
10334SOL    HW231902   0.766   5.137   5.080
10335SOL     OW31903   3.359   5.393   2.625
10335SOL    HW131904   3.341   5.341   2.708
10335SOL    HW231905   3.450   5.435   2.631
10336SOL     OW31906   4.858   6.893   2.800
10336SOL    HW131907   4.830   6.956   2.727
10336SOL    HW231908   4.791   6.896   2.874
10337SOL     OW31909   0.479   4.044   5.820
10337SOL    HW131910   0.489   4.125   5.877
10337SOL    HW231911   0.535   3.970   5.857
10338SOL     OW31912   2.662   4.981   2.671
10338SOL    HW131913   2.683   5.075   2.701
10338SOL    HW231914   2.703   4.965   2.582
10339SOL     OW31915   2.482   5.258   0.809
10339SOL    HW131916   2.548   5.235   0.738
10339SOL    HW231917   2.457   5.355   0.802
10340SOL     OW31918   1.651   6.477   0.565
10340SOL    HW131919   1.563   6.437   0.592
10340SOL    HW231920   1.712   6.479   0.644
10341SOL     OW31921   0.917   2.336   1.748
10341SOL    HW131922   0.905   2.378   1.658
10341SOL    HW231923   0.988   2.266   1.743
10342SOL     OW31924   3.786   6.191   4.553
10342SOL    HW131925   3.800   6.161   4.458
10342SOL    HW231926   3.691   6.220   4.564
10343SOL     OW31927   2.467   2.610   4.017
10343SOL    HW131928   2.540   2.542   4.022
10343SOL    HW231929   2.415   2.598   3.933
10344SOL     OW31930   4.393   3.463   1.361
10344SOL    HW131931   4.379   3.560   1.380
10344SOL    HW231932   4.409   3.450   1.263
10345SOL     OW31933   3.093   2.364   6.115
10345SOL    HW131934   3.058   2.312   6.193
10345SOL    HW231935   3.020   2.375   6.048
10346SOL     OW31936   6.271   5.574   0.627
10346SOL    HW131937   6.295   5.662   0.667
10346SOL    HW231938   6.209   5.588   0.549
10347SOL     OW31939   4.586   6.877   1.717
10347SOL    HW131940   4.554   6.825   1.637
10347SOL    HW231941   4.582   6.975   1.697
10348SOL     OW31942   6.861   5.077   5.813
10348SOL    HW131943   6.834   4.981   5.810
10348SOL    HW231944   6.783   5.133   5.840
10349SOL     OW31945   6.780   2.457   0.288
10349SOL    HW131946   6.706   2.473   0.352
10349SOL    HW231947   6.803   2.359   0.287
10350SOL     OW31948   2.195   4.871   4.546
10350SOL    HW131949   2.204   4.778   4.581
10350SOL    HW231950   2.161   4.868   4.452
10351SOL     OW31951   3.799   4.949   4.736
10351SOL    HW131952   3.763   4.915   4.649
10351SOL    HW231953   3.736   4.924   4.810
10352SOL     OW31954   6.857   1.151   0.700
10352SOL    HW131955   6.780   1.146   0.636
10352SOL    HW231956   6.922   1.220   0.670
10353SOL     OW31957   6.408   2.483   4.016
10353SOL    HW131958   6.411   2.457   3.920
10353SOL    HW231959   6.339   2.554   4.030
10354SOL     OW31960   6.734   2.815   1.154
10354SOL    HW131961   6.664   2.810   1.226
10354SOL    HW231962   6.759   2.911   1.139
10355SOL     OW31963   0.720   1.959   0.994
10355SOL    HW131964   0.713   2.023   0.917
10355SOL    HW231965   0.797   1.897   0.978
10356SOL     OW31966   5.811   2.538   6.935
10356SOL    HW131967   5.730   2.566   6.985
10356SOL    HW231968   5.801   2.562   6.838
10357SOL     OW31969   1.333   0.310   6.086
10357SOL    HW131970   1.383   0.232   6.049
10357SOL    HW231971   1.393   0.390   6.087
10358SOL     OW31972   0.512   2.235   2.890
10358SOL    HW131973   0.611   2.240   2.877
10358SOL    HW231974   0.471   2.182   2.815
10359SOL     OW31975   0.712   2.212   1.983
10359SOL    HW131976   0.670   2.220   1.892
10359SOL    HW231977   0.783   2.142   1.980
10360SOL     OW31978   6.022   4.170   1.151
10360SOL    HW131979   5.947   4.186   1.087
10360SOL    HW231980   6.072   4.088   1.123
10361SOL     OW31981   6.526   1.838   2.422
10361SOL    HW131982   6.549   1.800   2.332
10361SOL    HW231983   6.486   1.929   2.411
10362SOL     OW31984   1.269   5.549   1.915
10362SOL    HW131985   1.245   5.470   1.858
10362SOL    HW231986   1.189   5.579   1.967
10363SOL     OW31987   5.491   4.943   6.533
10363SOL    HW131988   5.586   4.947   6.563
10363SOL    HW231989   5.468   5.027   6.484
10364SOL     OW31990   5.523   5.758   2.477
10364SOL    HW131991   5.553   5.712   2.560
10364SOL    HW231992   5.595   5.753   2.408
10365SOL     OW31993   6.183   5.288   0.293
10365SOL    HW131994   6.276   5.276   0.331
10365SOL    HW231995   6.176   5.378   0.251
10366SOL     OW31996   2.629   6.529   4.160
10366SOL    HW131997   2.677   6.615   4.177
10366SOL    HW231998   2.548   6.546   4.104
10367SOL     OW31999   5.397   6.667   1.722
10367SOL    HW132000   5.376   6.746   1.780
10367SOL    HW232001   5.494   6.670   1.695
10368SOL     OW32002   1.049   5.628   2.072
10368SOL    HW132003   0.986   5.646   1.996
10368SOL    HW232004   1.050   5.708   2.132
10369SOL     OW32005   2.295   0.360   5.767
10369SOL    HW132006   2.242   0.299   5.826
10369SOL    HW232007   2.355   0.417   5.824
10370SOL     OW32008   2.060   1.749   5.477
10370SOL    HW132009   1.977   1.698   5.457
10370SOL    HW232010   2.139   1.702   5.438
10371SOL     OW32011   4.316   5.544   3.161
10371SOL    HW132012   4.265   5.511   3.081
10371SOL    HW232013   4.261   5.528   3.244
10372SOL     OW32014   2.228   6.400   1.109
10372SOL    HW132015   2.159   6.372   1.042
10372SOL    HW232016   2.283   6.320   1.134
10373SOL     OW32017   5.989   0.670   6.865
10373SOL    HW132018   5.995   0.770   6.867
10373SOL    HW232019   6.014   0.637   6.774
10374SOL     OW32020   2.882   4.884   3.109
10374SOL    HW132021   2.924   4.817   3.048
10374SOL    HW232022   2.953   4.936   3.155
10375SOL     OW32023   2.175   5.368   0.600
10375SOL    HW132024   2.168   5.269   0.617
10375SOL    HW232025   2.111   5.393   0.527
10376SOL     OW32026   2.389   4.966   3.646
10376SOL    HW132027   2.441   4.924   3.720
10376SOL    HW232028   2.291   4.952   3.661
10377SOL     OW32029   2.215   0.806   2.601
10377SOL    HW132030   2.251   0.777   2.513
10377SOL    HW232031   2.287   0.802   2.671
10378SOL     OW32032   0.640   6.112   5.242
10378SOL    HW132033   0.597   6.144   5.157
10378SOL    HW232034   0.608   6.020   5.263
10379SOL     OW32035   2.093   6.917   3.548
10379SOL    HW132036   2.022   6.986   3.532
10379SOL    HW232037   2.183   6.960   3.541
10380SOL     OW32038   3.524   1.169   3.917
10380SOL    HW132039   3.445   1.216   3.957
10380SOL    HW232040   3.569   1.114   3.988
10381SOL     OW32041   3.918   6.921   2.807
10381SOL    HW132042   3.994   6.882   2.755
10381SOL    HW232043   3.913   6.878   2.897
10382SOL     OW32044   4.272   5.395   1.956
10382SOL    HW132045   4.355   5.363   2.001
10382SOL    HW232046   4.255   5.490   1.981
10383SOL     OW32047   0.670   5.388   6.706
10383SOL    HW132048   0.665   5.355   6.612
10383SOL    HW232049   0.755   5.439   6.720
10384SOL     OW32050   4.876   5.843   1.413
10384SOL    HW132051   4.853   5.760   1.464
10384SOL    HW232052   4.975   5.852   1.408
10385SOL     OW32053   4.543   4.739   0.269
10385SOL    HW132054   4.551   4.820   0.326
10385SOL    HW232055   4.546   4.657   0.326
10386SOL     OW32056   0.006   0.628   1.037
10386SOL    HW132057   0.023   0.531   1.023
10386SOL    HW232058   6.934   0.648   1.014
10387SOL     OW32059   4.897   3.359   2.297
10387SOL    HW132060   4.855   3.281   2.250
10387SOL    HW232061   4.906   3.436   2.233
10388SOL     OW32062   1.924   0.139   4.744
10388SOL    HW132063   1.980   0.081   4.803
10388SOL    HW232064   1.830   0.104   4.741
10389SOL     OW32065   0.668   3.883   7.005
10389SOL    HW132066   0.723   3.809   0.019
10389SOL    HW232067   0.693   3.897   6.909
10390SOL     OW32068   1.952   2.324   2.042
10390SOL    HW132069   2.044   2.328   2.003
10390SOL    HW232070   1.908   2.238   2.018
10391SOL     OW32071   6.151   6.981   3.929
10391SOL    HW132072   6.108   6.891   3.921
10391SOL    HW232073   6.163   7.004   4.026
10392SOL     OW32074   6.682   4.246   4.052
10392SOL    HW132075   6.675   4.173   3.983
10392SOL    HW232076   6.703   4.332   4.007
10393SOL     OW32077   2.187   2.423   2.609
10393SOL    HW132078   2.259   2.355   2.604
10393SOL    HW232079   2.226   2.510   2.640
10394SOL     OW32080   3.234   0.078   4.229
10394SOL    HW132081   3.301   0.014   4.267
10394SOL    HW232082   3.175   0.112   4.302
10395SOL     OW32083   0.618   0.427   0.983
10395SOL    HW132084   0.556   0.358   1.021
10395SOL    HW232085   0.708   0.387   0.969
10396SOL     OW32086   3.313   2.139   4.828
10396SOL    HW132087   3.289   2.183   4.742
10396SOL    HW232088   3.250   2.169   4.900
10397SOL     OW32089   5.148   1.973   4.263
10397SOL    HW132090   5.205   1.905   4.217
10397SOL    HW232091   5.051   1.948   4.254
10398SOL     OW32092   5.818   2.384   2.618
10398SOL    HW132093   5.778   2.308   2.669
10398SOL    HW232094   5.753   2.417   2.550
10399SOL     OW32095   0.847   3.792   2.267
10399SOL    HW132096   0.818   3.703   2.302
10399SOL    HW232097   0.777   3.830   2.207
10400SOL     OW32098   2.082   6.331   0.828
10400SOL    HW132099   2.015   6.264   0.859
10400SOL    HW232100   2.171   6.287   0.819
10401SOL     OW32101   0.292   1.115   5.606
10401SOL    HW132102   0.219   1.131   5.672
10401SOL    HW232103   0.380   1.139   5.647
10402SOL     OW32104   6.991   3.433   5.187
10402SOL    HW132105   6.998   3.493   5.267
10402SOL    HW232106   7.023   3.342   5.211
10403SOL     OW32107   3.135   6.900   0.877
10403SOL    HW132108   3.205   6.967   0.903
10403SOL    HW232109   3.180   6.814   0.852
10404SOL     OW32110   6.322   6.788   6.018
10404SOL    HW132111   6.394   6.842   5.974
10404SOL    HW232112   6.237   6.798   5.967
10405SOL     OW32113   0.646   2.640   6.628
10405SOL    HW132114   0.558   2.594   6.630
10405SOL    HW232115   0.704   2.605   6.702
10406SOL     OW32116   1.545   5.235   1.469
10406SOL    HW132117   1.534   5.136   1.476
10406SOL    HW232118   1.561   5.261   1.374
10407SOL     OW32119   2.082   5.862   5.471
10407SOL    HW132120   1.994   5.833   5.434
10407SOL    HW232121   2.145   5.785   5.471
10408SOL     OW32122   4.126   1.277   0.225
10408SOL    HW132123   4.195   1.326   0.278
10408SOL    HW232124   4.037   1.286   0.271
10409SOL     OW32125   6.318   4.605   1.182
10409SOL    HW132126   6.367   4.590   1.096
10409SOL    HW232127   6.230   4.558   1.178
10410SOL     OW32128   4.618   0.174   0.468
10410SOL    HW132129   4.707   0.193   0.509
10410SOL    HW232130   4.546   0.203   0.530
10411SOL     OW32131   2.353   4.771   4.191
10411SOL    HW132132   2.403   4.857   4.200
10411SOL    HW232133   2.414   4.699   4.159
10412SOL     OW32134   5.480   0.131   0.828
10412SOL    HW132135   5.406   0.189   0.792
10412SOL    HW232136   5.561   0.142   0.771
10413SOL     OW32137   6.586   3.059   2.169
10413SOL    HW132138   6.657   2.990   2.179
10413SOL    HW232139   6.496   3.016   2.176
10414SOL     OW32140   4.750   2.727   4.090
10414SOL    HW132141   4.680   2.718   4.161
10414SOL    HW232142   4.779   2.822   4.083
10415SOL     OW32143   0.437   0.833   6.279
10415SOL    HW132144   0.490   0.898   6.223
10415SOL    HW232145   0.354   0.807   6.230
10416SOL     OW32146   5.505   3.536   4.183
10416SOL    HW132147   5.512   3.437   4.184
10416SOL    HW232148   5.439   3.566   4.252
10417SOL     OW32149   2.575   4.556   3.118
10417SOL    HW132150   2.618   4.619   3.182
10417SOL    HW232151   2.489   4.523   3.156
10418SOL     OW32152   1.760   5.646   5.919
10418SOL    HW132153   1.836   5.710   5.923
10418SOL    HW232154   1.784   5.570   5.858
10419SOL     OW32155   1.082   1.339   0.581
10419SOL    HW132156   0.993   1.384   0.582
10419SOL    HW232157   1.073   1.246   0.616
10420SOL     OW32158   0.520   3.149   3.283
10420SOL    HW132159   0.478   3.227   3.328
10420SOL    HW232160   0.608   3.129   3.327
10421SOL     OW32161   0.163   1.245   3.407
10421SOL    HW132162   0.079   1.298   3.399
10421SOL    HW232163   0.241   1.302   3.382
10422SOL     OW32164   5.355   3.904   5.798
10422SOL    HW132165   5.300   3.847   5.860
10422SOL    HW232166   5.416   3.963   5.852
10423SOL     OW32167   5.309   4.303   2.669
10423SOL    HW132168   5.365   4.345   2.597
10423SOL    HW232169   5.367   4.275   2.745
10424SOL     OW32170   5.002   1.585   6.412
10424SOL    HW132171   4.929   1.621   6.355
10424SOL    HW232172   5.055   1.518   6.359
10425SOL     OW32173   2.070   6.421   1.685
10425SOL    HW132174   2.122   6.337   1.669
10425SOL    HW232175   2.108   6.495   1.629
10426SOL     OW32176   6.276   3.879   0.358
10426SOL    HW132177   6.289   3.846   0.264
10426SOL    HW232178   6.180   3.867   0.384
10427SOL     OW32179   4.437   1.200   0.934
10427SOL    HW132180   4.406   1.294   0.931
10427SOL    HW232181   4.389   1.151   1.008
10428SOL     OW32182   4.444   0.875   4.184
10428SOL    HW132183   4.428   0.967   4.147
10428SOL    HW232184   4.369   0.851   4.246
10429SOL     OW32185   5.952   6.386   1.626
10429SOL    HW132186   5.887   6.312   1.609
10429SOL    HW232187   5.950   6.450   1.549
10430SOL     OW32188   4.073   6.367   3.120
10430SOL    HW132189   4.059   6.421   3.037
10430SOL    HW232190   3.988   6.366   3.173
10431SOL     OW32191   2.067   1.052   5.202
10431SOL    HW132192   2.165   1.066   5.216
10431SOL    HW232193   2.052   0.961   5.164
10432SOL     OW32194   4.898   1.399   4.932
10432SOL    HW132195   4.820   1.414   4.993
10432SOL    HW232196   4.924   1.485   4.889
10433SOL     OW32197   2.548   6.754   1.117
10433SOL    HW132198   2.505   6.703   1.043
10433SOL    HW232199   2.536   6.852   1.102
10434SOL     OW32200   2.541   1.952   4.147
10434SOL    HW132201   2.503   1.861   4.135
10434SOL    HW232202   2.584   1.958   4.237
10435SOL     OW32203   5.840   5.698   6.749
10435SOL    HW132204   5.871   5.787   6.713
10435SOL    HW232205   5.750   5.677   6.712
10436SOL     OW32206   0.985   0.140   2.196
10436SOL    HW132207   1.045   0.080   2.249
10436SOL    HW232208   0.978   0.107   2.102
10437SOL     OW32209   6.567   5.249   6.017
10437SOL    HW132210   6.595   5.155   6.002
10437SOL    HW232211   6.502   5.253   6.094
10438SOL     OW32212   3.633   6.790   6.428
10438SOL    HW132213   3.575   6.715   6.395
10438SOL    HW232214   3.654   6.851   6.352
10439SOL     OW32215   4.065   0.702   5.773
10439SOL    HW132216   4.121   0.651   5.838
10439SOL    HW232217   4.068   0.656   5.684
10440SOL     OW32218   2.312   6.121   0.560
10440SOL    HW132219   2.229   6.072   0.587
10440SOL    HW232220   2.286   6.204   0.511
10441SOL     OW32221   3.676   0.691   6.939
10441SOL    HW132222   3.702   0.722   0.007
10441SOL    HW232223   3.753   0.702   6.876
10442SOL     OW32224   4.336   6.075   5.735
10442SOL    HW132225   4.312   6.170   5.715
10442SOL    HW232226   4.257   6.016   5.717
10443SOL     OW32227   6.047   2.938   4.980
10443SOL    HW132228   6.022   3.003   5.052
10443SOL    HW232229   5.995   2.958   4.897
10444SOL     OW32230   3.637   4.897   4.192
10444SOL    HW132231   3.647   4.993   4.166
10444SOL    HW232232   3.548   4.884   4.236
10445SOL     OW32233   6.094   6.149   3.282
10445SOL    HW132234   6.135   6.095   3.355
10445SOL    HW232235   6.159   6.218   3.251
10446SOL     OW32236   0.915   6.480   6.695
10446SOL    HW132237   0.962   6.488   6.783
10446SOL    HW232238   0.938   6.558   6.637
10447SOL     OW32239   6.231   2.059   0.868
10447SOL    HW132240   6.195   1.978   0.821
10447SOL    HW232241   6.161   2.131   0.868
10448SOL     OW32242   3.026   4.031   2.457
10448SOL    HW132243   2.933   4.068   2.458
10448SOL    HW232244   3.030   3.952   2.396
10449SOL     OW32245   1.323   5.262   4.455
10449SOL    HW132246   1.358   5.347   4.494
10449SOL    HW232247   1.374   5.184   4.492
10450SOL     OW32248   0.002   2.865   0.316
10450SOL    HW132249   0.101   2.859   0.326
10450SOL    HW232250   6.992   2.783   0.270
10451SOL     OW32251   2.242   4.428   2.488
10451SOL    HW132252   2.311   4.442   2.417
10451SOL    HW232253   2.282   4.451   2.577
10452SOL     OW32254   1.050   3.653   4.667
10452SOL    HW132255   0.991   3.668   4.588
10452SOL    HW232256   1.141   3.625   4.635
10453SOL     OW32257   5.343   0.437   1.770
10453SOL    HW132258   5.428   0.415   1.722
10453SOL    HW232259   5.265   0.421   1.710
10454SOL     OW32260   4.957   3.581   2.465
10454SOL    HW132261   4.945   3.564   2.562
10454SOL    HW232262   4.912   3.509   2.412
10455SOL     OW32263   6.966   4.767   2.948
10455SOL    HW132264   6.962   4.668   2.939
10455SOL    HW232265   6.889   4.808   2.899
10456SOL     OW32266   3.778   5.975   1.547
10456SOL    HW132267   3.710   5.903   1.557
10456SOL    HW232268   3.767   6.042   1.621
10457SOL     OW32269   3.608   3.309   4.111
10457SOL    HW132270   3.575   3.254   4.034
10457SOL    HW232271   3.690   3.267   4.150
10458SOL     OW32272   6.558   6.970   1.598
10458SOL    HW132273   6.610   6.949   1.516
10458SOL    HW232274   6.464   6.995   1.572
10459SOL     OW32275   6.646   4.557   2.864
10459SOL    HW132276   6.565   4.602   2.826
10459SOL    HW232277   6.630   4.536   2.960
10460SOL     OW32278   2.006   5.038   2.049
10460SOL    HW132279   2.061   5.035   2.132
10460SOL    HW232280   1.911   5.015   2.071
10461SOL     OW32281   2.447   1.391   6.343
10461SOL    HW132282   2.373   1.425   6.402
10461SOL    HW232283   2.438   1.432   6.252
10462SOL     OW32284   5.189   0.213   1.287
10462SOL    HW132285   5.153   0.245   1.200
10462SOL    HW232286   5.249   0.134   1.272
10463SOL     OW32287   3.034   3.701   1.340
10463SOL    HW132288   2.955   3.753   1.372
10463SOL    HW232289   3.054   3.627   1.404
10464SOL     OW32290   5.376   0.017   1.236
10464SOL    HW132291   5.413   6.949   1.253
10464SOL    HW232292   5.344   0.024   1.142
10465SOL     OW32293   6.771   5.082   4.876
10465SOL    HW132294   6.702   5.031   4.825
10465SOL    HW232295   6.846   5.021   4.901
10466SOL     OW32296   4.834   6.366   6.690
10466SOL    HW132297   4.853   6.419   6.606
10466SOL    HW232298   4.913   6.308   6.710
10467SOL     OW32299   4.232   0.971   3.850
10467SOL    HW132300   4.331   0.986   3.850
10467SOL    HW232301   4.210   0.896   3.913
10468SOL     OW32302   3.347   5.657   3.098
10468SOL    HW132303   3.445   5.662   3.120
10468SOL    HW232304   3.322   5.734   3.040
10469SOL     OW32305   1.678   5.121   0.029
10469SOL    HW132306   1.669   5.182   0.109
10469SOL    HW232307   1.663   5.027   0.058
10470SOL     OW32308   3.031   1.580   4.234
10470SOL    HW132309   3.077   1.583   4.323
10470SOL    HW232310   3.099   1.574   4.161
10471SOL     OW32311   4.175   3.918   0.587
10471SOL    HW132312   4.192   3.877   0.497
10471SOL    HW232313   4.260   3.957   0.623
10472SOL     OW32314   4.515   1.430   3.263
10472SOL    HW132315   4.609   1.456   3.285
10472SOL    HW232316   4.455   1.508   3.275
10473SOL     OW32317   4.948   5.366   0.042
10473SOL    HW132318   4.880   5.418   7.015
10473SOL    HW232319   4.933   5.378   0.140
10474SOL     OW32320   5.187   1.079   4.278
10474SOL    HW132321   5.228   1.069   4.369
10474SOL    HW232322   5.166   1.175   4.260
10475SOL     OW32323   4.738   6.303   1.798
10475SOL    HW132324   4.807   6.361   1.756
10475SOL    HW232325   4.735   6.215   1.751
10476SOL     OW32326   0.353   4.546   0.138
10476SOL    HW132327   0.355   4.646   0.134
10476SOL    HW232328   0.258   4.516   0.147
10477SOL     OW32329   4.640   4.831   5.056
10477SOL    HW132330   4.698   4.781   4.992
10477SOL    HW232331   4.663   4.928   5.052
10478SOL     OW32332   0.380   6.139   2.740
10478SOL    HW132333   0.316   6.215   2.726
10478SOL    HW232334   0.448   6.139   2.667
10479SOL     OW32335   1.627   5.196   2.516
10479SOL    HW132336   1.614   5.176   2.613
10479SOL    HW232337   1.647   5.293   2.504
10480SOL     OW32338   5.827   0.345   1.945
10480SOL    HW132339   5.728   0.331   1.949
10480SOL    HW232340   5.874   0.257   1.952
10481SOL     OW32341   2.802   1.041   4.816
10481SOL    HW132342   2.836   1.001   4.901
10481SOL    HW232343   2.865   1.020   4.742
10482SOL     OW32344   0.985   5.736   6.104
10482SOL    HW132345   1.052   5.797   6.145
10482SOL    HW232346   0.992   5.741   6.004
10483SOL     OW32347   6.755   5.181   0.536
10483SOL    HW132348   6.682   5.192   0.604
10483SOL    HW232349   6.741   5.096   0.486
10484SOL     OW32350   5.994   2.222   1.220
10484SOL    HW132351   6.063   2.206   1.291
10484SOL    HW232352   5.928   2.147   1.220
10485SOL     OW32353   3.213   4.038   3.716
10485SOL    HW132354   3.306   4.030   3.751
10485SOL    HW232355   3.149   4.045   3.792
10486SOL     OW32356   5.792   5.250   5.344
10486SOL    HW132357   5.829   5.227   5.433
10486SOL    HW232358   5.697   5.221   5.338
10487SOL     OW32359   5.071   2.938   3.017
10487SOL    HW132360   4.972   2.954   3.020
10487SOL    HW232361   5.089   2.843   2.991
10488SOL     OW32362   0.436   2.457   5.159
10488SOL    HW132363   0.396   2.392   5.224
10488SOL    HW232364   0.386   2.454   5.073
10489SOL     OW32365   5.813   4.145   4.383
10489SOL    HW132366   5.858   4.159   4.295
10489SOL    HW232367   5.853   4.207   4.451
10490SOL     OW32368   5.737   6.337   6.434
10490SOL    HW132369   5.709   6.392   6.356
10490SOL    HW232370   5.832   6.308   6.422
10491SOL     OW32371   1.869   3.161   5.661
10491SOL    HW132372   1.942   3.140   5.596
10491SOL    HW232373   1.898   3.135   5.753
10492SOL     OW32374   3.012   5.725   0.532
10492SOL    HW132375   2.917   5.744   0.508
10492SOL    HW232376   3.045   5.797   0.593
10493SOL     OW32377   3.944   5.310   1.569
10493SOL    HW132378   3.910   5.236   1.626
10493SOL    HW232379   3.905   5.397   1.600
10494SOL     OW32380   0.753   4.899   4.226
10494SOL    HW132381   0.789   4.963   4.158
10494SOL    HW232382   0.825   4.834   4.251
10495SOL     OW32383   0.094   6.504   0.328
10495SOL    HW132384   0.132   6.430   0.273
10495SOL    HW232385   0.135   6.591   0.300
10496SOL     OW32386   0.206   4.845   6.333
10496SOL    HW132387   0.106   4.841   6.331
10496SOL    HW232388   0.243   4.795   6.254
10497SOL     OW32389   3.519   0.179   1.432
10497SOL    HW132390   3.535   0.178   1.531
10497SOL    HW232391   3.487   0.089   1.403
10498SOL     OW32392   3.951   3.574   6.702
10498SOL    HW132393   3.942   3.656   6.759
10498SOL    HW232394   3.980   3.601   6.610
10499SOL     OW32395   5.132   3.839   2.458
10499SOL    HW132396   5.202   3.791   2.511
10499SOL    HW232397   5.083   3.774   2.400
10500SOL     OW32398   1.369   3.125   5.305
10500SOL    HW132399   1.302   3.095   5.236
10500SOL    HW232400   1.398   3.047   5.360
10501SOL     OW32401   3.987   4.919   3.122
10501SOL    HW132402   3.950   4.993   3.067
10501SOL    HW232403   4.042   4.859   3.064
10502SOL     OW32404   3.125   3.511   2.724
10502SOL    HW132405   3.172   3.535   2.638
10502SOL    HW232406   3.194   3.494   2.795
10503SOL     OW32407   6.944   1.382   6.533
10503SOL    HW132408   0.011   1.413   6.560
10503SOL    HW232409   6.882   1.387   6.612
10504SOL     OW32410   1.205   3.830   5.942
10504SOL    HW132411   1.188   3.890   5.863
10504SOL    HW232412   1.203   3.735   5.912
10505SOL     OW32413   6.147   0.184   0.598
10505SOL    HW132414   6.195   0.255   0.547
10505SOL    HW232415   6.058   0.218   0.626
10506SOL     OW32416   1.653   4.468   5.863
10506SOL    HW132417   1.692   4.488   5.773
10506SOL    HW232418   1.554   4.475   5.858
10507SOL     OW32419   0.782   6.332   6.075
10507SOL    HW132420   0.797   6.268   6.000
10507SOL    HW232421   0.745   6.418   6.039
10508SOL     OW32422   1.536   5.883   6.686
10508SOL    HW132423   1.481   5.945   6.630
10508SOL    HW232424   1.548   5.796   6.639
10509SOL     OW32425   4.647   2.699   3.274
10509SOL    HW132426   4.732   2.729   3.317
10509SOL    HW232427   4.576   2.688   3.345
10510SOL     OW32428   5.862   5.923   3.520
10510SOL    HW132429   5.798   5.846   3.519
10510SOL    HW232430   5.845   5.982   3.442
10511SOL     OW32431   4.258   1.620   1.058
10511SOL    HW132432   4.282   1.681   0.982
10511SOL    HW232433   4.306   1.533   1.047
10512SOL     OW32434   3.942   1.814   5.855
10512SOL    HW132435   3.929   1.912   5.872
10512SOL    HW232436   3.860   1.777   5.812
10513SOL     OW32437   3.765   3.023   0.712
10513SOL    HW132438   3.680   2.978   0.685
10513SOL    HW232439   3.839   2.956   0.713
10514SOL     OW32440   1.444   4.943   1.552
10514SOL    HW132441   1.398   4.861   1.518
10514SOL    HW232442   1.385   4.988   1.620
10515SOL     OW32443   2.070   3.107   4.658
10515SOL    HW132444   2.076   3.207   4.667
10515SOL    HW232445   2.114   3.080   4.572
10516SOL     OW32446   5.662   1.841   2.298
10516SOL    HW132447   5.606   1.876   2.373
10516SOL    HW232448   5.747   1.893   2.293
10517SOL     OW32449   0.950   2.789   2.393
10517SOL    HW132450   0.852   2.789   2.415
10517SOL    HW232451   0.977   2.698   2.363
10518SOL     OW32452   0.537   5.560   2.075
10518SOL    HW132453   0.512   5.599   1.986
10518SOL    HW232454   0.456   5.553   2.132
10519SOL     OW32455   3.481   0.137   1.136
10519SOL    HW132456   3.555   0.201   1.156
10519SOL    HW232457   3.476   0.068   1.208
10520SOL     OW32458   1.933   2.190   6.281
10520SOL    HW132459   1.880   2.219   6.201
10520SOL    HW232460   2.030   2.197   6.261
10521SOL     OW32461   6.518   2.690   3.279
10521SOL    HW132462   6.553   2.693   3.185
10521SOL    HW232463   6.430   2.641   3.280
10522SOL     OW32464   5.399   1.451   3.942
10522SOL    HW132465   5.340   1.525   3.909
10522SOL    HW232466   5.401   1.452   4.042
10523SOL     OW32467   1.165   4.480   1.919
10523SOL    HW132468   1.135   4.395   1.962
10523SOL    HW232469   1.264   4.489   1.928
10524SOL     OW32470   6.853   5.788   4.576
10524SOL    HW132471   6.859   5.884   4.602
10524SOL    HW232472   6.906   5.733   4.641
10525SOL     OW32473   4.937   1.116   4.090
10525SOL    HW132474   4.956   1.213   4.107
10525SOL    HW232475   4.976   1.090   4.001
10526SOL     OW32476   1.426   5.640   6.297
10526SOL    HW132477   1.422   5.543   6.273
10526SOL    HW232478   1.381   5.656   6.384
10527SOL     OW32479   6.947   6.054   5.441
10527SOL    HW132480   6.990   5.965   5.454
10527SOL    HW232481   6.909   6.086   5.528
10528SOL     OW32482   2.062   5.073   5.132
10528SOL    HW132483   1.985   5.056   5.195
10528SOL    HW232484   2.109   4.988   5.113
10529SOL     OW32485   0.124   4.973   0.706
10529SOL    HW132486   0.198   4.916   0.743
10529SOL    HW232487   0.145   5.069   0.720
10530SOL     OW32488   7.023   6.958   0.773
10530SOL    HW132489   7.001   6.934   0.678
10530SOL    HW232490   6.942   6.998   0.817
10531SOL     OW32491   3.804   2.266   5.678
10531SOL    HW132492   3.719   2.318   5.668
10531SOL    HW232493   3.793   2.176   5.634
10532SOL     OW32494   4.578   5.674   5.911
10532SOL    HW132495   4.585   5.761   5.862
10532SOL    HW232496   4.585   5.599   5.845
10533SOL     OW32497   3.960   6.771   3.022
10533SOL    HW132498   3.924   6.724   3.104
10533SOL    HW232499   4.053   6.740   3.005
10534SOL     OW32500   1.683   6.193   3.781
10534SOL    HW132501   1.731   6.122   3.730
10534SOL    HW232502   1.585   6.171   3.784
10535SOL     OW32503   3.599   2.096   2.408
10535SOL    HW132504   3.629   2.176   2.356
10535SOL    HW232505   3.678   2.040   2.433
10536SOL     OW32506   5.662   3.906   5.095
10536SOL    HW132507   5.705   3.975   5.154
10536SOL    HW232508   5.712   3.900   5.008
10537SOL     OW32509   3.959   1.499   3.510
10537SOL    HW132510   3.876   1.450   3.483
10537SOL    HW232511   4.037   1.436   3.509
10538SOL     OW32512   6.771   2.654   3.379
10538SOL    HW132513   6.674   2.669   3.362
10538SOL    HW232514   6.789   2.557   3.394
10539SOL     OW32515   6.994   6.682   2.800
10539SOL    HW132516   6.902   6.675   2.763
10539SOL    HW232517   6.990   6.711   2.896
10540SOL     OW32518   1.694   4.088   6.981
10540SOL    HW132519   1.712   4.007   6.924
10540SOL    HW232520   1.616   4.138   6.943
10541SOL     OW32521   2.894   2.708   5.448
10541SOL    HW132522   2.989   2.739   5.450
10541SOL    HW232523   2.836   2.772   5.499
10542SOL     OW32524   4.906   6.509   2.923
10542SOL    HW132525   4.840   6.554   2.983
10542SOL    HW232526   4.999   6.535   2.950
10543SOL     OW32527   2.313   2.804   4.126
10543SOL    HW132528   2.249   2.758   4.187
10543SOL    HW232529   2.386   2.741   4.100
10544SOL     OW32530   3.072   1.345   2.361
10544SOL    HW132531   3.102   1.430   2.319
10544SOL    HW232532   3.151   1.293   2.392
10545SOL     OW32533   2.232   2.890   2.117
10545SOL    HW132534   2.278   2.844   2.193
10545SOL    HW232535   2.157   2.946   2.153
10546SOL     OW32536   2.653   6.880   6.573
10546SOL    HW132537   2.728   6.821   6.541
10546SOL    HW232538   2.574   6.823   6.595
10547SOL     OW32539   3.726   6.227   5.642
10547SOL    HW132540   3.762   6.316   5.667
10547SOL    HW232541   3.630   6.221   5.669
10548SOL     OW32542   0.668   6.482   3.499
10548SOL    HW132543   0.595   6.517   3.441
10548SOL    HW232544   0.745   6.546   3.499
10549SOL     OW32545   0.041   0.900   2.752
10549SOL    HW132546   0.057   0.816   2.700
10549SOL    HW232547   0.033   0.977   2.689
10550SOL     OW32548   5.175   5.584   3.295
10550SOL    HW132549   5.186   5.485   3.292
10550SOL    HW232550   5.089   5.609   3.251
10551SOL     OW32551   3.724   0.787   5.227
10551SOL    HW132552   3.658   0.791   5.152
10551SOL    HW232553   3.765   0.878   5.240
10552SOL     OW32554   3.119   0.100   3.461
10552SOL    HW132555   3.201   0.043   3.463
10552SOL    HW232556   3.057   0.067   3.390
10553SOL     OW32557   6.009   5.888   1.012
10553SOL    HW132558   6.103   5.898   1.044
10553SOL    HW232559   5.947   5.936   1.075
10554SOL     OW32560   6.066   6.508   1.867
10554SOL    HW132561   6.035   6.457   1.787
10554SOL    HW232562   6.106   6.595   1.838
10555SOL     OW32563   3.261   3.145   1.353
10555SOL    HW132564   3.336   3.108   1.298
10555SOL    HW232565   3.195   3.072   1.372
10556SOL     OW32566   2.454   1.717   1.938
10556SOL    HW132567   2.449   1.711   1.838
10556SOL    HW232568   2.549   1.738   1.965
10557SOL     OW32569   1.977   4.300   3.030
10557SOL    HW132570   1.948   4.373   3.092
10557SOL    HW232571   1.990   4.215   3.081
10558SOL     OW32572   4.056   4.932   4.631
10558SOL    HW132573   3.969   4.962   4.669
10558SOL    HW232574   4.106   4.879   4.699
10559SOL     OW32575   3.998   6.515   1.439
10559SOL    HW132576   4.095   6.494   1.446
10559SOL    HW232577   3.947   6.431   1.420
10560SOL     OW32578   5.606   6.845   3.396
10560SOL    HW132579   5.681   6.780   3.381
10560SOL    HW232580   5.543   6.807   3.464
10561SOL     OW32581   0.456   4.809   6.423
10561SOL    HW132582   0.499   4.888   6.378
10561SOL    HW232583   0.359   4.826   6.436
10562SOL     OW32584   4.067   5.868   2.361
10562SOL    HW132585   4.100   5.800   2.428
10562SOL    HW232586   4.140   5.887   2.295
10563SOL     OW32587   1.105   6.524   2.796
10563SOL    HW132588   1.075   6.491   2.886
10563SOL    HW232589   1.077   6.459   2.726
10564SOL     OW32590   5.187   4.326   3.130
10564SOL    HW132591   5.118   4.316   3.202
10564SOL    HW232592   5.151   4.290   3.044
10565SOL     OW32593   0.325   1.388   5.250
10565SOL    HW132594   0.266   1.394   5.330
10565SOL    HW232595   0.306   1.302   5.202
10566SOL     OW32596   3.278   1.706   0.775
10566SOL    HW132597   3.322   1.622   0.806
10566SOL    HW232598   3.234   1.690   0.686
10567SOL     OW32599   2.395   1.998   6.212
10567SOL    HW132600   2.478   2.046   6.241
10567SOL    HW232601   2.405   1.967   6.117
10568SOL     OW32602   5.012   1.873   6.145
10568SOL    HW132603   5.091   1.828   6.102
10568SOL    HW232604   5.016   1.971   6.127
10569SOL     OW32605   5.630   0.795   0.538
10569SOL    HW132606   5.688   0.832   0.466
10569SOL    HW232607   5.659   0.831   0.626
10570SOL     OW32608   1.611   3.471   3.364
10570SOL    HW132609   1.693   3.488   3.418
10570SOL    HW232610   1.621   3.513   3.274
10571SOL     OW32611   6.889   3.806   5.260
10571SOL    HW132612   6.805   3.824   5.208
10571SOL    HW232613   6.944   3.890   5.265
10572SOL     OW32614   6.515   4.305   0.822
10572SOL    HW132615   6.418   4.281   0.814
10572SOL    HW232616   6.526   4.373   0.894
10573SOL     OW32617   6.789   2.232   3.094
10573SOL    HW132618   6.692   2.233   3.117
10573SOL    HW232619   6.837   2.167   3.154
10574SOL     OW32620   6.058   2.273   2.760
10574SOL    HW132621   6.004   2.347   2.720
10574SOL    HW232622   5.999   2.215   2.816
10575SOL     OW32623   5.287   6.981   2.350
10575SOL    HW132624   5.267   0.040   2.403
10575SOL    HW232625   5.303   6.905   2.412
10576SOL     OW32626   1.341   3.871   4.582
10576SOL    HW132627   1.327   3.842   4.488
10576SOL    HW232628   1.414   3.938   4.587
10577SOL     OW32629   3.986   4.233   0.675
10577SOL    HW132630   3.920   4.309   0.676
10577SOL    HW232631   3.996   4.198   0.582
10578SOL     OW32632   0.778   3.461   2.295
10578SOL    HW132633   0.826   3.492   2.377
10578SOL    HW232634   0.683   3.440   2.318
10579SOL     OW32635   0.274   3.267   0.145
10579SOL    HW132636   0.221   3.313   0.074
10579SOL    HW232637   0.371   3.292   0.135
10580SOL     OW32638   5.545   6.945   6.507
10580SOL    HW132639   5.524   6.847   6.509
10580SOL    HW232640   5.562   6.977   6.600
10581SOL     OW32641   4.200   0.831   3.541
10581SOL    HW132642   4.247   0.859   3.625
10581SOL    HW232643   4.234   0.884   3.464
10582SOL     OW32644   6.458   3.108   6.162
10582SOL    HW132645   6.465   3.208   6.150
10582SOL    HW232646   6.394   3.088   6.236
10583SOL     OW32647   3.765   2.038   5.507
10583SOL    HW132648   3.842   1.981   5.478
10583SOL    HW232649   3.741   2.102   5.434
10584SOL     OW32650   0.699   0.289   3.372
10584SOL    HW132651   0.758   0.286   3.291
10584SOL    HW232652   0.615   0.238   3.354
10585SOL     OW32653   1.430   0.950   5.293
10585SOL    HW132654   1.528   0.953   5.314
10585SOL    HW232655   1.380   1.005   5.360
10586SOL     OW32656   4.509   4.376   5.436
10586SOL    HW132657   4.458   4.317   5.373
10586SOL    HW232658   4.499   4.341   5.530
10587SOL     OW32659   2.511   4.948   5.495
10587SOL    HW132660   2.585   4.998   5.540
10587SOL    HW232661   2.487   4.993   5.409
10588SOL     OW32662   1.885   4.121   3.766
10588SOL    HW132663   1.798   4.152   3.728
10588SOL    HW232664   1.929   4.057   3.703
10589SOL     OW32665   6.010   6.763   3.873
10589SOL    HW132666   5.980   6.673   3.906
10589SOL    HW232667   5.972   6.780   3.782
10590SOL     OW32668   0.889   4.952   2.600
10590SOL    HW132669   0.942   4.888   2.655
10590SOL    HW232670   0.916   4.942   2.504
10591SOL     OW32671   0.166   4.037   2.265
10591SOL    HW132672   0.218   3.953   2.281
10591SOL    HW232673   0.194   4.078   2.179
10592SOL     OW32674   0.523   2.971   4.590
10592SOL    HW132675   0.499   2.900   4.524
10592SOL    HW232676   0.591   2.935   4.655
10593SOL     OW32677   2.685   5.682   3.253
10593SOL    HW132678   2.775   5.723   3.267
10593SOL    HW232679   2.696   5.586   3.228
10594SOL     OW32680   3.448   5.740   3.487
10594SOL    HW132681   3.363   5.707   3.447
10594SOL    HW232682   3.447   5.840   3.489
10595SOL     OW32683   4.703   6.582   0.940
10595SOL    HW132684   4.659   6.601   0.853
10595SOL    HW232685   4.794   6.543   0.924
10596SOL     OW32686   5.153   3.768   0.406
10596SOL    HW132687   5.123   3.716   0.326
10596SOL    HW232688   5.114   3.860   0.403
10597SOL     OW32689   2.029   6.714   4.983
10597SOL    HW132690   2.033   6.707   5.082
10597SOL    HW232691   2.090   6.647   4.941
10598SOL     OW32692   3.130   0.552   0.166
10598SOL    HW132693   3.035   0.540   0.193
10598SOL    HW232694   3.134   0.611   0.085
10599SOL     OW32695   1.205   2.463   0.705
10599SOL    HW132696   1.207   2.364   0.687
10599SOL    HW232697   1.163   2.478   0.795
10600SOL     OW32698   4.006   1.308   1.593
10600SOL    HW132699   3.930   1.248   1.620
10600SOL    HW232700   3.996   1.396   1.640
10601SOL     OW32701   2.046   1.153   4.538
10601SOL    HW132702   1.963   1.171   4.485
10601SOL    HW232703   2.024   1.152   4.635
10602SOL     OW32704   6.478   0.243   1.409
10602SOL    HW132705   6.474   0.165   1.347
10602SOL    HW232706   6.386   0.264   1.442
10603SOL     OW32707   6.006   0.478   2.861
10603SOL    HW132708   6.060   0.396   2.841
10603SOL    HW232709   6.042   0.556   2.810
10604SOL     OW32710   4.745   1.847   4.821
10604SOL    HW132711   4.762   1.764   4.875
10604SOL    HW232712   4.705   1.822   4.733
10605SOL     OW32713   3.361   1.887   0.972
10605SOL    HW132714   3.461   1.883   0.977
10605SOL    HW232715   3.329   1.826   0.899
10606SOL     OW32716   6.741   1.110   0.132
10606SOL    HW132717   6.723   1.042   0.061
10606SOL    HW232718   6.678   1.188   0.121
10607SOL     OW32719   3.095   4.058   0.578
10607SOL    HW132720   3.131   3.968   0.556
10607SOL    HW232721   3.028   4.051   0.652
10608SOL     OW32722   5.414   4.449   3.779
10608SOL    HW132723   5.513   4.439   3.775
10608SOL    HW232724   5.375   4.371   3.829
10609SOL     OW32725   5.827   0.035   6.527
10609SOL    HW132726   5.883   0.074   6.454
10609SOL    HW232727   5.744   7.019   6.488
10610SOL     OW32728   0.715   1.456   3.377
10610SOL    HW132729   0.694   1.362   3.348
10610SOL    HW232730   0.645   1.487   3.441
10611SOL     OW32731   3.932   5.227   5.077
10611SOL    HW132732   3.987   5.269   5.005
10611SOL    HW232733   3.944   5.127   5.074
10612SOL     OW32734   6.272   2.729   3.802
10612SOL    HW132735   6.355   2.752   3.853
10612SOL    HW232736   6.295   2.667   3.727
10613SOL     OW32737   4.836   6.136   4.402
10613SOL    HW132738   4.817   6.191   4.320
10613SOL    HW232739   4.885   6.054   4.375
10614SOL     OW32740   4.078   2.393   5.978
10614SOL    HW132741   4.029   2.345   6.051
10614SOL    HW232742   4.128   2.327   5.922
10615SOL     OW32743   2.503   2.680   5.378
10615SOL    HW132744   2.559   2.608   5.338
10615SOL    HW232745   2.560   2.760   5.397
10616SOL     OW32746   1.519   5.994   0.507
10616SOL    HW132747   1.530   5.957   0.414
10616SOL    HW232748   1.549   5.926   0.573
10617SOL     OW32749   1.540   3.197   1.163
10617SOL    HW132750   1.573   3.285   1.128
10617SOL    HW232751   1.448   3.180   1.129
10618SOL     OW32752   1.006   5.048   4.549
10618SOL    HW132753   1.010   5.124   4.484
10618SOL    HW232754   1.056   4.970   4.510
10619SOL     OW32755   0.863   2.974   1.800
10619SOL    HW132756   0.771   3.009   1.818
10619SOL    HW232757   0.857   2.888   1.749
10620SOL     OW32758   3.261   0.815   5.747
10620SOL    HW132759   3.302   0.727   5.723
10620SOL    HW232760   3.323   0.889   5.721
10621SOL     OW32761   0.738   3.942   3.069
10621SOL    HW132762   0.801   4.007   3.025
10621SOL    HW232763   0.777   3.850   3.064
10622SOL     OW32764   4.665   2.414   0.205
10622SOL    HW132765   4.597   2.426   0.133
10622SOL    HW232766   4.754   2.394   0.164
10623SOL     OW32767   5.010   5.479   5.622
10623SOL    HW132768   4.948   5.550   5.655
10623SOL    HW232769   5.051   5.508   5.536
10624SOL     OW32770   0.225   2.011   6.687
10624SOL    HW132771   0.315   1.973   6.666
10624SOL    HW232772   0.236   2.106   6.717
10625SOL     OW32773   6.798   5.877   0.579
10625SOL    HW132774   6.770   5.894   0.485
10625SOL    HW232775   6.844   5.788   0.584
10626SOL     OW32776   5.986   2.983   1.954
10626SOL    HW132777   6.012   2.907   2.014
10626SOL    HW232778   5.920   2.950   1.886
10627SOL     OW32779   5.803   4.893   5.479
10627SOL    HW132780   5.708   4.924   5.478
10627SOL    HW232781   5.810   4.805   5.433
10628SOL     OW32782   2.864   6.155   0.275
10628SOL    HW132783   2.927   6.162   0.352
10628SOL    HW232784   2.770   6.148   0.308
10629SOL     OW32785   4.550   5.439   4.213
10629SOL    HW132786   4.592   5.514   4.264
10629SOL    HW232787   4.563   5.353   4.262
10630SOL     OW32788   4.089   1.127   1.375
10630SOL    HW132789   4.075   1.219   1.410
10630SOL    HW232790   4.002   1.077   1.378
10631SOL     OW32791   3.422   5.385   2.107
10631SOL    HW132792   3.386   5.354   2.195
10631SOL    HW232793   3.371   5.341   2.032
10632SOL     OW32794   5.623   6.738   4.415
10632SOL    HW132795   5.563   6.750   4.494
10632SOL    HW232796   5.708   6.695   4.444
10633SOL     OW32797   2.420   3.155   0.259
10633SOL    HW132798   2.510   3.191   0.285
10633SOL    HW232799   2.419   3.134   0.162
10634SOL     OW32800   0.135   4.189   6.642
10634SOL    HW132801   0.150   4.130   6.562
10634SOL    HW232802   0.202   4.167   6.712
10635SOL     OW32803   2.969   5.962   6.353
10635SOL    HW132804   2.920   6.009   6.426
10635SOL    HW232805   3.044   5.908   6.392
10636SOL     OW32806   6.191   2.827   0.398
10636SOL    HW132807   6.107   2.786   0.363
10636SOL    HW232808   6.234   2.881   0.325
10637SOL     OW32809   2.568   0.547   6.375
10637SOL    HW132810   2.646   0.510   6.426
10637SOL    HW232811   2.583   0.644   6.357
10638SOL     OW32812   4.780   5.186   0.857
10638SOL    HW132813   4.870   5.144   0.854
10638SOL    HW232814   4.787   5.281   0.827
10639SOL     OW32815   7.000   4.950   1.562
10639SOL    HW132816   6.986   4.851   1.564
10639SOL    HW232817   0.074   4.969   1.553
10640SOL     OW32818   4.253   6.227   3.833
10640SOL    HW132819   4.280   6.268   3.746
10640SOL    HW232820   4.154   6.237   3.844
10641SOL     OW32821   0.852   1.653   2.647
10641SOL    HW132822   0.812   1.735   2.606
10641SOL    HW232823   0.921   1.679   2.714
10642SOL     OW32824   6.905   2.377   6.314
10642SOL    HW132825   6.907   2.308   6.387
10642SOL    HW232826   6.945   2.339   6.231
10643SOL     OW32827   2.462   5.090   5.862
10643SOL    HW132828   2.411   5.130   5.938
10643SOL    HW232829   2.489   4.996   5.886
10644SOL     OW32830   0.050   3.276   3.156
10644SOL    HW132831   7.015   3.199   3.131
10644SOL    HW232832   0.096   3.310   3.074
10645SOL     OW32833   2.259   2.416   3.073
10645SOL    HW132834   2.261   2.404   3.172
10645SOL    HW232835   2.329   2.357   3.032
10646SOL     OW32836   5.606   0.155   3.748
10646SOL    HW132837   5.544   0.127   3.674
10646SOL    HW232838   5.684   0.092   3.752
10647SOL     OW32839   3.546   5.331   4.984
10647SOL    HW132840   3.448   5.327   4.964
10647SOL    HW232841   3.596   5.278   4.915
10648SOL     OW32842   4.711   4.539   5.571
10648SOL    HW132843   4.664   4.476   5.509
10648SOL    HW232844   4.670   4.533   5.662
10649SOL     OW32845   6.367   3.279   3.082
10649SOL    HW132846   6.464   3.278   3.103
10649SOL    HW232847   6.319   3.343   3.141
10650SOL     OW32848   0.489   0.574   2.593
10650SOL    HW132849   0.413   0.512   2.575
10650SOL    HW232850   0.512   0.571   2.690
10651SOL     OW32851   3.004   5.515   5.737
10651SOL    HW132852   3.012   5.520   5.836
10651SOL    HW232853   2.908   5.526   5.711
10652SOL     OW32854   1.932   0.420   6.647
10652SOL    HW132855   1.862   0.462   6.705
10652SOL    HW232856   1.995   0.491   6.615
10653SOL     OW32857   5.480   5.952   4.480
10653SOL    HW132858   5.397   5.956   4.424
10653SOL    HW232859   5.525   5.864   4.466
10654SOL     OW32860   6.558   2.035   3.916
10654SOL    HW132861   6.574   2.085   3.831
10654SOL    HW232862   6.467   1.995   3.914
10655SOL     OW32863   6.988   4.714   0.799
10655SOL    HW132864   0.013   4.635   0.761
10655SOL    HW232865   0.004   4.798   0.760
10656SOL     OW32866   5.295   2.124   4.638
10656SOL    HW132867   5.213   2.149   4.690
10656SOL    HW232868   5.279   2.143   4.541
10657SOL     OW32869   5.060   0.566   5.142
10657SOL    HW132870   5.036   0.616   5.059
10657SOL    HW232871   5.033   0.619   5.222
10658SOL     OW32872   1.234   1.851   5.431
10658SOL    HW132873   1.220   1.838   5.333
10658SOL    HW232874   1.316   1.801   5.460
10659SOL     OW32875   0.265   5.771   0.886
10659SOL    HW132876   0.263   5.787   0.787
10659SOL    HW232877   0.311   5.685   0.905
10660SOL     OW32878   5.649   3.064   6.043
10660SOL    HW132879   5.585   2.995   6.077
10660SOL    HW232880   5.739   3.022   6.029
10661SOL     OW32881   3.371   5.123   5.223
10661SOL    HW132882   3.328   5.091   5.139
10661SOL    HW232883   3.356   5.221   5.233
10662SOL     OW32884   3.032   1.262   1.425
10662SOL    HW132885   2.938   1.230   1.432
10662SOL    HW232886   3.040   1.352   1.469
10663SOL     OW32887   0.674   2.385   3.486
10663SOL    HW132888   0.670   2.328   3.404
10663SOL    HW232889   0.583   2.422   3.505
10664SOL     OW32890   1.290   5.636   4.442
10664SOL    HW132891   1.351   5.672   4.371
10664SOL    HW232892   1.343   5.594   4.514
10665SOL     OW32893   3.549   2.877   0.216
10665SOL    HW132894   3.631   2.935   0.218
10665SOL    HW232895   3.474   2.928   0.173
10666SOL     OW32896   3.843   3.475   1.407
10666SOL    HW132897   3.819   3.407   1.476
10666SOL    HW232898   3.910   3.435   1.343
10667SOL     OW32899   5.658   2.832   4.542
10667SOL    HW132900   5.608   2.915   4.566
10667SOL    HW232901   5.646   2.814   4.444
10668SOL     OW32902   3.355   2.719   5.974
10668SOL    HW132903   3.405   2.689   6.055
10668SOL    HW232904   3.265   2.753   6.001
10669SOL     OW32905   6.155   1.849   1.317
10669SOL    HW132906   6.207   1.805   1.244
10669SOL    HW232907   6.071   1.888   1.279
10670SOL     OW32908   4.877   3.982   4.176
10670SOL    HW132909   4.783   4.011   4.192
10670SOL    HW232910   4.902   3.911   4.243
10671SOL     OW32911   1.591   3.434   4.921
10671SOL    HW132912   1.521   3.500   4.893
10671SOL    HW232913   1.595   3.430   5.021
10672SOL     OW32914   6.235   3.834   2.357
10672SOL    HW132915   6.237   3.933   2.371
10672SOL    HW232916   6.326   3.796   2.375
10673SOL     OW32917   2.407   1.450   1.315
10673SOL    HW132918   2.452   1.456   1.404
10673SOL    HW232919   2.433   1.364   1.270
10674SOL     OW32920   3.563   3.568   4.129
10674SOL    HW132921   3.636   3.636   4.129
10674SOL    HW232922   3.600   3.478   4.105
10675SOL     OW32923   3.543   6.796   5.554
10675SOL    HW132924   3.522   6.786   5.651
10675SOL    HW232925   3.623   6.855   5.543
10676SOL     OW32926   1.408   0.141   5.720
10676SOL    HW132927   1.317   0.180   5.733
10676SOL    HW232928   1.403   0.041   5.721
10677SOL     OW32929   0.373   1.905   6.911
10677SOL    HW132930   0.299   1.973   6.912
10677SOL    HW232931   0.461   1.952   6.909
10678SOL     OW32932   4.253   5.533   2.310
10678SOL    HW132933   4.244   5.596   2.387
10678SOL    HW232934   4.197   5.452   2.326
10679SOL     OW32935   4.577   4.153   0.284
10679SOL    HW132936   4.668   4.185   0.258
10679SOL    HW232937   4.584   4.095   0.366
10680SOL     OW32938   4.246   1.626   5.657
10680SOL    HW132939   4.197   1.713   5.669
10680SOL    HW232940   4.186   1.559   5.615
10681SOL     OW32941   2.302   3.211   5.316
10681SOL    HW132942   2.216   3.213   5.266
10681SOL    HW232943   2.365   3.147   5.271
10682SOL     OW32944   4.813   3.955   6.614
10682SOL    HW132945   4.731   3.934   6.560
10682SOL    HW232946   4.826   4.054   6.618
10683SOL     OW32947   2.683   0.373   3.606
10683SOL    HW132948   2.673   0.428   3.523
10683SOL    HW232949   2.760   0.310   3.596
10684SOL     OW32950   4.680   4.467   1.791
10684SOL    HW132951   4.688   4.561   1.823
10684SOL    HW232952   4.646   4.409   1.864
10685SOL     OW32953   0.705   6.662   2.316
10685SOL    HW132954   0.721   6.756   2.344
10685SOL    HW232955   0.783   6.606   2.343
10686SOL     OW32956   2.529   0.598   6.714
10686SOL    HW132957   2.439   0.618   6.754
10686SOL    HW232958   2.573   0.683   6.687
10687SOL     OW32959   0.727   3.400   3.506
10687SOL    HW132960   0.777   3.463   3.566
10687SOL    HW232961   0.763   3.409   3.413
10688SOL     OW32962   5.083   1.093   3.010
10688SOL    HW132963   4.998   1.117   3.056
10688SOL    HW232964   5.076   1.001   2.972
10689SOL     OW32965   0.782   7.016   2.389
10689SOL    HW132966   0.830   0.024   2.307
10689SOL    HW232967   0.845   7.016   2.466
10690SOL     OW32968   0.975   6.600   4.283
10690SOL    HW132969   0.914   6.548   4.342
10690SOL    HW232970   1.069   6.566   4.292
10691SOL     OW32971   3.838   0.078   2.197
10691SOL    HW132972   3.880   0.163   2.227
10691SOL    HW232973   3.793   0.033   2.274
10692SOL     OW32974   2.582   1.403   4.580
10692SOL    HW132975   2.637   1.438   4.503
10692SOL    HW232976   2.552   1.480   4.636
10693SOL     OW32977   1.306   5.619   6.769
10693SOL    HW132978   1.274   5.710   6.795
10693SOL    HW232979   1.379   5.591   6.831
10694SOL     OW32980   4.849   0.654   4.795
10694SOL    HW132981   4.923   0.720   4.781
10694SOL    HW232982   4.774   0.698   4.846
10695SOL     OW32983   5.464   4.691   1.981
10695SOL    HW132984   5.491   4.609   2.032
10695SOL    HW232985   5.365   4.696   1.976
10696SOL     OW32986   6.419   4.726   4.127
10696SOL    HW132987   6.478   4.805   4.113
10696SOL    HW232988   6.326   4.758   4.148
10697SOL     OW32989   2.745   5.281   4.975
10697SOL    HW132990   2.737   5.380   4.979
10697SOL    HW232991   2.673   5.240   5.032
10698SOL     OW32992   3.480   3.574   0.043
10698SOL    HW132993   3.439   3.645   0.100
10698SOL    HW232994   3.563   3.609   7.024
10699SOL     OW32995   3.575   2.461   0.698
10699SOL    HW132996   3.642   2.526   0.735
10699SOL    HW232997   3.612   2.368   0.706
10700SOL     OW32998   4.726   0.838   1.539
10700SOL    HW132999   4.739   0.918   1.599
10700SOL    HW233000   4.775   0.760   1.577
10701SOL     OW33001   3.186   6.950   6.419
10701SOL    HW133002   3.174   0.022   6.392
10701SOL    HW233003   3.283   6.933   6.438
10702SOL     OW33004   5.943   2.318   1.507
10702SOL    HW133005   6.040   2.305   1.530
10702SOL    HW233006   5.897   2.230   1.509
10703SOL     OW33007   0.636   2.362   5.761
10703SOL    HW133008   0.575   2.379   5.838
10703SOL    HW233009   0.588   2.382   5.676
10704SOL     OW33010   4.783   6.700   2.093
10704SOL    HW133011   4.739   6.680   2.180
10704SOL    HW233012   4.810   6.796   2.090
10705SOL     OW33013   5.653   3.998   1.048
10705SOL    HW133014   5.658   4.037   1.141
10705SOL    HW233015   5.712   3.918   1.043
10706SOL     OW33016   3.696   0.591   1.218
10706SOL    HW133017   3.795   0.600   1.218
10706SOL    HW233018   3.657   0.654   1.285
10707SOL     OW33019   5.299   0.014   3.898
10707SOL    HW133020   5.262   0.076   3.829
10707SOL    HW233021   5.378   6.990   3.861
10708SOL     OW33022   4.111   1.632   2.226
10708SOL    HW133023   4.193   1.637   2.170
10708SOL    HW233024   4.043   1.697   2.191
10709SOL     OW33025   5.926   4.729   3.440
10709SOL    HW133026   5.879   4.784   3.371
10709SOL    HW233027   6.001   4.679   3.398
10710SOL     OW33028   4.827   2.161   3.846
10710SOL    HW133029   4.925   2.156   3.865
10710SOL    HW233030   4.785   2.229   3.906
10711SOL     OW33031   3.605   6.853   1.841
10711SOL    HW133032   3.688   6.797   1.847
10711SOL    HW233033   3.525   6.794   1.851
10712SOL     OW33034   5.603   0.032   3.046
10712SOL    HW133035   5.699   0.058   3.036
10712SOL    HW233036   5.577   0.037   3.143
10713SOL     OW33037   1.499   4.371   1.758
10713SOL    HW133038   1.545   4.311   1.692
10713SOL    HW233039   1.411   4.400   1.721
10714SOL     OW33040   3.144   4.107   5.111
10714SOL    HW133041   3.061   4.104   5.166
10714SOL    HW233042   3.119   4.103   5.014
10715SOL     OW33043   6.071   0.837   1.620
10715SOL    HW133044   6.105   0.925   1.651
10715SOL    HW233045   6.079   0.831   1.521
10716SOL     OW33046   5.031   1.313   3.383
10716SOL    HW133047   5.129   1.307   3.361
10716SOL    HW233048   5.000   1.226   3.420
10717SOL     OW33049   2.222   2.548   6.763
10717SOL    HW133050   2.224   2.533   6.664
10717SOL    HW233051   2.263   2.469   6.809
10718SOL     OW33052   2.027   5.337   5.452
10718SOL    HW133053   2.047   5.367   5.545
10718SOL    HW233054   1.951   5.391   5.415
10719SOL     OW33055   6.504   5.909   4.166
10719SOL    HW133056   6.529   5.834   4.227
10719SOL    HW233057   6.566   5.912   4.088
10720SOL     OW33058   6.989   5.045   3.565
10720SOL    HW133059   6.928   4.998   3.500
10720SOL    HW233060   6.935   5.099   3.628
10721SOL     OW33061   5.423   3.701   5.616
10721SOL    HW133062   5.396   3.773   5.680
10721SOL    HW233063   5.388   3.613   5.648
10722SOL     OW33064   6.689   4.145   5.639
10722SOL    HW133065   6.649   4.214   5.699
10722SOL    HW233066   6.775   4.112   5.679
10723SOL     OW33067   6.094   0.388   0.875
10723SOL    HW133068   6.109   0.389   0.973
10723SOL    HW233069   6.019   0.326   0.853
10724SOL     OW33070   6.700   6.354   7.002
10724SOL    HW133071   6.790   6.323   0.010
10724SOL    HW233072   6.629   6.301   0.024
10725SOL     OW33073   2.262   6.051   5.435
10725SOL    HW133074   2.229   6.140   5.466
10725SOL    HW233075   2.186   5.985   5.432
10726SOL     OW33076   4.846   1.589   4.387
10726SOL    HW133077   4.795   1.675   4.391
10726SOL    HW233078   4.839   1.542   4.475
10727SOL     OW33079   1.541   6.128   5.387
10727SOL    HW133080   1.550   6.212   5.334
10727SOL    HW233081   1.563   6.050   5.328
10728SOL     OW33082   5.669   6.683   0.531
10728SOL    HW133083   5.675   6.776   0.567
10728SOL    HW233084   5.653   6.619   0.607
10729SOL     OW33085   6.520   3.004   1.622
10729SOL    HW133086   6.493   3.096   1.593
10729SOL    HW233087   6.467   2.978   1.703
10730SOL     OW33088   4.812   0.063   2.603
10730SOL    HW133089   4.794   0.040   2.507
10730SOL    HW233090   4.757   0.143   2.628
10731SOL     OW33091   4.586   0.480   1.123
10731SOL    HW133092   4.617   0.448   1.212
10731SOL    HW233093   4.636   0.563   1.098
10732SOL     OW33094   0.735   4.706   5.434
10732SOL    HW133095   0.737   4.735   5.530
10732SOL    HW233096   0.674   4.766   5.382
10733SOL     OW33097   6.837   2.858   0.033
10733SOL    HW133098   6.805   2.881   6.964
10733SOL    HW233099   6.758   2.848   0.094
10734SOL     OW33100   6.942   2.578   1.716
10734SOL    HW133101   7.021   2.538   1.670
10734SOL    HW233102   6.940   2.676   1.699
10735SOL     OW33103   0.324   3.971   2.809
10735SOL    HW133104   0.277   4.047   2.763
10735SOL    HW233105   0.259   3.924   2.870
10736SOL     OW33106   2.331   0.320   3.256
10736SOL    HW133107   2.284   0.239   3.221
10736SOL    HW233108   2.266   0.376   3.307
10737SOL     OW33109   6.874   2.138   1.620
10737SOL    HW133110   6.787   2.186   1.624
10737SOL    HW233111   6.898   2.121   1.524
10738SOL     OW33112   4.342   0.541   3.435
10738SOL    HW133113   4.375   0.626   3.394
10738SOL    HW233114   4.405   0.512   3.507
10739SOL     OW33115   1.969   1.730   1.362
10739SOL    HW133116   1.970   1.737   1.462
10739SOL    HW233117   2.059   1.754   1.326
10740SOL     OW33118   5.200   4.872   3.199
10740SOL    HW133119   5.116   4.832   3.235
10740SOL    HW233120   5.272   4.803   3.198
10741SOL     OW33121   3.830   0.659   3.225
10741SOL    HW133122   3.845   0.596   3.301
10741SOL    HW233123   3.909   0.720   3.216
10742SOL     OW33124   6.926   5.636   0.640
10742SOL    HW133125   6.867   5.558   0.621
10742SOL    HW233126   6.984   5.615   0.719
10743SOL     OW33127   2.498   1.625   4.717
10743SOL    HW133128   2.522   1.645   4.813
10743SOL    HW233129   2.529   1.701   4.659
10744SOL     OW33130   4.009   1.709   1.082
10744SOL    HW133131   4.046   1.792   1.041
10744SOL    HW233132   4.084   1.646   1.103
10745SOL     OW33133   6.954   5.814   6.042
10745SOL    HW133134   6.948   5.866   6.128
10745SOL    HW233135   7.022   5.741   6.052
10746SOL     OW33136   0.525   4.243   5.994
10746SOL    HW133137   0.510   4.209   6.086
10746SOL    HW233138   0.455   4.311   5.971
10747SOL     OW33139   3.294   1.701   4.479
10747SOL    HW133140   3.241   1.639   4.537
10747SOL    HW233141   3.327   1.778   4.533
10748SOL     OW33142   5.202   1.333   2.557
10748SOL    HW133143   5.145   1.413   2.579
10748SOL    HW233144   5.144   1.261   2.520
10749SOL     OW33145   2.232   6.669   6.213
10749SOL    HW133146   2.311   6.611   6.193
10749SOL    HW233147   2.252   6.763   6.185
10750SOL     OW33148   3.866   0.692   6.760
10750SOL    HW133149   3.944   0.755   6.769
10750SOL    HW233150   3.891   0.617   6.699
10751SOL     OW33151   2.846   4.782   4.022
10751SOL    HW133152   2.831   4.881   4.025
10751SOL    HW233153   2.804   4.740   4.103
10752SOL     OW33154   4.853   5.368   4.009
10752SOL    HW133155   4.906   5.447   4.040
10752SOL    HW233156   4.756   5.383   4.027
10753SOL     OW33157   6.892   3.239   4.573
10753SOL    HW133158   6.813   3.300   4.586
10753SOL    HW233159   6.863   3.144   4.587
10754SOL     OW33160   1.760   0.011   2.308
10754SOL    HW133161   1.819   0.086   2.275
10754SOL    HW233162   1.761   6.960   2.241
10755SOL     OW33163   6.386   5.637   1.916
10755SOL    HW133164   6.482   5.613   1.932
10755SOL    HW233165   6.382   5.726   1.869
10756SOL     OW33166   0.138   6.805   5.470
10756SOL    HW133167   0.158   6.760   5.383
10756SOL    HW233168   0.148   6.739   5.545
10757SOL     OW33169   2.707   3.184   1.162
10757SOL    HW133170   2.696   3.151   1.256
10757SOL    HW233171   2.805   3.198   1.143
10758SOL     OW33172   0.839   5.399   4.733
10758SOL    HW133173   0.839   5.421   4.636
10758SOL    HW233174   0.812   5.303   4.745
10759SOL     OW33175   0.281   2.818   6.748
10759SOL    HW133176   0.359   2.767   6.710
10759SOL    HW233177   0.261   2.896   6.688
10760SOL     OW33178   6.336   0.996   3.768
10760SOL    HW133179   6.324   0.900   3.793
10760SOL    HW233180   6.255   1.029   3.722
10761SOL     OW33181   3.043   4.930   5.361
10761SOL    HW133182   2.979   4.863   5.398
10761SOL    HW233183   2.993   4.999   5.309
10762SOL     OW33184   3.508   0.715   4.582
10762SOL    HW133185   3.447   0.641   4.611
10762SOL    HW233186   3.501   0.791   4.647
10763SOL     OW33187   4.236   6.533   3.477
10763SOL    HW133188   4.292   6.461   3.437
10763SOL    HW233189   4.259   6.543   3.574
10764SOL     OW33190   5.900   0.298   4.609
10764SOL    HW133191   5.852   0.342   4.534
10764SOL    HW233192   5.998   0.318   4.602
10765SOL     OW33193   5.350   3.768   1.103
10765SOL    HW133194   5.357   3.868   1.092
10765SOL    HW233195   5.398   3.741   1.186
10766SOL     OW33196   4.035   2.803   1.615
10766SOL    HW133197   4.056   2.707   1.595
10766SOL    HW233198   4.084   2.832   1.697
10767SOL     OW33199   3.635   1.118   1.866
10767SOL    HW133200   3.568   1.052   1.832
10767SOL    HW233201   3.596   1.210   1.862
10768SOL     OW33202   6.922   4.932   0.237
10768SOL    HW133203   6.864   4.917   0.317
10768SOL    HW233204   6.928   4.847   0.184
10769SOL     OW33205   1.637   3.967   5.847
10769SOL    HW133206   1.600   3.896   5.906
10769SOL    HW233207   1.667   4.045   5.902
10770SOL     OW33208   4.424   6.225   3.237
10770SOL    HW133209   4.508   6.180   3.269
10770SOL    HW233210   4.423   6.319   3.270
10771SOL     OW33211   2.636   1.037   3.393
10771SOL    HW133212   2.732   1.052   3.369
10771SOL    HW233213   2.608   1.106   3.460
10772SOL     OW33214   5.586   5.229   3.741
10772SOL    HW133215   5.615   5.325   3.741
10772SOL    HW233216   5.493   5.223   3.776
10773SOL     OW33217   4.977   5.089   3.816
10773SOL    HW133218   5.032   5.083   3.899
10773SOL    HW233219   5.035   5.115   3.739
10774SOL     OW33220   1.174   0.987   3.780
10774SOL    HW133221   1.118   1.061   3.744
10774SOL    HW233222   1.240   1.024   3.845
10775SOL     OW33223   0.760   3.886   1.977
10775SOL    HW133224   0.747   3.853   1.884
10775SOL    HW233225   0.844   3.940   1.982
10776SOL     OW33226   1.591   0.395   6.404
10776SOL    HW133227   1.600   0.321   6.337
10776SOL    HW233228   1.605   0.483   6.358
10777SOL     OW33229   3.062   6.172   1.457
10777SOL    HW133230   3.024   6.092   1.412
10777SOL    HW233231   3.083   6.242   1.389
10778SOL     OW33232   6.490   5.752   2.961
10778SOL    HW133233   6.456   5.800   3.042
10778SOL    HW233234   6.581   5.786   2.937
10779SOL     OW33235   5.473   2.667   3.392
10779SOL    HW133236   5.546   2.656   3.325
10779SOL    HW233237   5.394   2.710   3.349
10780SOL     OW33238   0.393   1.130   2.784
10780SOL    HW133239   0.428   1.037   2.770
10780SOL    HW233240   0.329   1.130   2.860
10781SOL     OW33241   3.608   0.400   4.512
10781SOL    HW133242   3.534   0.341   4.543
10781SOL    HW233243   3.572   0.467   4.447
10782SOL     OW33244   6.489   5.539   4.094
10782SOL    HW133245   6.497   5.573   4.188
10782SOL    HW233246   6.399   5.498   4.081
10783SOL     OW33247   6.463   2.045   2.985
10783SOL    HW133248   6.468   2.110   3.061
10783SOL    HW233249   6.390   2.073   2.923
10784SOL     OW33250   2.925   0.987   4.361
10784SOL    HW133251   2.867   1.066   4.381
10784SOL    HW233252   2.969   1.000   4.272
10785SOL     OW33253   0.900   3.853   6.668
10785SOL    HW133254   0.859   3.763   6.650
10785SOL    HW233255   0.828   3.922   6.673
10786SOL     OW33256   0.414   5.203   3.114
10786SOL    HW133257   0.488   5.219   3.050
10786SOL    HW233258   0.380   5.110   3.104
10787SOL     OW33259   1.861   2.465   5.777
10787SOL    HW133260   1.892   2.486   5.685
10787SOL    HW233261   1.888   2.538   5.840
10788SOL     OW33262   5.830   3.981   6.725
10788SOL    HW133263   5.864   4.064   6.769
10788SOL    HW233264   5.778   4.005   6.643
10789SOL     OW33265   6.331   1.541   0.103
10789SOL    HW133266   6.279   1.605   0.161
10789SOL    HW233267   6.282   1.454   0.097
10790SOL     OW33268   6.857   6.441   2.996
10790SOL    HW133269   6.823   6.457   2.903
10790SOL    HW233270   6.799   6.490   3.061
10791SOL     OW33271   0.282   6.376   3.035
10791SOL    HW133272   0.268   6.383   2.936
10791SOL    HW233273   0.372   6.414   3.059
10792SOL     OW33274   3.758   4.045   5.231
10792SOL    HW133275   3.675   4.045   5.174
10792SOL    HW233276   3.735   4.011   5.322
10793SOL     OW33277   5.558   3.532   4.782
10793SOL    HW133278   5.615   3.464   4.735
10793SOL    HW233279   5.554   3.615   4.727
10794SOL     OW33280   3.054   3.442   3.418
10794SOL    HW133281   3.147   3.407   3.425
10794SOL    HW233282   3.057   3.537   3.387
10795SOL     OW33283   0.598   4.702   3.430
10795SOL    HW133284   0.635   4.614   3.400
10795SOL    HW233285   0.593   4.765   3.353
10796SOL     OW33286   1.914   6.218   4.851
10796SOL    HW133287   2.013   6.202   4.856
10796SOL    HW233288   1.897   6.303   4.801
10797SOL     OW33289   3.835   2.623   0.399
10797SOL    HW133290   3.916   2.571   0.427
10797SOL    HW233291   3.851   2.720   0.418
10798SOL     OW33292   7.005   2.004   0.408
10798SOL    HW133293   6.999   1.949   0.492
10798SOL    HW233294   0.077   2.008   0.378
10799SOL     OW33295   4.052   1.507   1.821
10799SOL    HW133296   4.049   1.557   1.734
10799SOL    HW233297   4.126   1.440   1.818
10800SOL     OW33298   1.131   0.013   1.754
10800SOL    HW133299   1.195   6.968   1.719
10800SOL    HW233300   1.180   0.100   1.768
10801SOL     OW33301   1.563   0.670   1.096
10801SOL    HW133302   1.581   0.759   1.055
10801SOL    HW233303   1.645   0.637   1.143
10802SOL     OW33304   6.587   0.299   3.435
10802SOL    HW133305   6.680   0.327   3.412
10802SOL    HW233306   6.547   0.362   3.501
10803SOL     OW33307   2.559   5.176   6.450
10803SOL    HW133308   2.601   5.130   6.371
10803SOL    HW233309   2.568   5.117   6.530
10804SOL     OW33310   0.097   3.914   4.249
10804SOL    HW133311   0.049   3.971   4.183
10804SOL    HW233312   0.165   3.969   4.298
10805SOL     OW33313   6.749   1.583   5.596
10805SOL    HW133314   6.768   1.493   5.557
10805SOL    HW233315   6.764   1.580   5.694
10806SOL     OW33316   1.931   4.472   6.836
10806SOL    HW133317   1.933   4.390   6.778
10806SOL    HW233318   1.945   4.445   6.931
10807SOL     OW33319   3.497   6.860   4.697
10807SOL    HW133320   3.584   6.878   4.650
10807SOL    HW233321   3.498   6.767   4.734
10808SOL     OW33322   0.599   3.342   6.131
10808SOL    HW133323   0.634   3.287   6.056
10808SOL    HW233324   0.674   3.371   6.190
10809SOL     OW33325   2.112   6.485   4.597
10809SOL    HW133326   2.147   6.508   4.687
10809SOL    HW233327   2.023   6.441   4.606
10810SOL     OW33328   0.104   0.127   4.620
10810SOL    HW133329   0.053   0.212   4.625
10810SOL    HW233330   0.084   0.071   4.700
10811SOL     OW33331   4.882   4.940   4.691
10811SOL    HW133332   4.884   5.013   4.759
10811SOL    HW233333   4.844   4.975   4.606
10812SOL     OW33334   5.978   2.762   0.231
10812SOL    HW133335   5.889   2.807   0.228
10812SOL    HW233336   5.965   2.663   0.238
10813SOL     OW33337   6.943   4.266   6.066
10813SOL    HW133338   6.900   4.210   5.995
10813SOL    HW233339   6.897   4.355   6.071
10814SOL     OW33340   2.827   1.069   1.182
10814SOL    HW133341   2.804   1.164   1.206
10814SOL    HW233342   2.831   1.014   1.266
10815SOL     OW33343   5.393   0.895   4.794
10815SOL    HW133344   5.470   0.911   4.733
10815SOL    HW233345   5.408   0.811   4.846
10816SOL     OW33346   4.052   3.137   3.612
10816SOL    HW133347   4.057   3.171   3.706
10816SOL    HW233348   4.141   3.099   3.585
10817SOL     OW33349   2.047   6.272   3.324
10817SOL    HW133350   2.136   6.237   3.353
10817SOL    HW233351   1.975   6.221   3.371
10818SOL     OW33352   4.097   4.906   6.823
10818SOL    HW133353   4.038   4.858   6.889
10818SOL    HW233354   4.178   4.851   6.804
10819SOL     OW33355   6.593   5.788   5.937
10819SOL    HW133356   6.513   5.846   5.919
10819SOL    HW233357   6.652   5.788   5.857
10820SOL     OW33358   2.295   4.113   5.998
10820SOL    HW133359   2.248   4.071   6.076
10820SOL    HW233360   2.393   4.097   6.006
10821SOL     OW33361   4.937   5.531   3.170
10821SOL    HW133362   4.965   5.491   3.083
10821SOL    HW233363   4.910   5.458   3.233
10822SOL     OW33364   5.294   1.641   2.458
10822SOL    HW133365   5.217   1.580   2.439
10822SOL    HW233366   5.380   1.597   2.430
10823SOL     OW33367   5.854   6.667   1.795
10823SOL    HW133368   5.913   6.598   1.837
10823SOL    HW233369   5.865   6.754   1.843
10824SOL     OW33370   0.682   2.644   3.602
10824SOL    HW133371   0.703   2.550   3.577
10824SOL    HW233372   0.764   2.700   3.592
10825SOL     OW33373   0.504   2.284   0.494
10825SOL    HW133374   0.510   2.188   0.466
10825SOL    HW233375   0.449   2.334   0.427
10826SOL     OW33376   0.663   3.133   3.056
10826SOL    HW133377   0.673   3.232   3.064
10826SOL    HW233378   0.593   3.101   3.120
10827SOL     OW33379   6.629   3.335   4.648
10827SOL    HW133380   6.623   3.433   4.668
10827SOL    HW233381   6.587   3.317   4.559
10828SOL     OW33382   6.037   4.980   5.391
10828SOL    HW133383   6.064   4.887   5.366
10828SOL    HW233384   5.943   4.979   5.425
10829SOL     OW33385   3.946   3.094   5.253
10829SOL    HW133386   3.920   2.999   5.271
10829SOL    HW233387   4.040   3.110   5.285
10830SOL     OW33388   3.677   2.015   3.487
10830SOL    HW133389   3.761   2.036   3.437
10830SOL    HW233390   3.626   1.944   3.439
10831SOL     OW33391   3.889   0.759   3.633
10831SOL    HW133392   3.976   0.712   3.617
10831SOL    HW233393   3.816   0.691   3.642
10832SOL     OW33394   6.313   3.651   0.501
10832SOL    HW133395   6.284   3.719   0.435
10832SOL    HW233396   6.298   3.686   0.594
10833SOL     OW33397   0.484   1.105   6.398
10833SOL    HW133398   0.418   1.043   6.356
10833SOL    HW233399   0.509   1.071   6.488
10834SOL     OW33400   6.965   6.908   1.373
10834SOL    HW133401   6.988   6.869   1.463
10834SOL    HW233402   6.898   6.981   1.385
10835SOL     OW33403   0.013   2.152   5.762
10835SOL    HW133404   7.007   2.178   5.671
10835SOL    HW233405   0.101   2.195   5.782
10836SOL     OW33406   6.847   1.210   4.048
10836SOL    HW133407   6.905   1.210   3.966
10836SOL    HW233408   6.897   1.165   4.123
10837SOL     OW33409   0.570   2.905   2.691
10837SOL    HW133410   0.539   2.831   2.750
10837SOL    HW233411   0.670   2.913   2.697
10838SOL     OW33412   0.448   5.349   2.406
10838SOL    HW133413   0.455   5.250   2.421
10838SOL    HW233414   0.522   5.379   2.345
10839SOL     OW33415   5.152   2.554   1.358
10839SOL    HW133416   5.069   2.501   1.343
10839SOL    HW233417   5.232   2.500   1.332
10840SOL     OW33418   2.649   0.263   1.443
10840SOL    HW133419   2.732   0.222   1.407
10840SOL    HW233420   2.569   0.221   1.400
10841SOL     OW33421   2.026   5.381   4.514
10841SOL    HW133422   2.073   5.420   4.593
10841SOL    HW233423   2.028   5.281   4.520
10842SOL     OW33424   5.370   4.430   1.238
10842SOL    HW133425   5.388   4.528   1.224
10842SOL    HW233426   5.347   4.388   1.150
10843SOL     OW33427   2.340   2.026   1.432
10843SOL    HW133428   2.432   1.989   1.421
10843SOL    HW233429   2.334   2.076   1.519
10844SOL     OW33430   1.600   5.140   4.833
10844SOL    HW133431   1.660   5.063   4.857
10844SOL    HW233432   1.534   5.110   4.763
10845SOL     OW33433   4.308   0.272   4.934
10845SOL    HW133434   4.220   0.232   4.960
10845SOL    HW233435   4.293   0.337   4.859
10846SOL     OW33436   5.314   0.078   6.846
10846SOL    HW133437   5.401   0.035   6.821
10846SOL    HW233438   5.240   0.040   6.791
10847SOL     OW33439   2.484   1.047   6.299
10847SOL    HW133440   2.496   1.031   6.201
10847SOL    HW233441   2.572   1.068   6.341
10848SOL     OW33442   1.571   4.957   2.165
10848SOL    HW133443   1.596   4.917   2.077
10848SOL    HW233444   1.558   5.056   2.155
10849SOL     OW33445   2.248   6.764   4.191
10849SOL    HW133446   2.223   6.759   4.288
10849SOL    HW233447   2.178   6.817   4.142
10850SOL     OW33448   3.631   4.842   0.696
10850SOL    HW133449   3.551   4.855   0.755
10850SOL    HW233450   3.676   4.930   0.681
10851SOL     OW33451   1.828   4.777   0.429
10851SOL    HW133452   1.756   4.717   0.463
10851SOL    HW233453   1.841   4.762   0.331
10852SOL     OW33454   2.198   1.218   2.164
10852SOL    HW133455   2.266   1.179   2.102
10852SOL    HW233456   2.202   1.171   2.252
10853SOL     OW33457   2.914   1.542   6.075
10853SOL    HW133458   3.001   1.519   6.032
10853SOL    HW233459   2.888   1.469   6.138
10854SOL     OW33460   3.078   6.589   5.150
10854SOL    HW133461   2.991   6.637   5.139
10854SOL    HW233462   3.121   6.578   5.061
10855SOL     OW33463   3.667   1.388   6.719
10855SOL    HW133464   3.580   1.408   6.765
10855SOL    HW233465   3.650   1.375   6.621
10856SOL     OW33466   0.190   0.838   0.354
10856SOL    HW133467   0.216   0.904   0.283
10856SOL    HW233468   0.141   0.762   0.312
10857SOL     OW33469   6.473   2.297   2.276
10857SOL    HW133470   6.524   2.383   2.279
10857SOL    HW233471   6.378   2.316   2.251
10858SOL     OW33472   2.494   6.283   1.818
10858SOL    HW133473   2.557   6.210   1.847
10858SOL    HW233474   2.415   6.242   1.773
10859SOL     OW33475   1.627   5.440   3.543
10859SOL    HW133476   1.540   5.449   3.495
10859SOL    HW233477   1.623   5.487   3.631
10860SOL     OW33478   6.897   3.082   3.079
10860SOL    HW133479   6.879   3.047   2.987
10860SOL    HW233480   6.910   3.005   3.141
10861SOL     OW33481   3.860   3.269   5.024
10861SOL    HW133482   3.892   3.208   5.097
10861SOL    HW233483   3.769   3.302   5.046
10862SOL     OW33484   1.041   1.141   4.330
10862SOL    HW133485   1.042   1.239   4.351
10862SOL    HW233486   0.996   1.091   4.403
10863SOL     OW33487   3.200   6.306   4.425
10863SOL    HW133488   3.177   6.260   4.339
10863SOL    HW233489   3.159   6.257   4.501
10864SOL     OW33490   3.632   5.945   2.983
10864SOL    HW133491   3.669   6.018   3.041
10864SOL    HW233492   3.660   5.857   3.019
10865SOL     OW33493   6.370   1.720   5.760
10865SOL    HW133494   6.276   1.692   5.781
10865SOL    HW233495   6.433   1.648   5.791
10866SOL     OW33496   5.256   5.121   1.040
10866SOL    HW133497   5.318   5.093   0.967
10866SOL    HW233498   5.259   5.220   1.051
10867SOL     OW33499   3.185   1.940   0.253
10867SOL    HW133500   3.267   1.886   0.233
10867SOL    HW233501   3.205   2.037   0.242
10868SOL     OW33502   2.341   1.812   2.522
10868SOL    HW133503   2.365   1.899   2.563
10868SOL    HW233504   2.255   1.821   2.471
10869NA      NA33505   6.486   2.482   6.168
10870NA      NA33506   4.432   4.666   5.166
10871NA      NA33507   2.492   3.331   1.688
10872NA      NA33508   4.900   3.654   5.242
10873NA      NA33509   4.367   2.538   5.213
10874NA      NA33510   3.740   4.762   1.737
10875NA      NA33511   6.674   6.002   4.852
10876NA      NA33512   3.848   3.888   5.076
10877NA      NA33513   4.524   0.038   0.048
10878NA      NA33514   3.439   0.171   5.068
10879NA      NA33515   7.015   5.200   2.768
10880NA      NA33516   2.844   0.525   2.787
10881NA      NA33517   3.651   3.827   1.149
10882NA      NA33518   3.633   3.490   2.849
   7.02363   7.02363   7.02363
