Generated by trjconv : CNT in water t= 565.00000
33518
    1C        C    1   2.850   2.773   4.745
    1C        C    2   2.900   2.719   4.865
    1C        C    3   2.846   2.773   4.983
    1C        C    4   2.850   2.774   4.262
    1C        C    5   2.903   2.725   4.383
    1C        C    6   2.851   2.775   4.504
    1C        C    7   3.020   2.643   4.627
    1C        C    8   2.903   2.722   4.624
    1C        C    9   3.080   2.608   4.749
    1C        C   10   3.015   2.637   4.871
    1C        C   11   3.185   2.495   4.980
    1C        C   12   3.062   2.562   4.979
    1C        C   13   2.858   2.778   3.774
    1C        C   14   2.908   2.728   3.896
    1C        C   15   2.858   2.777   4.019
    1C        C   16   3.020   2.642   4.139
    1C        C   17   2.908   2.729   4.141
    1C        C   18   3.083   2.612   4.262
    1C        C   19   3.021   2.647   4.384
    1C        C   20   3.213   2.554   4.503
    1C        C   21   3.083   2.608   4.505
    1C        C   22   3.278   2.535   4.627
    1C        C   23   3.210   2.551   4.750
    1C        C   24   3.416   2.484   4.866
    1C        C   25   3.275   2.506   4.869
    1C        C   26   3.491   2.476   4.985
    1C        C   27   2.859   2.773   3.285
    1C        C   28   2.912   2.728   3.408
    1C        C   29   2.862   2.777   3.531
    1C        C   30   3.024   2.642   3.651
    1C        C   31   2.911   2.727   3.653
    1C        C   32   3.081   2.604   3.775
    1C        C   33   3.020   2.642   3.896
    1C        C   34   3.210   2.550   4.018
    1C        C   35   3.077   2.599   4.018
    1C        C   36   3.279   2.532   4.139
    1C        C   37   3.213   2.557   4.262
    1C        C   38   3.421   2.507   4.382
    1C        C   39   3.281   2.529   4.382
    1C        C   40   3.487   2.503   4.507
    1C        C   41   3.417   2.508   4.629
    1C        C   42   3.635   2.482   4.748
    1C        C   43   3.493   2.485   4.746
    1C        C   44   3.710   2.488   4.867
    1C        C   45   3.630   2.477   4.982
    1C        C   46   2.847   2.760   2.798
    1C        C   47   2.903   2.716   2.920
    1C        C   48   2.852   2.769   3.041
    1C        C   49   3.022   2.641   3.162
    1C        C   50   2.907   2.723   3.162
    1C        C   51   3.082   2.605   3.285
    1C        C   52   3.022   2.640   3.408
    1C        C   53   3.213   2.543   3.529
    1C        C   54   3.086   2.606   3.530
    1C        C   55   3.278   2.524   3.653
    1C        C   56   3.210   2.545   3.775
    1C        C   57   3.418   2.502   3.895
    1C        C   58   3.279   2.525   3.897
    1C        C   59   3.488   2.497   4.018
    1C        C   60   3.417   2.500   4.140
    1C        C   61   3.631   2.502   4.262
    1C        C   62   3.490   2.490   4.260
    1C        C   63   3.701   2.507   4.385
    1C        C   64   3.628   2.502   4.506
    1C        C   65   3.838   2.544   4.623
    1C        C   66   3.703   2.504   4.626
    1C        C   67   3.907   2.563   4.745
    1C        C   68   3.845   2.526   4.867
    1C        C   69   4.058   2.581   4.979
    1C        C   70   3.926   2.532   4.981
    1C        C   71   2.830   2.738   2.312
    1C        C   72   2.886   2.696   2.434
    1C        C   73   2.839   2.752   2.555
    1C        C   74   3.009   2.622   2.675
    1C        C   75   2.897   2.708   2.676
    1C        C   76   3.072   2.587   2.797
    1C        C   77   3.016   2.631   2.919
    1C        C   78   3.211   2.544   3.038
    1C        C   79   3.082   2.602   3.040
    1C        C   80   3.276   2.522   3.162
    1C        C   81   3.208   2.541   3.284
    1C        C   82   3.415   2.490   3.406
    1C        C   83   3.276   2.518   3.406
    1C        C   84   3.485   2.486   3.528
    1C        C   85   3.418   2.503   3.651
    1C        C   86   3.631   2.499   3.772
    1C        C   87   3.490   2.498   3.773
    1C        C   88   3.699   2.509   3.896
    1C        C   89   3.629   2.505   4.018
    1C        C   90   3.837   2.547   4.139
    1C        C   91   3.700   2.515   4.140
    1C        C   92   3.906   2.571   4.260
    1C        C   93   3.836   2.547   4.381
    1C        C   94   4.029   2.640   4.503
    1C        C   95   3.905   2.572   4.502
    1C        C   96   4.091   2.675   4.624
    1C        C   97   4.033   2.630   4.745
    1C        C   98   4.191   2.769   4.867
    1C        C   99   4.102   2.657   4.866
    1C        C  100   4.217   2.842   4.984
    1C        C  101   2.822   2.729   2.072
    1C        C  102   2.994   2.597   2.194
    1C        C  103   2.878   2.681   2.191
    1C        C  104   3.070   2.581   2.313
    1C        C  105   3.007   2.622   2.432
    1C        C  106   3.202   2.536   2.552
    1C        C  107   3.069   2.585   2.553
    1C        C  108   3.274   2.521   2.672
    1C        C  109   3.205   2.541   2.794
    1C        C  110   3.414   2.493   2.915
    1C        C  111   3.276   2.523   2.915
    1C        C  112   3.484   2.484   3.038
    1C        C  113   3.414   2.492   3.160
    1C        C  114   3.625   2.491   3.282
    1C        C  115   3.484   2.485   3.283
    1C        C  116   3.695   2.507   3.404
    1C        C  117   3.626   2.497   3.527
    1C        C  118   3.834   2.547   3.649
    1C        C  119   3.698   2.508   3.648
    1C        C  120   3.897   2.578   3.771
    1C        C  121   3.834   2.550   3.895
    1C        C  122   4.025   2.644   4.017
    1C        C  123   3.900   2.578   4.016
    1C        C  124   4.089   2.676   4.139
    1C        C  125   4.030   2.638   4.262
    1C        C  126   4.196   2.774   4.378
    1C        C  127   4.088   2.684   4.382
    1C        C  128   4.247   2.820   4.502
    1C        C  129   4.193   2.773   4.624
    1C        C  130   4.326   2.938   4.744
    1C        C  131   4.242   2.824   4.746
    1C        C  132   4.353   3.009   4.863
    1C        C  133   4.288   2.962   4.977
    1C        C  134   3.175   2.476   2.082
    1C        C  135   3.040   2.510   2.090
    1C        C  136   3.262   2.480   2.192
    1C        C  137   3.199   2.520   2.312
    1C        C  138   3.411   2.485   2.429
    1C        C  139   3.271   2.505   2.432
    1C        C  140   3.484   2.487   2.550
    1C        C  141   3.412   2.495   2.672
    1C        C  142   3.626   2.490   2.792
    1C        C  143   3.485   2.488   2.793
    1C        C  144   3.694   2.507   2.914
    1C        C  145   3.624   2.497   3.037
    1C        C  146   3.830   2.541   3.159
    1C        C  147   3.694   2.503   3.160
    1C        C  148   3.898   2.565   3.280
    1C        C  149   3.832   2.544   3.403
    1C        C  150   4.025   2.632   3.525
    1C        C  151   3.898   2.569   3.525
    1C        C  152   4.082   2.674   3.647
    1C        C  153   4.022   2.644   3.772
    1C        C  154   4.194   2.769   3.890
    1C        C  155   4.080   2.686   3.894
    1C        C  156   4.249   2.815   4.012
    1C        C  157   4.196   2.768   4.135
    1C        C  158   4.337   2.930   4.257
    1C        C  159   4.249   2.820   4.255
    1C        C  160   4.378   2.988   4.380
    1C        C  161   4.336   2.930   4.501
    1C        C  162   4.446   3.113   4.615
    1C        C  163   4.370   2.994   4.622
    1C        C  164   4.471   3.186   4.734
    1C        C  165   4.430   3.127   4.856
    1C        C  166   4.515   3.321   4.976
    1C        C  167   4.474   3.188   4.974
    1C        C  168   3.477   2.435   2.074
    1C        C  169   3.402   2.460   2.190
    1C        C  170   3.621   2.477   2.306
    1C        C  171   3.479   2.463   2.308
    1C        C  172   3.696   2.486   2.425
    1C        C  173   3.625   2.483   2.547
    1C        C  174   3.829   2.541   2.668
    1C        C  175   3.696   2.494   2.669
    1C        C  176   3.897   2.566   2.790
    1C        C  177   3.830   2.546   2.912
    1C        C  178   4.021   2.629   3.036
    1C        C  179   3.894   2.568   3.036
    1C        C  180   4.081   2.669   3.158
    1C        C  181   4.022   2.634   3.281
    1C        C  182   4.191   2.762   3.402
    1C        C  183   4.084   2.670   3.403
    1C        C  184   4.241   2.814   3.523
    1C        C  185   4.191   2.764   3.645
    1C        C  186   4.336   2.922   3.767
    1C        C  187   4.244   2.815   3.766
    1C        C  188   4.380   2.979   3.889
    1C        C  189   4.338   2.924   4.012
    1C        C  190   4.447   3.108   4.131
    1C        C  191   4.376   2.986   4.133
    1C        C  192   4.473   3.175   4.253
    1C        C  193   4.445   3.112   4.376
    1C        C  194   4.514   3.318   4.494
    1C        C  195   4.470   3.184   4.495
    1C        C  196   4.526   3.392   4.614
    1C        C  197   4.511   3.322   4.736
    1C        C  198   4.553   3.535   4.854
    1C        C  199   4.530   3.394   4.857
    1C        C  200   4.585   3.621   4.964
    1C        C  201   3.616   2.422   2.073
    1C        C  202   3.831   2.511   2.184
    1C        C  203   3.693   2.471   2.183
    1C        C  204   3.901   2.543   2.304
    1C        C  205   3.831   2.525   2.425
    1C        C  206   4.022   2.625   2.545
    1C        C  207   3.895   2.562   2.545
    1C        C  208   4.081   2.664   2.667
    1C        C  209   4.024   2.628   2.791
    1C        C  210   4.192   2.755   2.912
    1C        C  211   4.083   2.665   2.914
    1C        C  212   4.246   2.805   3.033
    1C        C  213   4.191   2.758   3.154
    1C        C  214   4.332   2.915   3.277
    1C        C  215   4.241   2.806   3.277
    1C        C  216   4.372   2.974   3.399
    1C        C  217   4.333   2.922   3.524
    1C        C  218   4.441   3.106   3.642
    1C        C  219   4.377   2.980   3.645
    1C        C  220   4.470   3.170   3.764
    1C        C  221   4.449   3.102   3.886
    1C        C  222   4.510   3.307   4.006
    1C        C  223   4.475   3.171   4.007
    1C        C  224   4.518   3.379   4.127
    1C        C  225   4.505   3.313   4.251
    1C        C  226   4.523   3.526   4.367
    1C        C  227   4.528   3.385   4.370
    1C        C  228   4.522   3.600   4.487
    1C        C  229   4.531   3.533   4.612
    1C        C  230   4.504   3.745   4.729
    1C        C  231   4.534   3.606   4.733
    1C        C  232   4.498   3.823   4.847
    1C        C  233   4.539   3.754   4.961
    1C        C  234   4.022   2.614   2.068
    1C        C  235   3.899   2.550   2.068
    1C        C  236   4.091   2.650   2.185
    1C        C  237   4.026   2.611   2.304
    1C        C  238   4.202   2.739   2.425
    1C        C  239   4.087   2.655   2.424
    1C        C  240   4.254   2.789   2.546
    1C        C  241   4.196   2.747   2.668
    1C        C  242   4.336   2.907   2.789
    1C        C  243   4.243   2.801   2.789
    1C        C  244   4.378   2.966   2.910
    1C        C  245   4.341   2.910   3.034
    1C        C  246   4.440   3.098   3.154
    1C        C  247   4.378   2.971   3.156
    1C        C  248   4.465   3.164   3.276
    1C        C  249   4.438   3.099   3.398
    1C        C  250   4.500   3.306   3.518
    1C        C  251   4.467   3.169   3.518
    1C        C  252   4.514   3.375   3.641
    1C        C  253   4.504   3.307   3.764
    1C        C  254   4.525   3.520   3.879
    1C        C  255   4.522   3.379   3.884
    1C        C  256   4.522   3.591   4.002
    1C        C  257   4.523   3.520   4.124
    1C        C  258   4.493   3.734   4.243
    1C        C  259   4.520   3.595   4.244
    1C        C  260   4.470   3.804   4.363
    1C        C  261   4.489   3.737   4.486
    1C        C  262   4.427   3.942   4.606
    1C        C  263   4.473   3.808   4.607
    1C        C  264   4.403   4.012   4.726
    1C        C  265   4.438   3.951   4.849
    1C        C  266   4.328   4.137   4.959
    1C        C  267   4.398   4.017   4.966
    1C        C  268   4.266   2.780   2.066
    1C        C  269   4.205   2.733   2.183
    1C        C  270   4.351   2.892   2.305
    1C        C  271   4.260   2.783   2.304
    1C        C  272   4.383   2.958   2.425
    1C        C  273   4.342   2.900   2.547
    1C        C  274   4.447   3.088   2.665
    1C        C  275   4.380   2.964   2.667
    1C        C  276   4.475   3.154   2.787
    1C        C  277   4.449   3.088   2.909
    1C        C  278   4.503   3.296   3.029
    1C        C  279   4.469   3.159   3.030
    1C        C  280   4.513   3.368   3.149
    1C        C  281   4.499   3.301   3.273
    1C        C  282   4.523   3.514   3.394
    1C        C  283   4.512   3.373   3.394
    1C        C  284   4.525   3.586   3.515
    1C        C  285   4.526   3.516   3.638
    1C        C  286   4.496   3.731   3.756
    1C        C  287   4.518   3.592   3.758
    1C        C  288   4.479   3.798   3.879
    1C        C  289   4.492   3.729   4.002
    1C        C  290   4.426   3.936   4.120
    1C        C  291   4.472   3.802   4.121
    1C        C  292   4.394   4.002   4.240
    1C        C  293   4.424   3.938   4.362
    1C        C  294   4.328   4.128   4.480
    1C        C  295   4.399   4.006   4.483
    1C        C  296   4.284   4.185   4.601
    1C        C  297   4.326   4.132   4.725
    1C        C  298   4.207   4.321   4.841
    1C        C  299   4.288   4.203   4.842
    1C        C  300   4.169   4.401   4.953
    1C        C  301   4.355   2.886   2.067
    1C        C  302   4.472   3.071   2.180
    1C        C  303   4.404   2.945   2.184
    1C        C  304   4.485   3.145   2.301
    1C        C  305   4.454   3.080   2.422
    1C        C  306   4.515   3.287   2.541
    1C        C  307   4.477   3.151   2.542
    1C        C  308   4.522   3.360   2.662
    1C        C  309   4.506   3.292   2.785
    1C        C  310   4.529   3.505   2.905
    1C        C  311   4.520   3.364   2.906
    1C        C  312   4.525   3.578   3.026
    1C        C  313   4.524   3.509   3.150
    1C        C  314   4.490   3.721   3.267
    1C        C  315   4.518   3.582   3.271
    1C        C  316   4.471   3.788   3.390
    1C        C  317   4.495   3.724   3.513
    1C        C  318   4.431   3.931   3.631
    1C        C  319   4.476   3.797   3.633
    1C        C  320   4.400   3.995   3.754
    1C        C  321   4.430   3.931   3.876
    1C        C  322   4.325   4.118   3.993
    1C        C  323   4.399   3.998   3.996
    1C        C  324   4.282   4.178   4.113
    1C        C  325   4.324   4.125   4.237
    1C        C  326   4.187   4.287   4.357
    1C        C  327   4.287   4.188   4.358
    1C        C  328   4.134   4.335   4.479
    1C        C  329   4.191   4.292   4.601
    1C        C  330   4.027   4.437   4.714
    1C        C  331   4.140   4.351   4.719
    1C        C  332   3.974   4.494   4.832
    1C        C  333   4.051   4.477   4.948
    1C        C  334   4.556   3.269   2.065
    1C        C  335   4.538   3.130   2.068
    1C        C  336   4.546   3.351   2.178
    1C        C  337   4.518   3.284   2.298
    1C        C  338   4.527   3.498   2.414
    1C        C  339   4.523   3.357   2.419
    1C        C  340   4.523   3.569   2.536
    1C        C  341   4.527   3.501   2.660
    1C        C  342   4.500   3.711   2.776
    1C        C  343   4.527   3.572   2.781
    1C        C  344   4.481   3.783   2.896
    1C        C  345   4.502   3.717   3.019
    1C        C  346   4.427   3.916   3.141
    1C        C  347   4.476   3.784   3.141
    1C        C  348   4.397   3.983   3.261
    1C        C  349   4.424   3.921   3.385
    1C        C  350   4.321   4.106   3.504
    1C        C  351   4.400   3.989   3.507
    1C        C  352   4.276   4.166   3.624
    1C        C  353   4.322   4.112   3.746
    1C        C  354   4.183   4.272   3.868
    1C        C  355   4.282   4.171   3.869
    1C        C  356   4.128   4.321   3.989
    1C        C  357   4.180   4.276   4.112
    1C        C  358   4.015   4.408   4.232
    1C        C  359   4.132   4.328   4.234
    1C        C  360   3.955   4.447   4.354
    1C        C  361   4.020   4.417   4.476
    1C        C  362   3.830   4.523   4.596
    1C        C  363   3.960   4.466   4.594
    1C        C  364   3.765   4.551   4.718
    1C        C  365   3.842   4.543   4.836
    1C        C  366   3.634   4.591   4.951
    1C        C  367   3.771   4.564   4.955
    1C        C  368   4.517   3.568   2.056
    1C        C  369   4.534   3.492   2.172
    1C        C  370   4.507   3.707   2.292
    1C        C  371   4.523   3.567   2.291
    1C        C  372   4.490   3.781   2.411
    1C        C  373   4.505   3.709   2.532
    1C        C  374   4.429   3.910   2.653
    1C        C  375   4.481   3.778   2.653
    1C        C  376   4.399   3.978   2.773
    1C        C  377   4.430   3.915   2.895
    1C        C  378   4.324   4.099   3.015
    1C        C  379   4.397   3.978   3.017
    1C        C  380   4.280   4.156   3.137
    1C        C  381   4.321   4.102   3.260
    1C        C  382   4.173   4.257   3.380
    1C        C  383   4.274   4.159   3.381
    1C        C  384   4.121   4.310   3.501
    1C        C  385   4.177   4.267   3.623
    1C        C  386   4.008   4.392   3.745
    1C        C  387   4.127   4.315   3.746
    1C        C  388   3.948   4.433   3.866
    1C        C  389   4.012   4.402   3.988
    1C        C  390   3.825   4.500   4.111
    1C        C  391   3.956   4.447   4.110
    1C        C  392   3.756   4.516   4.233
    1C        C  393   3.824   4.499   4.355
    1C        C  394   3.618   4.559   4.479
    1C        C  395   3.757   4.534   4.475
    1C        C  396   3.547   4.570   4.601
    1C        C  397   3.625   4.568   4.719
    1C        C  398   3.412   4.555   4.841
    1C        C  399   3.552   4.575   4.839
    1C        C  400   3.344   4.514   4.956
    1C        C  401   4.505   3.707   2.053
    1C        C  402   4.458   3.917   2.170
    1C        C  403   4.492   3.780   2.172
    1C        C  404   4.414   3.981   2.288
    1C        C  405   4.436   3.912   2.409
    1C        C  406   4.329   4.095   2.527
    1C        C  407   4.404   3.976   2.530
    1C        C  408   4.284   4.152   2.648
    1C        C  409   4.322   4.096   2.772
    1C        C  410   4.178   4.254   2.892
    1C        C  411   4.279   4.155   2.894
    1C        C  412   4.126   4.300   3.015
    1C        C  413   4.178   4.254   3.138
    1C        C  414   4.004   4.383   3.254
    1C        C  415   4.121   4.303   3.257
    1C        C  416   3.946   4.422   3.377
    1C        C  417   4.007   4.393   3.501
    1C        C  418   3.816   4.485   3.622
    1C        C  419   3.944   4.424   3.624
    1C        C  420   3.753   4.515   3.745
    1C        C  421   3.821   4.494   3.867
    1C        C  422   3.618   4.546   3.990
    1C        C  423   3.757   4.524   3.989
    1C        C  424   3.546   4.550   4.112
    1C        C  425   3.617   4.544   4.234
    1C        C  426   3.407   4.550   4.358
    1C        C  427   3.548   4.557   4.356
    1C        C  428   3.334   4.547   4.480
    1C        C  429   3.407   4.560   4.600
    1C        C  430   3.198   4.513   4.722
    1C        C  431   3.337   4.547   4.722
    1C        C  432   3.129   4.493   4.845
    1C        C  433   3.205   4.502   4.962
    1C        C  434   4.386   4.124   2.056
    1C        C  435   4.452   4.000   2.057
    1C        C  436   4.303   4.164   2.165
    1C        C  437   4.339   4.102   2.288
    1C        C  438   4.182   4.251   2.404
    1C        C  439   4.286   4.155   2.407
    1C        C  440   4.128   4.296   2.526
    1C        C  441   4.183   4.251   2.649
    1C        C  442   4.009   4.378   2.766
    1C        C  443   4.125   4.298   2.769
    1C        C  444   3.949   4.415   2.889
    1C        C  445   4.010   4.379   3.011
    1C        C  446   3.815   4.473   3.134
    1C        C  447   3.944   4.416   3.131
    1C        C  448   3.747   4.498   3.255
    1C        C  449   3.815   4.475   3.377
    1C        C  450   3.613   4.536   3.500
    1C        C  451   3.751   4.508   3.499
    1C        C  452   3.546   4.550   3.624
    1C        C  453   3.616   4.548   3.747
    1C        C  454   3.404   4.549   3.870
    1C        C  455   3.546   4.554   3.869
    1C        C  456   3.336   4.536   3.992
    1C        C  457   3.405   4.545   4.115
    1C        C  458   3.198   4.501   4.240
    1C        C  459   3.335   4.534   4.238
    1C        C  460   3.130   4.480   4.362
    1C        C  461   3.199   4.505   4.482
    1C        C  462   2.996   4.437   4.606
    1C        C  463   3.128   4.486   4.603
    1C        C  464   2.931   4.405   4.727
    1C        C  465   2.992   4.452   4.847
    1C        C  466   2.810   4.336   4.964
    1C        C  467   2.907   4.437   4.961
    1C        C  468   4.125   4.286   2.042
    1C        C  469   4.191   4.253   2.161
    1C        C  470   4.010   4.373   2.281
    1C        C  471   4.132   4.300   2.281
    1C        C  472   3.946   4.409   2.402
    1C        C  473   4.012   4.377   2.523
    1C        C  474   3.818   4.468   2.645
    1C        C  475   3.947   4.411   2.643
    1C        C  476   3.752   4.490   2.768
    1C        C  477   3.819   4.471   2.891
    1C        C  478   3.610   4.523   3.014
    1C        C  479   3.748   4.493   3.011
    1C        C  480   3.537   4.538   3.134
    1C        C  481   3.609   4.527   3.255
    1C        C  482   3.400   4.537   3.381
    1C        C  483   3.541   4.538   3.379
    1C        C  484   3.332   4.528   3.505
    1C        C  485   3.405   4.536   3.626
    1C        C  486   3.197   4.499   3.748
    1C        C  487   3.335   4.531   3.748
    1C        C  488   3.130   4.480   3.871
    1C        C  489   3.199   4.501   3.992
    1C        C  490   3.008   4.414   4.117
    1C        C  491   3.134   4.478   4.116
    1C        C  492   2.946   4.380   4.239
    1C        C  493   3.002   4.419   4.363
    1C        C  494   2.827   4.304   4.486
    1C        C  495   2.939   4.391   4.486
    1C        C  496   2.769   4.262   4.607
    1C        C  497   2.818   4.318   4.727
    1C        C  498   2.663   4.173   4.847
    1C        C  499   2.754   4.281   4.848
    1C        C  500   2.596   4.121   4.958
    1C        C  501   4.008   4.361   2.042
    1C        C  502   3.820   4.468   2.160
    1C        C  503   3.948   4.409   2.160
    1C        C  504   3.750   4.490   2.281
    1C        C  505   3.819   4.470   2.402
    1C        C  506   3.609   4.508   2.526
    1C        C  507   3.749   4.489   2.523
    1C        C  508   3.538   4.520   2.648
    1C        C  509   3.613   4.516   2.768
    1C        C  510   3.401   4.526   2.890
    1C        C  511   3.542   4.525   2.890
    1C        C  512   3.328   4.522   3.011
    1C        C  513   3.396   4.536   3.135
    1C        C  514   3.193   4.490   3.258
    1C        C  515   3.329   4.528   3.259
    1C        C  516   3.129   4.467   3.382
    1C        C  517   3.195   4.495   3.504
    1C        C  518   3.005   4.406   3.630
    1C        C  519   3.130   4.472   3.627
    1C        C  520   2.946   4.366   3.753
    1C        C  521   3.009   4.407   3.873
    1C        C  522   2.841   4.282   3.998
    1C        C  523   2.948   4.373   3.996
    1C        C  524   2.792   4.233   4.121
    1C        C  525   2.835   4.293   4.242
    1C        C  526   2.695   4.136   4.367
    1C        C  527   2.783   4.247   4.364
    1C        C  528   2.646   4.083   4.488
    1C        C  529   2.678   4.154   4.606
    1C        C  530   2.582   3.968   4.733
    1C        C  531   2.640   4.097   4.730
    1C        C  532   2.546   3.904   4.854
    1C        C  533   2.532   3.996   4.962
    1C        C  534   3.621   4.554   2.045
    1C        C  535   3.755   4.514   2.045
    1C        C  536   3.539   4.537   2.161
    1C        C  537   3.610   4.517   2.282
    1C        C  538   3.397   4.520   2.406
    1C        C  539   3.538   4.520   2.404
    1C        C  540   3.325   4.517   2.527
    1C        C  541   3.397   4.522   2.648
    1C        C  542   3.189   4.489   2.769
    1C        C  543   3.326   4.519   2.771
    1C        C  544   3.123   4.469   2.892
    1C        C  545   3.191   4.490   3.015
    1C        C  546   3.000   4.398   3.137
    1C        C  547   3.125   4.465   3.137
    1C        C  548   2.944   4.361   3.261
    1C        C  549   3.005   4.400   3.383
    1C        C  550   2.840   4.275   3.507
    1C        C  551   2.948   4.366   3.507
    1C        C  552   2.784   4.230   3.628
    1C        C  553   2.834   4.281   3.750
    1C        C  554   2.697   4.126   3.878
    1C        C  555   2.788   4.234   3.876
    1C        C  556   2.653   4.070   4.000
    1C        C  557   2.695   4.131   4.121
    1C        C  558   2.592   3.950   4.248
    1C        C  559   2.656   4.076   4.245
    1C        C  560   2.565   3.886   4.371
    1C        C  561   2.583   3.957   4.492
    1C        C  562   2.525   3.756   4.620
    1C        C  563   2.558   3.893   4.615
    1C        C  564   2.515   3.683   4.740
    1C        C  565   2.523   3.762   4.857
    1C        C  566   2.534   3.549   4.982
    1C        C  567   2.523   3.687   4.976
    1C        C  568   3.332   4.487   2.043
    1C        C  569   3.398   4.520   2.162
    1C        C  570   3.187   4.478   2.282
    1C        C  571   3.325   4.512   2.284
    1C        C  572   3.117   4.464   2.404
    1C        C  573   3.186   4.491   2.524
    1C        C  574   2.995   4.402   2.649
    1C        C  575   3.120   4.468   2.647
    1C        C  576   2.939   4.359   2.771
    1C        C  577   3.000   4.399   2.892
    1C        C  578   2.827   4.278   3.018
    1C        C  579   2.940   4.362   3.014
    1C        C  580   2.782   4.225   3.141
    1C        C  581   2.831   4.276   3.264
    1C        C  582   2.696   4.114   3.387
    1C        C  583   2.783   4.226   3.387
    1C        C  584   2.657   4.060   3.511
    1C        C  585   2.698   4.118   3.633
    1C        C  586   2.591   3.939   3.758
    1C        C  587   2.657   4.064   3.758
    1C        C  588   2.568   3.876   3.882
    1C        C  589   2.594   3.942   4.004
    1C        C  590   2.527   3.744   4.130
    1C        C  591   2.569   3.879   4.128
    1C        C  592   2.517   3.679   4.255
    1C        C  593   2.530   3.749   4.377
    1C        C  594   2.513   3.540   4.499
    1C        C  595   2.521   3.681   4.500
    1C        C  596   2.522   3.469   4.621
    1C        C  597   2.523   3.541   4.742
    1C        C  598   2.544   3.331   4.862
    1C        C  599   2.530   3.471   4.865
    1C        C  600   2.538   3.253   4.979
    1C        C  601   3.204   4.437   2.047
    1C        C  602   2.988   4.391   2.159
    1C        C  603   3.122   4.441   2.162
    1C        C  604   2.930   4.361   2.285
    1C        C  605   2.993   4.397   2.406
    1C        C  606   2.823   4.272   2.531
    1C        C  607   2.933   4.361   2.529
    1C        C  608   2.771   4.225   2.654
    1C        C  609   2.828   4.271   2.775
    1C        C  610   2.688   4.114   2.897
    1C        C  611   2.777   4.224   2.897
    1C        C  612   2.651   4.058   3.021
    1C        C  613   2.695   4.115   3.143
    1C        C  614   2.592   3.929   3.268
    1C        C  615   2.658   4.054   3.265
    1C        C  616   2.565   3.869   3.393
    1C        C  617   2.592   3.934   3.515
    1C        C  618   2.524   3.734   3.638
    1C        C  619   2.562   3.870   3.638
    1C        C  620   2.511   3.670   3.763
    1C        C  621   2.524   3.741   3.885
    1C        C  622   2.508   3.532   4.015
    1C        C  623   2.514   3.673   4.008
    1C        C  624   2.514   3.463   4.138
    1C        C  625   2.509   3.538   4.257
    1C        C  626   2.540   3.327   4.379
    1C        C  627   2.514   3.466   4.379
    1C        C  628   2.559   3.259   4.502
    1C        C  629   2.541   3.329   4.624
    1C        C  630   2.596   3.119   4.748
    1C        C  631   2.555   3.255   4.743
    1C        C  632   2.626   3.051   4.869
    1C        C  633   2.571   3.117   4.983
    1C        C  634   2.783   4.309   2.057
    1C        C  635   2.896   4.392   2.050
    1C        C  636   2.749   4.236   2.172
    1C        C  637   2.816   4.277   2.289
    1C        C  638   2.683   4.110   2.412
    1C        C  639   2.770   4.221   2.411
    1C        C  640   2.645   4.050   2.535
    1C        C  641   2.686   4.113   2.655
    1C        C  642   2.587   3.924   2.780
    1C        C  643   2.653   4.049   2.776
    1C        C  644   2.556   3.863   2.904
    1C        C  645   2.588   3.931   3.024
    1C        C  646   2.531   3.727   3.150
    1C        C  647   2.563   3.865   3.146
    1C        C  648   2.514   3.661   3.274
    1C        C  649   2.524   3.734   3.395
    1C        C  650   2.505   3.523   3.522
    1C        C  651   2.509   3.664   3.517
    1C        C  652   2.513   3.456   3.646
    1C        C  653   2.512   3.529   3.767
    1C        C  654   2.542   3.324   3.892
    1C        C  655   2.513   3.462   3.892
    1C        C  656   2.560   3.256   4.015
    1C        C  657   2.541   3.324   4.137
    1C        C  658   2.612   3.124   4.261
    1C        C  659   2.561   3.256   4.259
    1C        C  660   2.642   3.064   4.385
    1C        C  661   2.610   3.128   4.507
    1C        C  662   2.718   2.944   4.625
    1C        C  663   2.635   3.058   4.627
    1C        C  664   2.759   2.882   4.745
    1C        C  665   2.707   2.933   4.868
    1C        C  666   2.750   2.873   4.987
    1C        C  667   2.683   4.027   2.057
    1C        C  668   2.688   4.108   2.171
    1C        C  669   2.591   3.917   2.294
    1C        C  670   2.645   4.048   2.291
    1C        C  671   2.558   3.852   2.415
    1C        C  672   2.581   3.924   2.535
    1C        C  673   2.519   3.724   2.661
    1C        C  674   2.556   3.860   2.658
    1C        C  675   2.507   3.656   2.784
    1C        C  676   2.517   3.727   2.905
    1C        C  677   2.502   3.518   3.031
    1C        C  678   2.509   3.659   3.028
    1C        C  679   2.509   3.449   3.154
    1C        C  680   2.508   3.520   3.277
    1C        C  681   2.543   3.313   3.402
    1C        C  682   2.513   3.451   3.400
    1C        C  683   2.561   3.248   3.526
    1C        C  684   2.540   3.318   3.648
    1C        C  685   2.609   3.120   3.776
    1C        C  686   2.557   3.252   3.772
    1C        C  687   2.643   3.057   3.898
    1C        C  688   2.612   3.125   4.018
    1C        C  689   2.721   2.941   4.141
    1C        C  690   2.648   3.062   4.139
    1C        C  691   2.764   2.887   4.264
    1C        C  692   2.721   2.946   4.384
    1C        C  693   2.758   2.882   4.504
    1C        C  694   2.630   3.897   2.059
    1C        C  695   2.529   3.708   2.181
    1C        C  696   2.585   3.837   2.178
    1C        C  697   2.507   3.639   2.303
    1C        C  698   2.520   3.716   2.421
    1C        C  699   2.498   3.506   2.546
    1C        C  700   2.506   3.647   2.543
    1C        C  701   2.502   3.439   2.670
    1C        C  702   2.502   3.515   2.789
    1C        C  703   2.527   3.304   2.916
    1C        C  704   2.507   3.444   2.911
    1C        C  705   2.547   3.237   3.039
    1C        C  706   2.539   3.311   3.159
    1C        C  707   2.606   3.108   3.284
    1C        C  708   2.562   3.242   3.281
    1C        C  709   2.640   3.051   3.409
    1C        C  710   2.614   3.118   3.531
    1C        C  711   2.724   2.941   3.652
    1C        C  712   2.643   3.057   3.655
    1C        C  713   2.765   2.884   3.775
    1C        C  714   2.724   2.940   3.898
    1C        C  715   2.763   2.882   4.020
    1C        C  716   2.453   3.502   2.068
    1C        C  717   2.496   3.636   2.066
    1C        C  718   2.468   3.421   2.185
    1C        C  719   2.486   3.499   2.302
    1C        C  720   2.516   3.291   2.429
    1C        C  721   2.496   3.431   2.426
    1C        C  722   2.538   3.225   2.552
    1C        C  723   2.527   3.300   2.672
    1C        C  724   2.600   3.103   2.796
    1C        C  725   2.548   3.234   2.795
    1C        C  726   2.631   3.042   2.919
    1C        C  727   2.602   3.107   3.041
    1C        C  728   2.713   2.925   3.164
    1C        C  729   2.634   3.042   3.163
    1C        C  730   2.760   2.875   3.287
    1C        C  731   2.720   2.935   3.409
    1C        C  732   2.771   2.886   3.531
    1C        C  733   2.486   3.196   2.076
    1C        C  734   2.490   3.280   2.188
    1C        C  735   2.586   3.087   2.308
    1C        C  736   2.527   3.216   2.310
    1C        C  737   2.618   3.024   2.430
    1C        C  738   2.593   3.095   2.550
    1C        C  739   2.709   2.921   2.674
    1C        C  740   2.631   3.038   2.674
    1C        C  741   2.753   2.866   2.796
    1C        C  742   2.708   2.923   2.917
    1C        C  743   2.754   2.871   3.040
    1C        C  744   2.547   3.071   2.075
    1C        C  745   2.690   2.902   2.189
    1C        C  746   2.616   3.022   2.186
    1C        C  747   2.736   2.844   2.309
    1C        C  748   2.695   2.905   2.430
    1C        C  749   2.743   2.855   2.553
    1C        C  750   2.740   2.841   2.072
    1C        C  751   3.660   2.314   1.982
    1C        O  752   3.679   2.196   2.021
    1C        O  753   3.682   2.335   1.845
    1C        C  754   4.639   3.050   1.995
    1C        O  755   4.607   3.012   1.880
    1C        O  756   4.774   3.084   2.012
    1C        C  757   4.453   4.224   1.969
    1C        O  758   4.508   4.326   2.019
    1C        O  759   4.440   4.223   1.830
    1C        C  760   3.589   4.655   1.941
    1C        O  761   3.636   4.772   1.940
    1C        O  762   3.563   4.605   1.813
    1C        C  763   2.878   4.510   1.962
    1C        O  764   2.942   4.521   1.854
    1C        O  765   2.814   4.627   2.006
    1C        C  766   2.324   3.482   1.997
    1C        O  767   2.332   3.454   1.875
    1C        O  768   2.198   3.525   2.041
    1C        C  769   4.720   3.614   5.025
    1C        O  770   4.742   3.572   5.142
    1C        O  771   4.843   3.654   4.972
    1C        C  772   4.269   4.448   5.051
    1C        O  773   4.248   4.450   5.175
    1C        O  774   4.354   4.556   5.022
    1C        C  775   4.146   2.524   5.083
    1C        O  776   4.160   2.399   5.091
    1C        O  777   4.156   2.587   5.208
    1C        C  778   2.909   4.531   5.075
    1C        O  779   2.876   4.651   5.056
    1C        O  780   2.967   4.493   5.196
    1C        C  781   2.499   3.043   5.089
    1C        O  782   2.418   2.949   5.068
    1C        O  783   2.560   3.023   5.213
    1C        C  784   2.413   3.990   5.051
    1C        O  785   2.294   3.995   5.010
    1C        O  786   2.427   3.951   5.184
    1C        C  787   2.953   2.412   2.019
    1C        O  788   2.967   2.415   1.894
    1C        O  789   2.849   2.336   2.071
    1C        C  790   3.201   2.392   5.085
    1C        O  791   3.172   2.271   5.068
    1C        O  792   3.263   2.406   5.209
    1C        H  793   4.262   3.031   5.054
    1C        H  794   4.195   2.798   5.079
    1C        H  795   4.465   3.138   5.068
    1C        H  796   4.569   3.356   5.062
    1C        H  797   4.519   3.796   5.057
    1C        H  798   4.369   3.961   5.052
    1C        H  799   4.349   4.198   5.045
    1C        H  800   4.041   4.555   5.020
    1C        H  801   3.824   4.585   5.046
    1C        H  802   3.585   4.595   5.046
    1C        H  803   3.403   4.460   5.027
    1C        H  804   3.165   4.465   5.054
    1C        H  805   3.883   2.548   5.078
    1C        H  806   3.676   2.498   5.076
    1C        H  807   2.998   2.556   5.065
    1C        H  808   3.448   2.506   5.078
    1C        H  809   2.886   2.752   5.080
    1C        H  810   2.673   2.852   5.059
    1C        H  811   2.477   3.288   5.059
    1C        H  812   2.566   3.509   5.075
    1C        H  813   2.488   3.733   5.066
    1C        H  814   2.605   4.173   5.051
    1C        H  815   2.760   4.317   5.057
    1C        H  816   2.753   2.902   1.985
    1C        H  817   2.858   2.694   1.977
    1C        H  818   3.215   2.464   1.984
    1C        H  819   3.425   2.435   1.980
    1C        H  820   3.837   2.576   1.985
    1C        H  821   4.083   2.581   1.986
    1C        H  822   4.271   2.719   1.978
    1C        H  823   4.365   2.944   1.977
    1C        H  824   4.583   3.316   1.972
    1C        H  825   4.524   3.522   1.960
    1C        H  826   4.513   3.758   1.959
    1C        H  827   3.817   4.564   1.974
    1C        H  828   3.963   4.376   1.946
    1C        H  829   4.192   4.307   1.961
    1C        H  830   4.494   3.969   1.963
    1C        H  831   2.661   3.834   1.979
    1C        H  832   2.762   4.041   1.986
    1C        H  833   2.744   4.282   1.961
    1C        H  834   3.347   4.554   1.961
    1C        H  835   3.179   4.373   1.966
    1C        H  836   2.535   3.008   1.990
    1C        H  837   2.394   3.196   2.022
    1C        H  838   2.468   3.689   1.978
    2V3OU   H29  839   2.801   3.552   6.204
    2V3OU   C27  840   2.784   3.505   6.305
    2V3OU   H27  841   2.723   3.573   6.370
    2V3OU   H28  842   2.732   3.406   6.301
    2V3OU   O11  843   2.910   3.482   6.368
    2V3OU   C15  844   2.925   3.400   6.478
    2V3OU   C13  845   3.057   3.378   6.523
    2V3OU   C14  846   3.080   3.268   6.607
    2V3OU   C16  847   2.973   3.192   6.651
    2V3OU    H6  848   3.000   3.108   6.716
    2V3OU   C12  849   3.219   3.224   6.632
    2V3OU    O2  850   3.236   3.136   6.719
    2V3OU   C10  851   3.329   3.312   6.588
    2V3OU    C8  852   3.460   3.270   6.608
    2V3OU   O10  853   3.493   3.157   6.676
    2V3OU   H26  854   3.409   3.121   6.708
    2V3OU    C6  855   3.565   3.355   6.560
    2V3OU    C5  856   3.542   3.475   6.494
    2V3OU    C4  857   3.703   3.298   6.562
    2V3OU    H4  858   3.728   3.233   6.651
    2V3OU    H5  859   3.711   3.227   6.475
    2V3OU    C2  860   3.816   3.401   6.552
    2V3OU    O6  861   3.807   3.477   6.673
    2V3OU   H21  862   3.768   3.559   6.640
    2V3OU    C3  863   3.784   3.496   6.437
    2V3OU    H2  864   3.868   3.569   6.420
    2V3OU    H3  865   3.780   3.436   6.343
    2V3OU   C25  866   3.949   3.328   6.538
    2V3OU    O7  867   4.001   3.300   6.430
    2V3OU   C26  868   4.037   3.296   6.658
    2V3OU   H22  869   4.072   3.388   6.710
    2V3OU   H23  870   4.121   3.229   6.627
    2V3OU    O8  871   3.971   3.216   6.754
    2V3OU   H24  872   3.927   3.271   6.822
    2V3OU    C1  873   3.651   3.568   6.451
    2V3OU    H1  874   3.625   3.619   6.354
    2V3OU    O3  875   3.661   3.660   6.560
    2V3OU   C19  876   3.619   3.796   6.545
    2V3OU    H9  877   3.526   3.796   6.481
    2V3OU    O4  878   3.713   3.850   6.454
    2V3OU   C20  879   3.841   3.882   6.508
    2V3OU   H10  880   3.891   3.782   6.525
    2V3OU   C24  881   3.614   3.856   6.686
    2V3OU   H16  882   3.544   3.794   6.748
    2V3OU   H17  883   3.573   3.958   6.668
    2V3OU   C23  884   3.753   3.880   6.747
    2V3OU   H15  885   3.798   3.778   6.769
    2V3OU    N1  886   3.739   3.960   6.867
    2V3OU   H19  887   3.811   3.922   6.926
    2V3OU   H20  888   3.653   3.935   6.911
    2V3OU   C21  889   3.849   3.949   6.646
    2V3OU   H11  890   3.950   3.919   6.687
    2V3OU    O5  891   3.831   4.089   6.637
    2V3OU   H18  892   3.785   4.111   6.720
    2V3OU   C22  893   3.916   3.955   6.398
    2V3OU   H12  894   3.861   4.049   6.370
    2V3OU   H13  895   3.913   3.897   6.303
    2V3OU   H14  896   4.024   3.960   6.428
    2V3OU   C11  897   3.162   3.474   6.489
    2V3OU    O1  898   3.134   3.586   6.442
    2V3OU    C9  899   3.302   3.429   6.512
    2V3OU    C7  900   3.406   3.509   6.467
    2V3OU    O9  901   3.391   3.612   6.376
    2V3OU   H25  902   3.297   3.633   6.372
    2V3OU   C17  903   2.824   3.316   6.530
    2V3OU    H7  904   2.721   3.344   6.508
    2V3OU   C18  905   2.839   3.210   6.619
    2V3OU    H8  906   2.755   3.156   6.666
    3SOL     OW  907   2.958   3.483   4.473
    3SOL    HW1  908   2.916   3.563   4.429
    3SOL    HW2  909   3.039   3.512   4.524
    4SOL     OW  910   0.880   0.195   0.607
    4SOL    HW1  911   0.962   0.161   0.560
    4SOL    HW2  912   0.904   0.275   0.662
    5SOL     OW  913   4.163   1.912   0.962
    5SOL    HW1  914   4.196   2.002   0.988
    5SOL    HW2  915   4.168   1.902   0.863
    6SOL     OW  916   3.574   1.614   2.434
    6SOL    HW1  917   3.483   1.575   2.416
    6SOL    HW2  918   3.623   1.556   2.499
    7SOL     OW  919   2.236   2.890   4.857
    7SOL    HW1  920   2.230   2.790   4.847
    7SOL    HW2  921   2.296   2.911   4.934
    8SOL     OW  922   1.145   1.996   6.034
    8SOL    HW1  923   1.158   2.019   5.937
    8SOL    HW2  924   1.056   1.952   6.046
    9SOL     OW  925   2.213   2.084   5.971
    9SOL    HW1  926   2.193   2.125   6.059
    9SOL    HW2  927   2.284   2.014   5.982
   10SOL     OW  928   5.594   5.120   0.978
   10SOL    HW1  929   5.630   5.213   0.974
   10SOL    HW2  930   5.643   5.063   0.912
   11SOL     OW  931   3.562   1.598   0.309
   11SOL    HW1  932   3.531   1.521   0.363
   11SOL    HW2  933   3.499   1.675   0.320
   12SOL     OW  934   5.396   4.635   1.218
   12SOL    HW1  935   5.440   4.687   1.291
   12SOL    HW2  936   5.298   4.656   1.216
   13SOL     OW  937   4.758   5.492   1.741
   13SOL    HW1  938   4.682   5.427   1.738
   13SOL    HW2  939   4.840   5.449   1.705
   14SOL     OW  940   4.024   5.672   1.075
   14SOL    HW1  941   3.955   5.654   1.004
   14SOL    HW2  942   4.062   5.763   1.061
   15SOL     OW  943   1.053   6.960   6.807
   15SOL    HW1  944   1.106   6.943   6.724
   15SOL    HW2  945   1.100   7.029   6.863
   16SOL     OW  946   1.974   5.219   5.265
   16SOL    HW1  947   1.889   5.178   5.296
   16SOL    HW2  948   2.039   5.147   5.242
   17SOL     OW  949   0.164   2.036   4.091
   17SOL    HW1  950   0.236   2.045   4.022
   17SOL    HW2  951   0.074   2.042   4.047
   18SOL     OW  952   2.776   0.868   5.634
   18SOL    HW1  953   2.799   0.871   5.537
   18SOL    HW2  954   2.707   0.937   5.654
   19SOL     OW  955   3.460   5.745   3.406
   19SOL    HW1  956   3.485   5.648   3.399
   19SOL    HW2  957   3.419   5.775   3.320
   20SOL     OW  958   0.163   1.775   5.145
   20SOL    HW1  959   0.153   1.713   5.067
   20SOL    HW2  960   0.084   1.837   5.147
   21SOL     OW  961   1.229   3.565   1.921
   21SOL    HW1  962   1.249   3.657   1.955
   21SOL    HW2  963   1.223   3.502   1.999
   22SOL     OW  964   0.495   1.209   0.223
   22SOL    HW1  965   0.488   1.159   0.309
   22SOL    HW2  966   0.552   1.290   0.235
   23SOL     OW  967   6.987   5.110   7.026
   23SOL    HW1  968   0.037   5.058   0.030
   23SOL    HW2  969   6.908   5.088   0.053
   24SOL     OW  970   5.098   0.790   0.362
   24SOL    HW1  971   5.137   0.734   0.288
   24SOL    HW2  972   5.147   0.877   0.368
   25SOL     OW  973   1.103   0.846   5.019
   25SOL    HW1  974   1.047   0.913   5.067
   25SOL    HW2  975   1.067   0.754   5.037
   26SOL     OW  976   1.943   6.774   5.901
   26SOL    HW1  977   1.921   6.799   5.995
   26SOL    HW2  978   2.015   6.705   5.900
   27SOL     OW  979   0.129   6.858   2.497
   27SOL    HW1  980   0.149   6.772   2.448
   27SOL    HW2  981   0.089   6.924   2.434
   28SOL     OW  982   1.637   0.573   5.152
   28SOL    HW1  983   1.737   0.567   5.143
   28SOL    HW2  984   1.604   0.493   5.203
   29SOL     OW  985   5.625   1.008   1.529
   29SOL    HW1  986   5.595   1.094   1.570
   29SOL    HW2  987   5.725   1.005   1.527
   30SOL     OW  988   4.411   6.946   4.361
   30SOL    HW1  989   4.406   6.942   4.461
   30SOL    HW2  990   4.399   0.011   4.330
   31SOL     OW  991   6.041   4.479   4.531
   31SOL    HW1  992   5.988   4.500   4.613
   31SOL    HW2  993   5.979   4.464   4.454
   32SOL     OW  994   3.263   1.392   1.034
   32SOL    HW1  995   3.347   1.369   0.985
   32SOL    HW2  996   3.213   1.309   1.057
   33SOL     OW  997   1.755   4.281   5.916
   33SOL    HW1  998   1.749   4.232   5.829
   33SOL    HW2  999   1.811   4.229   5.980
   34SOL     OW 1000   2.407   6.400   5.515
   34SOL    HW1 1001   2.317   6.358   5.531
   34SOL    HW2 1002   2.406   6.493   5.553
   35SOL     OW 1003   1.983   2.738   4.632
   35SOL    HW1 1004   2.041   2.814   4.604
   35SOL    HW2 1005   1.913   2.722   4.563
   36SOL     OW 1006   5.495   1.150   4.403
   36SOL    HW1 1007   5.562   1.186   4.469
   36SOL    HW2 1008   5.451   1.227   4.356
   37SOL     OW 1009   1.998   6.603   4.214
   37SOL    HW1 1010   1.935   6.590   4.138
   37SOL    HW2 1011   1.952   6.652   4.288
   38SOL     OW 1012   1.166   3.644   1.373
   38SOL    HW1 1013   1.134   3.697   1.451
   38SOL    HW2 1014   1.247   3.591   1.399
   39SOL     OW 1015   6.794   5.435   1.588
   39SOL    HW1 1016   6.759   5.347   1.556
   39SOL    HW2 1017   6.799   5.499   1.511
   40SOL     OW 1018   4.010   0.451   6.807
   40SOL    HW1 1019   3.930   0.394   6.825
   40SOL    HW2 1020   4.029   0.452   6.708
   41SOL     OW 1021   6.208   3.434   1.736
   41SOL    HW1 1022   6.136   3.395   1.679
   41SOL    HW2 1023   6.266   3.360   1.771
   42SOL     OW 1024   2.436   3.839   0.655
   42SOL    HW1 1025   2.502   3.912   0.635
   42SOL    HW2 1026   2.485   3.753   0.670
   43SOL     OW 1027   4.888   0.660   3.496
   43SOL    HW1 1028   4.914   0.608   3.414
   43SOL    HW2 1029   4.830   0.602   3.555
   44SOL     OW 1030   7.014   0.560   0.045
   44SOL    HW1 1031   0.023   0.514   0.125
   44SOL    HW2 1032   6.940   0.505   0.007
   45SOL     OW 1033   2.480   3.715   5.751
   45SOL    HW1 1034   2.489   3.617   5.735
   45SOL    HW2 1035   2.570   3.754   5.769
   46SOL     OW 1036   1.306   4.387   4.505
   46SOL    HW1 1037   1.326   4.316   4.572
   46SOL    HW2 1038   1.372   4.462   4.516
   47SOL     OW 1039   0.010   4.261   6.725
   47SOL    HW1 1040   7.002   4.190   6.785
   47SOL    HW2 1041   6.971   4.334   6.713
   48SOL     OW 1042   0.848   4.070   0.178
   48SOL    HW1 1043   0.887   3.978   0.183
   48SOL    HW2 1044   0.896   4.130   0.242
   49SOL     OW 1045   2.818   1.162   6.780
   49SOL    HW1 1046   2.767   1.132   6.861
   49SOL    HW2 1047   2.890   1.096   6.760
   50SOL     OW 1048   5.047   1.974   5.774
   50SOL    HW1 1049   5.138   2.014   5.781
   50SOL    HW2 1050   5.047   1.883   5.816
   51SOL     OW 1051   1.692   6.487   2.183
   51SOL    HW1 1052   1.648   6.398   2.166
   51SOL    HW2 1053   1.758   6.477   2.257
   52SOL     OW 1054   5.608   2.750   2.878
   52SOL    HW1 1055   5.630   2.771   2.973
   52SOL    HW2 1056   5.681   2.694   2.839
   53SOL     OW 1057   4.350   0.155   0.822
   53SOL    HW1 1058   4.398   0.228   0.870
   53SOL    HW2 1059   4.365   0.068   0.870
   54SOL     OW 1060   0.340   1.424   6.137
   54SOL    HW1 1061   0.388   1.439   6.224
   54SOL    HW2 1062   0.406   1.396   6.068
   55SOL     OW 1063   2.061   3.081   6.972
   55SOL    HW1 1064   2.098   3.044   0.028
   55SOL    HW2 1065   2.121   3.055   6.896
   56SOL     OW 1066   0.921   2.194   6.636
   56SOL    HW1 1067   0.908   2.286   6.673
   56SOL    HW2 1068   0.847   2.135   6.667
   57SOL     OW 1069   3.887   5.332   1.355
   57SOL    HW1 1070   3.942   5.410   1.327
   57SOL    HW2 1071   3.859   5.280   1.274
   58SOL     OW 1072   0.526   1.041   0.003
   58SOL    HW1 1073   0.514   1.079   0.094
   58SOL    HW2 1074   0.512   0.942   0.006
   59SOL     OW 1075   3.957   2.901   6.993
   59SOL    HW1 1076   4.045   2.853   6.984
   59SOL    HW2 1077   3.974   3.000   6.997
   60SOL     OW 1078   6.520   2.657   2.546
   60SOL    HW1 1079   6.553   2.655   2.641
   60SOL    HW2 1080   6.466   2.574   2.529
   61SOL     OW 1081   1.806   5.572   2.755
   61SOL    HW1 1082   1.710   5.554   2.776
   61SOL    HW2 1083   1.821   5.560   2.657
   62SOL     OW 1084   4.979   3.002   3.468
   62SOL    HW1 1085   4.974   3.031   3.564
   62SOL    HW2 1086   4.898   2.948   3.445
   63SOL     OW 1087   3.649   7.005   6.339
   63SOL    HW1 1088   3.687   6.948   6.411
   63SOL    HW2 1089   3.646   6.954   6.253
   64SOL     OW 1090   1.963   2.113   6.822
   64SOL    HW1 1091   2.017   2.056   6.760
   64SOL    HW2 1092   2.016   2.193   6.849
   65SOL     OW 1093   0.592   5.377   5.151
   65SOL    HW1 1094   0.526   5.434   5.101
   65SOL    HW2 1095   0.679   5.378   5.103
   66SOL     OW 1096   4.138   1.105   1.177
   66SOL    HW1 1097   4.115   1.193   1.218
   66SOL    HW2 1098   4.123   1.109   1.078
   67SOL     OW 1099   0.175   3.260   1.886
   67SOL    HW1 1100   0.083   3.225   1.866
   67SOL    HW2 1101   0.168   3.355   1.915
   68SOL     OW 1102   0.988   1.242   6.328
   68SOL    HW1 1103   1.012   1.186   6.407
   68SOL    HW2 1104   0.918   1.195   6.274
   69SOL     OW 1105   1.933   0.361   6.275
   69SOL    HW1 1106   1.840   0.387   6.303
   69SOL    HW2 1107   1.953   0.401   6.186
   70SOL     OW 1108   4.598   5.308   3.396
   70SOL    HW1 1109   4.524   5.369   3.370
   70SOL    HW2 1110   4.614   5.242   3.323
   71SOL     OW 1111   5.460   0.539   5.073
   71SOL    HW1 1112   5.463   0.567   5.169
   71SOL    HW2 1113   5.546   0.564   5.029
   72SOL     OW 1114   6.641   1.257   2.570
   72SOL    HW1 1115   6.586   1.275   2.651
   72SOL    HW2 1116   6.683   1.167   2.577
   73SOL     OW 1117   3.045   1.067   0.903
   73SOL    HW1 1118   3.030   0.968   0.900
   73SOL    HW2 1119   2.993   1.111   0.830
   74SOL     OW 1120   2.699   0.641   0.406
   74SOL    HW1 1121   2.798   0.638   0.411
   74SOL    HW2 1122   2.671   0.675   0.317
   75SOL     OW 1123   2.562   2.596   1.719
   75SOL    HW1 1124   2.531   2.525   1.655
   75SOL    HW2 1125   2.636   2.559   1.776
   76SOL     OW 1126   3.291   5.097   6.623
   76SOL    HW1 1127   3.206   5.064   6.581
   76SOL    HW2 1128   3.333   5.023   6.676
   77SOL     OW 1129   7.015   4.951   4.764
   77SOL    HW1 1130   6.987   4.928   4.670
   77SOL    HW2 1131   0.001   5.050   4.771
   78SOL     OW 1132   5.365   0.949   1.455
   78SOL    HW1 1133   5.313   0.905   1.529
   78SOL    HW2 1134   5.454   0.977   1.489
   79SOL     OW 1135   1.719   4.160   3.869
   79SOL    HW1 1136   1.621   4.157   3.849
   79SOL    HW2 1137   1.733   4.185   3.964
   80SOL     OW 1138   3.872   2.322   5.262
   80SOL    HW1 1139   3.843   2.417   5.280
   80SOL    HW2 1140   3.813   2.259   5.313
   81SOL     OW 1141   2.670   4.899   3.397
   81SOL    HW1 1142   2.661   4.986   3.447
   81SOL    HW2 1143   2.675   4.823   3.462
   82SOL     OW 1144   2.781   0.684   1.688
   82SOL    HW1 1145   2.825   0.761   1.641
   82SOL    HW2 1146   2.826   0.668   1.776
   83SOL     OW 1147   5.846   2.378   3.618
   83SOL    HW1 1148   5.786   2.347   3.691
   83SOL    HW2 1149   5.804   2.359   3.529
   84SOL     OW 1150   5.107   2.400   2.721
   84SOL    HW1 1151   5.075   2.485   2.678
   84SOL    HW2 1152   5.199   2.378   2.686
   85SOL     OW 1153   2.494   5.524   3.590
   85SOL    HW1 1154   2.581   5.525   3.539
   85SOL    HW2 1155   2.477   5.615   3.628
   86SOL     OW 1156   4.729   0.749   0.061
   86SOL    HW1 1157   4.804   0.683   0.065
   86SOL    HW2 1158   4.758   0.836   0.100
   87SOL     OW 1159   2.834   2.778   6.680
   87SOL    HW1 1160   2.831   2.679   6.694
   87SOL    HW2 1161   2.929   2.809   6.673
   88SOL     OW 1162   1.625   2.077   1.479
   88SOL    HW1 1163   1.558   2.122   1.420
   88SOL    HW2 1164   1.686   2.146   1.519
   89SOL     OW 1165   3.938   3.464   4.862
   89SOL    HW1 1166   3.967   3.370   4.878
   89SOL    HW2 1167   4.016   3.526   4.871
   90SOL     OW 1168   6.745   3.731   2.346
   90SOL    HW1 1169   6.674   3.660   2.352
   90SOL    HW2 1170   6.705   3.815   2.312
   91SOL     OW 1171   4.756   5.136   0.523
   91SOL    HW1 1172   4.844   5.178   0.543
   91SOL    HW2 1173   4.682   5.194   0.558
   92SOL     OW 1174   6.027   6.052   6.461
   92SOL    HW1 1175   5.955   6.115   6.432
   92SOL    HW2 1176   6.068   6.085   6.546
   93SOL     OW 1177   2.989   3.900   1.608
   93SOL    HW1 1178   2.922   3.863   1.673
   93SOL    HW2 1179   2.982   3.850   1.522
   94SOL     OW 1180   3.259   1.081   4.457
   94SOL    HW1 1181   3.185   1.021   4.428
   94SOL    HW2 1182   3.246   1.171   4.415
   95SOL     OW 1183   0.924   6.515   4.617
   95SOL    HW1 1184   0.978   6.553   4.692
   95SOL    HW2 1185   0.943   6.418   4.608
   96SOL     OW 1186   7.003   6.403   6.729
   96SOL    HW1 1187   7.004   6.499   6.700
   96SOL    HW2 1188   0.029   6.349   6.665
   97SOL     OW 1189   3.809   5.348   4.636
   97SOL    HW1 1190   3.901   5.384   4.654
   97SOL    HW2 1191   3.771   5.394   4.556
   98SOL     OW 1192   0.412   2.648   4.732
   98SOL    HW1 1193   0.369   2.588   4.799
   98SOL    HW2 1194   0.447   2.730   4.778
   99SOL     OW 1195   4.512   4.563   4.628
   99SOL    HW1 1196   4.545   4.616   4.550
   99SOL    HW2 1197   4.412   4.556   4.624
  100SOL     OW 1198   1.439   1.817   4.996
  100SOL    HW1 1199   1.454   1.778   4.905
  100SOL    HW2 1200   1.523   1.812   5.050
  101SOL     OW 1201   5.200   3.017   2.491
  101SOL    HW1 1202   5.218   2.975   2.402
  101SOL    HW2 1203   5.177   3.114   2.477
  102SOL     OW 1204   4.146   6.263   0.647
  102SOL    HW1 1205   4.187   6.351   0.621
  102SOL    HW2 1206   4.217   6.203   0.684
  103SOL     OW 1207   1.997   2.251   1.013
  103SOL    HW1 1208   2.048   2.334   0.992
  103SOL    HW2 1209   1.920   2.274   1.073
  104SOL     OW 1210   0.519   4.109   1.488
  104SOL    HW1 1211   0.563   4.158   1.564
  104SOL    HW2 1212   0.563   4.136   1.402
  105SOL     OW 1213   6.678   2.004   5.005
  105SOL    HW1 1214   6.727   2.070   4.948
  105SOL    HW2 1215   6.690   2.028   5.102
  106SOL     OW 1216   4.606   3.637   1.655
  106SOL    HW1 1217   4.565   3.581   1.583
  106SOL    HW2 1218   4.662   3.709   1.613
  107SOL     OW 1219   4.551   0.061   2.068
  107SOL    HW1 1220   4.541   0.141   2.008
  107SOL    HW2 1221   4.545   0.091   2.163
  108SOL     OW 1222   3.275   1.420   4.906
  108SOL    HW1 1223   3.331   1.381   4.979
  108SOL    HW2 1224   3.294   1.518   4.898
  109SOL     OW 1225   2.463   1.740   5.274
  109SOL    HW1 1226   2.524   1.805   5.319
  109SOL    HW2 1227   2.516   1.673   5.223
  110SOL     OW 1228   4.171   4.748   5.395
  110SOL    HW1 1229   4.169   4.661   5.445
  110SOL    HW2 1230   4.102   4.810   5.433
  111SOL     OW 1231   6.695   3.456   1.122
  111SOL    HW1 1232   6.793   3.454   1.142
  111SOL    HW2 1233   6.644   3.465   1.207
  112SOL     OW 1234   4.203   6.673   4.807
  112SOL    HW1 1235   4.182   6.737   4.881
  112SOL    HW2 1236   4.223   6.583   4.846
  113SOL     OW 1237   1.372   5.238   2.417
  113SOL    HW1 1238   1.290   5.265   2.366
  113SOL    HW2 1239   1.449   5.297   2.389
  114SOL     OW 1240   0.104   2.025   1.568
  114SOL    HW1 1241   0.064   2.043   1.658
  114SOL    HW2 1242   0.155   1.939   1.571
  115SOL     OW 1243   4.439   1.447   3.033
  115SOL    HW1 1244   4.379   1.372   3.007
  115SOL    HW2 1245   4.534   1.415   3.032
  116SOL     OW 1246   5.795   5.930   0.067
  116SOL    HW1 1247   5.855   5.986   0.010
  116SOL    HW2 1248   5.736   5.874   0.009
  117SOL     OW 1249   2.357   1.199   0.689
  117SOL    HW1 1250   2.271   1.183   0.641
  117SOL    HW2 1251   2.360   1.145   0.772
  118SOL     OW 1252   1.236   2.111   2.141
  118SOL    HW1 1253   1.168   2.177   2.174
  118SOL    HW2 1254   1.320   2.160   2.117
  119SOL     OW 1255   5.348   5.347   5.319
  119SOL    HW1 1256   5.389   5.403   5.247
  119SOL    HW2 1257   5.293   5.405   5.380
  120SOL     OW 1258   4.561   1.633   4.569
  120SOL    HW1 1259   4.581   1.684   4.653
  120SOL    HW2 1260   4.637   1.572   4.548
  121SOL     OW 1261   0.163   5.150   6.122
  121SOL    HW1 1262   0.096   5.208   6.075
  121SOL    HW2 1263   0.224   5.109   6.054
  122SOL     OW 1264   0.473   4.550   5.795
  122SOL    HW1 1265   0.494   4.466   5.846
  122SOL    HW2 1266   0.449   4.622   5.860
  123SOL     OW 1267   0.864   2.818   1.062
  123SOL    HW1 1268   0.940   2.785   1.119
  123SOL    HW2 1269   0.789   2.752   1.066
  124SOL     OW 1270   2.297   3.662   0.129
  124SOL    HW1 1271   2.344   3.657   0.217
  124SOL    HW2 1272   2.259   3.573   0.107
  125SOL     OW 1273   4.358   2.505   0.011
  125SOL    HW1 1274   4.372   2.574   0.082
  125SOL    HW2 1275   4.275   2.528   6.988
  126SOL     OW 1276   3.666   3.263   4.910
  126SOL    HW1 1277   3.673   3.247   4.812
  126SOL    HW2 1278   3.607   3.193   4.952
  127SOL     OW 1279   0.185   4.784   5.753
  127SOL    HW1 1280   0.100   4.779   5.702
  127SOL    HW2 1281   0.236   4.699   5.742
  128SOL     OW 1282   4.766   4.452   5.800
  128SOL    HW1 1283   4.822   4.410   5.871
  128SOL    HW2 1284   4.802   4.428   5.710
  129SOL     OW 1285   1.170   5.462   1.848
  129SOL    HW1 1286   1.224   5.406   1.912
  129SOL    HW2 1287   1.221   5.546   1.827
  130SOL     OW 1288   6.777   3.501   4.891
  130SOL    HW1 1289   6.791   3.588   4.842
  130SOL    HW2 1290   6.736   3.520   4.980
  131SOL     OW 1291   0.725   3.584   2.567
  131SOL    HW1 1292   0.664   3.505   2.567
  131SOL    HW2 1293   0.697   3.648   2.495
  132SOL     OW 1294   4.117   3.306   1.888
  132SOL    HW1 1295   4.067   3.287   1.973
  132SOL    HW2 1296   4.142   3.220   1.844
  133SOL     OW 1297   4.136   4.504   5.521
  133SOL    HW1 1298   4.078   4.510   5.602
  133SOL    HW2 1299   4.170   4.411   5.510
  134SOL     OW 1300   6.576   1.885   6.735
  134SOL    HW1 1301   6.497   1.858   6.790
  134SOL    HW2 1302   6.650   1.915   6.796
  135SOL     OW 1303   5.008   5.466   3.636
  135SOL    HW1 1304   5.083   5.402   3.649
  135SOL    HW2 1305   4.958   5.442   3.553
  136SOL     OW 1306   3.964   6.351   5.913
  136SOL    HW1 1307   3.946   6.407   5.994
  136SOL    HW2 1308   3.888   6.358   5.849
  137SOL     OW 1309   2.100   4.642   0.266
  137SOL    HW1 1310   2.190   4.614   0.300
  137SOL    HW2 1311   2.028   4.594   0.318
  138SOL     OW 1312   0.772   5.367   0.913
  138SOL    HW1 1313   0.792   5.281   0.866
  138SOL    HW2 1314   0.677   5.366   0.945
  139SOL     OW 1315   1.047   0.558   1.248
  139SOL    HW1 1316   1.075   0.520   1.159
  139SOL    HW2 1317   1.090   0.648   1.260
  140SOL     OW 1318   2.855   0.048   2.117
  140SOL    HW1 1319   2.755   0.052   2.112
  140SOL    HW2 1320   2.894   0.083   2.032
  141SOL     OW 1321   2.173   1.744   6.973
  141SOL    HW1 1322   2.089   1.791   7.001
  141SOL    HW2 1323   2.234   1.809   6.928
  142SOL     OW 1324   1.984   4.025   6.351
  142SOL    HW1 1325   1.944   4.049   6.439
  142SOL    HW2 1326   2.073   3.980   6.366
  143SOL     OW 1327   5.522   5.965   2.084
  143SOL    HW1 1328   5.588   5.997   2.016
  143SOL    HW2 1329   5.559   5.886   2.133
  144SOL     OW 1330   1.941   5.293   3.225
  144SOL    HW1 1331   1.923   5.342   3.311
  144SOL    HW2 1332   1.884   5.211   3.222
  145SOL     OW 1333   6.958   6.020   3.126
  145SOL    HW1 1334   6.929   5.928   3.098
  145SOL    HW2 1335   6.884   6.085   3.108
  146SOL     OW 1336   6.992   0.650   5.321
  146SOL    HW1 1337   7.003   0.620   5.416
  146SOL    HW2 1338   0.047   0.696   5.291
  147SOL     OW 1339   5.826   0.239   4.626
  147SOL    HW1 1340   5.926   0.241   4.617
  147SOL    HW2 1341   5.801   0.195   4.713
  148SOL     OW 1342   1.478   6.759   2.758
  148SOL    HW1 1343   1.503   6.843   2.709
  148SOL    HW2 1344   1.426   6.782   2.840
  149SOL     OW 1345   2.115   2.268   5.194
  149SOL    HW1 1346   2.136   2.280   5.097
  149SOL    HW2 1347   2.190   2.218   5.238
  150SOL     OW 1348   5.434   2.946   5.243
  150SOL    HW1 1349   5.438   3.017   5.172
  150SOL    HW2 1350   5.413   2.989   5.331
  151SOL     OW 1351   5.726   3.102   1.808
  151SOL    HW1 1352   5.787   3.025   1.792
  151SOL    HW2 1353   5.728   3.127   1.905
  152SOL     OW 1354   6.741   2.658   0.631
  152SOL    HW1 1355   6.699   2.731   0.577
  152SOL    HW2 1356   6.839   2.653   0.611
  153SOL     OW 1357   2.158   1.772   4.176
  153SOL    HW1 1358   2.120   1.761   4.083
  153SOL    HW2 1359   2.084   1.800   4.238
  154SOL     OW 1360   0.119   0.876   4.148
  154SOL    HW1 1361   0.082   0.875   4.241
  154SOL    HW2 1362   0.180   0.798   4.135
  155SOL     OW 1363   5.716   5.035   3.223
  155SOL    HW1 1364   5.690   4.990   3.137
  155SOL    HW2 1365   5.675   4.986   3.300
  156SOL     OW 1366   4.205   0.395   1.334
  156SOL    HW1 1367   4.284   0.436   1.289
  156SOL    HW2 1368   4.128   0.459   1.330
  157SOL     OW 1369   5.712   7.023   0.743
  157SOL    HW1 1370   5.673   6.931   0.736
  157SOL    HW2 1371   5.639   0.059   0.763
  158SOL     OW 1372   1.113   2.830   5.395
  158SOL    HW1 1373   1.123   2.829   5.494
  158SOL    HW2 1374   1.185   2.886   5.355
  159SOL     OW 1375   6.837   4.483   6.570
  159SOL    HW1 1376   6.795   4.400   6.533
  159SOL    HW2 1377   6.909   4.515   6.510
  160SOL     OW 1378   4.083   0.042   1.581
  160SOL    HW1 1379   4.032   0.074   1.501
  160SOL    HW2 1380   4.023   0.044   1.662
  161SOL     OW 1381   6.138   7.024   0.853
  161SOL    HW1 1382   6.176   6.936   0.882
  161SOL    HW2 1383   6.195   0.033   0.780
  162SOL     OW 1384   4.720   0.159   5.285
  162SOL    HW1 1385   4.680   0.133   5.197
  162SOL    HW2 1386   4.762   0.250   5.277
  163SOL     OW 1387   0.953   3.960   2.664
  163SOL    HW1 1388   1.042   3.914   2.664
  163SOL    HW2 1389   0.881   3.892   2.674
  164SOL     OW 1390   2.076   2.529   3.026
  164SOL    HW1 1391   2.067   2.551   3.123
  164SOL    HW2 1392   2.158   2.474   3.011
  165SOL     OW 1393   0.271   6.112   4.846
  165SOL    HW1 1394   0.291   6.170   4.925
  165SOL    HW2 1395   0.225   6.029   4.877
  166SOL     OW 1396   0.947   4.995   4.305
  166SOL    HW1 1397   0.921   5.067   4.241
  166SOL    HW2 1398   0.971   5.036   4.393
  167SOL     OW 1399   6.902   1.424   3.097
  167SOL    HW1 1400   6.862   1.343   3.053
  167SOL    HW2 1401   6.988   1.399   3.141
  168SOL     OW 1402   3.466   3.940   3.993
  168SOL    HW1 1403   3.549   3.888   3.972
  168SOL    HW2 1404   3.491   4.032   4.024
  169SOL     OW 1405   4.823   2.623   6.167
  169SOL    HW1 1406   4.761   2.547   6.147
  169SOL    HW2 1407   4.815   2.647   6.264
  170SOL     OW 1408   0.231   5.271   2.739
  170SOL    HW1 1409   0.260   5.179   2.713
  170SOL    HW2 1410   0.154   5.299   2.682
  171SOL     OW 1411   3.563   2.798   0.911
  171SOL    HW1 1412   3.646   2.750   0.884
  171SOL    HW2 1413   3.495   2.733   0.943
  172SOL     OW 1414   1.539   1.012   0.076
  172SOL    HW1 1415   1.504   1.071   0.148
  172SOL    HW2 1416   1.468   0.947   0.048
  173SOL     OW 1417   6.031   0.496   4.982
  173SOL    HW1 1418   6.073   0.461   5.066
  173SOL    HW2 1419   5.938   0.463   4.974
  174SOL     OW 1420   6.795   3.770   4.786
  174SOL    HW1 1421   6.711   3.814   4.818
  174SOL    HW2 1422   6.803   3.783   4.687
  175SOL     OW 1423   0.784   5.268   2.646
  175SOL    HW1 1424   0.750   5.361   2.627
  175SOL    HW2 1425   0.884   5.268   2.642
  176SOL     OW 1426   6.102   4.330   1.014
  176SOL    HW1 1427   6.058   4.271   1.082
  176SOL    HW2 1428   6.107   4.423   1.049
  177SOL     OW 1429   5.743   2.933   3.410
  177SOL    HW1 1430   5.799   3.010   3.440
  177SOL    HW2 1431   5.779   2.848   3.448
  178SOL     OW 1432   1.482   5.619   4.854
  178SOL    HW1 1433   1.472   5.672   4.939
  178SOL    HW2 1434   1.492   5.522   4.876
  179SOL     OW 1435   3.568   4.159   1.937
  179SOL    HW1 1436   3.606   4.224   1.871
  179SOL    HW2 1437   3.488   4.198   1.980
  180SOL     OW 1438   4.579   0.904   6.264
  180SOL    HW1 1439   4.593   0.942   6.356
  180SOL    HW2 1440   4.561   0.979   6.200
  181SOL     OW 1441   3.806   0.383   5.541
  181SOL    HW1 1442   3.731   0.417   5.599
  181SOL    HW2 1443   3.893   0.402   5.585
  182SOL     OW 1444   3.141   2.897   5.733
  182SOL    HW1 1445   3.216   2.868   5.673
  182SOL    HW2 1446   3.059   2.913   5.677
  183SOL     OW 1447   2.567   1.128   3.281
  183SOL    HW1 1448   2.574   1.094   3.187
  183SOL    HW2 1449   2.528   1.057   3.340
  184SOL     OW 1450   5.136   6.425   3.305
  184SOL    HW1 1451   5.130   6.335   3.262
  184SOL    HW2 1452   5.059   6.481   3.274
  185SOL     OW 1453   0.419   6.294   5.340
  185SOL    HW1 1454   0.346   6.226   5.334
  185SOL    HW2 1455   0.387   6.372   5.394
  186SOL     OW 1456   3.163   5.684   6.575
  186SOL    HW1 1457   3.141   5.601   6.524
  186SOL    HW2 1458   3.190   5.661   6.668
  187SOL     OW 1459   3.425   5.182   0.341
  187SOL    HW1 1460   3.363   5.103   0.338
  187SOL    HW2 1461   3.446   5.212   0.249
  188SOL     OW 1462   1.735   4.233   4.119
  188SOL    HW1 1463   1.822   4.265   4.157
  188SOL    HW2 1464   1.660   4.267   4.176
  189SOL     OW 1465   6.209   4.377   6.232
  189SOL    HW1 1466   6.162   4.364   6.320
  189SOL    HW2 1467   6.205   4.292   6.180
  190SOL     OW 1468   5.997   6.392   7.007
  190SOL    HW1 1469   6.059   6.369   6.931
  190SOL    HW2 1470   6.044   6.453   0.042
  191SOL     OW 1471   2.083   3.403   6.035
  191SOL    HW1 1472   2.133   3.319   6.058
  191SOL    HW2 1473   2.093   3.422   5.938
  192SOL     OW 1474   0.870   0.078   1.206
  192SOL    HW1 1475   0.888   0.110   1.113
  192SOL    HW2 1476   0.825   0.149   1.259
  193SOL     OW 1477   3.359   6.795   1.583
  193SOL    HW1 1478   3.302   6.877   1.570
  193SOL    HW2 1479   3.455   6.819   1.573
  194SOL     OW 1480   4.275   6.259   3.020
  194SOL    HW1 1481   4.205   6.281   2.952
  194SOL    HW2 1482   4.266   6.320   3.099
  195SOL     OW 1483   3.316   1.010   1.314
  195SOL    HW1 1484   3.412   0.991   1.292
  195SOL    HW2 1485   3.310   1.095   1.366
  196SOL     OW 1486   4.044   2.782   1.013
  196SOL    HW1 1487   4.054   2.849   1.086
  196SOL    HW2 1488   4.018   2.694   1.052
  197SOL     OW 1489   1.405   5.750   1.270
  197SOL    HW1 1490   1.358   5.831   1.305
  197SOL    HW2 1491   1.419   5.760   1.171
  198SOL     OW 1492   6.259   6.941   5.861
  198SOL    HW1 1493   6.206   6.868   5.906
  198SOL    HW2 1494   6.331   6.972   5.923
  199SOL     OW 1495   1.692   0.965   3.349
  199SOL    HW1 1496   1.698   0.909   3.267
  199SOL    HW2 1497   1.688   1.061   3.324
  200SOL     OW 1498   1.614   3.848   3.733
  200SOL    HW1 1499   1.701   3.803   3.710
  200SOL    HW2 1500   1.602   3.849   3.832
  201SOL     OW 1501   5.082   0.882   0.068
  201SOL    HW1 1502   5.011   0.920   0.127
  201SOL    HW2 1503   5.058   0.789   0.040
  202SOL     OW 1504   4.263   0.551   2.778
  202SOL    HW1 1505   4.252   0.619   2.707
  202SOL    HW2 1506   4.329   0.482   2.749
  203SOL     OW 1507   5.969   3.005   0.480
  203SOL    HW1 1508   6.047   2.948   0.505
  203SOL    HW2 1509   5.933   3.050   0.562
  204SOL     OW 1510   2.457   5.745   0.609
  204SOL    HW1 1511   2.442   5.830   0.658
  204SOL    HW2 1512   2.549   5.712   0.627
  205SOL     OW 1513   5.489   0.621   1.359
  205SOL    HW1 1514   5.506   0.711   1.319
  205SOL    HW2 1515   5.475   0.554   1.286
  206SOL     OW 1516   0.052   6.081   0.895
  206SOL    HW1 1517   0.072   6.092   0.992
  206SOL    HW2 1518   6.984   6.063   0.882
  207SOL     OW 1519   6.347   2.509   5.892
  207SOL    HW1 1520   6.293   2.544   5.969
  207SOL    HW2 1521   6.429   2.464   5.927
  208SOL     OW 1522   4.299   3.746   0.425
  208SOL    HW1 1523   4.316   3.659   0.471
  208SOL    HW2 1524   4.348   3.749   0.338
  209SOL     OW 1525   6.783   0.138   4.266
  209SOL    HW1 1526   6.868   0.087   4.278
  209SOL    HW2 1527   6.708   0.088   4.308
  210SOL     OW 1528   4.319   1.860   0.700
  210SOL    HW1 1529   4.344   1.792   0.768
  210SOL    HW2 1530   4.219   1.867   0.694
  211SOL     OW 1531   0.206   3.745   2.497
  211SOL    HW1 1532   0.251   3.672   2.446
  211SOL    HW2 1533   0.271   3.786   2.562
  212SOL     OW 1534   1.631   4.929   5.383
  212SOL    HW1 1535   1.662   4.950   5.290
  212SOL    HW2 1536   1.676   4.845   5.414
  213SOL     OW 1537   4.310   2.664   1.328
  213SOL    HW1 1538   4.366   2.689   1.250
  213SOL    HW2 1539   4.245   2.593   1.302
  214SOL     OW 1540   0.504   5.901   4.074
  214SOL    HW1 1541   0.479   5.925   3.980
  214SOL    HW2 1542   0.601   5.879   4.078
  215SOL     OW 1543   3.608   4.135   3.702
  215SOL    HW1 1544   3.682   4.102   3.644
  215SOL    HW2 1545   3.633   4.121   3.798
  216SOL     OW 1546   3.228   7.026   5.858
  216SOL    HW1 1547   3.259   0.049   5.779
  216SOL    HW2 1548   3.257   0.043   5.942
  217SOL     OW 1549   6.623   2.124   5.281
  217SOL    HW1 1550   6.559   2.201   5.274
  217SOL    HW2 1551   6.716   2.159   5.293
  218SOL     OW 1552   3.171   4.301   5.913
  218SOL    HW1 1553   3.134   4.394   5.907
  218SOL    HW2 1554   3.095   4.235   5.910
  219SOL     OW 1555   3.294   5.920   6.609
  219SOL    HW1 1556   3.238   5.838   6.600
  219SOL    HW2 1557   3.237   5.999   6.633
  220SOL     OW 1558   1.666   5.012   0.031
  220SOL    HW1 1559   1.733   4.944   0.002
  220SOL    HW2 1560   1.591   4.967   0.079
  221SOL     OW 1561   6.210   3.391   4.298
  221SOL    HW1 1562   6.135   3.434   4.349
  221SOL    HW2 1563   6.255   3.323   4.357
  222SOL     OW 1564   1.791   7.001   3.971
  222SOL    HW1 1565   1.888   7.006   3.993
  222SOL    HW2 1566   1.748   6.929   4.025
  223SOL     OW 1567   5.637   5.185   2.431
  223SOL    HW1 1568   5.545   5.223   2.429
  223SOL    HW2 1569   5.704   5.259   2.439
  224SOL     OW 1570   5.183   3.503   3.094
  224SOL    HW1 1571   5.117   3.431   3.115
  224SOL    HW2 1572   5.259   3.498   3.158
  225SOL     OW 1573   4.695   5.916   1.882
  225SOL    HW1 1574   4.744   5.964   1.955
  225SOL    HW2 1575   4.612   5.967   1.858
  226SOL     OW 1576   1.247   5.676   2.556
  226SOL    HW1 1577   1.308   5.719   2.623
  226SOL    HW2 1578   1.260   5.718   2.467
  227SOL     OW 1579   1.047   4.022   3.241
  227SOL    HW1 1580   1.054   3.940   3.184
  227SOL    HW2 1581   1.138   4.054   3.265
  228SOL     OW 1582   4.007   5.921   2.947
  228SOL    HW1 1583   3.941   5.964   2.885
  228SOL    HW2 1584   4.039   5.989   3.013
  229SOL     OW 1585   6.081   6.039   2.623
  229SOL    HW1 1586   6.055   5.965   2.561
  229SOL    HW2 1587   6.039   6.023   2.713
  230SOL     OW 1588   0.980   4.805   5.608
  230SOL    HW1 1589   1.059   4.806   5.670
  230SOL    HW2 1590   0.906   4.752   5.649
  231SOL     OW 1591   0.263   1.729   6.419
  231SOL    HW1 1592   0.325   1.655   6.392
  231SOL    HW2 1593   0.288   1.761   6.511
  232SOL     OW 1594   1.696   3.867   5.923
  232SOL    HW1 1595   1.620   3.931   5.916
  232SOL    HW2 1596   1.724   3.859   6.019
  233SOL     OW 1597   3.295   6.881   0.029
  233SOL    HW1 1598   3.295   6.949   0.103
  233SOL    HW2 1599   3.386   6.876   7.018
  234SOL     OW 1600   1.430   4.790   6.843
  234SOL    HW1 1601   1.448   4.692   6.839
  234SOL    HW2 1602   1.421   4.819   6.938
  235SOL     OW 1603   3.870   3.299   5.993
  235SOL    HW1 1604   3.946   3.364   6.001
  235SOL    HW2 1605   3.896   3.213   6.038
  236SOL     OW 1606   6.942   1.093   6.155
  236SOL    HW1 1607   6.973   1.123   6.065
  236SOL    HW2 1608   7.018   1.098   6.220
  237SOL     OW 1609   6.900   6.756   2.312
  237SOL    HW1 1610   6.888   6.855   2.305
  237SOL    HW2 1611   6.819   6.711   2.273
  238SOL     OW 1612   0.687   2.423   2.934
  238SOL    HW1 1613   0.626   2.407   2.857
  238SOL    HW2 1614   0.752   2.348   2.941
  239SOL     OW 1615   6.349   4.809   0.558
  239SOL    HW1 1616   6.326   4.775   0.467
  239SOL    HW2 1617   6.408   4.889   0.549
  240SOL     OW 1618   0.571   1.844   4.577
  240SOL    HW1 1619   0.574   1.942   4.555
  240SOL    HW2 1620   0.641   1.823   4.645
  241SOL     OW 1621   6.045   2.129   4.739
  241SOL    HW1 1622   6.136   2.094   4.763
  241SOL    HW2 1623   5.997   2.063   4.682
  242SOL     OW 1624   2.938   2.026   3.699
  242SOL    HW1 1625   2.907   1.963   3.770
  242SOL    HW2 1626   2.998   2.095   3.740
  243SOL     OW 1627   4.813   1.384   6.768
  243SOL    HW1 1628   4.720   1.404   6.796
  243SOL    HW2 1629   4.820   1.289   6.739
  244SOL     OW 1630   0.714   1.608   6.201
  244SOL    HW1 1631   0.640   1.643   6.143
  244SOL    HW2 1632   0.793   1.584   6.144
  245SOL     OW 1633   5.264   1.792   3.936
  245SOL    HW1 1634   5.346   1.736   3.949
  245SOL    HW2 1635   5.218   1.766   3.851
  246SOL     OW 1636   5.296   3.480   4.395
  246SOL    HW1 1637   5.355   3.555   4.424
  246SOL    HW2 1638   5.347   3.394   4.401
  247SOL     OW 1639   2.548   0.727   2.907
  247SOL    HW1 1640   2.530   0.649   2.847
  247SOL    HW2 1641   2.645   0.749   2.903
  248SOL     OW 1642   0.345   2.559   3.450
  248SOL    HW1 1643   0.310   2.582   3.359
  248SOL    HW2 1644   0.400   2.636   3.484
  249SOL     OW 1645   2.407   5.735   5.105
  249SOL    HW1 1646   2.354   5.819   5.093
  249SOL    HW2 1647   2.416   5.715   5.203
  250SOL     OW 1648   5.289   2.445   6.773
  250SOL    HW1 1649   5.322   2.526   6.725
  250SOL    HW2 1650   5.305   2.455   6.872
  251SOL     OW 1651   1.858   0.436   1.286
  251SOL    HW1 1652   1.862   0.473   1.193
  251SOL    HW2 1653   1.898   0.344   1.287
  252SOL     OW 1654   6.752   2.491   0.370
  252SOL    HW1 1655   6.826   2.544   0.412
  252SOL    HW2 1656   6.683   2.552   0.332
  253SOL     OW 1657   2.156   4.499   5.815
  253SOL    HW1 1658   2.183   4.461   5.726
  253SOL    HW2 1659   2.191   4.592   5.823
  254SOL     OW 1660   4.828   3.351   6.293
  254SOL    HW1 1661   4.780   3.264   6.298
  254SOL    HW2 1662   4.767   3.421   6.256
  255SOL     OW 1663   4.302   2.297   2.657
  255SOL    HW1 1664   4.226   2.256   2.606
  255SOL    HW2 1665   4.277   2.306   2.753
  256SOL     OW 1666   0.276   6.330   1.167
  256SOL    HW1 1667   0.320   6.292   1.085
  256SOL    HW2 1668   0.347   6.361   1.231
  257SOL     OW 1669   3.350   5.947   6.305
  257SOL    HW1 1670   3.386   5.937   6.397
  257SOL    HW2 1671   3.355   5.860   6.257
  258SOL     OW 1672   4.790   5.100   4.501
  258SOL    HW1 1673   4.754   5.159   4.573
  258SOL    HW2 1674   4.720   5.083   4.433
  259SOL     OW 1675   0.460   1.473   1.990
  259SOL    HW1 1676   0.528   1.514   2.050
  259SOL    HW2 1677   0.489   1.380   1.964
  260SOL     OW 1678   6.791   6.580   5.639
  260SOL    HW1 1679   6.711   6.641   5.644
  260SOL    HW2 1680   6.759   6.485   5.628
  261SOL     OW 1681   0.613   0.886   4.119
  261SOL    HW1 1682   0.536   0.835   4.157
  261SOL    HW2 1683   0.679   0.906   4.191
  262SOL     OW 1684   1.823   5.304   1.179
  262SOL    HW1 1685   1.857   5.370   1.111
  262SOL    HW2 1686   1.894   5.235   1.196
  263SOL     OW 1687   0.656   4.510   4.556
  263SOL    HW1 1688   0.616   4.601   4.568
  263SOL    HW2 1689   0.705   4.484   4.639
  264SOL     OW 1690   3.432   3.405   1.018
  264SOL    HW1 1691   3.525   3.436   1.039
  264SOL    HW2 1692   3.367   3.477   1.042
  265SOL     OW 1693   4.265   5.859   3.855
  265SOL    HW1 1694   4.319   5.806   3.790
  265SOL    HW2 1695   4.270   5.817   3.945
  266SOL     OW 1696   4.448   3.659   6.980
  266SOL    HW1 1697   4.502   3.580   6.953
  266SOL    HW2 1698   4.389   3.687   6.905
  267SOL     OW 1699   2.512   2.408   6.321
  267SOL    HW1 1700   2.602   2.380   6.287
  267SOL    HW2 1701   2.447   2.333   6.308
  268SOL     OW 1702   1.661   3.934   3.470
  268SOL    HW1 1703   1.726   3.989   3.521
  268SOL    HW2 1704   1.603   3.882   3.533
  269SOL     OW 1705   3.411   1.503   5.795
  269SOL    HW1 1706   3.506   1.525   5.774
  269SOL    HW2 1707   3.358   1.588   5.800
  270SOL     OW 1708   5.429   5.488   4.666
  270SOL    HW1 1709   5.391   5.412   4.718
  270SOL    HW2 1710   5.412   5.574   4.714
  271SOL     OW 1711   2.567   1.560   0.163
  271SOL    HW1 1712   2.582   1.602   0.074
  271SOL    HW2 1713   2.570   1.460   0.155
  272SOL     OW 1714   5.658   4.791   6.796
  272SOL    HW1 1715   5.591   4.858   6.762
  272SOL    HW2 1716   5.710   4.832   6.871
  273SOL     OW 1717   0.774   6.271   3.883
  273SOL    HW1 1718   0.756   6.365   3.912
  273SOL    HW2 1719   0.688   6.225   3.860
  274SOL     OW 1720   5.511   2.891   2.650
  274SOL    HW1 1721   5.520   2.864   2.745
  274SOL    HW2 1722   5.428   2.851   2.611
  275SOL     OW 1723   5.733   5.317   5.521
  275SOL    HW1 1724   5.656   5.265   5.559
  275SOL    HW2 1725   5.715   5.337   5.425
  276SOL     OW 1726   0.818   0.352   4.380
  276SOL    HW1 1727   0.770   0.415   4.319
  276SOL    HW2 1728   0.916   0.358   4.363
  277SOL     OW 1729   4.037   3.222   5.762
  277SOL    HW1 1730   4.016   3.129   5.731
  277SOL    HW2 1731   3.960   3.257   5.816
  278SOL     OW 1732   5.962   4.417   2.362
  278SOL    HW1 1733   5.932   4.389   2.453
  278SOL    HW2 1734   5.977   4.336   2.305
  279SOL     OW 1735   0.456   3.735   4.266
  279SOL    HW1 1736   0.473   3.748   4.364
  279SOL    HW2 1737   0.415   3.818   4.228
  280SOL     OW 1738   4.668   1.770   2.838
  280SOL    HW1 1739   4.693   1.675   2.858
  280SOL    HW2 1740   4.673   1.824   2.921
  281SOL     OW 1741   4.870   5.195   5.247
  281SOL    HW1 1742   4.808   5.169   5.322
  281SOL    HW2 1743   4.963   5.204   5.282
  282SOL     OW 1744   0.182   2.397   0.068
  282SOL    HW1 1745   0.147   2.321   0.013
  282SOL    HW2 1746   0.158   2.383   0.164
  283SOL     OW 1747   5.813   3.834   2.379
  283SOL    HW1 1748   5.802   3.735   2.388
  283SOL    HW2 1749   5.877   3.867   2.448
  284SOL     OW 1750   5.880   6.767   3.417
  284SOL    HW1 1751   5.836   6.715   3.344
  284SOL    HW2 1752   5.838   6.742   3.505
  285SOL     OW 1753   4.295   6.054   6.612
  285SOL    HW1 1754   4.388   6.089   6.603
  285SOL    HW2 1755   4.280   5.980   6.547
  286SOL     OW 1756   3.530   4.940   5.061
  286SOL    HW1 1757   3.541   5.037   5.080
  286SOL    HW2 1758   3.547   4.887   5.144
  287SOL     OW 1759   3.889   6.349   0.712
  287SOL    HW1 1760   3.907   6.377   0.806
  287SOL    HW2 1761   3.972   6.312   0.671
  288SOL     OW 1762   4.436   0.872   0.169
  288SOL    HW1 1763   4.427   0.772   0.164
  288SOL    HW2 1764   4.488   0.905   0.090
  289SOL     OW 1765   5.229   5.018   5.033
  289SOL    HW1 1766   5.272   5.001   4.944
  289SOL    HW2 1767   5.166   5.095   5.025
  290SOL     OW 1768   2.968   0.588   5.207
  290SOL    HW1 1769   3.021   0.643   5.271
  290SOL    HW2 1770   2.963   0.494   5.240
  291SOL     OW 1771   5.852   1.012   4.671
  291SOL    HW1 1772   5.925   1.006   4.603
  291SOL    HW2 1773   5.794   0.931   4.664
  292SOL     OW 1774   2.713   0.833   3.422
  292SOL    HW1 1775   2.619   0.859   3.400
  292SOL    HW2 1776   2.776   0.881   3.361
  293SOL     OW 1777   5.103   1.142   2.890
  293SOL    HW1 1778   5.093   1.242   2.893
  293SOL    HW2 1779   5.184   1.115   2.943
  294SOL     OW 1780   6.603   1.445   6.873
  294SOL    HW1 1781   6.585   1.507   6.949
  294SOL    HW2 1782   6.640   1.498   6.796
  295SOL     OW 1783   7.025   0.214   4.919
  295SOL    HW1 1784   6.936   0.169   4.912
  295SOL    HW2 1785   0.023   0.221   5.015
  296SOL     OW 1786   0.017   1.910   0.573
  296SOL    HW1 1787   6.983   1.923   0.650
  296SOL    HW2 1788   0.080   1.835   0.595
  297SOL     OW 1789   5.021   3.339   3.569
  297SOL    HW1 1790   4.981   3.279   3.637
  297SOL    HW2 1791   5.043   3.427   3.611
  298SOL     OW 1792   4.288   6.880   5.267
  298SOL    HW1 1793   4.263   6.949   5.334
  298SOL    HW2 1794   4.360   6.822   5.304
  299SOL     OW 1795   0.518   1.073   6.052
  299SOL    HW1 1796   0.473   0.990   6.018
  299SOL    HW2 1797   0.489   1.151   5.997
  300SOL     OW 1798   4.614   6.423   4.252
  300SOL    HW1 1799   4.567   6.443   4.166
  300SOL    HW2 1800   4.569   6.470   4.327
  301SOL     OW 1801   6.830   6.363   5.250
  301SOL    HW1 1802   6.866   6.444   5.296
  301SOL    HW2 1803   6.894   6.335   5.178
  302SOL     OW 1804   0.201   6.750   1.815
  302SOL    HW1 1805   0.211   6.735   1.913
  302SOL    HW2 1806   0.168   6.843   1.799
  303SOL     OW 1807   5.404   5.262   2.586
  303SOL    HW1 1808   5.413   5.170   2.624
  303SOL    HW2 1809   5.327   5.309   2.630
  304SOL     OW 1810   0.903   0.945   3.680
  304SOL    HW1 1811   0.873   0.966   3.773
  304SOL    HW2 1812   0.960   0.862   3.682
  305SOL     OW 1813   2.751   1.986   1.265
  305SOL    HW1 1814   2.722   1.981   1.169
  305SOL    HW2 1815   2.829   2.048   1.272
  306SOL     OW 1816   0.341   6.555   2.350
  306SOL    HW1 1817   0.241   6.554   2.351
  306SOL    HW2 1818   0.373   6.630   2.293
  307SOL     OW 1819   4.057   3.738   4.450
  307SOL    HW1 1820   4.115   3.758   4.529
  307SOL    HW2 1821   4.111   3.691   4.380
  308SOL     OW 1822   6.495   2.292   1.792
  308SOL    HW1 1823   6.589   2.260   1.797
  308SOL    HW2 1824   6.470   2.338   1.877
  309SOL     OW 1825   1.983   4.603   0.031
  309SOL    HW1 1826   2.036   4.584   0.114
  309SOL    HW2 1827   2.045   4.609   6.981
  310SOL     OW 1828   4.830   6.331   4.960
  310SOL    HW1 1829   4.871   6.285   5.039
  310SOL    HW2 1830   4.859   6.426   4.957
  311SOL     OW 1831   2.036   6.311   2.226
  311SOL    HW1 1832   1.997   6.377   2.290
  311SOL    HW2 1833   2.078   6.359   2.150
  312SOL     OW 1834   3.458   0.947   4.538
  312SOL    HW1 1835   3.372   0.993   4.516
  312SOL    HW2 1836   3.455   0.913   4.632
  313SOL     OW 1837   3.477   3.442   3.115
  313SOL    HW1 1838   3.386   3.411   3.146
  313SOL    HW2 1839   3.522   3.490   3.190
  314SOL     OW 1840   2.401   4.403   6.034
  314SOL    HW1 1841   2.416   4.340   5.958
  314SOL    HW2 1842   2.344   4.359   6.103
  315SOL     OW 1843   5.919   6.801   4.936
  315SOL    HW1 1844   6.012   6.787   4.970
  315SOL    HW2 1845   5.859   6.824   5.012
  316SOL     OW 1846   4.049   0.753   4.788
  316SOL    HW1 1847   4.035   0.705   4.875
  316SOL    HW2 1848   4.147   0.759   4.768
  317SOL     OW 1849   0.919   1.863   1.570
  317SOL    HW1 1850   0.974   1.781   1.587
  317SOL    HW2 1851   0.980   1.942   1.559
  318SOL     OW 1852   0.713   1.097   3.543
  318SOL    HW1 1853   0.761   1.016   3.575
  318SOL    HW2 1854   0.737   1.175   3.601
  319SOL     OW 1855   0.684   1.575   2.134
  319SOL    HW1 1856   0.754   1.586   2.064
  319SOL    HW2 1857   0.724   1.535   2.216
  320SOL     OW 1858   5.339   1.091   0.085
  320SOL    HW1 1859   5.330   1.129   0.177
  320SOL    HW2 1860   5.251   1.054   0.055
  321SOL     OW 1861   4.290   3.061   1.397
  321SOL    HW1 1862   4.232   3.131   1.438
  321SOL    HW2 1863   4.360   3.104   1.340
  322SOL     OW 1864   2.999   1.815   6.669
  322SOL    HW1 1865   3.098   1.820   6.685
  322SOL    HW2 1866   2.956   1.766   6.745
  323SOL     OW 1867   1.063   4.094   2.368
  323SOL    HW1 1868   1.052   4.119   2.464
  323SOL    HW2 1869   1.136   4.149   2.327
  324SOL     OW 1870   6.251   0.238   3.982
  324SOL    HW1 1871   6.226   0.296   3.905
  324SOL    HW2 1872   6.168   0.205   4.028
  325SOL     OW 1873   6.356   3.630   0.843
  325SOL    HW1 1874   6.434   3.627   0.905
  325SOL    HW2 1875   6.381   3.679   0.760
  326SOL     OW 1876   6.585   5.978   6.437
  326SOL    HW1 1877   6.497   6.026   6.434
  326SOL    HW2 1878   6.650   6.023   6.375
  327SOL     OW 1879   4.208   6.486   6.145
  327SOL    HW1 1880   4.113   6.485   6.177
  327SOL    HW2 1881   4.228   6.401   6.096
  328SOL     OW 1882   2.090   4.420   3.638
  328SOL    HW1 1883   2.138   4.458   3.717
  328SOL    HW2 1884   2.150   4.355   3.591
  329SOL     OW 1885   3.066   3.427   2.490
  329SOL    HW1 1886   3.121   3.347   2.514
  329SOL    HW2 1887   3.127   3.501   2.462
  330SOL     OW 1888   2.558   3.879   6.536
  330SOL    HW1 1889   2.483   3.913   6.479
  330SOL    HW2 1890   2.550   3.917   6.628
  331SOL     OW 1891   5.269   5.658   3.630
  331SOL    HW1 1892   5.183   5.608   3.629
  331SOL    HW2 1893   5.321   5.637   3.548
  332SOL     OW 1894   6.110   1.976   2.818
  332SOL    HW1 1895   6.096   2.059   2.871
  332SOL    HW2 1896   6.091   1.896   2.876
  333SOL     OW 1897   3.425   6.586   3.424
  333SOL    HW1 1898   3.369   6.650   3.371
  333SOL    HW2 1899   3.434   6.619   3.518
  334SOL     OW 1900   3.949   3.123   4.176
  334SOL    HW1 1901   4.007   3.123   4.094
  334SOL    HW2 1902   4.007   3.124   4.258
  335SOL     OW 1903   4.756   1.578   1.024
  335SOL    HW1 1904   4.730   1.565   1.119
  335SOL    HW2 1905   4.674   1.592   0.968
  336SOL     OW 1906   4.004   2.000   4.842
  336SOL    HW1 1907   4.030   2.069   4.910
  336SOL    HW2 1908   3.963   1.921   4.889
  337SOL     OW 1909   0.315   1.678   5.371
  337SOL    HW1 1910   0.252   1.723   5.308
  337SOL    HW2 1911   0.375   1.617   5.319
  338SOL     OW 1912   4.630   1.237   1.680
  338SOL    HW1 1913   4.725   1.263   1.699
  338SOL    HW2 1914   4.572   1.261   1.757
  339SOL     OW 1915   3.406   4.965   5.997
  339SOL    HW1 1916   3.406   4.983   6.095
  339SOL    HW2 1917   3.368   4.874   5.980
  340SOL     OW 1918   5.007   3.312   4.860
  340SOL    HW1 1919   5.081   3.280   4.802
  340SOL    HW2 1920   4.961   3.389   4.816
  341SOL     OW 1921   6.590   0.536   1.779
  341SOL    HW1 1922   6.629   0.622   1.812
  341SOL    HW2 1923   6.515   0.508   1.840
  342SOL     OW 1924   4.517   1.037   2.050
  342SOL    HW1 1925   4.519   1.124   2.099
  342SOL    HW2 1926   4.574   0.971   2.099
  343SOL     OW 1927   6.047   0.187   1.587
  343SOL    HW1 1928   6.072   0.159   1.494
  343SOL    HW2 1929   5.948   0.199   1.592
  344SOL     OW 1930   7.000   2.519   1.548
  344SOL    HW1 1931   0.042   2.448   1.541
  344SOL    HW2 1932   6.927   2.486   1.608
  345SOL     OW 1933   6.887   2.822   4.408
  345SOL    HW1 1934   6.808   2.826   4.347
  345SOL    HW2 1935   6.955   2.759   4.371
  346SOL     OW 1936   1.568   6.204   2.375
  346SOL    HW1 1937   1.504   6.281   2.382
  346SOL    HW2 1938   1.656   6.229   2.415
  347SOL     OW 1939   1.656   4.243   1.395
  347SOL    HW1 1940   1.621   4.260   1.487
  347SOL    HW2 1941   1.597   4.288   1.328
  348SOL     OW 1942   5.521   4.363   1.513
  348SOL    HW1 1943   5.581   4.431   1.472
  348SOL    HW2 1944   5.507   4.288   1.449
  349SOL     OW 1945   5.976   5.061   0.480
  349SOL    HW1 1946   5.916   5.104   0.547
  349SOL    HW2 1947   6.029   4.988   0.524
  350SOL     OW 1948   2.729   1.042   0.963
  350SOL    HW1 1949   2.733   0.958   0.909
  350SOL    HW2 1950   2.767   1.117   0.909
  351SOL     OW 1951   3.644   4.376   1.207
  351SOL    HW1 1952   3.675   4.306   1.272
  351SOL    HW2 1953   3.672   4.350   1.115
  352SOL     OW 1954   4.112   0.405   2.207
  352SOL    HW1 1955   4.032   0.465   2.212
  352SOL    HW2 1956   4.195   0.459   2.221
  353SOL     OW 1957   2.609   5.833   0.398
  353SOL    HW1 1958   2.542   5.806   0.468
  353SOL    HW2 1959   2.585   5.923   0.362
  354SOL     OW 1960   1.576   2.176   0.536
  354SOL    HW1 1961   1.650   2.121   0.573
  354SOL    HW2 1962   1.538   2.131   0.456
  355SOL     OW 1963   0.320   2.906   3.054
  355SOL    HW1 1964   0.387   2.948   3.116
  355SOL    HW2 1965   0.368   2.865   2.976
  356SOL     OW 1966   2.770   0.083   5.694
  356SOL    HW1 1967   2.762   0.127   5.784
  356SOL    HW2 1968   2.757   7.013   5.704
  357SOL     OW 1969   5.364   5.642   4.446
  357SOL    HW1 1970   5.397   5.589   4.524
  357SOL    HW2 1971   5.328   5.580   4.376
  358SOL     OW 1972   3.146   6.185   6.992
  358SOL    HW1 1973   3.138   6.271   6.942
  358SOL    HW2 1974   3.168   6.111   6.928
  359SOL     OW 1975   1.912   2.959   1.731
  359SOL    HW1 1976   1.816   2.934   1.745
  359SOL    HW2 1977   1.971   2.896   1.782
  360SOL     OW 1978   2.194   3.945   3.309
  360SOL    HW1 1979   2.227   3.997   3.388
  360SOL    HW2 1980   2.254   3.962   3.231
  361SOL     OW 1981   6.892   2.648   2.972
  361SOL    HW1 1982   6.867   2.559   3.009
  361SOL    HW2 1983   6.830   2.718   3.008
  362SOL     OW 1984   3.992   3.190   2.720
  362SOL    HW1 1985   3.986   3.124   2.645
  362SOL    HW2 1986   3.969   3.281   2.685
  363SOL     OW 1987   4.676   4.594   0.473
  363SOL    HW1 1988   4.642   4.682   0.506
  363SOL    HW2 1989   4.763   4.607   0.426
  364SOL     OW 1990   1.052   0.563   7.004
  364SOL    HW1 1991   1.146   0.593   6.993
  364SOL    HW2 1992   1.051   0.472   0.018
  365SOL     OW 1993   4.781   0.466   3.665
  365SOL    HW1 1994   4.846   0.390   3.674
  365SOL    HW2 1995   4.747   0.493   3.755
  366SOL     OW 1996   5.181   2.162   0.466
  366SOL    HW1 1997   5.115   2.172   0.392
  366SOL    HW2 1998   5.139   2.191   0.552
  367SOL     OW 1999   5.504   0.877   0.137
  367SOL    HW1 2000   5.562   0.853   0.059
  367SOL    HW2 2001   5.437   0.946   0.110
  368SOL     OW 2002   3.122   1.459   5.586
  368SOL    HW1 2003   3.177   1.429   5.664
  368SOL    HW2 2004   3.031   1.486   5.618
  369SOL     OW 2005   4.963   4.058   0.210
  369SOL    HW1 2006   4.883   4.010   0.176
  369SOL    HW2 2007   5.045   4.003   0.194
  370SOL     OW 2008   1.855   2.517   3.717
  370SOL    HW1 2009   1.936   2.462   3.699
  370SOL    HW2 2010   1.860   2.603   3.667
  371SOL     OW 2011   2.326   5.227   0.211
  371SOL    HW1 2012   2.349   5.322   0.194
  371SOL    HW2 2013   2.409   5.171   0.211
  372SOL     OW 2014   2.652   5.799   6.294
  372SOL    HW1 2015   2.645   5.780   6.196
  372SOL    HW2 2016   2.565   5.779   6.338
  373SOL     OW 2017   5.819   5.037   2.563
  373SOL    HW1 2018   5.909   5.076   2.541
  373SOL    HW2 2019   5.748   5.085   2.512
  374SOL     OW 2020   2.661   2.179   1.983
  374SOL    HW1 2021   2.661   2.216   1.890
  374SOL    HW2 2022   2.725   2.231   2.039
  375SOL     OW 2023   0.003   5.925   4.178
  375SOL    HW1 2024   6.999   5.995   4.114
  375SOL    HW2 2025   0.056   5.969   4.250
  376SOL     OW 2026   4.159   0.222   3.584
  376SOL    HW1 2027   4.142   0.130   3.548
  376SOL    HW2 2028   4.235   0.263   3.534
  377SOL     OW 2029   2.826   2.980   6.270
  377SOL    HW1 2030   2.879   3.055   6.233
  377SOL    HW2 2031   2.739   2.974   6.222
  378SOL     OW 2032   4.145   1.306   1.777
  378SOL    HW1 2033   4.120   1.402   1.772
  378SOL    HW2 2034   4.085   1.259   1.843
  379SOL     OW 2035   3.692   3.018   6.982
  379SOL    HW1 2036   3.747   3.101   6.976
  379SOL    HW2 2037   3.745   2.940   6.947
  380SOL     OW 2038   4.875   2.009   0.587
  380SOL    HW1 2039   4.807   2.063   0.537
  380SOL    HW2 2040   4.933   2.070   0.641
  381SOL     OW 2041   1.691   3.681   2.723
  381SOL    HW1 2042   1.721   3.738   2.800
  381SOL    HW2 2043   1.731   3.590   2.731
  382SOL     OW 2044   5.982   0.062   0.244
  382SOL    HW1 2045   5.957   0.044   0.339
  382SOL    HW2 2046   5.969   0.159   0.223
  383SOL     OW 2047   5.152   3.208   0.741
  383SOL    HW1 2048   5.160   3.126   0.685
  383SOL    HW2 2049   5.091   3.190   0.818
  384SOL     OW 2050   1.209   3.054   5.279
  384SOL    HW1 2051   1.229   3.052   5.181
  384SOL    HW2 2052   1.110   3.044   5.293
  385SOL     OW 2053   4.952   2.459   6.406
  385SOL    HW1 2054   4.864   2.504   6.392
  385SOL    HW2 2055   4.939   2.374   6.458
  386SOL     OW 2056   3.811   6.401   5.026
  386SOL    HW1 2057   3.715   6.427   5.037
  386SOL    HW2 2058   3.844   6.430   4.936
  387SOL     OW 2059   2.350   6.599   3.622
  387SOL    HW1 2060   2.375   6.581   3.717
  387SOL    HW2 2061   2.251   6.614   3.616
  388SOL     OW 2062   1.493   5.105   5.883
  388SOL    HW1 2063   1.467   5.095   5.979
  388SOL    HW2 2064   1.458   5.193   5.848
  389SOL     OW 2065   2.745   2.715   0.601
  389SOL    HW1 2066   2.724   2.813   0.606
  389SOL    HW2 2067   2.832   2.702   0.552
  390SOL     OW 2068   2.604   1.779   4.009
  390SOL    HW1 2069   2.577   1.706   3.946
  390SOL    HW2 2070   2.546   1.776   4.091
  391SOL     OW 2071   0.460   2.314   0.443
  391SOL    HW1 2072   0.401   2.252   0.391
  391SOL    HW2 2073   0.556   2.290   0.427
  392SOL     OW 2074   3.605   5.191   4.714
  392SOL    HW1 2075   3.682   5.252   4.697
  392SOL    HW2 2076   3.638   5.098   4.729
  393SOL     OW 2077   6.229   3.474   5.184
  393SOL    HW1 2078   6.131   3.478   5.205
  393SOL    HW2 2079   6.274   3.554   5.223
  394SOL     OW 2080   1.950   1.198   6.196
  394SOL    HW1 2081   1.871   1.176   6.137
  394SOL    HW2 2082   1.926   1.274   6.257
  395SOL     OW 2083   0.078   3.132   1.129
  395SOL    HW1 2084   0.052   3.052   1.183
  395SOL    HW2 2085   0.167   3.116   1.086
  396SOL     OW 2086   3.701   2.475   5.778
  396SOL    HW1 2087   3.681   2.381   5.806
  396SOL    HW2 2088   3.669   2.490   5.685
  397SOL     OW 2089   4.523   0.440   6.377
  397SOL    HW1 2090   4.566   0.352   6.400
  397SOL    HW2 2091   4.585   0.514   6.404
  398SOL     OW 2092   6.994   4.813   2.634
  398SOL    HW1 2093   6.949   4.776   2.552
  398SOL    HW2 2094   6.941   4.788   2.715
  399SOL     OW 2095   4.426   5.316   2.007
  399SOL    HW1 2096   4.337   5.312   2.053
  399SOL    HW2 2097   4.418   5.371   1.924
  400SOL     OW 2098   2.406   4.719   5.050
  400SOL    HW1 2099   2.441   4.666   5.127
  400SOL    HW2 2100   2.460   4.803   5.041
  401SOL     OW 2101   6.255   1.579   1.408
  401SOL    HW1 2102   6.345   1.543   1.434
  401SOL    HW2 2103   6.228   1.651   1.473
  402SOL     OW 2104   0.391   5.124   0.632
  402SOL    HW1 2105   0.321   5.103   0.700
  402SOL    HW2 2106   0.372   5.214   0.591
  403SOL     OW 2107   5.183   4.668   0.815
  403SOL    HW1 2108   5.223   4.683   0.905
  403SOL    HW2 2109   5.088   4.699   0.815
  404SOL     OW 2110   6.946   5.724   4.862
  404SOL    HW1 2111   6.939   5.628   4.837
  404SOL    HW2 2112   6.862   5.771   4.837
  405SOL     OW 2113   1.490   2.257   1.333
  405SOL    HW1 2114   1.507   2.198   1.254
  405SOL    HW2 2115   1.394   2.284   1.335
  406SOL     OW 2116   0.528   2.737   3.571
  406SOL    HW1 2117   0.590   2.694   3.506
  406SOL    HW2 2118   0.556   2.714   3.664
  407SOL     OW 2119   3.627   2.126   4.088
  407SOL    HW1 2120   3.631   2.066   4.008
  407SOL    HW2 2121   3.715   2.172   4.100
  408SOL     OW 2122   2.803   0.413   3.772
  408SOL    HW1 2123   2.724   0.435   3.829
  408SOL    HW2 2124   2.773   0.358   3.693
  409SOL     OW 2125   6.989   4.136   4.039
  409SOL    HW1 2126   6.987   4.228   3.999
  409SOL    HW2 2127   6.946   4.139   4.130
  410SOL     OW 2128   3.015   6.612   6.246
  410SOL    HW1 2129   2.947   6.622   6.173
  410SOL    HW2 2130   3.100   6.659   6.219
  411SOL     OW 2131   0.204   4.383   5.404
  411SOL    HW1 2132   0.227   4.304   5.348
  411SOL    HW2 2133   0.108   4.407   5.390
  412SOL     OW 2134   3.532   6.619   2.363
  412SOL    HW1 2135   3.493   6.653   2.278
  412SOL    HW2 2136   3.613   6.564   2.344
  413SOL     OW 2137   2.227   0.891   2.354
  413SOL    HW1 2138   2.255   0.862   2.445
  413SOL    HW2 2139   2.138   0.852   2.332
  414SOL     OW 2140   4.900   5.043   0.909
  414SOL    HW1 2141   4.923   4.965   0.851
  414SOL    HW2 2142   4.905   5.015   1.005
  415SOL     OW 2143   4.052   0.185   2.476
  415SOL    HW1 2144   4.055   0.268   2.532
  415SOL    HW2 2145   4.044   0.211   2.379
  416SOL     OW 2146   4.000   5.859   0.010
  416SOL    HW1 2147   4.014   5.765   0.040
  416SOL    HW2 2148   3.956   5.912   0.082
  417SOL     OW 2149   5.361   5.269   0.908
  417SOL    HW1 2150   5.334   5.173   0.894
  417SOL    HW2 2151   5.452   5.273   0.949
  418SOL     OW 2152   6.724   4.924   6.677
  418SOL    HW1 2153   6.756   4.845   6.729
  418SOL    HW2 2154   6.757   5.008   6.721
  419SOL     OW 2155   5.257   5.418   6.768
  419SOL    HW1 2156   5.159   5.400   6.776
  419SOL    HW2 2157   5.301   5.341   6.721
  420SOL     OW 2158   4.843   4.112   6.359
  420SOL    HW1 2159   4.866   4.015   6.348
  420SOL    HW2 2160   4.795   4.144   6.277
  421SOL     OW 2161   1.901   6.530   6.825
  421SOL    HW1 2162   1.972   6.566   6.886
  421SOL    HW2 2163   1.856   6.606   6.778
  422SOL     OW 2164   6.460   3.877   6.804
  422SOL    HW1 2165   6.419   3.924   6.882
  422SOL    HW2 2166   6.553   3.850   6.826
  423SOL     OW 2167   1.016   3.611   6.202
  423SOL    HW1 2168   1.062   3.606   6.290
  423SOL    HW2 2169   0.917   3.615   6.215
  424SOL     OW 2170   1.561   4.236   6.269
  424SOL    HW1 2171   1.606   4.151   6.241
  424SOL    HW2 2172   1.630   4.306   6.288
  425SOL     OW 2173   3.546   0.049   0.155
  425SOL    HW1 2174   3.571   0.043   0.059
  425SOL    HW2 2175   3.583   0.133   0.194
  426SOL     OW 2176   0.334   4.024   6.672
  426SOL    HW1 2177   0.413   4.013   6.612
  426SOL    HW2 2178   0.251   4.033   6.616
  427SOL     OW 2179   3.822   3.524   0.082
  427SOL    HW1 2180   3.922   3.530   0.081
  427SOL    HW2 2181   3.792   3.458   0.013
  428SOL     OW 2182   4.194   1.465   5.063
  428SOL    HW1 2183   4.270   1.529   5.074
  428SOL    HW2 2184   4.229   1.378   5.027
  429SOL     OW 2185   3.043   6.588   0.417
  429SOL    HW1 2186   3.056   6.657   0.488
  429SOL    HW2 2187   3.124   6.530   0.413
  430SOL     OW 2188   3.112   0.307   4.591
  430SOL    HW1 2189   3.115   0.207   4.593
  430SOL    HW2 2190   3.158   0.341   4.509
  431SOL     OW 2191   3.995   1.112   0.102
  431SOL    HW1 2192   4.080   1.083   0.145
  431SOL    HW2 2193   3.986   1.067   0.013
  432SOL     OW 2194   6.988   1.275   0.733
  432SOL    HW1 2195   6.895   1.236   0.734
  432SOL    HW2 2196   0.025   1.202   0.712
  433SOL     OW 2197   3.348   6.288   4.910
  433SOL    HW1 2198   3.386   6.345   4.983
  433SOL    HW2 2199   3.350   6.193   4.938
  434SOL     OW 2200   6.131   3.708   1.014
  434SOL    HW1 2201   6.079   3.628   0.984
  434SOL    HW2 2202   6.219   3.710   0.967
  435SOL     OW 2203   3.723   3.756   0.857
  435SOL    HW1 2204   3.770   3.828   0.806
  435SOL    HW2 2205   3.625   3.777   0.861
  436SOL     OW 2206   3.639   1.085   0.726
  436SOL    HW1 2207   3.678   1.115   0.639
  436SOL    HW2 2208   3.712   1.061   0.789
  437SOL     OW 2209   6.912   6.398   5.917
  437SOL    HW1 2210   6.817   6.419   5.939
  437SOL    HW2 2211   6.915   6.323   5.851
  438SOL     OW 2212   1.230   3.171   1.222
  438SOL    HW1 2213   1.191   3.258   1.252
  438SOL    HW2 2214   1.328   3.183   1.205
  439SOL     OW 2215   6.425   5.412   1.657
  439SOL    HW1 2216   6.466   5.492   1.700
  439SOL    HW2 2217   6.467   5.329   1.693
  440SOL     OW 2218   1.595   2.890   3.055
  440SOL    HW1 2219   1.689   2.882   3.019
  440SOL    HW2 2220   1.542   2.951   2.997
  441SOL     OW 2221   0.190   1.322   2.919
  441SOL    HW1 2222   0.139   1.394   2.871
  441SOL    HW2 2223   0.270   1.363   2.965
  442SOL     OW 2224   0.593   4.889   6.096
  442SOL    HW1 2225   0.555   4.923   6.010
  442SOL    HW2 2226   0.624   4.795   6.084
  443SOL     OW 2227   0.509   4.589   5.517
  443SOL    HW1 2228   0.447   4.570   5.593
  443SOL    HW2 2229   0.532   4.687   5.517
  444SOL     OW 2230   5.109   2.844   6.774
  444SOL    HW1 2231   5.173   2.883   6.841
  444SOL    HW2 2232   5.049   2.916   6.740
  445SOL     OW 2233   0.951   3.860   3.525
  445SOL    HW1 2234   0.972   3.953   3.556
  445SOL    HW2 2235   0.971   3.853   3.427
  446SOL     OW 2236   2.252   5.329   4.144
  446SOL    HW1 2237   2.193   5.288   4.214
  446SOL    HW2 2238   2.345   5.334   4.180
  447SOL     OW 2239   6.810   6.012   0.761
  447SOL    HW1 2240   6.735   6.060   0.806
  447SOL    HW2 2241   6.787   5.915   0.755
  448SOL     OW 2242   4.485   0.398   5.914
  448SOL    HW1 2243   4.502   0.375   5.819
  448SOL    HW2 2244   4.512   0.321   5.972
  449SOL     OW 2245   4.990   0.358   4.383
  449SOL    HW1 2246   4.961   0.339   4.289
  449SOL    HW2 2247   4.921   0.325   4.447
  450SOL     OW 2248   6.649   6.917   3.040
  450SOL    HW1 2249   6.676   6.934   3.135
  450SOL    HW2 2250   6.599   6.831   3.035
  451SOL     OW 2251   6.626   3.469   4.094
  451SOL    HW1 2252   6.545   3.523   4.121
  451SOL    HW2 2253   6.634   3.390   4.155
  452SOL     OW 2254   6.657   5.314   6.087
  452SOL    HW1 2255   6.596   5.243   6.120
  452SOL    HW2 2256   6.740   5.316   6.143
  453SOL     OW 2257   3.553   1.715   6.003
  453SOL    HW1 2258   3.482   1.784   5.990
  453SOL    HW2 2259   3.533   1.662   6.085
  454SOL     OW 2260   0.875   6.546   0.333
  454SOL    HW1 2261   0.946   6.479   0.310
  454SOL    HW2 2262   0.915   6.623   0.381
  455SOL     OW 2263   5.424   0.897   5.097
  455SOL    HW1 2264   5.383   0.886   5.006
  455SOL    HW2 2265   5.382   0.975   5.142
  456SOL     OW 2266   4.277   4.936   6.987
  456SOL    HW1 2267   4.372   4.922   7.015
  456SOL    HW2 2268   4.249   4.862   6.926
  457SOL     OW 2269   0.618   4.608   1.789
  457SOL    HW1 2270   0.687   4.567   1.849
  457SOL    HW2 2271   0.545   4.542   1.771
  458SOL     OW 2272   0.806   5.721   5.220
  458SOL    HW1 2273   0.826   5.817   5.206
  458SOL    HW2 2274   0.732   5.712   5.288
  459SOL     OW 2275   1.468   0.747   3.138
  459SOL    HW1 2276   1.557   0.780   3.108
  459SOL    HW2 2277   1.481   0.674   3.206
  460SOL     OW 2278   6.313   2.321   3.711
  460SOL    HW1 2279   6.390   2.384   3.705
  460SOL    HW2 2280   6.305   2.268   3.626
  461SOL     OW 2281   5.645   4.802   5.414
  461SOL    HW1 2282   5.665   4.753   5.499
  461SOL    HW2 2283   5.581   4.749   5.358
  462SOL     OW 2284   3.082   1.824   0.005
  462SOL    HW1 2285   3.018   1.769   6.981
  462SOL    HW2 2286   3.156   1.856   6.975
  463SOL     OW 2287   6.607   5.999   2.121
  463SOL    HW1 2288   6.532   6.041   2.071
  463SOL    HW2 2289   6.663   5.944   2.059
  464SOL     OW 2290   1.867   1.392   5.757
  464SOL    HW1 2291   1.883   1.469   5.818
  464SOL    HW2 2292   1.940   1.390   5.688
  465SOL     OW 2293   0.335   3.445   6.176
  465SOL    HW1 2294   0.239   3.419   6.181
  465SOL    HW2 2295   0.375   3.443   6.267
  466SOL     OW 2296   2.286   0.767   3.067
  466SOL    HW1 2297   2.293   0.859   3.106
  466SOL    HW2 2298   2.366   0.750   3.009
  467SOL     OW 2299   1.955   1.850   5.554
  467SOL    HW1 2300   2.007   1.824   5.635
  467SOL    HW2 2301   1.952   1.949   5.547
  468SOL     OW 2302   3.238   3.626   2.451
  468SOL    HW1 2303   3.326   3.647   2.492
  468SOL    HW2 2304   3.226   3.681   2.368
  469SOL     OW 2305   3.352   6.272   0.127
  469SOL    HW1 2306   3.277   6.233   0.074
  469SOL    HW2 2307   3.439   6.235   0.094
  470SOL     OW 2308   4.480   6.881   3.175
  470SOL    HW1 2309   4.575   6.848   3.173
  470SOL    HW2 2310   4.450   6.901   3.082
  471SOL     OW 2311   2.618   2.249   4.480
  471SOL    HW1 2312   2.647   2.240   4.575
  471SOL    HW2 2313   2.670   2.186   4.423
  472SOL     OW 2314   3.773   4.470   5.507
  472SOL    HW1 2315   3.776   4.377   5.542
  472SOL    HW2 2316   3.866   4.502   5.490
  473SOL     OW 2317   0.841   4.524   3.937
  473SOL    HW1 2318   0.892   4.545   4.020
  473SOL    HW2 2319   0.758   4.579   3.935
  474SOL     OW 2320   5.104   4.323   5.272
  474SOL    HW1 2321   5.156   4.368   5.345
  474SOL    HW2 2322   5.050   4.391   5.222
  475SOL     OW 2323   1.962   6.301   6.694
  475SOL    HW1 2324   2.051   6.258   6.713
  475SOL    HW2 2325   1.948   6.378   6.756
  476SOL     OW 2326   0.276   5.698   2.538
  476SOL    HW1 2327   0.321   5.742   2.460
  476SOL    HW2 2328   0.243   5.767   2.601
  477SOL     OW 2329   1.969   4.957   3.995
  477SOL    HW1 2330   1.937   4.915   3.911
  477SOL    HW2 2331   1.921   5.044   4.010
  478SOL     OW 2332   1.161   5.464   3.214
  478SOL    HW1 2333   1.254   5.449   3.180
  478SOL    HW2 2334   1.095   5.436   3.144
  479SOL     OW 2335   3.797   1.524   1.199
  479SOL    HW1 2336   3.757   1.548   1.288
  479SOL    HW2 2337   3.793   1.604   1.139
  480SOL     OW 2338   1.521   6.833   3.477
  480SOL    HW1 2339   1.582   6.847   3.555
  480SOL    HW2 2340   1.566   6.776   3.408
  481SOL     OW 2341   2.284   6.746   0.909
  481SOL    HW1 2342   2.276   6.841   0.938
  481SOL    HW2 2343   2.255   6.737   0.813
  482SOL     OW 2344   5.891   5.481   0.653
  482SOL    HW1 2345   5.865   5.384   0.652
  482SOL    HW2 2346   5.860   5.523   0.738
  483SOL     OW 2347   6.308   1.975   2.455
  483SOL    HW1 2348   6.292   1.879   2.479
  483SOL    HW2 2349   6.235   2.032   2.492
  484SOL     OW 2350   6.823   2.159   4.196
  484SOL    HW1 2351   6.891   2.225   4.227
  484SOL    HW2 2352   6.764   2.134   4.272
  485SOL     OW 2353   3.454   6.055   1.631
  485SOL    HW1 2354   3.420   6.108   1.553
  485SOL    HW2 2355   3.377   6.019   1.683
  486SOL     OW 2356   0.174   0.868   5.946
  486SOL    HW1 2357   0.199   0.942   5.885
  486SOL    HW2 2358   0.234   0.869   6.027
  487SOL     OW 2359   6.479   2.623   6.608
  487SOL    HW1 2360   6.383   2.605   6.629
  487SOL    HW2 2361   6.493   2.721   6.593
  488SOL     OW 2362   0.954   4.718   2.201
  488SOL    HW1 2363   0.929   4.810   2.169
  488SOL    HW2 2364   0.980   4.662   2.122
  489SOL     OW 2365   3.506   5.759   6.572
  489SOL    HW1 2366   3.429   5.808   6.614
  489SOL    HW2 2367   3.472   5.703   6.496
  490SOL     OW 2368   4.809   0.203   4.195
  490SOL    HW1 2369   4.846   0.110   4.199
  490SOL    HW2 2370   4.738   0.214   4.264
  491SOL     OW 2371   0.454   2.319   3.495
  491SOL    HW1 2372   0.399   2.402   3.501
  491SOL    HW2 2373   0.465   2.293   3.399
  492SOL     OW 2374   1.346   1.348   4.716
  492SOL    HW1 2375   1.434   1.300   4.706
  492SOL    HW2 2376   1.345   1.427   4.655
  493SOL     OW 2377   6.562   3.871   4.204
  493SOL    HW1 2378   6.509   3.832   4.129
  493SOL    HW2 2379   6.637   3.809   4.228
  494SOL     OW 2380   6.197   1.209   6.417
  494SOL    HW1 2381   6.152   1.214   6.506
  494SOL    HW2 2382   6.157   1.135   6.363
  495SOL     OW 2383   5.150   4.283   0.409
  495SOL    HW1 2384   5.173   4.351   0.478
  495SOL    HW2 2385   5.099   4.326   0.335
  496SOL     OW 2386   5.561   3.304   3.011
  496SOL    HW1 2387   5.477   3.252   3.021
  496SOL    HW2 2388   5.594   3.296   2.917
  497SOL     OW 2389   4.081   6.857   3.991
  497SOL    HW1 2390   4.065   6.900   3.902
  497SOL    HW2 2391   4.033   6.908   4.062
  498SOL     OW 2392   1.505   2.663   1.917
  498SOL    HW1 2393   1.548   2.605   1.987
  498SOL    HW2 2394   1.415   2.693   1.950
  499SOL     OW 2395   3.182   1.161   5.270
  499SOL    HW1 2396   3.238   1.243   5.263
  499SOL    HW2 2397   3.100   1.172   5.214
  500SOL     OW 2398   1.979   4.236   2.267
  500SOL    HW1 2399   1.925   4.317   2.244
  500SOL    HW2 2400   1.962   4.164   2.199
  501SOL     OW 2401   0.822   5.065   6.967
  501SOL    HW1 2402   0.751   5.057   0.009
  501SOL    HW2 2403   0.888   5.135   6.994
  502SOL     OW 2404   2.931   4.848   6.037
  502SOL    HW1 2405   2.935   4.944   6.012
  502SOL    HW2 2406   3.020   4.819   6.073
  503SOL     OW 2407   6.261   5.442   4.729
  503SOL    HW1 2408   6.317   5.410   4.653
  503SOL    HW2 2409   6.176   5.481   4.694
  504SOL     OW 2410   1.697   5.835   4.762
  504SOL    HW1 2411   1.696   5.915   4.702
  504SOL    HW2 2412   1.688   5.752   4.707
  505SOL     OW 2413   3.895   6.715   4.932
  505SOL    HW1 2414   3.961   6.729   5.005
  505SOL    HW2 2415   3.862   6.804   4.900
  506SOL     OW 2416   1.920   3.205   0.551
  506SOL    HW1 2417   1.919   3.110   0.581
  506SOL    HW2 2418   1.834   3.226   0.502
  507SOL     OW 2419   3.908   2.191   4.205
  507SOL    HW1 2420   3.897   2.134   4.286
  507SOL    HW2 2421   4.003   2.220   4.198
  508SOL     OW 2422   6.075   4.729   4.307
  508SOL    HW1 2423   6.136   4.651   4.322
  508SOL    HW2 2424   6.057   4.740   4.209
  509SOL     OW 2425   4.247   3.139   0.819
  509SOL    HW1 2426   4.238   3.196   0.736
  509SOL    HW2 2427   4.235   3.196   0.900
  510SOL     OW 2428   1.026   3.909   4.703
  510SOL    HW1 2429   1.106   3.933   4.758
  510SOL    HW2 2430   0.984   3.992   4.666
  511SOL     OW 2431   0.381   6.608   1.388
  511SOL    HW1 2432   0.403   6.513   1.413
  511SOL    HW2 2433   0.284   6.614   1.363
  512SOL     OW 2434   0.984   3.695   5.938
  512SOL    HW1 2435   0.998   3.686   6.036
  512SOL    HW2 2436   0.927   3.776   5.920
  513SOL     OW 2437   1.367   5.191   4.384
  513SOL    HW1 2438   1.450   5.240   4.355
  513SOL    HW2 2439   1.373   5.170   4.482
  514SOL     OW 2440   5.959   1.663   3.133
  514SOL    HW1 2441   6.023   1.699   3.065
  514SOL    HW2 2442   5.980   1.567   3.151
  515SOL     OW 2443   2.406   5.508   0.211
  515SOL    HW1 2444   2.365   5.568   0.279
  515SOL    HW2 2445   2.475   5.450   0.254
  516SOL     OW 2446   1.336   5.111   3.620
  516SOL    HW1 2447   1.393   5.118   3.701
  516SOL    HW2 2448   1.390   5.132   3.539
  517SOL     OW 2449   4.615   0.659   6.641
  517SOL    HW1 2450   4.669   0.715   6.704
  517SOL    HW2 2451   4.661   0.654   6.552
  518SOL     OW 2452   2.403   1.606   0.647
  518SOL    HW1 2453   2.368   1.589   0.739
  518SOL    HW2 2454   2.444   1.698   0.644
  519SOL     OW 2455   0.906   6.924   0.222
  519SOL    HW1 2456   0.854   6.937   0.307
  519SOL    HW2 2457   0.848   6.879   0.154
  520SOL     OW 2458   5.866   4.366   4.346
  520SOL    HW1 2459   5.818   4.297   4.291
  520SOL    HW2 2460   5.826   4.456   4.330
  521SOL     OW 2461   6.283   0.563   0.434
  521SOL    HW1 2462   6.300   0.580   0.531
  521SOL    HW2 2463   6.327   0.635   0.380
  522SOL     OW 2464   3.354   3.890   5.995
  522SOL    HW1 2465   3.436   3.834   5.996
  522SOL    HW2 2466   3.288   3.852   5.931
  523SOL     OW 2467   6.255   6.625   3.878
  523SOL    HW1 2468   6.228   6.713   3.838
  523SOL    HW2 2469   6.243   6.628   3.977
  524SOL     OW 2470   4.298   0.620   5.647
  524SOL    HW1 2471   4.256   0.637   5.559
  524SOL    HW2 2472   4.245   0.664   5.719
  525SOL     OW 2473   2.492   2.295   7.014
  525SOL    HW1 2474   2.469   2.208   6.972
  525SOL    HW2 2475   2.549   2.279   0.065
  526SOL     OW 2476   4.630   5.404   4.304
  526SOL    HW1 2477   4.671   5.473   4.364
  526SOL    HW2 2478   4.666   5.415   4.211
  527SOL     OW 2479   0.094   2.005   0.226
  527SOL    HW1 2480   0.165   2.075   0.215
  527SOL    HW2 2481   0.007   2.049   0.247
  528SOL     OW 2482   2.092   1.365   5.600
  528SOL    HW1 2483   2.092   1.431   5.525
  528SOL    HW2 2484   2.087   1.273   5.562
  529SOL     OW 2485   6.678   5.011   4.254
  529SOL    HW1 2486   6.730   5.096   4.255
  529SOL    HW2 2487   6.583   5.031   4.229
  530SOL     OW 2488   0.367   2.773   5.403
  530SOL    HW1 2489   0.286   2.740   5.355
  530SOL    HW2 2490   0.431   2.697   5.419
  531SOL     OW 2491   6.887   0.835   0.033
  531SOL    HW1 2492   6.904   0.740   0.059
  531SOL    HW2 2493   6.966   0.869   7.010
  532SOL     OW 2494   2.129   0.531   5.595
  532SOL    HW1 2495   2.030   0.532   5.602
  532SOL    HW2 2496   2.161   0.616   5.553
  533SOL     OW 2497   4.971   0.517   4.792
  533SOL    HW1 2498   5.070   0.506   4.776
  533SOL    HW2 2499   4.951   0.612   4.813
  534SOL     OW 2500   3.207   5.712   2.996
  534SOL    HW1 2501   3.171   5.638   3.053
  534SOL    HW2 2502   3.301   5.691   2.970
  535SOL     OW 2503   6.020   3.961   2.205
  535SOL    HW1 2504   5.934   3.998   2.241
  535SOL    HW2 2505   6.017   3.861   2.207
  536SOL     OW 2506   1.157   6.860   0.823
  536SOL    HW1 2507   1.174   6.831   0.729
  536SOL    HW2 2508   1.076   6.918   0.827
  537SOL     OW 2509   2.133   0.174   3.504
  537SOL    HW1 2510   2.187   0.091   3.519
  537SOL    HW2 2511   2.053   0.152   3.449
  538SOL     OW 2512   1.743   5.022   4.466
  538SOL    HW1 2513   1.774   4.947   4.408
  538SOL    HW2 2514   1.772   5.109   4.427
  539SOL     OW 2515   0.986   6.032   1.050
  539SOL    HW1 2516   0.994   6.129   1.073
  539SOL    HW2 2517   0.889   6.007   1.046
  540SOL     OW 2518   1.714   3.275   1.138
  540SOL    HW1 2519   1.724   3.374   1.124
  540SOL    HW2 2520   1.717   3.228   1.050
  541SOL     OW 2521   4.171   5.396   5.091
  541SOL    HW1 2522   4.242   5.384   5.022
  541SOL    HW2 2523   4.172   5.318   5.154
  542SOL     OW 2524   5.765   6.518   6.436
  542SOL    HW1 2525   5.768   6.460   6.355
  542SOL    HW2 2526   5.778   6.614   6.410
  543SOL     OW 2527   6.166   6.749   1.302
  543SOL    HW1 2528   6.109   6.822   1.265
  543SOL    HW2 2529   6.123   6.713   1.385
  544SOL     OW 2530   0.684   5.639   0.330
  544SOL    HW1 2531   0.663   5.576   0.404
  544SOL    HW2 2532   0.771   5.615   0.288
  545SOL     OW 2533   3.884   1.766   3.713
  545SOL    HW1 2534   3.812   1.745   3.647
  545SOL    HW2 2535   3.970   1.725   3.684
  546SOL     OW 2536   1.932   2.133   0.392
  546SOL    HW1 2537   1.883   2.132   0.479
  546SOL    HW2 2538   1.949   2.038   0.363
  547SOL     OW 2539   3.208   1.415   0.194
  547SOL    HW1 2540   3.156   1.499   0.180
  547SOL    HW2 2541   3.249   1.386   0.107
  548SOL     OW 2542   3.189   3.245   5.200
  548SOL    HW1 2543   3.233   3.242   5.110
  548SOL    HW2 2544   3.119   3.174   5.206
  549SOL     OW 2545   0.361   4.049   0.926
  549SOL    HW1 2546   0.317   4.056   0.836
  549SOL    HW2 2547   0.344   4.133   0.979
  550SOL     OW 2548   6.660   3.892   0.564
  550SOL    HW1 2549   6.723   3.962   0.531
  550SOL    HW2 2550   6.708   3.830   0.626
  551SOL     OW 2551   0.163   1.238   0.416
  551SOL    HW1 2552   0.203   1.260   0.327
  551SOL    HW2 2553   0.068   1.210   0.404
  552SOL     OW 2554   4.838   4.769   0.794
  552SOL    HW1 2555   4.883   4.689   0.753
  552SOL    HW2 2556   4.771   4.739   0.861
  553SOL     OW 2557   1.069   2.102   1.643
  553SOL    HW1 2558   1.028   2.175   1.698
  553SOL    HW2 2559   1.166   2.124   1.627
  554SOL     OW 2560   4.510   5.015   4.868
  554SOL    HW1 2561   4.544   5.098   4.823
  554SOL    HW2 2562   4.557   5.003   4.956
  555SOL     OW 2563   1.231   4.730   5.276
  555SOL    HW1 2564   1.142   4.745   5.234
  555SOL    HW2 2565   1.274   4.649   5.236
  556SOL     OW 2566   5.912   3.807   2.970
  556SOL    HW1 2567   5.986   3.844   2.914
  556SOL    HW2 2568   5.949   3.776   3.057
  557SOL     OW 2569   6.681   5.585   5.953
  557SOL    HW1 2570   6.669   5.509   6.017
  557SOL    HW2 2571   6.593   5.626   5.932
  558SOL     OW 2572   4.196   3.349   5.586
  558SOL    HW1 2573   4.130   3.315   5.653
  558SOL    HW2 2574   4.269   3.282   5.573
  559SOL     OW 2575   5.881   4.971   6.200
  559SOL    HW1 2576   5.833   4.910   6.263
  559SOL    HW2 2577   5.922   5.046   6.251
  560SOL     OW 2578   4.077   6.349   0.294
  560SOL    HW1 2579   4.167   6.318   0.325
  560SOL    HW2 2580   4.050   6.429   0.347
  561SOL     OW 2581   5.670   6.749   2.050
  561SOL    HW1 2582   5.605   6.824   2.057
  561SOL    HW2 2583   5.716   6.736   2.138
  562SOL     OW 2584   6.386   0.801   0.358
  562SOL    HW1 2585   6.462   0.828   0.298
  562SOL    HW2 2586   6.410   0.820   0.453
  563SOL     OW 2587   2.753   0.684   5.032
  563SOL    HW1 2588   2.847   0.698   5.063
  563SOL    HW2 2589   2.751   0.673   4.933
  564SOL     OW 2590   0.749   1.835   5.698
  564SOL    HW1 2591   0.719   1.802   5.608
  564SOL    HW2 2592   0.690   1.912   5.725
  565SOL     OW 2593   4.622   3.831   6.072
  565SOL    HW1 2594   4.583   3.805   6.160
  565SOL    HW2 2595   4.666   3.920   6.080
  566SOL     OW 2596   6.669   4.986   2.357
  566SOL    HW1 2597   6.626   4.901   2.327
  566SOL    HW2 2598   6.760   4.966   2.394
  567SOL     OW 2599   3.714   4.134   5.411
  567SOL    HW1 2600   3.664   4.071   5.352
  567SOL    HW2 2601   3.718   4.097   5.504
  568SOL     OW 2602   1.720   1.031   6.360
  568SOL    HW1 2603   1.793   1.090   6.327
  568SOL    HW2 2604   1.633   1.080   6.358
  569SOL     OW 2605   1.762   3.925   6.700
  569SOL    HW1 2606   1.767   3.877   6.788
  569SOL    HW2 2607   1.847   3.977   6.686
  570SOL     OW 2608   6.988   6.300   0.080
  570SOL    HW1 2609   6.926   6.254   0.144
  570SOL    HW2 2610   6.943   6.381   0.043
  571SOL     OW 2611   3.874   6.417   1.960
  571SOL    HW1 2612   3.784   6.455   1.938
  571SOL    HW2 2613   3.862   6.325   1.999
  572SOL     OW 2614   1.453   4.374   4.193
  572SOL    HW1 2615   1.422   4.414   4.280
  572SOL    HW2 2616   1.463   4.275   4.205
  573SOL     OW 2617   3.117   2.655   6.882
  573SOL    HW1 2618   3.184   2.728   6.898
  573SOL    HW2 2619   3.104   2.642   6.784
  574SOL     OW 2620   2.737   2.397   3.933
  574SOL    HW1 2621   2.727   2.358   3.842
  574SOL    HW2 2622   2.833   2.393   3.961
  575SOL     OW 2623   5.206   2.374   6.470
  575SOL    HW1 2624   5.256   2.459   6.489
  575SOL    HW2 2625   5.125   2.395   6.415
  576SOL     OW 2626   1.325   3.208   2.814
  576SOL    HW1 2627   1.405   3.268   2.811
  576SOL    HW2 2628   1.244   3.259   2.788
  577SOL     OW 2629   4.015   1.849   4.251
  577SOL    HW1 2630   3.986   1.756   4.270
  577SOL    HW2 2631   3.997   1.907   4.331
  578SOL     OW 2632   6.953   3.876   4.003
  578SOL    HW1 2633   6.890   3.851   4.075
  578SOL    HW2 2634   6.973   3.974   4.008
  579SOL     OW 2635   3.673   3.473   0.313
  579SOL    HW1 2636   3.738   3.486   0.238
  579SOL    HW2 2637   3.636   3.562   0.340
  580SOL     OW 2638   0.413   6.791   0.170
  580SOL    HW1 2639   0.331   6.844   0.189
  580SOL    HW2 2640   0.415   6.710   0.228
  581SOL     OW 2641   4.120   3.330   2.977
  581SOL    HW1 2642   4.106   3.242   2.931
  581SOL    HW2 2643   4.126   3.402   2.908
  582SOL     OW 2644   6.572   4.420   0.662
  582SOL    HW1 2645   6.583   4.478   0.742
  582SOL    HW2 2646   6.487   4.442   0.616
  583SOL     OW 2647   2.403   6.379   6.564
  583SOL    HW1 2648   2.466   6.301   6.554
  583SOL    HW2 2649   2.456   6.463   6.574
  584SOL     OW 2650   1.665   5.104   4.743
  584SOL    HW1 2651   1.720   5.154   4.810
  584SOL    HW2 2652   1.707   5.113   4.653
  585SOL     OW 2653   5.519   0.732   5.294
  585SOL    HW1 2654   5.481   0.792   5.223
  585SOL    HW2 2655   5.614   0.709   5.270
  586SOL     OW 2656   2.876   5.878   1.286
  586SOL    HW1 2657   2.859   5.810   1.357
  586SOL    HW2 2658   2.946   5.845   1.224
  587SOL     OW 2659   2.019   2.922   6.634
  587SOL    HW1 2660   1.997   2.843   6.691
  587SOL    HW2 2661   1.954   2.928   6.558
  588SOL     OW 2662   2.058   7.005   1.689
  588SOL    HW1 2663   2.102   6.927   1.645
  588SOL    HW2 2664   2.127   0.042   1.717
  589SOL     OW 2665   4.549   4.769   1.535
  589SOL    HW1 2666   4.467   4.721   1.501
  589SOL    HW2 2667   4.521   4.850   1.586
  590SOL     OW 2668   6.688   3.293   1.767
  590SOL    HW1 2669   6.688   3.326   1.861
  590SOL    HW2 2670   6.595   3.265   1.741
  591SOL     OW 2671   2.837   0.342   2.901
  591SOL    HW1 2672   2.922   0.296   2.873
  591SOL    HW2 2673   2.762   0.313   2.842
  592SOL     OW 2674   5.794   0.094   5.745
  592SOL    HW1 2675   5.779   0.183   5.787
  592SOL    HW2 2676   5.719   0.032   5.770
  593SOL     OW 2677   7.027   0.983   4.843
  593SOL    HW1 2678   0.040   0.951   4.928
  593SOL    HW2 2679   6.928   0.967   4.847
  594SOL     OW 2680   5.855   2.054   1.607
  594SOL    HW1 2681   5.773   2.009   1.572
  594SOL    HW2 2682   5.829   2.138   1.656
  595SOL     OW 2683   3.751   0.004   3.400
  595SOL    HW1 2684   3.713   6.971   3.330
  595SOL    HW2 2685   3.736   6.993   3.491
  596SOL     OW 2686   0.880   4.391   1.309
  596SOL    HW1 2687   0.920   4.478   1.339
  596SOL    HW2 2688   0.799   4.409   1.254
  597SOL     OW 2689   4.504   2.162   6.187
  597SOL    HW1 2690   4.481   2.071   6.221
  597SOL    HW2 2691   4.428   2.197   6.132
  598SOL     OW 2692   3.059   3.678   1.407
  598SOL    HW1 2693   2.991   3.624   1.356
  598SOL    HW2 2694   3.128   3.712   1.343
  599SOL     OW 2695   6.024   5.890   3.938
  599SOL    HW1 2696   6.066   5.975   3.906
  599SOL    HW2 2697   6.027   5.822   3.865
  600SOL     OW 2698   2.976   1.276   1.529
  600SOL    HW1 2699   3.001   1.211   1.458
  600SOL    HW2 2700   3.054   1.335   1.550
  601SOL     OW 2701   1.995   4.881   3.060
  601SOL    HW1 2702   2.013   4.788   3.094
  601SOL    HW2 2703   1.998   4.882   2.961
  602SOL     OW 2704   6.786   0.556   2.438
  602SOL    HW1 2705   6.805   0.536   2.342
  602SOL    HW2 2706   6.732   0.639   2.445
  603SOL     OW 2707   4.339   1.933   3.162
  603SOL    HW1 2708   4.321   1.835   3.173
  603SOL    HW2 2709   4.263   1.975   3.112
  604SOL     OW 2710   1.373   3.438   5.951
  604SOL    HW1 2711   1.468   3.407   5.948
  604SOL    HW2 2712   1.355   3.496   5.871
  605SOL     OW 2713   5.435   0.060   4.241
  605SOL    HW1 2714   5.492   0.110   4.176
  605SOL    HW2 2715   5.359   0.117   4.271
  606SOL     OW 2716   2.735   6.504   2.254
  606SOL    HW1 2717   2.775   6.595   2.242
  606SOL    HW2 2718   2.808   6.436   2.261
  607SOL     OW 2719   3.567   0.655   4.390
  607SOL    HW1 2720   3.468   0.654   4.404
  607SOL    HW2 2721   3.594   0.742   4.349
  608SOL     OW 2722   5.559   2.874   1.193
  608SOL    HW1 2723   5.552   2.911   1.100
  608SOL    HW2 2724   5.476   2.894   1.244
  609SOL     OW 2725   3.452   4.046   5.046
  609SOL    HW1 2726   3.535   4.083   5.004
  609SOL    HW2 2727   3.459   4.053   5.145
  610SOL     OW 2728   6.277   1.896   4.512
  610SOL    HW1 2729   6.279   1.796   4.504
  610SOL    HW2 2730   6.246   1.921   4.603
  611SOL     OW 2731   5.712   0.140   0.341
  611SOL    HW1 2732   5.693   0.046   0.369
  611SOL    HW2 2733   5.803   0.166   0.374
  612SOL     OW 2734   2.059   4.554   6.530
  612SOL    HW1 2735   1.969   4.596   6.536
  612SOL    HW2 2736   2.071   4.515   6.438
  613SOL     OW 2737   4.008   1.138   6.659
  613SOL    HW1 2738   3.991   1.102   6.567
  613SOL    HW2 2739   3.987   1.068   6.726
  614SOL     OW 2740   5.033   3.094   0.968
  614SOL    HW1 2741   5.039   3.176   1.024
  614SOL    HW2 2742   5.096   3.024   1.004
  615SOL     OW 2743   5.842   6.363   0.362
  615SOL    HW1 2744   5.808   6.270   0.350
  615SOL    HW2 2745   5.942   6.363   0.354
  616SOL     OW 2746   4.784   1.506   4.526
  616SOL    HW1 2747   4.786   1.410   4.553
  616SOL    HW2 2748   4.875   1.545   4.539
  617SOL     OW 2749   6.638   6.334   4.847
  617SOL    HW1 2750   6.548   6.344   4.806
  617SOL    HW2 2751   6.628   6.325   4.946
  618SOL     OW 2752   5.729   5.145   0.267
  618SOL    HW1 2753   5.649   5.131   0.208
  618SOL    HW2 2754   5.805   5.090   0.233
  619SOL     OW 2755   2.048   6.975   6.804
  619SOL    HW1 2756   2.128   6.914   6.800
  619SOL    HW2 2757   2.040   7.014   6.895
  620SOL     OW 2758   4.603   2.311   2.203
  620SOL    HW1 2759   4.652   2.249   2.264
  620SOL    HW2 2760   4.554   2.380   2.257
  621SOL     OW 2761   2.871   0.294   6.218
  621SOL    HW1 2762   2.935   0.218   6.222
  621SOL    HW2 2763   2.782   0.262   6.185
  622SOL     OW 2764   0.220   3.650   6.019
  622SOL    HW1 2765   0.138   3.680   6.068
  622SOL    HW2 2766   0.274   3.590   6.077
  623SOL     OW 2767   6.528   1.412   2.782
  623SOL    HW1 2768   6.533   1.476   2.858
  623SOL    HW2 2769   6.485   1.327   2.812
  624SOL     OW 2770   6.943   1.001   6.647
  624SOL    HW1 2771   6.991   1.079   6.605
  624SOL    HW2 2772   6.889   1.033   6.725
  625SOL     OW 2773   3.336   1.217   1.488
  625SOL    HW1 2774   3.433   1.238   1.501
  625SOL    HW2 2775   3.281   1.299   1.509
  626SOL     OW 2776   0.582   5.814   3.739
  626SOL    HW1 2777   0.532   5.735   3.775
  626SOL    HW2 2778   0.680   5.794   3.740
  627SOL     OW 2779   6.764   5.436   6.762
  627SOL    HW1 2780   6.762   5.445   6.663
  627SOL    HW2 2781   6.699   5.501   6.803
  628SOL     OW 2782   3.916   4.419   6.446
  628SOL    HW1 2783   3.935   4.492   6.511
  628SOL    HW2 2784   3.823   4.428   6.411
  629SOL     OW 2785   1.598   0.162   6.991
  629SOL    HW1 2786   1.533   0.189   6.920
  629SOL    HW2 2787   1.574   0.071   7.026
  630SOL     OW 2788   6.359   2.259   0.953
  630SOL    HW1 2789   6.386   2.314   0.874
  630SOL    HW2 2790   6.288   2.194   0.927
  631SOL     OW 2791   1.802   3.438   2.822
  631SOL    HW1 2792   1.887   3.426   2.771
  631SOL    HW2 2793   1.821   3.486   2.908
  632SOL     OW 2794   3.354   4.570   1.396
  632SOL    HW1 2795   3.399   4.610   1.476
  632SOL    HW2 2796   3.255   4.573   1.410
  633SOL     OW 2797   0.748   6.106   0.456
  633SOL    HW1 2798   0.653   6.099   0.486
  633SOL    HW2 2799   0.802   6.035   0.501
  634SOL     OW 2800   2.997   3.152   5.552
  634SOL    HW1 2801   3.047   3.165   5.638
  634SOL    HW2 2802   2.902   3.130   5.572
  635SOL     OW 2803   6.164   6.601   6.267
  635SOL    HW1 2804   6.256   6.621   6.234
  635SOL    HW2 2805   6.168   6.526   6.333
  636SOL     OW 2806   2.155   1.480   4.431
  636SOL    HW1 2807   2.157   1.580   4.427
  636SOL    HW2 2808   2.088   1.445   4.365
  637SOL     OW 2809   6.881   1.755   2.093
  637SOL    HW1 2810   6.791   1.795   2.112
  637SOL    HW2 2811   6.914   1.787   2.005
  638SOL     OW 2812   0.117   3.193   5.234
  638SOL    HW1 2813   0.141   3.287   5.255
  638SOL    HW2 2814   0.029   3.191   5.186
  639SOL     OW 2815   5.794   3.200   2.064
  639SOL    HW1 2816   5.787   3.247   2.151
  639SOL    HW2 2817   5.866   3.242   2.009
  640SOL     OW 2818   6.302   3.513   2.764
  640SOL    HW1 2819   6.293   3.498   2.863
  640SOL    HW2 2820   6.217   3.486   2.719
  641SOL     OW 2821   2.401   5.802   4.361
  641SOL    HW1 2822   2.454   5.887   4.361
  641SOL    HW2 2823   2.305   5.823   4.344
  642SOL     OW 2824   0.788   5.110   4.543
  642SOL    HW1 2825   0.861   5.046   4.565
  642SOL    HW2 2826   0.822   5.203   4.549
  643SOL     OW 2827   4.429   4.835   0.350
  643SOL    HW1 2828   4.406   4.883   0.435
  643SOL    HW2 2829   4.523   4.855   0.325
  644SOL     OW 2830   6.086   0.426   4.726
  644SOL    HW1 2831   6.055   0.475   4.808
  644SOL    HW2 2832   6.052   0.473   4.644
  645SOL     OW 2833   4.319   6.558   1.882
  645SOL    HW1 2834   4.245   6.570   1.949
  645SOL    HW2 2835   4.390   6.499   1.921
  646SOL     OW 2836   3.511   1.923   4.905
  646SOL    HW1 2837   3.560   2.002   4.943
  646SOL    HW2 2838   3.567   1.841   4.917
  647SOL     OW 2839   2.818   1.637   0.254
  647SOL    HW1 2840   2.789   1.675   0.342
  647SOL    HW2 2841   2.737   1.605   0.204
  648SOL     OW 2842   5.340   1.333   4.286
  648SOL    HW1 2843   5.378   1.418   4.323
  648SOL    HW2 2844   5.247   1.321   4.320
  649SOL     OW 2845   3.210   5.820   0.785
  649SOL    HW1 2846   3.253   5.787   0.701
  649SOL    HW2 2847   3.276   5.874   0.837
  650SOL     OW 2848   2.304   3.385   1.481
  650SOL    HW1 2849   2.394   3.404   1.443
  650SOL    HW2 2850   2.313   3.362   1.578
  651SOL     OW 2851   0.217   1.774   3.549
  651SOL    HW1 2852   0.257   1.862   3.523
  651SOL    HW2 2853   0.289   1.706   3.561
  652SOL     OW 2854   3.813   5.998   0.685
  652SOL    HW1 2855   3.872   5.985   0.606
  652SOL    HW2 2856   3.732   5.939   0.677
  653SOL     OW 2857   1.628   0.332   2.461
  653SOL    HW1 2858   1.670   0.300   2.377
  653SOL    HW2 2859   1.550   0.272   2.485
  654SOL     OW 2860   1.364   7.019   6.090
  654SOL    HW1 2861   1.396   0.075   6.049
  654SOL    HW2 2862   1.443   6.963   6.117
  655SOL     OW 2863   1.553   3.668   0.910
  655SOL    HW1 2864   1.533   3.571   0.897
  655SOL    HW2 2865   1.478   3.723   0.873
  656SOL     OW 2866   2.391   0.507   6.909
  656SOL    HW1 2867   2.326   0.432   6.911
  656SOL    HW2 2868   2.441   0.506   6.822
  657SOL     OW 2869   3.846   3.546   4.116
  657SOL    HW1 2870   3.799   3.618   4.167
  657SOL    HW2 2871   3.822   3.457   4.155
  658SOL     OW 2872   1.756   0.816   4.454
  658SOL    HW1 2873   1.744   0.805   4.552
  658SOL    HW2 2874   1.842   0.774   4.426
  659SOL     OW 2875   2.059   5.828   0.044
  659SOL    HW1 2876   2.001   5.907   0.022
  659SOL    HW2 2877   2.009   5.744   0.025
  660SOL     OW 2878   5.572   3.975   2.546
  660SOL    HW1 2879   5.585   3.985   2.644
  660SOL    HW2 2880   5.496   3.912   2.529
  661SOL     OW 2881   4.531   5.745   3.934
  661SOL    HW1 2882   4.606   5.681   3.917
  661SOL    HW2 2883   4.488   5.723   4.022
  662SOL     OW 2884   6.185   3.920   6.624
  662SOL    HW1 2885   6.257   3.857   6.653
  662SOL    HW2 2886   6.096   3.880   6.643
  663SOL     OW 2887   0.832   4.381   5.928
  663SOL    HW1 2888   0.843   4.380   6.027
  663SOL    HW2 2889   0.820   4.288   5.894
  664SOL     OW 2890   1.657   0.262   5.545
  664SOL    HW1 2891   1.617   0.174   5.517
  664SOL    HW2 2892   1.589   0.335   5.534
  665SOL     OW 2893   2.361   4.464   3.357
  665SOL    HW1 2894   2.406   4.466   3.447
  665SOL    HW2 2895   2.297   4.540   3.351
  666SOL     OW 2896   3.394   0.558   6.906
  666SOL    HW1 2897   3.456   0.579   6.982
  666SOL    HW2 2898   3.350   0.470   6.922
  667SOL     OW 2899   1.317   2.912   2.383
  667SOL    HW1 2900   1.285   2.818   2.369
  667SOL    HW2 2901   1.327   2.929   2.481
  668SOL     OW 2902   5.435   0.014   0.260
  668SOL    HW1 2903   5.390   7.027   0.172
  668SOL    HW2 2904   5.507   0.082   0.249
  669SOL     OW 2905   7.020   5.303   2.612
  669SOL    HW1 2906   6.954   5.285   2.539
  669SOL    HW2 2907   6.971   5.323   2.697
  670SOL     OW 2908   3.981   3.892   3.273
  670SOL    HW1 2909   4.052   3.954   3.305
  670SOL    HW2 2910   4.013   3.798   3.281
  671SOL     OW 2911   2.037   0.290   6.507
  671SOL    HW1 2912   1.987   0.323   6.427
  671SOL    HW2 2913   1.972   0.258   6.576
  672SOL     OW 2914   1.035   2.675   3.227
  672SOL    HW1 2915   1.120   2.675   3.174
  672SOL    HW2 2916   1.054   2.706   3.321
  673SOL     OW 2917   5.187   0.365   6.820
  673SOL    HW1 2918   5.128   0.418   6.761
  673SOL    HW2 2919   5.270   0.417   6.840
  674SOL     OW 2920   0.125   2.371   4.475
  674SOL    HW1 2921   0.135   2.470   4.464
  674SOL    HW2 2922   0.121   2.349   4.573
  675SOL     OW 2923   5.422   6.379   3.824
  675SOL    HW1 2924   5.498   6.373   3.760
  675SOL    HW2 2925   5.457   6.376   3.918
  676SOL     OW 2926   3.059   4.943   4.410
  676SOL    HW1 2927   3.143   4.930   4.462
  676SOL    HW2 2928   2.979   4.926   4.469
  677SOL     OW 2929   4.818   6.243   0.254
  677SOL    HW1 2930   4.787   6.328   0.297
  677SOL    HW2 2931   4.740   6.183   0.238
  678SOL     OW 2932   2.449   1.116   6.185
  678SOL    HW1 2933   2.377   1.077   6.242
  678SOL    HW2 2934   2.414   1.131   6.092
  679SOL     OW 2935   6.369   0.284   2.522
  679SOL    HW1 2936   6.451   0.232   2.544
  679SOL    HW2 2937   6.290   0.243   2.570
  680SOL     OW 2938   6.039   3.997   4.162
  680SOL    HW1 2939   6.128   4.039   4.178
  680SOL    HW2 2940   6.021   3.995   4.064
  681SOL     OW 2941   1.345   5.791   2.329
  681SOL    HW1 2942   1.427   5.841   2.302
  681SOL    HW2 2943   1.264   5.838   2.293
  682SOL     OW 2944   0.477   0.378   6.103
  682SOL    HW1 2945   0.484   0.282   6.129
  682SOL    HW2 2946   0.399   0.420   6.151
  683SOL     OW 2947   5.159   1.345   1.703
  683SOL    HW1 2948   5.131   1.249   1.707
  683SOL    HW2 2949   5.141   1.380   1.611
  684SOL     OW 2950   0.265   5.945   6.729
  684SOL    HW1 2951   0.200   5.973   6.659
  684SOL    HW2 2952   0.217   5.894   6.801
  685SOL     OW 2953   6.312   0.303   5.839
  685SOL    HW1 2954   6.370   0.240   5.789
  685SOL    HW2 2955   6.217   0.271   5.836
  686SOL     OW 2956   5.676   4.667   1.638
  686SOL    HW1 2957   5.645   4.592   1.697
  686SOL    HW2 2958   5.773   4.683   1.652
  687SOL     OW 2959   5.742   2.288   6.538
  687SOL    HW1 2960   5.794   2.261   6.457
  687SOL    HW2 2961   5.669   2.351   6.511
  688SOL     OW 2962   6.337   3.216   5.149
  688SOL    HW1 2963   6.295   3.177   5.231
  688SOL    HW2 2964   6.322   3.315   5.148
  689SOL     OW 2965   5.364   4.413   4.426
  689SOL    HW1 2966   5.401   4.416   4.519
  689SOL    HW2 2967   5.386   4.499   4.378
  690SOL     OW 2968   0.261   2.968   4.805
  690SOL    HW1 2969   0.257   3.049   4.747
  690SOL    HW2 2970   0.188   2.905   4.780
  691SOL     OW 2971   0.218   3.054   6.904
  691SOL    HW1 2972   0.209   2.973   6.962
  691SOL    HW2 2973   0.302   3.047   6.849
  692SOL     OW 2974   2.950   0.283   3.468
  692SOL    HW1 2975   2.945   0.278   3.368
  692SOL    HW2 2976   2.880   0.347   3.502
  693SOL     OW 2977   6.414   1.592   4.068
  693SOL    HW1 2978   6.505   1.573   4.031
  693SOL    HW2 2979   6.367   1.505   4.086
  694SOL     OW 2980   1.455   0.453   2.704
  694SOL    HW1 2981   1.509   0.525   2.660
  694SOL    HW2 2982   1.370   0.492   2.738
  695SOL     OW 2983   4.521   5.268   6.611
  695SOL    HW1 2984   4.609   5.269   6.564
  695SOL    HW2 2985   4.448   5.258   6.544
  696SOL     OW 2986   5.235   5.776   2.298
  696SOL    HW1 2987   5.300   5.794   2.372
  696SOL    HW2 2988   5.142   5.786   2.332
  697SOL     OW 2989   1.318   3.735   3.253
  697SOL    HW1 2990   1.218   3.726   3.253
  697SOL    HW2 2991   1.358   3.667   3.315
  698SOL     OW 2992   4.922   6.189   3.674
  698SOL    HW1 2993   4.971   6.228   3.752
  698SOL    HW2 2994   4.873   6.107   3.704
  699SOL     OW 2995   1.132   4.831   6.179
  699SOL    HW1 2996   1.100   4.921   6.210
  699SOL    HW2 2997   1.232   4.832   6.171
  700SOL     OW 2998   1.612   1.926   5.307
  700SOL    HW1 2999   1.671   2.006   5.300
  700SOL    HW2 3000   1.640   1.858   5.239
  701SOL     OW 3001   1.266   4.760   4.767
  701SOL    HW1 3002   1.241   4.738   4.673
  701SOL    HW2 3003   1.313   4.848   4.770
  702SOL     OW 3004   6.106   6.194   5.238
  702SOL    HW1 3005   6.136   6.100   5.259
  702SOL    HW2 3006   6.137   6.220   5.147
  703SOL     OW 3007   5.784   3.856   6.073
  703SOL    HW1 3008   5.829   3.901   6.150
  703SOL    HW2 3009   5.852   3.807   6.018
  704SOL     OW 3010   2.436   6.641   1.615
  704SOL    HW1 3011   2.494   6.649   1.534
  704SOL    HW2 3012   2.400   6.548   1.621
  705SOL     OW 3013   1.043   1.868   3.848
  705SOL    HW1 3014   1.015   1.817   3.930
  705SOL    HW2 3015   1.106   1.941   3.875
  706SOL     OW 3016   5.273   3.546   4.120
  706SOL    HW1 3017   5.363   3.526   4.158
  706SOL    HW2 3018   5.203   3.534   4.191
  707SOL     OW 3019   5.055   2.704   2.964
  707SOL    HW1 3020   5.153   2.706   2.981
  707SOL    HW2 3021   5.039   2.706   2.865
  708SOL     OW 3022   5.079   1.697   2.235
  708SOL    HW1 3023   5.023   1.725   2.158
  708SOL    HW2 3024   5.133   1.775   2.268
  709SOL     OW 3025   1.010   5.004   6.451
  709SOL    HW1 3026   0.916   5.037   6.466
  709SOL    HW2 3027   1.071   5.051   6.514
  710SOL     OW 3028   3.046   3.820   3.004
  710SOL    HW1 3029   3.031   3.760   3.083
  710SOL    HW2 3030   3.082   3.908   3.034
  711SOL     OW 3031   0.196   1.087   4.712
  711SOL    HW1 3032   0.124   1.044   4.767
  711SOL    HW2 3033   0.249   1.017   4.665
  712SOL     OW 3034   0.048   4.006   3.320
  712SOL    HW1 3035   6.999   4.050   3.277
  712SOL    HW2 3036   0.061   3.914   3.282
  713SOL     OW 3037   3.192   3.766   5.319
  713SOL    HW1 3038   3.094   3.768   5.301
  713SOL    HW2 3039   3.226   3.859   5.333
  714SOL     OW 3040   4.399   4.983   5.216
  714SOL    HW1 3041   4.428   4.938   5.132
  714SOL    HW2 3042   4.411   4.921   5.294
  715SOL     OW 3043   6.356   0.270   6.445
  715SOL    HW1 3044   6.291   0.220   6.503
  715SOL    HW2 3045   6.314   0.289   6.357
  716SOL     OW 3046   5.942   5.437   0.072
  716SOL    HW1 3047   5.849   5.471   0.082
  716SOL    HW2 3048   5.944   5.360   0.009
  717SOL     OW 3049   6.159   3.191   6.123
  717SOL    HW1 3050   6.248   3.224   6.155
  717SOL    HW2 3051   6.100   3.269   6.102
  718SOL     OW 3052   3.118   2.454   0.038
  718SOL    HW1 3053   3.210   2.414   0.037
  718SOL    HW2 3054   3.110   2.520   6.993
  719SOL     OW 3055   5.725   4.531   6.857
  719SOL    HW1 3056   5.643   4.475   6.846
  719SOL    HW2 3057   5.705   4.626   6.831
  720SOL     OW 3058   4.086   1.265   5.481
  720SOL    HW1 3059   4.049   1.281   5.390
  720SOL    HW2 3060   4.029   1.199   5.529
  721SOL     OW 3061   0.956   0.196   5.505
  721SOL    HW1 3062   0.907   0.177   5.590
  721SOL    HW2 3063   1.030   0.261   5.523
  722SOL     OW 3064   4.788   0.393   5.200
  722SOL    HW1 3065   4.768   0.394   5.102
  722SOL    HW2 3066   4.883   0.418   5.216
  723SOL     OW 3067   1.152   3.423   2.148
  723SOL    HW1 3068   1.164   3.353   2.218
  723SOL    HW2 3069   1.082   3.393   2.082
  724SOL     OW 3070   0.099   1.667   4.869
  724SOL    HW1 3071   0.150   1.740   4.824
  724SOL    HW2 3072   0.021   1.641   4.813
  725SOL     OW 3073   2.601   4.992   2.927
  725SOL    HW1 3074   2.542   5.043   2.990
  725SOL    HW2 3075   2.614   5.045   2.843
  726SOL     OW 3076   5.212   6.141   5.537
  726SOL    HW1 3077   5.143   6.069   5.540
  726SOL    HW2 3078   5.302   6.100   5.518
  727SOL     OW 3079   2.398   4.954   4.386
  727SOL    HW1 3080   2.301   4.950   4.406
  727SOL    HW2 3081   2.449   4.975   4.469
  728SOL     OW 3082   6.635   3.122   5.839
  728SOL    HW1 3083   6.596   3.193   5.780
  728SOL    HW2 3084   6.594   3.128   5.930
  729SOL     OW 3085   4.683   1.686   0.674
  729SOL    HW1 3086   4.762   1.688   0.735
  729SOL    HW2 3087   4.706   1.634   0.592
  730SOL     OW 3088   6.165   1.411   4.648
  730SOL    HW1 3089   6.184   1.357   4.730
  730SOL    HW2 3090   6.172   1.353   4.567
  731SOL     OW 3091   6.886   2.178   3.932
  731SOL    HW1 3092   6.865   2.174   4.030
  731SOL    HW2 3093   6.957   2.112   3.910
  732SOL     OW 3094   0.708   3.379   3.362
  732SOL    HW1 3095   0.709   3.459   3.301
  732SOL    HW2 3096   0.703   3.410   3.457
  733SOL     OW 3097   4.895   4.768   3.997
  733SOL    HW1 3098   4.951   4.785   3.916
  733SOL    HW2 3099   4.951   4.778   4.079
  734SOL     OW 3100   0.925   6.254   0.314
  734SOL    HW1 3101   0.845   6.205   0.349
  734SOL    HW2 3102   0.908   6.282   0.220
  735SOL     OW 3103   3.058   4.829   6.676
  735SOL    HW1 3104   3.031   4.743   6.634
  735SOL    HW2 3105   2.977   4.879   6.706
  736SOL     OW 3106   5.839   1.167   2.638
  736SOL    HW1 3107   5.836   1.179   2.538
  736SOL    HW2 3108   5.846   1.070   2.659
  737SOL     OW 3109   5.516   4.018   6.723
  737SOL    HW1 3110   5.583   4.061   6.783
  737SOL    HW2 3111   5.439   4.080   6.709
  738SOL     OW 3112   0.885   4.156   3.415
  738SOL    HW1 3113   0.938   4.105   3.347
  738SOL    HW2 3114   0.844   4.236   3.371
  739SOL     OW 3115   4.556   6.408   6.076
  739SOL    HW1 3116   4.580   6.312   6.093
  739SOL    HW2 3117   4.607   6.442   5.998
  740SOL     OW 3118   5.632   6.927   0.414
  740SOL    HW1 3119   5.535   6.943   0.396
  740SOL    HW2 3120   5.662   6.845   0.366
  741SOL     OW 3121   2.498   0.172   3.797
  741SOL    HW1 3122   2.451   0.250   3.755
  741SOL    HW2 3123   2.504   0.187   3.895
  742SOL     OW 3124   1.657   6.524   2.769
  742SOL    HW1 3125   1.750   6.545   2.799
  742SOL    HW2 3126   1.620   6.602   2.718
  743SOL     OW 3127   1.788   3.580   3.468
  743SOL    HW1 3128   1.822   3.572   3.561
  743SOL    HW2 3129   1.822   3.665   3.428
  744SOL     OW 3130   6.485   4.979   0.844
  744SOL    HW1 3131   6.398   4.930   0.847
  744SOL    HW2 3132   6.553   4.924   0.795
  745SOL     OW 3133   2.142   5.822   2.498
  745SOL    HW1 3134   2.221   5.760   2.506
  745SOL    HW2 3135   2.175   5.916   2.485
  746SOL     OW 3136   3.044   0.186   3.118
  746SOL    HW1 3137   3.005   0.095   3.133
  746SOL    HW2 3138   2.976   0.256   3.141
  747SOL     OW 3139   6.596   3.651   0.968
  747SOL    HW1 3140   6.630   3.571   1.016
  747SOL    HW2 3141   6.616   3.733   1.022
  748SOL     OW 3142   3.211   2.950   2.945
  748SOL    HW1 3143   3.126   3.001   2.957
  748SOL    HW2 3144   3.231   2.939   2.847
  749SOL     OW 3145   5.600   2.374   4.947
  749SOL    HW1 3146   5.618   2.445   4.879
  749SOL    HW2 3147   5.503   2.352   4.948
  750SOL     OW 3148   3.239   3.673   2.045
  750SOL    HW1 3149   3.211   3.594   2.098
  750SOL    HW2 3150   3.160   3.733   2.031
  751SOL     OW 3151   5.554   1.769   0.146
  751SOL    HW1 3152   5.561   1.722   0.234
  751SOL    HW2 3153   5.548   1.867   0.160
  752SOL     OW 3154   4.275   0.954   1.826
  752SOL    HW1 3155   4.269   0.952   1.727
  752SOL    HW2 3156   4.366   0.985   1.853
  753SOL     OW 3157   3.834   1.724   2.408
  753SOL    HW1 3158   3.835   1.820   2.381
  753SOL    HW2 3159   3.751   1.681   2.374
  754SOL     OW 3160   5.660   5.752   6.942
  754SOL    HW1 3161   5.660   5.661   6.983
  754SOL    HW2 3162   5.567   5.774   6.911
  755SOL     OW 3163   6.134   5.939   2.183
  755SOL    HW1 3164   6.169   5.869   2.121
  755SOL    HW2 3165   6.123   5.900   2.275
  756SOL     OW 3166   2.514   6.812   3.605
  756SOL    HW1 3167   2.603   6.793   3.644
  756SOL    HW2 3168   2.464   6.726   3.590
  757SOL     OW 3169   6.800   0.877   4.008
  757SOL    HW1 3170   6.886   0.892   3.958
  757SOL    HW2 3171   6.810   0.911   4.102
  758SOL     OW 3172   4.416   2.071   1.235
  758SOL    HW1 3173   4.424   2.166   1.265
  758SOL    HW2 3174   4.359   2.066   1.153
  759SOL     OW 3175   2.165   0.678   1.512
  759SOL    HW1 3176   2.158   0.673   1.412
  759SOL    HW2 3177   2.202   0.766   1.539
  760SOL     OW 3178   4.557   1.771   6.162
  760SOL    HW1 3179   4.608   1.770   6.076
  760SOL    HW2 3180   4.602   1.832   6.227
  761SOL     OW 3181   5.164   0.919   6.805
  761SOL    HW1 3182   5.137   0.925   6.901
  761SOL    HW2 3183   5.100   0.973   6.750
  762SOL     OW 3184   2.334   4.783   4.636
  762SOL    HW1 3185   2.320   4.719   4.712
  762SOL    HW2 3186   2.317   4.876   4.667
  763SOL     OW 3187   6.252   4.961   0.150
  763SOL    HW1 3188   6.155   4.982   0.141
  763SOL    HW2 3189   6.263   4.865   0.176
  764SOL     OW 3190   5.978   1.360   2.764
  764SOL    HW1 3191   5.916   1.309   2.704
  764SOL    HW2 3192   5.979   1.318   2.855
  765SOL     OW 3193   1.064   6.711   3.389
  765SOL    HW1 3194   1.070   6.785   3.322
  765SOL    HW2 3195   1.144   6.713   3.449
  766SOL     OW 3196   6.673   6.104   0.154
  766SOL    HW1 3197   6.734   6.148   0.220
  766SOL    HW2 3198   6.637   6.173   0.091
  767SOL     OW 3199   6.253   6.092   1.363
  767SOL    HW1 3200   6.201   6.174   1.389
  767SOL    HW2 3201   6.234   6.018   1.428
  768SOL     OW 3202   2.947   6.689   4.116
  768SOL    HW1 3203   2.898   6.775   4.129
  768SOL    HW2 3204   2.997   6.691   4.030
  769SOL     OW 3205   4.369   0.580   0.166
  769SOL    HW1 3206   4.402   0.520   0.094
  769SOL    HW2 3207   4.402   0.548   0.255
  770SOL     OW 3208   3.319   4.930   4.554
  770SOL    HW1 3209   3.402   4.883   4.523
  770SOL    HW2 3210   3.313   4.926   4.653
  771SOL     OW 3211   0.657   6.234   4.291
  771SOL    HW1 3212   0.679   6.176   4.369
  771SOL    HW2 3213   0.680   6.329   4.313
  772SOL     OW 3214   0.349   4.271   6.155
  772SOL    HW1 3215   0.290   4.191   6.151
  772SOL    HW2 3216   0.347   4.310   6.248
  773SOL     OW 3217   6.926   3.241   2.347
  773SOL    HW1 3218   6.893   3.299   2.421
  773SOL    HW2 3219   6.959   3.155   2.385
  774SOL     OW 3220   1.336   1.003   1.805
  774SOL    HW1 3221   1.412   0.951   1.842
  774SOL    HW2 3222   1.366   1.095   1.782
  775SOL     OW 3223   1.680   2.705   4.143
  775SOL    HW1 3224   1.616   2.694   4.220
  775SOL    HW2 3225   1.712   2.615   4.114
  776SOL     OW 3226   1.796   0.583   4.797
  776SOL    HW1 3227   1.891   0.605   4.819
  776SOL    HW2 3228   1.794   0.516   4.724
  777SOL     OW 3229   4.438   6.960   6.627
  777SOL    HW1 3230   4.373   6.926   6.694
  777SOL    HW2 3231   4.501   6.887   6.601
  778SOL     OW 3232   4.425   5.407   4.669
  778SOL    HW1 3233   4.407   5.504   4.654
  778SOL    HW2 3234   4.402   5.355   4.586
  779SOL     OW 3235   0.609   0.148   2.130
  779SOL    HW1 3236   0.515   0.151   2.163
  779SOL    HW2 3237   0.668   0.198   2.192
  780SOL     OW 3238   5.686   2.230   4.680
  780SOL    HW1 3239   5.711   2.228   4.583
  780SOL    HW2 3240   5.617   2.160   4.698
  781SOL     OW 3241   0.597   2.830   6.464
  781SOL    HW1 3242   0.657   2.894   6.513
  781SOL    HW2 3243   0.502   2.856   6.479
  782SOL     OW 3244   6.993   5.009   0.736
  782SOL    HW1 3245   6.981   4.979   0.642
  782SOL    HW2 3246   7.015   5.107   0.737
  783SOL     OW 3247   1.560   5.451   0.213
  783SOL    HW1 3248   1.589   5.358   0.234
  783SOL    HW2 3249   1.640   5.512   0.216
  784SOL     OW 3250   5.494   5.385   3.236
  784SOL    HW1 3251   5.423   5.449   3.207
  784SOL    HW2 3252   5.469   5.345   3.325
  785SOL     OW 3253   6.504   2.516   3.698
  785SOL    HW1 3254   6.562   2.583   3.745
  785SOL    HW2 3255   6.546   2.492   3.611
  786SOL     OW 3256   6.142   6.738   0.858
  786SOL    HW1 3257   6.061   6.774   0.811
  786SOL    HW2 3258   6.113   6.682   0.936
  787SOL     OW 3259   4.773   1.161   7.023
  787SOL    HW1 3260   4.847   1.216   6.983
  787SOL    HW2 3261   4.690   1.171   6.967
  788SOL     OW 3262   0.317   4.050   3.308
  788SOL    HW1 3263   0.221   4.053   3.334
  788SOL    HW2 3264   0.365   4.128   3.347
  789SOL     OW 3265   5.470   2.979   0.951
  789SOL    HW1 3266   5.511   2.934   0.872
  789SOL    HW2 3267   5.418   3.059   0.920
  790SOL     OW 3268   3.144   0.348   4.115
  790SOL    HW1 3269   3.207   0.396   4.053
  790SOL    HW2 3270   3.083   0.289   4.062
  791SOL     OW 3271   4.346   1.263   4.973
  791SOL    HW1 3272   4.318   1.319   4.895
  791SOL    HW2 3273   4.315   1.169   4.960
  792SOL     OW 3274   5.367   0.780   3.504
  792SOL    HW1 3275   5.379   0.876   3.530
  792SOL    HW2 3276   5.275   0.767   3.466
  793SOL     OW 3277   0.021   0.281   6.730
  793SOL    HW1 3278   0.091   0.315   6.667
  793SOL    HW2 3279   6.983   0.353   6.748
  794SOL     OW 3280   3.589   4.750   5.293
  794SOL    HW1 3281   3.685   4.772   5.275
  794SOL    HW2 3282   3.580   4.652   5.309
  795SOL     OW 3283   5.261   5.250   0.099
  795SOL    HW1 3284   5.180   5.201   0.067
  795SOL    HW2 3285   5.239   5.300   0.183
  796SOL     OW 3286   0.281   1.489   5.604
  796SOL    HW1 3287   0.197   1.514   5.652
  796SOL    HW2 3288   0.276   1.521   5.509
  797SOL     OW 3289   5.793   3.166   5.363
  797SOL    HW1 3290   5.864   3.219   5.410
  797SOL    HW2 3291   5.836   3.090   5.314
  798SOL     OW 3292   6.740   0.923   4.900
  798SOL    HW1 3293   6.780   0.833   4.883
  798SOL    HW2 3294   6.641   0.914   4.911
  799SOL     OW 3295   6.515   3.848   3.314
  799SOL    HW1 3296   6.492   3.796   3.232
  799SOL    HW2 3297   6.606   3.821   3.346
  800SOL     OW 3298   0.141   1.658   2.362
  800SOL    HW1 3299   0.081   1.624   2.290
  800SOL    HW2 3300   0.182   1.580   2.410
  801SOL     OW 3301   0.442   2.767   4.109
  801SOL    HW1 3302   0.477   2.673   4.110
  801SOL    HW2 3303   0.476   2.814   4.028
  802SOL     OW 3304   6.348   1.115   1.467
  802SOL    HW1 3305   6.420   1.094   1.401
  802SOL    HW2 3306   6.388   1.161   1.546
  803SOL     OW 3307   1.577   0.290   4.499
  803SOL    HW1 3308   1.575   0.332   4.408
  803SOL    HW2 3309   1.638   0.343   4.559
  804SOL     OW 3310   6.259   6.615   0.636
  804SOL    HW1 3311   6.346   6.658   0.611
  804SOL    HW2 3312   6.220   6.663   0.715
  805SOL     OW 3313   2.124   3.116   6.145
  805SOL    HW1 3314   2.205   3.086   6.095
  805SOL    HW2 3315   2.059   3.040   6.150
  806SOL     OW 3316   4.250   6.723   0.379
  806SOL    HW1 3317   4.197   6.670   0.313
  806SOL    HW2 3318   4.328   6.766   0.334
  807SOL     OW 3319   0.716   6.919   3.305
  807SOL    HW1 3320   0.663   6.905   3.389
  807SOL    HW2 3321   0.729   6.830   3.260
  808SOL     OW 3322   5.619   3.963   4.622
  808SOL    HW1 3323   5.699   3.954   4.682
  808SOL    HW2 3324   5.543   4.004   4.673
  809SOL     OW 3325   0.862   6.613   5.779
  809SOL    HW1 3326   0.789   6.551   5.752
  809SOL    HW2 3327   0.950   6.567   5.769
  810SOL     OW 3328   6.530   5.367   6.517
  810SOL    HW1 3329   6.479   5.361   6.432
  810SOL    HW2 3330   6.616   5.415   6.501
  811SOL     OW 3331   3.249   4.901   3.265
  811SOL    HW1 3332   3.197   4.864   3.188
  811SOL    HW2 3333   3.190   4.908   3.345
  812SOL     OW 3334   6.932   0.592   2.795
  812SOL    HW1 3335   6.931   0.519   2.863
  812SOL    HW2 3336   6.839   0.609   2.763
  813SOL     OW 3337   5.541   5.651   1.886
  813SOL    HW1 3338   5.496   5.563   1.893
  813SOL    HW2 3339   5.582   5.661   1.796
  814SOL     OW 3340   5.008   5.562   1.405
  814SOL    HW1 3341   4.930   5.528   1.352
  814SOL    HW2 3342   4.986   5.653   1.441
  815SOL     OW 3343   1.292   1.242   0.576
  815SOL    HW1 3344   1.313   1.146   0.599
  815SOL    HW2 3345   1.261   1.289   0.659
  816SOL     OW 3346   5.749   0.814   1.867
  816SOL    HW1 3347   5.811   0.797   1.790
  816SOL    HW2 3348   5.756   0.739   1.933
  817SOL     OW 3349   0.904   2.107   2.259
  817SOL    HW1 3350   0.865   2.019   2.233
  817SOL    HW2 3351   0.859   2.140   2.342
  818SOL     OW 3352   5.540   1.531   2.624
  818SOL    HW1 3353   5.546   1.478   2.709
  818SOL    HW2 3354   5.543   1.629   2.647
  819SOL     OW 3355   0.522   5.198   2.127
  819SOL    HW1 3356   0.567   5.179   2.214
  819SOL    HW2 3357   0.424   5.183   2.137
  820SOL     OW 3358   2.230   2.907   5.674
  820SOL    HW1 3359   2.261   2.951   5.590
  820SOL    HW2 3360   2.143   2.946   5.702
  821SOL     OW 3361   1.054   4.521   0.593
  821SOL    HW1 3362   1.030   4.588   0.662
  821SOL    HW2 3363   1.123   4.559   0.531
  822SOL     OW 3364   1.214   3.025   4.980
  822SOL    HW1 3365   1.124   3.059   5.007
  822SOL    HW2 3366   1.223   3.032   4.881
  823SOL     OW 3367   3.899   3.913   1.643
  823SOL    HW1 3368   3.913   3.823   1.601
  823SOL    HW2 3369   3.923   3.908   1.740
  824SOL     OW 3370   6.246   2.723   6.112
  824SOL    HW1 3371   6.158   2.677   6.125
  824SOL    HW2 3372   6.267   2.779   6.192
  825SOL     OW 3373   1.477   3.490   1.829
  825SOL    HW1 3374   1.393   3.519   1.874
  825SOL    HW2 3375   1.487   3.537   1.741
  826SOL     OW 3376   1.365   3.090   6.230
  826SOL    HW1 3377   1.463   3.111   6.230
  826SOL    HW2 3378   1.320   3.141   6.304
  827SOL     OW 3379   3.479   4.644   1.074
  827SOL    HW1 3380   3.405   4.704   1.104
  827SOL    HW2 3381   3.488   4.648   0.974
  828SOL     OW 3382   6.263   0.484   5.393
  828SOL    HW1 3383   6.352   0.444   5.368
  828SOL    HW2 3384   6.204   0.413   5.431
  829SOL     OW 3385   3.806   3.802   5.768
  829SOL    HW1 3386   3.810   3.707   5.737
  829SOL    HW2 3387   3.762   3.806   5.858
  830SOL     OW 3388   4.440   3.437   6.021
  830SOL    HW1 3389   4.528   3.484   6.024
  830SOL    HW2 3390   4.370   3.499   5.987
  831SOL     OW 3391   5.508   0.201   4.947
  831SOL    HW1 3392   5.445   0.250   4.888
  831SOL    HW2 3393   5.505   0.240   5.039
  832SOL     OW 3394   2.688   1.681   5.907
  832SOL    HW1 3395   2.734   1.594   5.928
  832SOL    HW2 3396   2.717   1.713   5.817
  833SOL     OW 3397   1.292   0.658   5.344
  833SOL    HW1 3398   1.194   0.651   5.361
  833SOL    HW2 3399   1.307   0.672   5.246
  834SOL     OW 3400   3.317   4.545   5.866
  834SOL    HW1 3401   3.282   4.458   5.830
  834SOL    HW2 3402   3.395   4.575   5.812
  835SOL     OW 3403   4.023   1.544   2.374
  835SOL    HW1 3404   4.003   1.471   2.308
  835SOL    HW2 3405   3.949   1.612   2.372
  836SOL     OW 3406   2.302   0.838   6.341
  836SOL    HW1 3407   2.340   0.886   6.420
  836SOL    HW2 3408   2.251   0.902   6.284
  837SOL     OW 3409   4.154   1.676   4.791
  837SOL    HW1 3410   4.088   1.666   4.865
  837SOL    HW2 3411   4.112   1.727   4.716
  838SOL     OW 3412   1.334   6.433   2.412
  838SOL    HW1 3413   1.326   6.468   2.506
  838SOL    HW2 3414   1.353   6.508   2.350
  839SOL     OW 3415   2.531   1.308   1.834
  839SOL    HW1 3416   2.570   1.221   1.803
  839SOL    HW2 3417   2.454   1.290   1.896
  840SOL     OW 3418   1.310   0.790   5.706
  840SOL    HW1 3419   1.325   0.835   5.618
  840SOL    HW2 3420   1.276   0.857   5.772
  841SOL     OW 3421   0.306   3.722   1.253
  841SOL    HW1 3422   0.222   3.776   1.262
  841SOL    HW2 3423   0.286   3.639   1.201
  842SOL     OW 3424   3.875   4.879   3.959
  842SOL    HW1 3425   3.942   4.949   3.984
  842SOL    HW2 3426   3.850   4.890   3.863
  843SOL     OW 3427   0.131   3.743   1.761
  843SOL    HW1 3428   0.048   3.762   1.708
  843SOL    HW2 3429   0.200   3.702   1.701
  844SOL     OW 3430   5.989   4.584   6.237
  844SOL    HW1 3431   6.031   4.494   6.254
  844SOL    HW2 3432   5.974   4.630   6.324
  845SOL     OW 3433   2.082   4.868   5.754
  845SOL    HW1 3434   1.983   4.871   5.766
  845SOL    HW2 3435   2.127   4.899   5.838
  846SOL     OW 3436   4.194   2.263   6.940
  846SOL    HW1 3437   4.194   2.180   6.884
  846SOL    HW2 3438   4.279   2.268   6.992
  847SOL     OW 3439   5.169   4.352   2.214
  847SOL    HW1 3440   5.199   4.334   2.120
  847SOL    HW2 3441   5.170   4.450   2.231
  848SOL     OW 3442   5.951   7.028   5.538
  848SOL    HW1 3443   5.963   0.036   5.446
  848SOL    HW2 3444   5.874   0.045   5.583
  849SOL     OW 3445   0.759   5.796   4.134
  849SOL    HW1 3446   0.810   5.764   4.214
  849SOL    HW2 3447   0.789   5.747   4.053
  850SOL     OW 3448   3.076   0.627   3.385
  850SOL    HW1 3449   3.088   0.689   3.307
  850SOL    HW2 3450   3.165   0.590   3.413
  851SOL     OW 3451   6.955   1.014   5.690
  851SOL    HW1 3452   6.898   0.940   5.652
  851SOL    HW2 3453   6.989   1.071   5.615
  852SOL     OW 3454   2.778   4.931   5.422
  852SOL    HW1 3455   2.857   4.966   5.373
  852SOL    HW2 3456   2.749   4.844   5.382
  853SOL     OW 3457   0.661   4.529   0.597
  853SOL    HW1 3458   0.729   4.471   0.643
  853SOL    HW2 3459   0.627   4.482   0.516
  854SOL     OW 3460   5.967   5.063   1.265
  854SOL    HW1 3461   6.010   4.981   1.305
  854SOL    HW2 3462   5.960   5.134   1.336
  855SOL     OW 3463   5.196   0.486   0.597
  855SOL    HW1 3464   5.270   0.490   0.530
  855SOL    HW2 3465   5.109   0.506   0.551
  856SOL     OW 3466   1.526   0.490   4.795
  856SOL    HW1 3467   1.475   0.467   4.878
  856SOL    HW2 3468   1.613   0.533   4.820
  857SOL     OW 3469   5.385   3.809   1.323
  857SOL    HW1 3470   5.313   3.868   1.287
  857SOL    HW2 3471   5.345   3.723   1.355
  858SOL     OW 3472   3.786   4.051   2.349
  858SOL    HW1 3473   3.695   4.080   2.380
  858SOL    HW2 3474   3.831   4.000   2.423
  859SOL     OW 3475   0.431   4.231   0.431
  859SOL    HW1 3476   0.517   4.197   0.469
  859SOL    HW2 3477   0.447   4.319   0.385
  860SOL     OW 3478   1.797   3.642   6.591
  860SOL    HW1 3479   1.807   3.606   6.684
  860SOL    HW2 3480   1.777   3.740   6.595
  861SOL     OW 3481   4.078   4.500   6.224
  861SOL    HW1 3482   4.144   4.544   6.285
  861SOL    HW2 3483   4.030   4.428   6.275
  862SOL     OW 3484   4.606   4.313   3.388
  862SOL    HW1 3485   4.651   4.352   3.468
  862SOL    HW2 3486   4.670   4.257   3.337
  863SOL     OW 3487   5.636   2.693   1.598
  863SOL    HW1 3488   5.579   2.760   1.646
  863SOL    HW2 3489   5.679   2.632   1.665
  864SOL     OW 3490   0.330   5.531   2.776
  864SOL    HW1 3491   0.276   5.579   2.706
  864SOL    HW2 3492   0.291   5.439   2.790
  865SOL     OW 3493   2.106   0.865   3.608
  865SOL    HW1 3494   2.148   0.952   3.634
  865SOL    HW2 3495   2.007   0.878   3.600
  866SOL     OW 3496   4.403   0.981   1.097
  866SOL    HW1 3497   4.327   0.957   1.157
  866SOL    HW2 3498   4.391   1.074   1.063
  867SOL     OW 3499   2.572   1.511   6.555
  867SOL    HW1 3500   2.590   1.452   6.634
  867SOL    HW2 3501   2.473   1.525   6.546
  868SOL     OW 3502   5.402   1.829   3.585
  868SOL    HW1 3503   5.303   1.843   3.586
  868SOL    HW2 3504   5.446   1.898   3.642
  869SOL     OW 3505   6.633   3.855   1.136
  869SOL    HW1 3506   6.606   3.824   1.227
  869SOL    HW2 3507   6.592   3.945   1.118
  870SOL     OW 3508   5.986   1.721   0.375
  870SOL    HW1 3509   6.058   1.751   0.311
  870SOL    HW2 3510   6.007   1.754   0.467
  871SOL     OW 3511   6.964   4.498   0.765
  871SOL    HW1 3512   0.003   4.571   0.759
  871SOL    HW2 3513   6.983   4.428   0.697
  872SOL     OW 3514   0.012   2.140   1.783
  872SOL    HW1 3515   0.023   2.172   1.877
  872SOL    HW2 3516   7.027   2.218   1.722
  873SOL     OW 3517   3.891   6.831   4.474
  873SOL    HW1 3518   3.973   6.824   4.417
  873SOL    HW2 3519   3.878   6.746   4.524
  874SOL     OW 3520   0.764   4.171   6.595
  874SOL    HW1 3521   0.699   4.148   6.668
  874SOL    HW2 3522   0.822   4.247   6.625
  875SOL     OW 3523   6.190   5.805   6.514
  875SOL    HW1 3524   6.121   5.737   6.489
  875SOL    HW2 3525   6.155   5.896   6.492
  876SOL     OW 3526   2.541   2.129   1.414
  876SOL    HW1 3527   2.611   2.105   1.347
  876SOL    HW2 3528   2.585   2.156   1.500
  877SOL     OW 3529   5.591   5.499   6.201
  877SOL    HW1 3530   5.614   5.545   6.116
  877SOL    HW2 3531   5.559   5.567   6.268
  878SOL     OW 3532   3.825   3.174   0.832
  878SOL    HW1 3533   3.747   3.230   0.859
  878SOL    HW2 3534   3.796   3.079   0.820
  879SOL     OW 3535   5.056   2.878   3.859
  879SOL    HW1 3536   5.129   2.889   3.791
  879SOL    HW2 3537   5.042   2.780   3.876
  880SOL     OW 3538   4.311   5.769   1.304
  880SOL    HW1 3539   4.308   5.865   1.332
  880SOL    HW2 3540   4.348   5.763   1.211
  881SOL     OW 3541   5.089   4.994   3.205
  881SOL    HW1 3542   5.187   4.993   3.188
  881SOL    HW2 3543   5.042   4.940   3.135
  882SOL     OW 3544   0.787   2.436   5.058
  882SOL    HW1 3545   0.877   2.401   5.030
  882SOL    HW2 3546   0.771   2.525   5.014
  883SOL     OW 3547   3.106   4.697   0.039
  883SOL    HW1 3548   3.012   4.722   0.062
  883SOL    HW2 3549   3.140   4.630   0.106
  884SOL     OW 3550   4.098   4.297   1.625
  884SOL    HW1 3551   4.000   4.287   1.637
  884SOL    HW2 3552   4.144   4.215   1.658
  885SOL     OW 3553   4.504   6.064   5.677
  885SOL    HW1 3554   4.520   6.161   5.659
  885SOL    HW2 3555   4.568   6.009   5.623
  886SOL     OW 3556   3.504   2.582   6.244
  886SOL    HW1 3557   3.525   2.610   6.151
  886SOL    HW2 3558   3.428   2.636   6.280
  887SOL     OW 3559   6.135   5.825   4.686
  887SOL    HW1 3560   6.048   5.789   4.651
  887SOL    HW2 3561   6.208   5.801   4.622
  888SOL     OW 3562   6.318   0.958   3.265
  888SOL    HW1 3563   6.410   0.919   3.254
  888SOL    HW2 3564   6.306   0.987   3.360
  889SOL     OW 3565   0.531   0.326   4.880
  889SOL    HW1 3566   0.621   0.369   4.878
  889SOL    HW2 3567   0.496   0.318   4.787
  890SOL     OW 3568   1.653   3.243   1.627
  890SOL    HW1 3569   1.563   3.285   1.611
  890SOL    HW2 3570   1.669   3.173   1.558
  891SOL     OW 3571   6.221   3.566   6.049
  891SOL    HW1 3572   6.124   3.580   6.070
  891SOL    HW2 3573   6.271   3.547   6.134
  892SOL     OW 3574   2.388   4.773   2.132
  892SOL    HW1 3575   2.437   4.824   2.202
  892SOL    HW2 3576   2.386   4.825   2.047
  893SOL     OW 3577   1.919   7.026   2.137
  893SOL    HW1 3578   1.870   6.940   2.149
  893SOL    HW2 3579   1.902   0.031   2.044
  894SOL     OW 3580   1.761   5.536   4.655
  894SOL    HW1 3581   1.671   5.514   4.617
  894SOL    HW2 3582   1.796   5.457   4.706
  895SOL     OW 3583   2.563   0.684   4.579
  895SOL    HW1 3584   2.479   0.685   4.524
  895SOL    HW2 3585   2.556   0.753   4.651
  896SOL     OW 3586   4.921   6.924   3.342
  896SOL    HW1 3587   4.862   6.992   3.384
  896SOL    HW2 3588   4.876   6.835   3.343
  897SOL     OW 3589   5.992   1.016   6.170
  897SOL    HW1 3590   5.950   0.927   6.188
  897SOL    HW2 3591   6.091   1.004   6.157
  898SOL     OW 3592   5.337   6.629   3.694
  898SOL    HW1 3593   5.242   6.656   3.677
  898SOL    HW2 3594   5.339   6.546   3.749
  899SOL     OW 3595   1.328   5.120   0.262
  899SOL    HW1 3596   1.269   5.149   0.338
  899SOL    HW2 3597   1.354   5.200   0.209
  900SOL     OW 3598   0.590   5.077   3.330
  900SOL    HW1 3599   0.530   5.065   3.408
  900SOL    HW2 3600   0.624   4.988   3.299
  901SOL     OW 3601   6.456   1.853   3.467
  901SOL    HW1 3602   6.385   1.795   3.505
  901SOL    HW2 3603   6.506   1.898   3.541
  902SOL     OW 3604   1.454   6.136   0.068
  902SOL    HW1 3605   1.371   6.187   0.092
  902SOL    HW2 3606   1.497   6.179   7.017
  903SOL     OW 3607   0.667   5.028   6.324
  903SOL    HW1 3608   0.725   5.106   6.302
  903SOL    HW2 3609   0.636   4.984   6.240
  904SOL     OW 3610   2.358   1.527   4.219
  904SOL    HW1 3611   2.308   1.507   4.303
  904SOL    HW2 3612   2.300   1.583   4.158
  905SOL     OW 3613   6.113   3.375   3.664
  905SOL    HW1 3614   6.200   3.390   3.711
  905SOL    HW2 3615   6.043   3.434   3.704
  906SOL     OW 3616   6.587   3.255   5.243
  906SOL    HW1 3617   6.497   3.237   5.203
  906SOL    HW2 3618   6.592   3.352   5.269
  907SOL     OW 3619   6.880   3.700   2.569
  907SOL    HW1 3620   6.826   3.727   2.490
  907SOL    HW2 3621   6.921   3.780   2.611
  908SOL     OW 3622   2.625   1.272   3.624
  908SOL    HW1 3623   2.530   1.293   3.647
  908SOL    HW2 3624   2.638   1.173   3.618
  909SOL     OW 3625   3.907   6.840   1.804
  909SOL    HW1 3626   3.847   6.762   1.786
  909SOL    HW2 3627   3.996   6.825   1.762
  910SOL     OW 3628   1.519   0.658   1.881
  910SOL    HW1 3629   1.559   0.592   1.945
  910SOL    HW2 3630   1.507   0.615   1.792
  911SOL     OW 3631   1.033   3.237   1.015
  911SOL    HW1 3632   1.043   3.169   1.089
  911SOL    HW2 3633   0.960   3.301   1.038
  912SOL     OW 3634   1.899   1.218   7.021
  912SOL    HW1 3635   1.922   1.174   6.934
  912SOL    HW2 3636   1.823   1.281   7.007
  913SOL     OW 3637   2.112   1.776   2.506
  913SOL    HW1 3638   2.157   1.741   2.424
  913SOL    HW2 3639   2.091   1.873   2.494
  914SOL     OW 3640   2.906   4.783   2.439
  914SOL    HW1 3641   2.870   4.876   2.442
  914SOL    HW2 3642   2.848   4.726   2.382
  915SOL     OW 3643   2.402   2.161   0.711
  915SOL    HW1 3644   2.404   2.251   0.667
  915SOL    HW2 3645   2.460   2.162   0.793
  916SOL     OW 3646   1.378   3.527   2.602
  916SOL    HW1 3647   1.342   3.539   2.509
  916SOL    HW2 3648   1.408   3.615   2.638
  917SOL     OW 3649   3.490   0.487   6.113
  917SOL    HW1 3650   3.523   0.579   6.094
  917SOL    HW2 3651   3.423   0.489   6.187
  918SOL     OW 3652   0.294   2.441   4.843
  918SOL    HW1 3653   0.197   2.437   4.870
  918SOL    HW2 3654   0.314   2.367   4.779
  919SOL     OW 3655   1.103   0.984   1.074
  919SOL    HW1 3656   1.191   0.945   1.099
  919SOL    HW2 3657   1.029   0.923   1.104
  920SOL     OW 3658   1.490   1.629   2.770
  920SOL    HW1 3659   1.535   1.713   2.800
  920SOL    HW2 3660   1.486   1.564   2.847
  921SOL     OW 3661   4.254   4.461   0.182
  921SOL    HW1 3662   4.207   4.548   0.169
  921SOL    HW2 3663   4.313   4.465   0.262
  922SOL     OW 3664   2.281   6.015   0.089
  922SOL    HW1 3665   2.244   6.062   0.169
  922SOL    HW2 3666   2.222   5.937   0.068
  923SOL     OW 3667   4.227   1.407   0.123
  923SOL    HW1 3668   4.156   1.411   0.053
  923SOL    HW2 3669   4.261   1.313   0.129
  924SOL     OW 3670   6.083   4.767   1.885
  924SOL    HW1 3671   6.094   4.865   1.872
  924SOL    HW2 3672   5.994   4.748   1.928
  925SOL     OW 3673   6.413   2.456   1.994
  925SOL    HW1 3674   6.326   2.485   1.953
  925SOL    HW2 3675   6.470   2.536   2.011
  926SOL     OW 3676   4.181   5.614   1.581
  926SOL    HW1 3677   4.177   5.523   1.540
  926SOL    HW2 3678   4.273   5.652   1.568
  927SOL     OW 3679   4.583   5.423   5.395
  927SOL    HW1 3680   4.540   5.338   5.424
  927SOL    HW2 3681   4.659   5.403   5.334
  928SOL     OW 3682   0.391   1.811   1.330
  928SOL    HW1 3683   0.483   1.791   1.363
  928SOL    HW2 3684   0.332   1.832   1.407
  929SOL     OW 3685   0.339   2.266   2.349
  929SOL    HW1 3686   0.348   2.361   2.380
  929SOL    HW2 3687   0.242   2.245   2.335
  930SOL     OW 3688   6.041   5.252   2.186
  930SOL    HW1 3689   5.950   5.211   2.201
  930SOL    HW2 3690   6.111   5.185   2.209
  931SOL     OW 3691   1.238   2.435   1.903
  931SOL    HW1 3692   1.161   2.376   1.878
  931SOL    HW2 3693   1.204   2.515   1.951
  932SOL     OW 3694   4.438   6.040   1.234
  932SOL    HW1 3695   4.471   6.133   1.220
  932SOL    HW2 3696   4.480   6.001   1.316
  933SOL     OW 3697   1.334   6.534   3.975
  933SOL    HW1 3698   1.358   6.525   3.878
  933SOL    HW2 3699   1.238   6.507   3.988
  934SOL     OW 3700   3.369   1.653   5.522
  934SOL    HW1 3701   3.286   1.610   5.557
  934SOL    HW2 3702   3.425   1.584   5.476
  935SOL     OW 3703   1.402   3.709   4.305
  935SOL    HW1 3704   1.351   3.736   4.223
  935SOL    HW2 3705   1.400   3.784   4.371
  936SOL     OW 3706   1.123   1.468   1.754
  936SOL    HW1 3707   1.168   1.558   1.752
  936SOL    HW2 3708   1.174   1.404   1.697
  937SOL     OW 3709   4.971   1.901   3.400
  937SOL    HW1 3710   4.991   1.859   3.312
  937SOL    HW2 3711   4.913   1.982   3.385
  938SOL     OW 3712   0.579   0.880   6.552
  938SOL    HW1 3713   0.657   0.933   6.584
  938SOL    HW2 3714   0.602   0.782   6.553
  939SOL     OW 3715   6.200   0.749   4.689
  939SOL    HW1 3716   6.228   0.657   4.717
  939SOL    HW2 3717   6.144   0.790   4.760
  940SOL     OW 3718   6.152   0.388   3.778
  940SOL    HW1 3719   6.063   0.351   3.754
  940SOL    HW2 3720   6.142   0.479   3.817
  941SOL     OW 3721   5.966   3.017   5.189
  941SOL    HW1 3722   5.995   2.927   5.154
  941SOL    HW2 3723   6.026   3.088   5.153
  942SOL     OW 3724   4.502   6.746   5.333
  942SOL    HW1 3725   4.528   6.663   5.382
  942SOL    HW2 3726   4.582   6.806   5.325
  943SOL     OW 3727   5.353   2.715   0.240
  943SOL    HW1 3728   5.330   2.618   0.252
  943SOL    HW2 3729   5.420   2.742   0.308
  944SOL     OW 3730   5.120   4.446   3.797
  944SOL    HW1 3731   5.131   4.476   3.892
  944SOL    HW2 3732   5.062   4.364   3.796
  945SOL     OW 3733   5.706   2.956   6.739
  945SOL    HW1 3734   5.678   3.019   6.668
  945SOL    HW2 3735   5.675   2.864   6.717
  946SOL     OW 3736   6.214   3.875   6.316
  946SOL    HW1 3737   6.174   3.784   6.308
  946SOL    HW2 3738   6.187   3.916   6.403
  947SOL     OW 3739   1.050   2.601   6.142
  947SOL    HW1 3740   1.061   2.502   6.137
  947SOL    HW2 3741   1.009   2.634   6.058
  948SOL     OW 3742   3.544   2.318   0.266
  948SOL    HW1 3743   3.466   2.334   0.327
  948SOL    HW2 3744   3.613   2.388   0.282
  949SOL     OW 3745   4.846   5.903   6.168
  949SOL    HW1 3746   4.930   5.860   6.136
  949SOL    HW2 3747   4.864   5.998   6.192
  950SOL     OW 3748   3.275   5.345   0.522
  950SOL    HW1 3749   3.322   5.365   0.608
  950SOL    HW2 3750   3.331   5.283   0.467
  951SOL     OW 3751   1.354   2.918   4.126
  951SOL    HW1 3752   1.350   3.018   4.135
  951SOL    HW2 3753   1.431   2.883   4.179
  952SOL     OW 3754   4.910   0.835   1.349
  952SOL    HW1 3755   4.956   0.873   1.269
  952SOL    HW2 3756   4.889   0.909   1.413
  953SOL     OW 3757   4.392   6.850   5.941
  953SOL    HW1 3758   4.339   6.931   5.915
  953SOL    HW2 3759   4.335   6.769   5.935
  954SOL     OW 3760   6.401   6.914   1.322
  954SOL    HW1 3761   6.406   6.923   1.421
  954SOL    HW2 3762   6.356   6.827   1.298
  955SOL     OW 3763   1.126   5.807   3.132
  955SOL    HW1 3764   1.063   5.775   3.203
  955SOL    HW2 3765   1.132   5.907   3.135
  956SOL     OW 3766   1.937   2.761   0.934
  956SOL    HW1 3767   1.854   2.797   0.977
  956SOL    HW2 3768   2.006   2.832   0.929
  957SOL     OW 3769   2.140   6.169   4.810
  957SOL    HW1 3770   2.183   6.089   4.768
  957SOL    HW2 3771   2.100   6.227   4.739
  958SOL     OW 3772   4.809   2.584   6.920
  958SOL    HW1 3773   4.877   2.511   6.916
  958SOL    HW2 3774   4.840   2.661   6.864
  959SOL     OW 3775   1.382   3.845   0.729
  959SOL    HW1 3776   1.329   3.871   0.809
  959SOL    HW2 3777   1.331   3.870   0.646
  960SOL     OW 3778   1.511   4.102   5.916
  960SOL    HW1 3779   1.520   4.143   5.826
  960SOL    HW2 3780   1.520   4.172   5.986
  961SOL     OW 3781   3.306   6.639   6.774
  961SOL    HW1 3782   3.372   6.689   6.718
  961SOL    HW2 3783   3.229   6.610   6.716
  962SOL     OW 3784   0.802   0.295   3.400
  962SOL    HW1 3785   0.752   0.374   3.364
  962SOL    HW2 3786   0.788   0.217   3.339
  963SOL     OW 3787   6.045   0.235   2.309
  963SOL    HW1 3788   5.970   0.288   2.271
  963SOL    HW2 3789   6.043   0.143   2.272
  964SOL     OW 3790   5.704   4.102   1.519
  964SOL    HW1 3791   5.619   4.055   1.540
  964SOL    HW2 3792   5.697   4.146   1.429
  965SOL     OW 3793   1.928   1.270   0.269
  965SOL    HW1 3794   1.950   1.235   0.178
  965SOL    HW2 3795   1.869   1.350   0.260
  966SOL     OW 3796   5.905   2.662   1.860
  966SOL    HW1 3797   5.929   2.679   1.765
  966SOL    HW2 3798   5.965   2.592   1.898
  967SOL     OW 3799   1.005   5.347   2.971
  967SOL    HW1 3800   0.968   5.438   2.952
  967SOL    HW2 3801   0.957   5.307   3.049
  968SOL     OW 3802   0.225   4.598   0.199
  968SOL    HW1 3803   0.250   4.601   0.102
  968SOL    HW2 3804   0.277   4.526   0.245
  969SOL     OW 3805   3.863   6.625   6.688
  969SOL    HW1 3806   3.954   6.614   6.648
  969SOL    HW2 3807   3.832   6.719   6.675
  970SOL     OW 3808   5.054   3.512   6.188
  970SOL    HW1 3809   5.100   3.565   6.260
  970SOL    HW2 3810   5.003   3.437   6.231
  971SOL     OW 3811   0.195   2.866   0.050
  971SOL    HW1 3812   0.146   2.779   0.058
  971SOL    HW2 3813   0.259   2.876   0.127
  972SOL     OW 3814   5.196   6.750   6.952
  972SOL    HW1 3815   5.216   6.653   6.967
  972SOL    HW2 3816   5.280   6.803   6.963
  973SOL     OW 3817   6.535   3.290   5.669
  973SOL    HW1 3818   6.509   3.386   5.663
  973SOL    HW2 3819   6.528   3.247   5.579
  974SOL     OW 3820   1.947   0.353   4.407
  974SOL    HW1 3821   1.872   0.287   4.403
  974SOL    HW2 3822   1.976   0.377   4.315
  975SOL     OW 3823   2.840   6.957   5.218
  975SOL    HW1 3824   2.819   6.879   5.158
  975SOL    HW2 3825   2.831   6.929   5.313
  976SOL     OW 3826   0.338   4.733   3.799
  976SOL    HW1 3827   0.309   4.812   3.745
  976SOL    HW2 3828   0.353   4.761   3.894
  977SOL     OW 3829   1.181   1.950   2.391
  977SOL    HW1 3830   1.170   1.987   2.299
  977SOL    HW2 3831   1.114   1.878   2.406
  978SOL     OW 3832   5.778   2.989   4.178
  978SOL    HW1 3833   5.816   2.902   4.148
  978SOL    HW2 3834   5.702   2.973   4.241
  979SOL     OW 3835   6.309   2.197   2.950
  979SOL    HW1 3836   6.348   2.140   2.877
  979SOL    HW2 3837   6.279   2.138   3.025
  980SOL     OW 3838   6.672   0.064   5.879
  980SOL    HW1 3839   6.590   0.041   5.930
  980SOL    HW2 3840   6.753   0.049   5.937
  981SOL     OW 3841   6.398   3.315   6.561
  981SOL    HW1 3842   6.333   3.256   6.610
  981SOL    HW2 3843   6.355   3.403   6.544
  982SOL     OW 3844   1.628   4.774   0.807
  982SOL    HW1 3845   1.671   4.788   0.717
  982SOL    HW2 3846   1.642   4.679   0.835
  983SOL     OW 3847   5.546   1.258   3.274
  983SOL    HW1 3848   5.472   1.197   3.244
  983SOL    HW2 3849   5.531   1.282   3.371
  984SOL     OW 3850   4.927   3.114   5.268
  984SOL    HW1 3851   4.911   3.196   5.214
  984SOL    HW2 3852   4.864   3.042   5.240
  985SOL     OW 3853   1.921   4.451   0.419
  985SOL    HW1 3854   1.879   4.400   0.344
  985SOL    HW2 3855   1.949   4.387   0.491
  986SOL     OW 3856   4.958   4.117   5.382
  986SOL    HW1 3857   5.008   4.041   5.341
  986SOL    HW2 3858   4.995   4.204   5.348
  987SOL     OW 3859   3.223   0.441   2.786
  987SOL    HW1 3860   3.236   0.380   2.863
  987SOL    HW2 3861   3.310   0.455   2.738
  988SOL     OW 3862   3.596   2.696   1.446
  988SOL    HW1 3863   3.579   2.788   1.481
  988SOL    HW2 3864   3.617   2.635   1.522
  989SOL     OW 3865   0.527   1.157   4.347
  989SOL    HW1 3866   0.563   1.227   4.284
  989SOL    HW2 3867   0.428   1.151   4.336
  990SOL     OW 3868   5.365   6.499   2.024
  990SOL    HW1 3869   5.385   6.402   2.034
  990SOL    HW2 3870   5.399   6.531   1.935
  991SOL     OW 3871   5.854   1.736   5.787
  991SOL    HW1 3872   5.844   1.646   5.829
  991SOL    HW2 3873   5.793   1.801   5.832
  992SOL     OW 3874   0.041   2.844   1.180
  992SOL    HW1 3875   0.031   2.750   1.211
  992SOL    HW2 3876   0.066   2.845   1.083
  993SOL     OW 3877   4.387   6.957   4.705
  993SOL    HW1 3878   4.289   6.943   4.718
  993SOL    HW2 3879   4.437   6.915   4.781
  994SOL     OW 3880   3.035   3.653   3.206
  994SOL    HW1 3881   2.993   3.564   3.187
  994SOL    HW2 3882   2.976   3.706   3.267
  995SOL     OW 3883   0.655   2.052   5.201
  995SOL    HW1 3884   0.625   2.093   5.287
  995SOL    HW2 3885   0.578   2.010   5.154
  996SOL     OW 3886   1.032   3.431   0.047
  996SOL    HW1 3887   0.985   3.352   0.087
  996SOL    HW2 3888   1.106   3.400   7.018
  997SOL     OW 3889   6.807   1.691   0.640
  997SOL    HW1 3890   6.723   1.639   0.651
  997SOL    HW2 3891   6.869   1.643   0.577
  998SOL     OW 3892   5.061   0.305   2.853
  998SOL    HW1 3893   5.112   0.245   2.914
  998SOL    HW2 3894   5.119   0.330   2.775
  999SOL     OW 3895   6.764   5.571   1.110
  999SOL    HW1 3896   6.722   5.484   1.135
  999SOL    HW2 3897   6.822   5.558   1.029
 1000SOL     OW 3898   4.350   2.140   4.933
 1000SOL    HW1 3899   4.255   2.168   4.949
 1000SOL    HW2 3900   4.355   2.040   4.929
 1001SOL     OW 3901   4.701   1.197   5.434
 1001SOL    HW1 3902   4.722   1.157   5.345
 1001SOL    HW2 3903   4.664   1.127   5.494
 1002SOL     OW 3904   0.444   1.684   0.212
 1002SOL    HW1 3905   0.481   1.620   0.145
 1002SOL    HW2 3906   0.359   1.648   0.249
 1003SOL     OW 3907   4.110   5.159   2.608
 1003SOL    HW1 3908   4.162   5.231   2.562
 1003SOL    HW2 3909   4.127   5.072   2.563
 1004SOL     OW 3910   5.827   6.090   0.315
 1004SOL    HW1 3911   5.825   6.034   0.232
 1004SOL    HW2 3912   5.800   6.034   0.394
 1005SOL     OW 3913   6.359   6.431   3.547
 1005SOL    HW1 3914   6.424   6.505   3.530
 1005SOL    HW2 3915   6.303   6.453   3.627
 1006SOL     OW 3916   1.628   5.202   0.271
 1006SOL    HW1 3917   1.716   5.156   0.263
 1006SOL    HW2 3918   1.560   5.153   0.215
 1007SOL     OW 3919   6.447   1.588   3.019
 1007SOL    HW1 3920   6.504   1.622   3.094
 1007SOL    HW2 3921   6.358   1.560   3.055
 1008SOL     OW 3922   3.221   2.009   4.948
 1008SOL    HW1 3923   3.315   1.985   4.924
 1008SOL    HW2 3924   3.216   2.107   4.969
 1009SOL     OW 3925   3.254   6.237   5.983
 1009SOL    HW1 3926   3.303   6.186   5.912
 1009SOL    HW2 3927   3.289   6.211   6.073
 1010SOL     OW 3928   5.592   6.978   5.251
 1010SOL    HW1 3929   5.516   0.008   5.226
 1010SOL    HW2 3930   5.618   6.922   5.172
 1011SOL     OW 3931   2.775   5.555   4.073
 1011SOL    HW1 3932   2.706   5.616   4.113
 1011SOL    HW2 3933   2.846   5.535   4.141
 1012SOL     OW 3934   3.988   6.456   0.948
 1012SOL    HW1 3935   4.060   6.388   0.962
 1012SOL    HW2 3936   4.018   6.545   0.983
 1013SOL     OW 3937   0.707   0.343   0.027
 1013SOL    HW1 3938   0.730   0.291   0.109
 1013SOL    HW2 3939   0.727   0.288   6.975
 1014SOL     OW 3940   5.974   6.612   5.758
 1014SOL    HW1 3941   5.924   6.697   5.743
 1014SOL    HW2 3942   5.978   6.594   5.857
 1015SOL     OW 3943   2.611   0.496   4.847
 1015SOL    HW1 3944   2.707   0.522   4.835
 1015SOL    HW2 3945   2.557   0.536   4.773
 1016SOL     OW 3946   4.390   2.877   1.557
 1016SOL    HW1 3947   4.478   2.846   1.524
 1016SOL    HW2 3948   4.346   2.934   1.488
 1017SOL     OW 3949   4.868   0.025   6.197
 1017SOL    HW1 3950   4.853   6.960   6.229
 1017SOL    HW2 3951   4.821   0.089   6.258
 1018SOL     OW 3952   1.624   2.525   1.642
 1018SOL    HW1 3953   1.543   2.467   1.629
 1018SOL    HW2 3954   1.614   2.578   1.726
 1019SOL     OW 3955   5.786   1.321   0.880
 1019SOL    HW1 3956   5.819   1.291   0.970
 1019SOL    HW2 3957   5.690   1.347   0.887
 1020SOL     OW 3958   3.732   2.076   1.754
 1020SOL    HW1 3959   3.715   2.147   1.822
 1020SOL    HW2 3960   3.811   2.102   1.698
 1021SOL     OW 3961   6.660   1.487   1.064
 1021SOL    HW1 3962   6.608   1.569   1.088
 1021SOL    HW2 3963   6.693   1.443   1.148
 1022SOL     OW 3964   3.414   2.993   0.204
 1022SOL    HW1 3965   3.489   3.027   0.261
 1022SOL    HW2 3966   3.413   3.042   0.117
 1023SOL     OW 3967   6.844   0.673   4.847
 1023SOL    HW1 3968   6.916   0.610   4.876
 1023SOL    HW2 3969   6.808   0.644   4.759
 1024SOL     OW 3970   6.115   2.426   3.888
 1024SOL    HW1 3971   6.184   2.416   3.817
 1024SOL    HW2 3972   6.103   2.339   3.936
 1025SOL     OW 3973   2.885   5.007   1.105
 1025SOL    HW1 3974   2.789   5.034   1.112
 1025SOL    HW2 3975   2.900   4.924   1.159
 1026SOL     OW 3976   0.364   2.160   6.376
 1026SOL    HW1 3977   0.431   2.234   6.379
 1026SOL    HW2 3978   0.407   2.076   6.343
 1027SOL     OW 3979   2.301   4.809   1.124
 1027SOL    HW1 3980   2.276   4.803   1.028
 1027SOL    HW2 3981   2.316   4.717   1.161
 1028SOL     OW 3982   0.292   5.646   0.026
 1028SOL    HW1 3983   0.350   5.564   0.024
 1028SOL    HW2 3984   0.350   5.727   0.031
 1029SOL     OW 3985   3.583   0.401   4.883
 1029SOL    HW1 3986   3.537   0.473   4.831
 1029SOL    HW2 3987   3.671   0.379   4.840
 1030SOL     OW 3988   4.064   5.200   4.889
 1030SOL    HW1 3989   3.971   5.178   4.860
 1030SOL    HW2 3990   4.060   5.266   4.965
 1031SOL     OW 3991   2.441   6.182   1.100
 1031SOL    HW1 3992   2.372   6.127   1.054
 1031SOL    HW2 3993   2.525   6.129   1.111
 1032SOL     OW 3994   1.096   1.563   5.328
 1032SOL    HW1 3995   1.130   1.551   5.235
 1032SOL    HW2 3996   1.145   1.638   5.373
 1033SOL     OW 3997   2.811   6.936   1.673
 1033SOL    HW1 3998   2.883   6.961   1.737
 1033SOL    HW2 3999   2.770   6.849   1.702
 1034SOL     OW 4000   0.263   6.655   2.065
 1034SOL    HW1 4001   0.332   6.587   2.042
 1034SOL    HW2 4002   0.293   6.708   2.144
 1035SOL     OW 4003   3.301   1.940   2.952
 1035SOL    HW1 4004   3.204   1.955   2.934
 1035SOL    HW2 4005   3.355   1.982   2.878
 1036SOL     OW 4006   4.788   6.656   6.698
 1036SOL    HW1 4007   4.869   6.665   6.641
 1036SOL    HW2 4008   4.811   6.680   6.793
 1037SOL     OW 4009   3.839   1.365   6.188
 1037SOL    HW1 4010   3.861   1.346   6.092
 1037SOL    HW2 4011   3.861   1.459   6.210
 1038SOL     OW 4012   2.614   1.917   5.393
 1038SOL    HW1 4013   2.705   1.883   5.419
 1038SOL    HW2 4014   2.606   2.013   5.417
 1039SOL     OW 4015   5.288   1.773   3.251
 1039SOL    HW1 4016   5.366   1.834   3.239
 1039SOL    HW2 4017   5.210   1.809   3.200
 1040SOL     OW 4018   6.006   4.396   4.072
 1040SOL    HW1 4019   5.975   4.323   4.133
 1040SOL    HW2 4020   6.052   4.467   4.126
 1041SOL     OW 4021   1.888   6.706   4.453
 1041SOL    HW1 4022   1.950   6.741   4.523
 1041SOL    HW2 4023   1.798   6.690   4.495
 1042SOL     OW 4024   4.409   3.975   0.510
 1042SOL    HW1 4025   4.485   3.943   0.566
 1042SOL    HW2 4026   4.353   3.897   0.483
 1043SOL     OW 4027   4.085   0.146   6.701
 1043SOL    HW1 4028   4.156   0.214   6.718
 1043SOL    HW2 4029   4.062   0.100   6.787
 1044SOL     OW 4030   3.623   3.978   3.323
 1044SOL    HW1 4031   3.606   3.907   3.256
 1044SOL    HW2 4032   3.588   4.066   3.290
 1045SOL     OW 4033   3.267   1.082   3.140
 1045SOL    HW1 4034   3.250   1.163   3.195
 1045SOL    HW2 4035   3.365   1.064   3.136
 1046SOL     OW 4036   3.144   0.918   2.359
 1046SOL    HW1 4037   3.096   0.958   2.281
 1046SOL    HW2 4038   3.187   0.832   2.331
 1047SOL     OW 4039   0.250   6.332   1.656
 1047SOL    HW1 4040   0.221   6.236   1.655
 1047SOL    HW2 4041   0.170   6.390   1.668
 1048SOL     OW 4042   6.498   4.298   4.961
 1048SOL    HW1 4043   6.464   4.254   4.878
 1048SOL    HW2 4044   6.462   4.390   4.968
 1049SOL     OW 4045   0.592   3.696   5.269
 1049SOL    HW1 4046   0.560   3.660   5.357
 1049SOL    HW2 4047   0.554   3.641   5.195
 1050SOL     OW 4048   2.846   0.522   1.464
 1050SOL    HW1 4049   2.914   0.454   1.490
 1050SOL    HW2 4050   2.807   0.564   1.546
 1051SOL     OW 4051   4.603   4.816   1.865
 1051SOL    HW1 4052   4.564   4.733   1.905
 1051SOL    HW2 4053   4.669   4.856   1.929
 1052SOL     OW 4054   3.346   0.104   3.699
 1052SOL    HW1 4055   3.390   0.165   3.765
 1052SOL    HW2 4056   3.291   0.159   3.635
 1053SOL     OW 4057   4.012   4.761   3.692
 1053SOL    HW1 4058   3.934   4.801   3.644
 1053SOL    HW2 4059   3.983   4.678   3.739
 1054SOL     OW 4060   4.047   5.946   4.410
 1054SOL    HW1 4061   4.116   5.944   4.337
 1054SOL    HW2 4062   4.070   5.878   4.479
 1055SOL     OW 4063   4.241   4.709   4.481
 1055SOL    HW1 4064   4.339   4.723   4.487
 1055SOL    HW2 4065   4.201   4.716   4.573
 1056SOL     OW 4066   2.724   5.905   6.864
 1056SOL    HW1 4067   2.750   5.983   6.921
 1056SOL    HW2 4068   2.805   5.851   6.842
 1057SOL     OW 4069   3.724   4.154   1.372
 1057SOL    HW1 4070   3.656   4.083   1.390
 1057SOL    HW2 4071   3.772   4.176   1.457
 1058SOL     OW 4072   3.053   6.633   2.016
 1058SOL    HW1 4073   3.141   6.631   1.969
 1058SOL    HW2 4074   3.066   6.618   2.114
 1059SOL     OW 4075   4.341   0.471   0.958
 1059SOL    HW1 4076   4.372   0.556   1.001
 1059SOL    HW2 4077   4.247   0.481   0.926
 1060SOL     OW 4078   3.456   1.554   4.436
 1060SOL    HW1 4079   3.463   1.629   4.371
 1060SOL    HW2 4080   3.374   1.565   4.492
 1061SOL     OW 4081   2.538   5.792   0.952
 1061SOL    HW1 4082   2.460   5.742   0.914
 1061SOL    HW2 4083   2.561   5.755   1.042
 1062SOL     OW 4084   5.021   4.446   4.416
 1062SOL    HW1 4085   5.119   4.427   4.428
 1062SOL    HW2 4086   4.983   4.382   4.350
 1063SOL     OW 4087   3.635   1.955   6.365
 1063SOL    HW1 4088   3.622   2.039   6.314
 1063SOL    HW2 4089   3.733   1.937   6.376
 1064SOL     OW 4090   0.440   3.531   2.776
 1064SOL    HW1 4091   0.374   3.582   2.832
 1064SOL    HW2 4092   0.526   3.521   2.826
 1065SOL     OW 4093   4.569   4.944   6.013
 1065SOL    HW1 4094   4.648   4.886   6.032
 1065SOL    HW2 4095   4.520   4.963   6.098
 1066SOL     OW 4096   4.587   0.397   3.436
 1066SOL    HW1 4097   4.670   0.419   3.486
 1066SOL    HW2 4098   4.605   0.400   3.337
 1067SOL     OW 4099   3.279   3.726   0.114
 1067SOL    HW1 4100   3.248   3.809   0.066
 1067SOL    HW2 4101   3.242   3.645   0.069
 1068SOL     OW 4102   0.732   5.115   1.430
 1068SOL    HW1 4103   0.794   5.052   1.477
 1068SOL    HW2 4104   0.781   5.157   1.353
 1069SOL     OW 4105   3.225   3.185   2.655
 1069SOL    HW1 4106   3.306   3.210   2.602
 1069SOL    HW2 4107   3.241   3.203   2.752
 1070SOL     OW 4108   1.800   6.047   0.546
 1070SOL    HW1 4109   1.739   5.999   0.483
 1070SOL    HW2 4110   1.894   6.017   0.531
 1071SOL     OW 4111   5.274   5.858   3.242
 1071SOL    HW1 4112   5.241   5.887   3.152
 1071SOL    HW2 4113   5.196   5.840   3.302
 1072SOL     OW 4114   3.936   5.679   3.138
 1072SOL    HW1 4115   3.993   5.690   3.218
 1072SOL    HW2 4116   3.961   5.748   3.069
 1073SOL     OW 4117   2.867   5.393   3.295
 1073SOL    HW1 4118   2.901   5.303   3.267
 1073SOL    HW2 4119   2.925   5.464   3.256
 1074SOL     OW 4120   1.844   4.741   3.496
 1074SOL    HW1 4121   1.832   4.723   3.398
 1074SOL    HW2 4122   1.877   4.834   3.509
 1075SOL     OW 4123   0.452   4.072   2.578
 1075SOL    HW1 4124   0.374   4.122   2.541
 1075SOL    HW2 4125   0.423   3.980   2.604
 1076SOL     OW 4126   5.767   3.590   3.269
 1076SOL    HW1 4127   5.724   3.500   3.271
 1076SOL    HW2 4128   5.858   3.582   3.228
 1077SOL     OW 4129   4.531   0.282   1.920
 1077SOL    HW1 4130   4.596   0.317   1.852
 1077SOL    HW2 4131   4.437   0.299   1.889
 1078SOL     OW 4132   0.021   3.008   2.434
 1078SOL    HW1 4133   0.020   2.922   2.384
 1078SOL    HW2 4134   0.113   3.024   2.470
 1079SOL     OW 4135   1.568   4.809   3.100
 1079SOL    HW1 4136   1.497   4.804   3.030
 1079SOL    HW2 4137   1.574   4.903   3.135
 1080SOL     OW 4138   1.962   5.699   3.613
 1080SOL    HW1 4139   1.880   5.751   3.588
 1080SOL    HW2 4140   1.971   5.696   3.712
 1081SOL     OW 4141   1.812   0.499   7.013
 1081SOL    HW1 4142   1.799   0.420   6.953
 1081SOL    HW2 4143   1.729   0.554   7.014
 1082SOL     OW 4144   2.250   0.158   1.167
 1082SOL    HW1 4145   2.304   0.226   1.118
 1082SOL    HW2 4146   2.220   0.087   1.104
 1083SOL     OW 4147   3.741   2.856   1.729
 1083SOL    HW1 4148   3.807   2.928   1.703
 1083SOL    HW2 4149   3.680   2.891   1.799
 1084SOL     OW 4150   6.407   3.986   1.676
 1084SOL    HW1 4151   6.346   3.956   1.602
 1084SOL    HW2 4152   6.487   4.031   1.637
 1085SOL     OW 4153   1.505   5.608   4.109
 1085SOL    HW1 4154   1.503   5.518   4.067
 1085SOL    HW2 4155   1.553   5.672   4.050
 1086SOL     OW 4156   3.100   5.788   2.760
 1086SOL    HW1 4157   3.157   5.856   2.715
 1086SOL    HW2 4158   3.135   5.770   2.852
 1087SOL     OW 4159   3.764   2.955   5.374
 1087SOL    HW1 4160   3.733   2.951   5.279
 1087SOL    HW2 4161   3.847   2.901   5.384
 1088SOL     OW 4162   0.060   4.285   2.699
 1088SOL    HW1 4163   0.109   4.371   2.681
 1088SOL    HW2 4164   0.018   4.289   2.790
 1089SOL     OW 4165   6.442   0.093   3.246
 1089SOL    HW1 4166   6.451   0.180   3.198
 1089SOL    HW2 4167   6.400   0.026   3.186
 1090SOL     OW 4168   2.035   2.647   6.365
 1090SOL    HW1 4169   2.048   2.593   6.448
 1090SOL    HW2 4170   2.051   2.589   6.285
 1091SOL     OW 4171   0.804   2.179   6.039
 1091SOL    HW1 4172   0.833   2.084   6.051
 1091SOL    HW2 4173   0.816   2.206   5.943
 1092SOL     OW 4174   2.952   5.042   1.528
 1092SOL    HW1 4175   2.908   5.066   1.442
 1092SOL    HW2 4176   2.976   4.945   1.527
 1093SOL     OW 4177   0.495   2.482   1.490
 1093SOL    HW1 4178   0.449   2.457   1.575
 1093SOL    HW2 4179   0.554   2.407   1.460
 1094SOL     OW 4180   1.166   6.196   2.485
 1094SOL    HW1 4181   1.166   6.107   2.529
 1094SOL    HW2 4182   1.254   6.211   2.440
 1095SOL     OW 4183   0.777   3.373   6.380
 1095SOL    HW1 4184   0.757   3.469   6.361
 1095SOL    HW2 4185   0.694   3.319   6.369
 1096SOL     OW 4186   3.325   2.870   2.372
 1096SOL    HW1 4187   3.332   2.773   2.349
 1096SOL    HW2 4188   3.248   2.911   2.323
 1097SOL     OW 4189   2.715   4.900   5.680
 1097SOL    HW1 4190   2.740   4.913   5.584
 1097SOL    HW2 4191   2.619   4.927   5.693
 1098SOL     OW 4192   3.297   0.692   2.309
 1098SOL    HW1 4193   3.355   0.681   2.390
 1098SOL    HW2 4194   3.304   0.611   2.252
 1099SOL     OW 4195   3.005   0.266   2.180
 1099SOL    HW1 4196   2.981   0.308   2.267
 1099SOL    HW2 4197   2.967   0.174   2.175
 1100SOL     OW 4198   6.659   0.947   0.184
 1100SOL    HW1 4199   6.738   0.904   0.141
 1100SOL    HW2 4200   6.640   1.034   0.141
 1101SOL     OW 4201   5.318   3.382   1.034
 1101SOL    HW1 4202   5.334   3.469   1.082
 1101SOL    HW2 4203   5.263   3.322   1.092
 1102SOL     OW 4204   6.984   3.547   4.095
 1102SOL    HW1 4205   6.974   3.477   4.024
 1102SOL    HW2 4206   7.022   3.505   4.178
 1103SOL     OW 4207   0.455   2.938   0.186
 1103SOL    HW1 4208   0.549   2.971   0.198
 1103SOL    HW2 4209   0.392   3.016   0.194
 1104SOL     OW 4210   2.420   5.536   5.570
 1104SOL    HW1 4211   2.354   5.475   5.614
 1104SOL    HW2 4212   2.505   5.535   5.622
 1105SOL     OW 4213   3.817   5.635   0.860
 1105SOL    HW1 4214   3.739   5.695   0.875
 1105SOL    HW2 4215   3.882   5.679   0.798
 1106SOL     OW 4216   0.697   1.785   0.133
 1106SOL    HW1 4217   0.736   1.756   0.220
 1106SOL    HW2 4218   0.599   1.798   0.143
 1107SOL     OW 4219   6.669   0.106   1.569
 1107SOL    HW1 4220   6.657   0.113   1.668
 1107SOL    HW2 4221   6.652   0.012   1.539
 1108SOL     OW 4222   1.477   1.129   0.321
 1108SOL    HW1 4223   1.517   1.108   0.410
 1108SOL    HW2 4224   1.378   1.138   0.329
 1109SOL     OW 4225   4.061   0.903   3.474
 1109SOL    HW1 4226   4.093   0.873   3.563
 1109SOL    HW2 4227   4.131   0.960   3.431
 1110SOL     OW 4228   3.461   3.123   2.940
 1110SOL    HW1 4229   3.394   3.079   3.000
 1110SOL    HW2 4230   3.482   3.062   2.863
 1111SOL     OW 4231   4.413   6.493   6.987
 1111SOL    HW1 4232   4.439   6.589   6.977
 1111SOL    HW2 4233   4.317   6.487   7.015
 1112SOL     OW 4234   0.978   1.430   2.492
 1112SOL    HW1 4235   0.888   1.474   2.489
 1112SOL    HW2 4236   0.968   1.335   2.519
 1113SOL     OW 4237   6.412   3.592   1.628
 1113SOL    HW1 4238   6.334   3.543   1.667
 1113SOL    HW2 4239   6.447   3.543   1.549
 1114SOL     OW 4240   5.927   1.357   5.668
 1114SOL    HW1 4241   5.834   1.343   5.633
 1114SOL    HW2 4242   5.927   1.349   5.767
 1115SOL     OW 4243   2.209   5.223   0.483
 1115SOL    HW1 4244   2.123   5.273   0.487
 1115SOL    HW2 4245   2.245   5.224   0.390
 1116SOL     OW 4246   3.815   6.310   6.362
 1116SOL    HW1 4247   3.834   6.234   6.425
 1116SOL    HW2 4248   3.756   6.377   6.407
 1117SOL     OW 4249   2.530   3.461   1.315
 1117SOL    HW1 4250   2.486   3.495   1.233
 1117SOL    HW2 4251   2.592   3.386   1.291
 1118SOL     OW 4252   1.296   2.653   1.692
 1118SOL    HW1 4253   1.293   2.664   1.791
 1118SOL    HW2 4254   1.320   2.558   1.670
 1119SOL     OW 4255   2.974   3.872   3.394
 1119SOL    HW1 4256   2.990   3.959   3.441
 1119SOL    HW2 4257   2.970   3.798   3.461
 1120SOL     OW 4258   3.408   1.117   3.772
 1120SOL    HW1 4259   3.345   1.192   3.751
 1120SOL    HW2 4260   3.490   1.154   3.816
 1121SOL     OW 4261   4.828   3.913   3.120
 1121SOL    HW1 4262   4.852   3.964   3.038
 1121SOL    HW2 4263   4.866   3.821   3.115
 1122SOL     OW 4264   4.409   4.944   6.255
 1122SOL    HW1 4265   4.313   4.922   6.240
 1122SOL    HW2 4266   4.444   4.890   6.332
 1123SOL     OW 4267   3.801   0.823   2.216
 1123SOL    HW1 4268   3.715   0.785   2.250
 1123SOL    HW2 4269   3.819   0.911   2.261
 1124SOL     OW 4270   1.821   5.208   4.036
 1124SOL    HW1 4271   1.855   5.300   4.015
 1124SOL    HW2 4272   1.738   5.191   3.983
 1125SOL     OW 4273   3.244   4.023   5.414
 1125SOL    HW1 4274   3.164   4.066   5.371
 1125SOL    HW2 4275   3.226   4.012   5.512
 1126SOL     OW 4276   6.410   0.562   2.435
 1126SOL    HW1 4277   6.333   0.601   2.385
 1126SOL    HW2 4278   6.384   0.473   2.472
 1127SOL     OW 4279   2.015   5.288   6.212
 1127SOL    HW1 4280   1.927   5.325   6.182
 1127SOL    HW2 4281   2.083   5.300   6.140
 1128SOL     OW 4282   2.481   2.524   4.892
 1128SOL    HW1 4283   2.487   2.540   4.794
 1128SOL    HW2 4284   2.539   2.446   4.917
 1129SOL     OW 4285   4.308   5.907   6.343
 1129SOL    HW1 4286   4.269   5.825   6.301
 1129SOL    HW2 4287   4.336   5.971   6.271
 1130SOL     OW 4288   0.444   5.205   5.508
 1130SOL    HW1 4289   0.383   5.257   5.449
 1130SOL    HW2 4290   0.526   5.180   5.456
 1131SOL     OW 4291   6.984   4.753   6.187
 1131SOL    HW1 4292   7.023   4.845   6.194
 1131SOL    HW2 4293   6.893   4.759   6.146
 1132SOL     OW 4294   5.394   6.574   4.804
 1132SOL    HW1 4295   5.471   6.535   4.854
 1132SOL    HW2 4296   5.379   6.523   4.720
 1133SOL     OW 4297   6.574   2.350   6.903
 1133SOL    HW1 4298   6.599   2.332   6.808
 1133SOL    HW2 4299   6.592   2.447   6.924
 1134SOL     OW 4300   0.336   2.843   5.863
 1134SOL    HW1 4301   0.288   2.794   5.791
 1134SOL    HW2 4302   0.345   2.784   5.944
 1135SOL     OW 4303   6.893   1.478   4.361
 1135SOL    HW1 4304   6.942   1.410   4.305
 1135SOL    HW2 4305   6.796   1.474   4.338
 1136SOL     OW 4306   3.749   5.375   4.035
 1136SOL    HW1 4307   3.814   5.435   3.987
 1136SOL    HW2 4308   3.796   5.291   4.064
 1137SOL     OW 4309   0.790   0.636   0.004
 1137SOL    HW1 4310   0.886   0.611   0.004
 1137SOL    HW2 4311   0.735   0.556   0.030
 1138SOL     OW 4312   1.001   3.224   5.912
 1138SOL    HW1 4313   1.068   3.247   5.841
 1138SOL    HW2 4314   1.048   3.216   6.000
 1139SOL     OW 4315   0.759   0.280   2.330
 1139SOL    HW1 4316   0.829   0.349   2.347
 1139SOL    HW2 4317   0.674   0.305   2.378
 1140SOL     OW 4318   4.088   1.619   3.143
 1140SOL    HW1 4319   4.088   1.685   3.217
 1140SOL    HW2 4320   4.068   1.665   3.056
 1141SOL     OW 4321   6.809   6.079   6.008
 1141SOL    HW1 4322   6.814   6.096   5.909
 1141SOL    HW2 4323   6.827   5.982   6.025
 1142SOL     OW 4324   6.425   6.912   5.132
 1142SOL    HW1 4325   6.439   6.965   5.048
 1142SOL    HW2 4326   6.512   6.871   5.160
 1143SOL     OW 4327   4.793   2.765   1.182
 1143SOL    HW1 4328   4.872   2.813   1.220
 1143SOL    HW2 4329   4.804   2.667   1.197
 1144SOL     OW 4330   1.065   6.374   5.193
 1144SOL    HW1 4331   1.042   6.363   5.289
 1144SOL    HW2 4332   0.981   6.386   5.140
 1145SOL     OW 4333   2.225   5.040   4.696
 1145SOL    HW1 4334   2.307   5.038   4.753
 1145SOL    HW2 4335   2.157   5.101   4.737
 1146SOL     OW 4336   5.848   1.799   1.822
 1146SOL    HW1 4337   5.870   1.868   1.753
 1146SOL    HW2 4338   5.801   1.842   1.899
 1147SOL     OW 4339   6.326   3.586   2.088
 1147SOL    HW1 4340   6.280   3.627   2.010
 1147SOL    HW2 4341   6.267   3.590   2.169
 1148SOL     OW 4342   5.986   0.455   6.321
 1148SOL    HW1 4343   6.058   0.501   6.373
 1148SOL    HW2 4344   6.012   0.451   6.224
 1149SOL     OW 4345   4.964   3.050   3.185
 1149SOL    HW1 4346   4.988   3.035   3.281
 1149SOL    HW2 4347   4.937   2.963   3.143
 1150SOL     OW 4348   1.653   5.996   5.147
 1150SOL    HW1 4349   1.578   5.943   5.107
 1150SOL    HW2 4350   1.694   5.944   5.222
 1151SOL     OW 4351   2.559   5.280   6.864
 1151SOL    HW1 4352   2.461   5.290   6.842
 1151SOL    HW2 4353   2.596   5.369   6.889
 1152SOL     OW 4354   0.001   0.723   3.381
 1152SOL    HW1 4355   0.076   0.788   3.371
 1152SOL    HW2 4356   6.965   0.758   3.449
 1153SOL     OW 4357   2.497   4.674   2.476
 1153SOL    HW1 4358   2.555   4.749   2.443
 1153SOL    HW2 4359   2.497   4.600   2.408
 1154SOL     OW 4360   1.635   4.100   2.135
 1154SOL    HW1 4361   1.710   4.035   2.118
 1154SOL    HW2 4362   1.674   4.190   2.157
 1155SOL     OW 4363   4.563   0.584   1.957
 1155SOL    HW1 4364   4.557   0.485   1.948
 1155SOL    HW2 4365   4.591   0.624   1.870
 1156SOL     OW 4366   2.215   0.896   4.565
 1156SOL    HW1 4367   2.303   0.941   4.548
 1156SOL    HW2 4368   2.143   0.941   4.511
 1157SOL     OW 4369   1.328   3.511   3.699
 1157SOL    HW1 4370   1.336   3.508   3.600
 1157SOL    HW2 4371   1.415   3.541   3.739
 1158SOL     OW 4372   4.608   6.129   6.104
 1158SOL    HW1 4373   4.509   6.117   6.105
 1158SOL    HW2 4374   4.651   6.060   6.046
 1159SOL     OW 4375   6.057   4.395   2.719
 1159SOL    HW1 4376   6.026   4.489   2.718
 1159SOL    HW2 4377   6.124   4.382   2.793
 1160SOL     OW 4378   2.652   2.631   1.057
 1160SOL    HW1 4379   2.719   2.664   1.123
 1160SOL    HW2 4380   2.659   2.531   1.049
 1161SOL     OW 4381   4.052   0.572   3.706
 1161SOL    HW1 4382   4.015   0.661   3.734
 1161SOL    HW2 4383   4.044   0.507   3.782
 1162SOL     OW 4384   3.492   5.215   1.638
 1162SOL    HW1 4385   3.394   5.220   1.620
 1162SOL    HW2 4386   3.541   5.272   1.571
 1163SOL     OW 4387   4.804   6.816   2.317
 1163SOL    HW1 4388   4.772   6.868   2.238
 1163SOL    HW2 4389   4.758   6.727   2.318
 1164SOL     OW 4390   6.449   4.181   4.724
 1164SOL    HW1 4391   6.513   4.222   4.658
 1164SOL    HW2 4392   6.360   4.170   4.681
 1165SOL     OW 4393   0.646   4.677   2.102
 1165SOL    HW1 4394   0.668   4.774   2.112
 1165SOL    HW2 4395   0.611   4.660   2.010
 1166SOL     OW 4396   3.366   0.899   6.582
 1166SOL    HW1 4397   3.314   0.984   6.589
 1166SOL    HW2 4398   3.410   0.879   6.669
 1167SOL     OW 4399   4.380   1.564   5.584
 1167SOL    HW1 4400   4.451   1.521   5.528
 1167SOL    HW2 4401   4.346   1.645   5.537
 1168SOL     OW 4402   5.710   1.086   3.548
 1168SOL    HW1 4403   5.745   1.003   3.507
 1168SOL    HW2 4404   5.628   1.116   3.499
 1169SOL     OW 4405   1.692   2.776   1.060
 1169SOL    HW1 4406   1.645   2.699   1.103
 1169SOL    HW2 4407   1.636   2.811   0.985
 1170SOL     OW 4408   2.314   0.921   1.527
 1170SOL    HW1 4409   2.373   0.841   1.515
 1170SOL    HW2 4410   2.313   0.974   1.443
 1171SOL     OW 4411   4.399   0.524   0.427
 1171SOL    HW1 4412   4.412   0.611   0.474
 1171SOL    HW2 4413   4.326   0.472   0.473
 1172SOL     OW 4414   3.093   3.105   5.928
 1172SOL    HW1 4415   3.126   3.184   5.876
 1172SOL    HW2 4416   3.118   3.021   5.881
 1173SOL     OW 4417   5.224   6.460   5.778
 1173SOL    HW1 4418   5.323   6.461   5.796
 1173SOL    HW2 4419   5.187   6.370   5.799
 1174SOL     OW 4420   3.859   5.810   6.803
 1174SOL    HW1 4421   3.920   5.756   6.744
 1174SOL    HW2 4422   3.909   5.839   6.885
 1175SOL     OW 4423   0.008   5.185   4.470
 1175SOL    HW1 4424   0.029   5.234   4.554
 1175SOL    HW2 4425   0.070   5.107   4.460
 1176SOL     OW 4426   5.956   2.711   1.577
 1176SOL    HW1 4427   5.877   2.693   1.520
 1176SOL    HW2 4428   5.974   2.810   1.579
 1177SOL     OW 4429   6.618   3.515   6.140
 1177SOL    HW1 4430   6.697   3.512   6.201
 1177SOL    HW2 4431   6.598   3.610   6.116
 1178SOL     OW 4432   4.888   5.325   2.539
 1178SOL    HW1 4433   4.963   5.285   2.591
 1178SOL    HW2 4434   4.801   5.287   2.571
 1179SOL     OW 4435   1.368   5.613   6.100
 1179SOL    HW1 4436   1.432   5.539   6.079
 1179SOL    HW2 4437   1.298   5.579   6.163
 1180SOL     OW 4438   2.331   0.464   4.315
 1180SOL    HW1 4439   2.275   0.446   4.396
 1180SOL    HW2 4440   2.412   0.405   4.317
 1181SOL     OW 4441   1.375   4.700   2.312
 1181SOL    HW1 4442   1.322   4.647   2.246
 1181SOL    HW2 4443   1.316   4.768   2.356
 1182SOL     OW 4444   0.968   4.008   3.932
 1182SOL    HW1 4445   0.999   4.009   3.837
 1182SOL    HW2 4446   0.871   4.031   3.935
 1183SOL     OW 4447   4.033   5.336   1.013
 1183SOL    HW1 4448   4.036   5.366   0.918
 1183SOL    HW2 4449   3.952   5.280   1.029
 1184SOL     OW 4450   3.277   2.967   6.464
 1184SOL    HW1 4451   3.274   2.974   6.364
 1184SOL    HW2 4452   3.343   2.897   6.490
 1185SOL     OW 4453   3.359   1.160   6.358
 1185SOL    HW1 4454   3.332   1.096   6.286
 1185SOL    HW2 4455   3.278   1.193   6.405
 1186SOL     OW 4456   3.926   0.197   4.987
 1186SOL    HW1 4457   3.915   0.097   4.987
 1186SOL    HW2 4458   3.897   0.233   4.899
 1187SOL     OW 4459   0.782   1.829   4.771
 1187SOL    HW1 4460   0.835   1.792   4.694
 1187SOL    HW2 4461   0.770   1.759   4.840
 1188SOL     OW 4462   1.584   0.741   4.950
 1188SOL    HW1 4463   1.647   0.718   4.876
 1188SOL    HW2 4464   1.604   0.685   5.030
 1189SOL     OW 4465   1.329   0.898   1.176
 1189SOL    HW1 4466   1.362   0.964   1.244
 1189SOL    HW2 4467   1.406   0.842   1.146
 1190SOL     OW 4468   3.879   5.835   2.231
 1190SOL    HW1 4469   3.781   5.852   2.223
 1190SOL    HW2 4470   3.908   5.849   2.325
 1191SOL     OW 4471   2.465   4.296   1.828
 1191SOL    HW1 4472   2.435   4.310   1.734
 1191SOL    HW2 4473   2.406   4.348   1.890
 1192SOL     OW 4474   3.708   5.466   2.748
 1192SOL    HW1 4475   3.683   5.435   2.656
 1192SOL    HW2 4476   3.755   5.554   2.742
 1193SOL     OW 4477   3.087   0.748   4.093
 1193SOL    HW1 4478   3.076   0.847   4.087
 1193SOL    HW2 4479   3.048   0.705   4.011
 1194SOL     OW 4480   6.838   1.937   2.924
 1194SOL    HW1 4481   6.747   1.966   2.895
 1194SOL    HW2 4482   6.840   1.927   3.023
 1195SOL     OW 4483   3.309   0.041   0.291
 1195SOL    HW1 4484   3.397   0.072   0.255
 1195SOL    HW2 4485   3.236   0.104   0.261
 1196SOL     OW 4486   1.772   5.851   3.481
 1196SOL    HW1 4487   1.795   5.815   3.390
 1196SOL    HW2 4488   1.754   5.949   3.474
 1197SOL     OW 4489   3.932   4.592   6.875
 1197SOL    HW1 4490   3.986   4.626   6.952
 1197SOL    HW2 4491   3.838   4.623   6.884
 1198SOL     OW 4492   3.505   0.789   3.179
 1198SOL    HW1 4493   3.467   0.770   3.089
 1198SOL    HW2 4494   3.589   0.842   3.169
 1199SOL     OW 4495   3.732   3.840   3.986
 1199SOL    HW1 4496   3.732   3.794   3.898
 1199SOL    HW2 4497   3.824   3.873   4.007
 1200SOL     OW 4498   4.670   3.425   1.334
 1200SOL    HW1 4499   4.745   3.444   1.272
 1200SOL    HW2 4500   4.705   3.389   1.420
 1201SOL     OW 4501   1.541   2.264   5.309
 1201SOL    HW1 4502   1.510   2.246   5.402
 1201SOL    HW2 4503   1.625   2.213   5.291
 1202SOL     OW 4504   6.404   6.633   4.621
 1202SOL    HW1 4505   6.462   6.601   4.546
 1202SOL    HW2 4506   6.339   6.561   4.646
 1203SOL     OW 4507   6.483   7.019   2.410
 1203SOL    HW1 4508   6.413   7.015   2.339
 1203SOL    HW2 4509   6.567   0.030   2.373
 1204SOL     OW 4510   2.049   0.223   0.124
 1204SOL    HW1 4511   2.066   0.127   0.104
 1204SOL    HW2 4512   1.958   0.233   0.165
 1205SOL     OW 4513   0.722   3.036   6.183
 1205SOL    HW1 4514   0.812   3.072   6.207
 1205SOL    HW2 4515   0.652   3.102   6.208
 1206SOL     OW 4516   6.431   0.981   5.089
 1206SOL    HW1 4517   6.457   1.078   5.095
 1206SOL    HW2 4518   6.373   0.958   5.167
 1207SOL     OW 4519   6.571   6.276   6.203
 1207SOL    HW1 4520   6.645   6.228   6.249
 1207SOL    HW2 4521   6.602   6.305   6.112
 1208SOL     OW 4522   3.890   3.449   2.661
 1208SOL    HW1 4523   3.862   3.545   2.655
 1208SOL    HW2 4524   3.815   3.395   2.699
 1209SOL     OW 4525   6.922   3.884   5.004
 1209SOL    HW1 4526   6.852   3.902   5.073
 1209SOL    HW2 4527   6.878   3.846   4.922
 1210SOL     OW 4528   2.339   0.492   2.884
 1210SOL    HW1 4529   2.316   0.527   2.975
 1210SOL    HW2 4530   2.332   0.392   2.885
 1211SOL     OW 4531   0.171   3.610   3.456
 1211SOL    HW1 4532   0.254   3.657   3.485
 1211SOL    HW2 4533   0.151   3.535   3.519
 1212SOL     OW 4534   0.996   4.455   3.553
 1212SOL    HW1 4535   0.980   4.465   3.455
 1212SOL    HW2 4536   1.094   4.451   3.571
 1213SOL     OW 4537   5.922   3.571   5.260
 1213SOL    HW1 4538   5.868   3.598   5.180
 1213SOL    HW2 4539   5.943   3.652   5.315
 1214SOL     OW 4540   1.320   1.865   1.239
 1214SOL    HW1 4541   1.362   1.775   1.235
 1214SOL    HW2 4542   1.235   1.860   1.292
 1215SOL     OW 4543   0.973   5.508   2.475
 1215SOL    HW1 4544   0.942   5.586   2.420
 1215SOL    HW2 4545   0.999   5.541   2.567
 1216SOL     OW 4546   2.068   0.172   1.402
 1216SOL    HW1 4547   2.092   0.154   1.306
 1216SOL    HW2 4548   2.137   0.231   1.443
 1217SOL     OW 4549   1.786   2.706   3.243
 1217SOL    HW1 4550   1.807   2.787   3.188
 1217SOL    HW2 4551   1.854   2.635   3.226
 1218SOL     OW 4552   0.651   3.846   3.162
 1218SOL    HW1 4553   0.666   3.824   3.259
 1218SOL    HW2 4554   0.595   3.929   3.155
 1219SOL     OW 4555   2.432   6.012   2.722
 1219SOL    HW1 4556   2.353   5.976   2.772
 1219SOL    HW2 4557   2.500   6.045   2.787
 1220SOL     OW 4558   6.381   5.275   2.649
 1220SOL    HW1 4559   6.444   5.266   2.572
 1220SOL    HW2 4560   6.303   5.331   2.620
 1221SOL     OW 4561   4.704   4.719   5.825
 1221SOL    HW1 4562   4.677   4.752   5.735
 1221SOL    HW2 4563   4.720   4.620   5.821
 1222SOL     OW 4564   6.926   4.213   1.931
 1222SOL    HW1 4565   6.853   4.155   1.968
 1222SOL    HW2 4566   6.954   4.178   1.842
 1223SOL     OW 4567   0.186   4.675   4.654
 1223SOL    HW1 4568   0.102   4.710   4.611
 1223SOL    HW2 4569   0.167   4.652   4.750
 1224SOL     OW 4570   4.368   4.154   1.302
 1224SOL    HW1 4571   4.306   4.219   1.346
 1224SOL    HW2 4572   4.461   4.193   1.302
 1225SOL     OW 4573   4.872   1.751   6.328
 1225SOL    HW1 4574   4.943   1.795   6.383
 1225SOL    HW2 4575   4.910   1.723   6.240
 1226SOL     OW 4576   6.162   5.611   0.756
 1226SOL    HW1 4577   6.080   5.591   0.809
 1226SOL    HW2 4578   6.195   5.703   0.780
 1227SOL     OW 4579   4.989   4.082   6.824
 1227SOL    HW1 4580   5.003   4.160   6.885
 1227SOL    HW2 4581   5.001   4.111   6.729
 1228SOL     OW 4582   4.092   3.803   4.706
 1228SOL    HW1 4583   4.127   3.733   4.768
 1228SOL    HW2 4584   4.037   3.869   4.757
 1229SOL     OW 4585   2.037   5.499   2.348
 1229SOL    HW1 4586   2.041   5.416   2.403
 1229SOL    HW2 4587   2.130   5.530   2.328
 1230SOL     OW 4588   5.038   4.351   0.179
 1230SOL    HW1 4589   5.032   4.253   0.196
 1230SOL    HW2 4590   5.028   4.368   0.081
 1231SOL     OW 4591   2.248   1.014   0.232
 1231SOL    HW1 4592   2.243   0.915   0.249
 1231SOL    HW2 4593   2.247   1.030   0.134
 1232SOL     OW 4594   2.620   2.001   5.944
 1232SOL    HW1 4595   2.679   2.054   6.005
 1232SOL    HW2 4596   2.638   1.903   5.955
 1233SOL     OW 4597   0.441   5.406   4.594
 1233SOL    HW1 4598   0.538   5.407   4.569
 1233SOL    HW2 4599   0.388   5.375   4.515
 1234SOL     OW 4600   6.582   4.187   6.019
 1234SOL    HW1 4601   6.542   4.227   6.101
 1234SOL    HW2 4602   6.674   4.225   6.005
 1235SOL     OW 4603   6.265   5.278   0.924
 1235SOL    HW1 4604   6.279   5.248   0.829
 1235SOL    HW2 4605   6.169   5.300   0.938
 1236SOL     OW 4606   0.503   1.408   3.027
 1236SOL    HW1 4607   0.474   1.504   3.019
 1236SOL    HW2 4608   0.578   1.390   2.963
 1237SOL     OW 4609   0.614   0.488   4.074
 1237SOL    HW1 4610   0.598   0.538   3.989
 1237SOL    HW2 4611   0.697   0.522   4.118
 1238SOL     OW 4612   0.025   0.800   4.388
 1238SOL    HW1 4613   6.974   0.828   4.440
 1238SOL    HW2 4614   0.061   0.714   4.424
 1239SOL     OW 4615   5.413   4.653   3.446
 1239SOL    HW1 4616   5.339   4.635   3.381
 1239SOL    HW2 4617   5.377   4.647   3.539
 1240SOL     OW 4618   0.646   4.442   1.170
 1240SOL    HW1 4619   0.640   4.350   1.209
 1240SOL    HW2 4620   0.565   4.460   1.114
 1241SOL     OW 4621   3.113   5.143   5.914
 1241SOL    HW1 4622   3.189   5.079   5.907
 1241SOL    HW2 4623   3.074   5.160   5.823
 1242SOL     OW 4624   1.909   5.778   1.021
 1242SOL    HW1 4625   1.996   5.759   1.067
 1242SOL    HW2 4626   1.917   5.756   0.924
 1243SOL     OW 4627   6.976   3.759   3.533
 1243SOL    HW1 4628   7.008   3.777   3.627
 1243SOL    HW2 4629   0.025   3.735   3.475
 1244SOL     OW 4630   0.173   6.710   4.876
 1244SOL    HW1 4631   0.142   6.658   4.797
 1244SOL    HW2 4632   0.232   6.652   4.933
 1245SOL     OW 4633   5.033   0.146   1.265
 1245SOL    HW1 4634   4.964   0.102   1.208
 1245SOL    HW2 4635   5.088   0.208   1.209
 1246SOL     OW 4636   5.238   2.906   1.793
 1246SOL    HW1 4637   5.159   2.956   1.830
 1246SOL    HW2 4638   5.207   2.843   1.722
 1247SOL     OW 4639   4.684   6.592   1.947
 1247SOL    HW1 4640   4.643   6.557   1.863
 1247SOL    HW2 4641   4.702   6.690   1.937
 1248SOL     OW 4642   0.710   7.021   4.652
 1248SOL    HW1 4643   0.768   0.043   4.715
 1248SOL    HW2 4644   0.649   6.962   4.706
 1249SOL     OW 4645   6.846   6.492   6.500
 1249SOL    HW1 4646   6.861   6.579   6.454
 1249SOL    HW2 4647   6.776   6.503   6.570
 1250SOL     OW 4648   0.457   4.507   5.027
 1250SOL    HW1 4649   0.370   4.474   4.991
 1250SOL    HW2 4650   0.445   4.532   5.123
 1251SOL     OW 4651   2.708   0.534   3.044
 1251SOL    HW1 4652   2.750   0.456   2.997
 1251SOL    HW2 4653   2.626   0.563   2.995
 1252SOL     OW 4654   2.452   5.086   6.151
 1252SOL    HW1 4655   2.493   5.000   6.179
 1252SOL    HW2 4656   2.377   5.109   6.212
 1253SOL     OW 4657   2.819   5.663   0.349
 1253SOL    HW1 4658   2.738   5.714   0.379
 1253SOL    HW2 4659   2.880   5.649   0.427
 1254SOL     OW 4660   6.262   1.066   3.514
 1254SOL    HW1 4661   6.318   1.091   3.593
 1254SOL    HW2 4662   6.181   1.015   3.546
 1255SOL     OW 4663   6.039   2.323   6.063
 1255SOL    HW1 4664   6.028   2.419   6.089
 1255SOL    HW2 4665   5.983   2.303   5.983
 1256SOL     OW 4666   6.804   5.514   5.733
 1256SOL    HW1 4667   6.765   5.422   5.740
 1256SOL    HW2 4668   6.758   5.575   5.798
 1257SOL     OW 4669   0.386   6.262   3.243
 1257SOL    HW1 4670   0.475   6.287   3.204
 1257SOL    HW2 4671   0.325   6.230   3.170
 1258SOL     OW 4672   4.998   5.170   6.826
 1258SOL    HW1 4673   4.984   5.255   6.774
 1258SOL    HW2 4674   5.067   5.115   6.781
 1259SOL     OW 4675   5.597   6.521   5.011
 1259SOL    HW1 4676   5.689   6.488   5.032
 1259SOL    HW2 4677   5.530   6.452   5.038
 1260SOL     OW 4678   3.444   0.741   0.322
 1260SOL    HW1 4679   3.393   0.825   0.340
 1260SOL    HW2 4680   3.493   0.713   0.405
 1261SOL     OW 4681   0.056   4.359   4.714
 1261SOL    HW1 4682   0.070   4.266   4.747
 1261SOL    HW2 4683   0.048   4.358   4.614
 1262SOL     OW 4684   4.024   5.961   1.628
 1262SOL    HW1 4685   3.989   6.043   1.673
 1262SOL    HW2 4686   4.010   5.881   1.686
 1263SOL     OW 4687   6.914   1.039   1.056
 1263SOL    HW1 4688   6.858   1.116   1.087
 1263SOL    HW2 4689   6.985   1.019   1.124
 1264SOL     OW 4690   6.208   2.692   4.881
 1264SOL    HW1 4691   6.269   2.618   4.908
 1264SOL    HW2 4692   6.262   2.772   4.855
 1265SOL     OW 4693   5.941   5.525   4.901
 1265SOL    HW1 4694   5.926   5.431   4.871
 1265SOL    HW2 4695   5.965   5.582   4.822
 1266SOL     OW 4696   2.859   0.848   3.717
 1266SOL    HW1 4697   2.928   0.919   3.702
 1266SOL    HW2 4698   2.848   0.795   3.633
 1267SOL     OW 4699   0.484   4.382   2.077
 1267SOL    HW1 4700   0.453   4.288   2.087
 1267SOL    HW2 4701   0.411   4.438   2.038
 1268SOL     OW 4702   5.951   4.964   6.999
 1268SOL    HW1 4703   5.939   5.059   6.971
 1268SOL    HW2 4704   5.944   4.958   0.069
 1269SOL     OW 4705   0.552   4.631   6.393
 1269SOL    HW1 4706   0.568   4.584   6.306
 1269SOL    HW2 4707   0.504   4.718   6.375
 1270SOL     OW 4708   1.751   1.531   4.376
 1270SOL    HW1 4709   1.792   1.584   4.451
 1270SOL    HW2 4710   1.732   1.592   4.299
 1271SOL     OW 4711   5.593   3.024   3.061
 1271SOL    HW1 4712   5.568   2.927   3.064
 1271SOL    HW2 4713   5.571   3.066   3.149
 1272SOL     OW 4714   6.370   6.525   0.039
 1272SOL    HW1 4715   6.355   6.589   6.992
 1272SOL    HW2 4716   6.293   6.529   0.102
 1273SOL     OW 4717   2.511   6.807   4.863
 1273SOL    HW1 4718   2.584   6.853   4.813
 1273SOL    HW2 4719   2.550   6.744   4.931
 1274SOL     OW 4720   5.517   2.600   1.866
 1274SOL    HW1 4721   5.558   2.690   1.877
 1274SOL    HW2 4722   5.426   2.599   1.907
 1275SOL     OW 4723   3.779   1.422   3.712
 1275SOL    HW1 4724   3.684   1.395   3.695
 1275SOL    HW2 4725   3.824   1.351   3.767
 1276SOL     OW 4726   5.413   6.816   2.480
 1276SOL    HW1 4727   5.471   6.801   2.560
 1276SOL    HW2 4728   5.436   6.749   2.409
 1277SOL     OW 4729   0.932   1.756   4.542
 1277SOL    HW1 4730   1.016   1.789   4.500
 1277SOL    HW2 4731   0.868   1.726   4.471
 1278SOL     OW 4732   3.385   1.965   4.647
 1278SOL    HW1 4733   3.328   1.884   4.633
 1278SOL    HW2 4734   3.455   1.945   4.715
 1279SOL     OW 4735   1.885   5.151   0.398
 1279SOL    HW1 4736   1.920   5.057   0.397
 1279SOL    HW2 4737   1.908   5.195   0.311
 1280SOL     OW 4738   1.432   6.059   2.882
 1280SOL    HW1 4739   1.532   6.066   2.886
 1280SOL    HW2 4740   1.398   6.111   2.803
 1281SOL     OW 4741   0.701   6.575   3.689
 1281SOL    HW1 4742   0.758   6.558   3.609
 1281SOL    HW2 4743   0.605   6.568   3.663
 1282SOL     OW 4744   1.774   6.290   2.526
 1282SOL    HW1 4745   1.757   6.354   2.601
 1282SOL    HW2 4746   1.819   6.208   2.562
 1283SOL     OW 4747   5.193   4.023   5.267
 1283SOL    HW1 4748   5.247   4.000   5.186
 1283SOL    HW2 4749   5.188   4.122   5.277
 1284SOL     OW 4750   3.036   2.042   2.928
 1284SOL    HW1 4751   2.973   2.116   2.903
 1284SOL    HW2 4752   2.998   1.992   3.005
 1285SOL     OW 4753   5.818   2.747   5.873
 1285SOL    HW1 4754   5.856   2.839   5.867
 1285SOL    HW2 4755   5.758   2.731   5.794
 1286SOL     OW 4756   5.672   5.948   0.937
 1286SOL    HW1 4757   5.705   6.000   0.859
 1286SOL    HW2 4758   5.750   5.914   0.990
 1287SOL     OW 4759   6.491   3.548   5.616
 1287SOL    HW1 4760   6.570   3.600   5.649
 1287SOL    HW2 4761   6.409   3.576   5.666
 1288SOL     OW 4762   6.413   3.487   3.367
 1288SOL    HW1 4763   6.329   3.434   3.383
 1288SOL    HW2 4764   6.459   3.503   3.454
 1289SOL     OW 4765   0.032   5.157   3.068
 1289SOL    HW1 4766   0.125   5.194   3.058
 1289SOL    HW2 4767   7.013   5.166   2.980
 1290SOL     OW 4768   7.005   0.101   2.051
 1290SOL    HW1 4769   6.979   0.014   2.008
 1290SOL    HW2 4770   6.923   0.148   2.083
 1291SOL     OW 4771   1.242   6.470   1.420
 1291SOL    HW1 4772   1.299   6.483   1.502
 1291SOL    HW2 4773   1.153   6.433   1.447
 1292SOL     OW 4774   1.324   5.797   0.097
 1292SOL    HW1 4775   1.346   5.742   0.177
 1292SOL    HW2 4776   1.241   5.850   0.115
 1293SOL     OW 4777   6.288   2.330   6.477
 1293SOL    HW1 4778   6.317   2.320   6.382
 1293SOL    HW2 4779   6.319   2.251   6.530
 1294SOL     OW 4780   0.663   1.901   3.898
 1294SOL    HW1 4781   0.717   1.948   3.828
 1294SOL    HW2 4782   0.577   1.868   3.858
 1295SOL     OW 4783   5.084   3.952   1.315
 1295SOL    HW1 4784   4.991   3.987   1.304
 1295SOL    HW2 4785   5.141   4.020   1.360
 1296SOL     OW 4786   3.830   1.501   0.310
 1296SOL    HW1 4787   3.886   1.489   0.228
 1296SOL    HW2 4788   3.748   1.553   0.287
 1297SOL     OW 4789   6.491   0.980   5.983
 1297SOL    HW1 4790   6.446   0.994   6.071
 1297SOL    HW2 4791   6.574   0.924   5.997
 1298SOL     OW 4792   6.261   2.715   3.539
 1298SOL    HW1 4793   6.218   2.629   3.513
 1298SOL    HW2 4794   6.355   2.718   3.503
 1299SOL     OW 4795   1.729   3.251   4.576
 1299SOL    HW1 4796   1.698   3.280   4.485
 1299SOL    HW2 4797   1.690   3.311   4.645
 1300SOL     OW 4798   3.546   2.995   2.718
 1300SOL    HW1 4799   3.604   2.971   2.641
 1300SOL    HW2 4800   3.453   2.961   2.703
 1301SOL     OW 4801   1.324   1.514   2.025
 1301SOL    HW1 4802   1.250   1.562   1.976
 1301SOL    HW2 4803   1.326   1.544   2.120
 1302SOL     OW 4804   2.719   5.798   6.020
 1302SOL    HW1 4805   2.816   5.813   6.035
 1302SOL    HW2 4806   2.676   5.883   5.988
 1303SOL     OW 4807   3.014   0.159   1.317
 1303SOL    HW1 4808   2.987   0.077   1.267
 1303SOL    HW2 4809   3.113   0.159   1.329
 1304SOL     OW 4810   3.571   0.725   6.102
 1304SOL    HW1 4811   3.559   0.744   6.200
 1304SOL    HW2 4812   3.592   0.809   6.053
 1305SOL     OW 4813   6.031   6.494   3.723
 1305SOL    HW1 4814   6.079   6.532   3.802
 1305SOL    HW2 4815   5.965   6.560   3.689
 1306SOL     OW 4816   1.845   5.214   4.317
 1306SOL    HW1 4817   1.933   5.238   4.357
 1306SOL    HW2 4818   1.859   5.176   4.225
 1307SOL     OW 4819   0.961   1.176   4.122
 1307SOL    HW1 4820   0.883   1.224   4.163
 1307SOL    HW2 4821   0.997   1.109   4.188
 1308SOL     OW 4822   4.869   6.171   3.203
 1308SOL    HW1 4823   4.783   6.215   3.231
 1308SOL    HW2 4824   4.877   6.083   3.250
 1309SOL     OW 4825   5.206   2.857   4.523
 1309SOL    HW1 4826   5.239   2.892   4.436
 1309SOL    HW2 4827   5.267   2.886   4.596
 1310SOL     OW 4828   5.090   3.616   5.580
 1310SOL    HW1 4829   5.066   3.548   5.511
 1310SOL    HW2 4830   5.181   3.598   5.615
 1311SOL     OW 4831   4.781   4.975   6.256
 1311SOL    HW1 4832   4.859   4.957   6.196
 1311SOL    HW2 4833   4.773   4.902   6.324
 1312SOL     OW 4834   6.669   0.467   1.481
 1312SOL    HW1 4835   6.625   0.498   1.565
 1312SOL    HW2 4836   6.604   0.472   1.405
 1313SOL     OW 4837   3.357   4.922   4.848
 1313SOL    HW1 4838   3.285   4.853   4.860
 1313SOL    HW2 4839   3.417   4.921   4.928
 1314SOL     OW 4840   6.874   1.423   5.894
 1314SOL    HW1 4841   6.788   1.435   5.845
 1314SOL    HW2 4842   6.877   1.484   5.973
 1315SOL     OW 4843   1.903   0.061   3.401
 1315SOL    HW1 4844   1.810   0.095   3.391
 1315SOL    HW2 4845   1.900   6.995   3.431
 1316SOL     OW 4846   3.041   6.374   3.515
 1316SOL    HW1 4847   2.964   6.425   3.554
 1316SOL    HW2 4848   3.028   6.276   3.532
 1317SOL     OW 4849   0.401   3.223   4.480
 1317SOL    HW1 4850   0.454   3.141   4.460
 1317SOL    HW2 4851   0.463   3.299   4.501
 1318SOL     OW 4852   0.801   6.608   1.591
 1318SOL    HW1 4853   0.727   6.642   1.534
 1318SOL    HW2 4854   0.788   6.510   1.609
 1319SOL     OW 4855   6.678   0.234   0.523
 1319SOL    HW1 4856   6.723   0.261   0.438
 1319SOL    HW2 4857   6.582   0.261   0.521
 1320SOL     OW 4858   4.709   5.287   5.034
 1320SOL    HW1 4859   4.778   5.301   4.963
 1320SOL    HW2 4860   4.753   5.267   5.121
 1321SOL     OW 4861   4.084   0.978   0.685
 1321SOL    HW1 4862   4.066   1.060   0.630
 1321SOL    HW2 4863   4.000   0.924   0.693
 1322SOL     OW 4864   5.191   1.053   6.314
 1322SOL    HW1 4865   5.206   1.132   6.255
 1322SOL    HW2 4866   5.210   1.079   6.409
 1323SOL     OW 4867   6.435   0.575   4.069
 1323SOL    HW1 4868   6.387   0.660   4.048
 1323SOL    HW2 4869   6.509   0.593   4.134
 1324SOL     OW 4870   1.071   2.414   0.592
 1324SOL    HW1 4871   1.147   2.446   0.536
 1324SOL    HW2 4872   1.031   2.332   0.550
 1325SOL     OW 4873   4.253   5.724   4.088
 1325SOL    HW1 4874   4.250   5.625   4.098
 1325SOL    HW2 4875   4.300   5.764   4.167
 1326SOL     OW 4876   5.298   4.162   4.662
 1326SOL    HW1 4877   5.205   4.181   4.694
 1326SOL    HW2 4878   5.358   4.239   4.684
 1327SOL     OW 4879   2.854   6.349   4.070
 1327SOL    HW1 4880   2.802   6.425   4.030
 1327SOL    HW2 4881   2.899   6.381   4.153
 1328SOL     OW 4882   2.630   0.926   1.330
 1328SOL    HW1 4883   2.594   0.983   1.404
 1328SOL    HW2 4884   2.618   0.830   1.353
 1329SOL     OW 4885   1.704   6.233   2.000
 1329SOL    HW1 4886   1.722   6.168   2.073
 1329SOL    HW2 4887   1.607   6.258   2.001
 1330SOL     OW 4888   5.076   6.842   1.263
 1330SOL    HW1 4889   5.062   6.833   1.164
 1330SOL    HW2 4890   4.988   6.836   1.310
 1331SOL     OW 4891   0.864   2.205   2.017
 1331SOL    HW1 4892   0.876   2.167   2.109
 1331SOL    HW2 4893   0.804   2.285   2.022
 1332SOL     OW 4894   4.788   2.062   1.051
 1332SOL    HW1 4895   4.878   2.021   1.036
 1332SOL    HW2 4896   4.723   2.025   0.985
 1333SOL     OW 4897   4.008   3.314   5.247
 1333SOL    HW1 4898   3.917   3.354   5.254
 1333SOL    HW2 4899   4.051   3.343   5.161
 1334SOL     OW 4900   1.099   3.345   3.797
 1334SOL    HW1 4901   1.026   3.398   3.754
 1334SOL    HW2 4902   1.184   3.398   3.793
 1335SOL     OW 4903   1.888   5.443   3.445
 1335SOL    HW1 4904   1.918   5.516   3.506
 1335SOL    HW2 4905   1.788   5.445   3.437
 1336SOL     OW 4906   0.138   6.840   5.147
 1336SOL    HW1 4907   0.107   6.846   5.242
 1336SOL    HW2 4908   0.060   6.824   5.087
 1337SOL     OW 4909   3.697   6.403   6.798
 1337SOL    HW1 4910   3.773   6.441   6.745
 1337SOL    HW2 4911   3.658   6.475   6.856
 1338SOL     OW 4912   3.317   5.188   0.985
 1338SOL    HW1 4913   3.224   5.165   0.954
 1338SOL    HW2 4914   3.328   5.160   1.080
 1339SOL     OW 4915   0.242   3.885   6.933
 1339SOL    HW1 4916   0.264   3.926   6.844
 1339SOL    HW2 4917   0.322   3.836   6.968
 1340SOL     OW 4918   3.207   1.288   6.061
 1340SOL    HW1 4919   3.306   1.295   6.049
 1340SOL    HW2 4920   3.167   1.244   5.980
 1341SOL     OW 4921   5.371   2.396   4.439
 1341SOL    HW1 4922   5.278   2.431   4.453
 1341SOL    HW2 4923   5.385   2.316   4.498
 1342SOL     OW 4924   0.678   0.365   1.320
 1342SOL    HW1 4925   0.725   0.286   1.361
 1342SOL    HW2 4926   0.681   0.442   1.383
 1343SOL     OW 4927   2.839   5.926   3.853
 1343SOL    HW1 4928   2.798   5.835   3.841
 1343SOL    HW2 4929   2.804   5.968   3.937
 1344SOL     OW 4930   5.545   2.011   2.395
 1344SOL    HW1 4931   5.589   2.086   2.346
 1344SOL    HW2 4932   5.601   1.986   2.474
 1345SOL     OW 4933   6.784   5.995   2.321
 1345SOL    HW1 4934   6.873   6.001   2.276
 1345SOL    HW2 4935   6.713   5.977   2.253
 1346SOL     OW 4936   0.049   1.733   3.185
 1346SOL    HW1 4937   6.982   1.730   3.157
 1346SOL    HW2 4938   0.086   1.640   3.188
 1347SOL     OW 4939   4.679   1.065   3.179
 1347SOL    HW1 4940   4.689   0.997   3.251
 1347SOL    HW2 4941   4.753   1.055   3.113
 1348SOL     OW 4942   4.871   5.550   4.655
 1348SOL    HW1 4943   4.956   5.598   4.637
 1348SOL    HW2 4944   4.809   5.561   4.578
 1349SOL     OW 4945   4.756   2.246   0.501
 1349SOL    HW1 4946   4.696   2.252   0.421
 1349SOL    HW2 4947   4.840   2.297   0.483
 1350SOL     OW 4948   2.598   0.922   4.731
 1350SOL    HW1 4949   2.610   0.949   4.826
 1350SOL    HW2 4950   2.541   0.990   4.684
 1351SOL     OW 4951   1.780   1.622   3.309
 1351SOL    HW1 4952   1.871   1.583   3.294
 1351SOL    HW2 4953   1.743   1.587   3.396
 1352SOL     OW 4954   1.210   6.340   4.615
 1352SOL    HW1 4955   1.279   6.268   4.612
 1352SOL    HW2 4956   1.230   6.403   4.691
 1353SOL     OW 4957   2.474   3.257   5.516
 1353SOL    HW1 4958   2.546   3.299   5.461
 1353SOL    HW2 4959   2.461   3.162   5.488
 1354SOL     OW 4960   0.723   6.783   0.074
 1354SOL    HW1 4961   0.666   6.710   0.111
 1354SOL    HW2 4962   0.739   6.766   7.005
 1355SOL     OW 4963   4.145   3.414   6.944
 1355SOL    HW1 4964   4.210   3.339   6.938
 1355SOL    HW2 4965   4.133   3.440   0.011
 1356SOL     OW 4966   3.217   2.809   1.946
 1356SOL    HW1 4967   3.174   2.781   2.032
 1356SOL    HW2 4968   3.148   2.847   1.885
 1357SOL     OW 4969   3.584   2.475   5.537
 1357SOL    HW1 4970   3.486   2.472   5.553
 1357SOL    HW2 4971   3.608   2.560   5.491
 1358SOL     OW 4972   1.856   3.295   6.162
 1358SOL    HW1 4973   1.861   3.198   6.139
 1358SOL    HW2 4974   1.941   3.340   6.137
 1359SOL     OW 4975   7.027   1.809   6.482
 1359SOL    HW1 4976   7.015   1.902   6.517
 1359SOL    HW2 4977   0.094   1.795   6.458
 1360SOL     OW 4978   3.583   3.478   3.924
 1360SOL    HW1 4979   3.559   3.476   4.021
 1360SOL    HW2 4980   3.682   3.489   3.914
 1361SOL     OW 4981   1.020   6.685   1.010
 1361SOL    HW1 4982   1.070   6.754   0.958
 1361SOL    HW2 4983   1.085   6.624   1.056
 1362SOL     OW 4984   3.188   1.364   6.874
 1362SOL    HW1 4985   3.253   1.417   6.819
 1362SOL    HW2 4986   3.211   1.267   6.869
 1363SOL     OW 4987   6.895   6.583   0.956
 1363SOL    HW1 4988   6.862   6.677   0.948
 1363SOL    HW2 4989   6.982   6.574   0.907
 1364SOL     OW 4990   1.220   3.659   1.117
 1364SOL    HW1 4991   1.182   3.577   1.074
 1364SOL    HW2 4992   1.181   3.671   1.208
 1365SOL     OW 4993   0.971   3.223   6.224
 1365SOL    HW1 4994   1.043   3.279   6.183
 1365SOL    HW2 4995   0.914   3.281   6.283
 1366SOL     OW 4996   3.764   0.784   1.010
 1366SOL    HW1 4997   3.815   0.709   1.053
 1366SOL    HW2 4998   3.672   0.753   0.988
 1367SOL     OW 4999   1.148   0.107   4.530
 1367SOL    HW1 5000   1.124   0.158   4.448
 1367SOL    HW2 5001   1.143   0.008   4.511
 1368SOL     OW 5002   1.385   6.118   4.634
 1368SOL    HW1 5003   1.393   6.045   4.702
 1368SOL    HW2 5004   1.476   6.150   4.608
 1369SOL     OW 5005   2.178   6.076   3.628
 1369SOL    HW1 5006   2.129   6.037   3.705
 1369SOL    HW2 5007   2.117   6.134   3.574
 1370SOL     OW 5008   0.037   2.479   2.812
 1370SOL    HW1 5009   6.995   2.410   2.812
 1370SOL    HW2 5010   7.029   2.566   2.843
 1371SOL     OW 5011   6.123   2.011   5.980
 1371SOL    HW1 5012   6.052   1.958   6.027
 1371SOL    HW2 5013   6.112   2.108   6.004
 1372SOL     OW 5014   5.221   2.163   1.652
 1372SOL    HW1 5015   5.307   2.212   1.638
 1372SOL    HW2 5016   5.145   2.221   1.623
 1373SOL     OW 5017   5.186   2.899   1.458
 1373SOL    HW1 5018   5.264   2.936   1.509
 1373SOL    HW2 5019   5.134   2.837   1.518
 1374SOL     OW 5020   4.123   3.534   2.458
 1374SOL    HW1 5021   4.048   3.481   2.497
 1374SOL    HW2 5022   4.140   3.505   2.364
 1375SOL     OW 5023   5.139   4.693   4.832
 1375SOL    HW1 5024   5.133   4.608   4.885
 1375SOL    HW2 5025   5.116   4.770   4.892
 1376SOL     OW 5026   2.896   4.341   5.688
 1376SOL    HW1 5027   2.933   4.432   5.710
 1376SOL    HW2 5028   2.907   4.281   5.767
 1377SOL     OW 5029   1.139   1.878   3.471
 1377SOL    HW1 5030   1.116   1.802   3.532
 1377SOL    HW2 5031   1.178   1.953   3.525
 1378SOL     OW 5032   4.491   2.098   4.470
 1378SOL    HW1 5033   4.451   2.008   4.481
 1378SOL    HW2 5034   4.418   2.166   4.461
 1379SOL     OW 5035   4.546   5.302   6.939
 1379SOL    HW1 5036   4.595   5.215   6.930
 1379SOL    HW2 5037   4.498   5.323   6.854
 1380SOL     OW 5038   0.211   5.759   4.122
 1380SOL    HW1 5039   0.117   5.790   4.134
 1380SOL    HW2 5040   0.257   5.817   4.055
 1381SOL     OW 5041   6.535   3.116   6.152
 1381SOL    HW1 5042   6.490   3.038   6.196
 1381SOL    HW2 5043   6.499   3.201   6.190
 1382SOL     OW 5044   4.196   1.929   6.117
 1382SOL    HW1 5045   4.221   1.933   6.021
 1382SOL    HW2 5046   4.277   1.910   6.172
 1383SOL     OW 5047   6.155   0.626   1.091
 1383SOL    HW1 5048   6.213   0.701   1.058
 1383SOL    HW2 5049   6.119   0.575   1.013
 1384SOL     OW 5050   6.076   2.440   1.928
 1384SOL    HW1 5051   6.114   2.350   1.906
 1384SOL    HW2 5052   6.022   2.433   2.012
 1385SOL     OW 5053   6.968   6.326   1.844
 1385SOL    HW1 5054   6.970   6.227   1.831
 1385SOL    HW2 5055   0.017   6.353   1.901
 1386SOL     OW 5056   2.060   0.048   3.906
 1386SOL    HW1 5057   2.080   7.016   3.830
 1386SOL    HW2 5058   2.070   0.143   3.877
 1387SOL     OW 5059   1.494   6.168   1.461
 1387SOL    HW1 5060   1.486   6.109   1.381
 1387SOL    HW2 5061   1.580   6.218   1.457
 1388SOL     OW 5062   6.300   0.113   1.746
 1388SOL    HW1 5063   6.319   0.210   1.762
 1388SOL    HW2 5064   6.202   0.097   1.748
 1389SOL     OW 5065   6.215   1.145   1.999
 1389SOL    HW1 5066   6.263   1.151   1.911
 1389SOL    HW2 5067   6.201   1.237   2.035
 1390SOL     OW 5068   1.432   1.851   4.489
 1390SOL    HW1 5069   1.380   1.884   4.410
 1390SOL    HW2 5070   1.389   1.769   4.525
 1391SOL     OW 5071   0.811   2.890   3.782
 1391SOL    HW1 5072   0.907   2.871   3.802
 1391SOL    HW2 5073   0.793   2.870   3.686
 1392SOL     OW 5074   5.438   4.564   4.175
 1392SOL    HW1 5075   5.374   4.581   4.100
 1392SOL    HW2 5076   5.529   4.547   4.137
 1393SOL     OW 5077   3.770   4.892   6.817
 1393SOL    HW1 5078   3.842   4.879   6.749
 1393SOL    HW2 5079   3.745   4.989   6.821
 1394SOL     OW 5080   1.260   6.301   0.158
 1394SOL    HW1 5081   1.210   6.287   0.244
 1394SOL    HW2 5082   1.196   6.300   0.082
 1395SOL     OW 5083   3.620   4.799   5.946
 1395SOL    HW1 5084   3.565   4.878   5.974
 1395SOL    HW2 5085   3.632   4.801   5.846
 1396SOL     OW 5086   5.749   6.026   3.363
 1396SOL    HW1 5087   5.801   6.016   3.278
 1396SOL    HW2 5088   5.662   5.978   3.355
 1397SOL     OW 5089   5.084   6.007   4.972
 1397SOL    HW1 5090   5.011   5.946   5.002
 1397SOL    HW2 5091   5.083   6.090   5.028
 1398SOL     OW 5092   1.795   0.365   4.639
 1398SOL    HW1 5093   1.865   0.349   4.570
 1398SOL    HW2 5094   1.808   0.301   4.715
 1399SOL     OW 5095   3.440   5.431   2.258
 1399SOL    HW1 5096   3.537   5.409   2.241
 1399SOL    HW2 5097   3.417   5.516   2.211
 1400SOL     OW 5098   1.405   0.208   2.623
 1400SOL    HW1 5099   1.428   0.292   2.672
 1400SOL    HW2 5100   1.396   0.133   2.688
 1401SOL     OW 5101   6.701   1.725   4.294
 1401SOL    HW1 5102   6.651   1.639   4.307
 1401SOL    HW2 5103   6.639   1.802   4.307
 1402SOL     OW 5104   6.225   3.039   6.978
 1402SOL    HW1 5105   6.205   2.943   6.959
 1402SOL    HW2 5106   6.140   3.090   6.990
 1403SOL     OW 5107   3.651   0.347   2.012
 1403SOL    HW1 5108   3.705   0.398   2.079
 1403SOL    HW2 5109   3.634   0.405   1.932
 1404SOL     OW 5110   5.290   1.991   0.788
 1404SOL    HW1 5111   5.248   1.939   0.862
 1404SOL    HW2 5112   5.390   1.980   0.792
 1405SOL     OW 5113   3.459   2.550   1.269
 1405SOL    HW1 5114   3.384   2.496   1.306
 1405SOL    HW2 5115   3.485   2.621   1.335
 1406SOL     OW 5116   1.116   3.848   1.896
 1406SOL    HW1 5117   1.131   3.944   1.919
 1406SOL    HW2 5118   1.022   3.823   1.918
 1407SOL     OW 5119   0.077   2.419   2.537
 1407SOL    HW1 5120   0.162   2.471   2.529
 1407SOL    HW2 5121   0.030   2.446   2.621
 1408SOL     OW 5122   5.924   5.913   6.231
 1408SOL    HW1 5123   5.975   5.937   6.148
 1408SOL    HW2 5124   5.964   5.961   6.310
 1409SOL     OW 5125   6.999   1.555   3.849
 1409SOL    HW1 5126   6.996   1.535   3.751
 1409SOL    HW2 5127   0.054   1.517   3.888
 1410SOL     OW 5128   6.378   1.849   6.946
 1410SOL    HW1 5129   6.420   1.926   6.993
 1410SOL    HW2 5130   6.287   1.875   6.912
 1411SOL     OW 5131   1.664   0.976   1.800
 1411SOL    HW1 5132   1.755   1.017   1.808
 1411SOL    HW2 5133   1.659   0.921   1.717
 1412SOL     OW 5134   1.434   2.742   0.091
 1412SOL    HW1 5135   1.338   2.712   0.093
 1412SOL    HW2 5136   1.469   2.750   0.184
 1413SOL     OW 5137   2.608   6.775   2.983
 1413SOL    HW1 5138   2.598   6.873   2.969
 1413SOL    HW2 5139   2.631   6.730   2.897
 1414SOL     OW 5140   2.289   0.735   1.999
 1414SOL    HW1 5141   2.292   0.656   1.938
 1414SOL    HW2 5142   2.193   0.757   2.021
 1415SOL     OW 5143   5.223   5.953   4.738
 1415SOL    HW1 5144   5.169   5.961   4.654
 1415SOL    HW2 5145   5.169   5.984   4.816
 1416SOL     OW 5146   4.561   5.425   3.657
 1416SOL    HW1 5147   4.633   5.492   3.638
 1416SOL    HW2 5148   4.551   5.363   3.579
 1417SOL     OW 5149   3.173   3.014   6.182
 1417SOL    HW1 5150   3.117   2.955   6.239
 1417SOL    HW2 5151   3.118   3.047   6.104
 1418SOL     OW 5152   3.306   3.727   3.221
 1418SOL    HW1 5153   3.263   3.813   3.194
 1418SOL    HW2 5154   3.235   3.661   3.247
 1419SOL     OW 5155   3.758   6.474   3.965
 1419SOL    HW1 5156   3.691   6.412   4.006
 1419SOL    HW2 5157   3.839   6.422   3.937
 1420SOL     OW 5158   0.620   6.243   2.352
 1420SOL    HW1 5159   0.672   6.205   2.276
 1420SOL    HW2 5160   0.573   6.169   2.400
 1421SOL     OW 5161   3.879   0.818   2.641
 1421SOL    HW1 5162   3.945   0.788   2.709
 1421SOL    HW2 5163   3.796   0.762   2.647
 1422SOL     OW 5164   2.743   0.049   0.475
 1422SOL    HW1 5165   2.706   0.003   0.395
 1422SOL    HW2 5166   2.676   0.114   0.510
 1423SOL     OW 5167   5.236   0.902   1.941
 1423SOL    HW1 5168   5.286   0.987   1.922
 1423SOL    HW2 5169   5.294   0.824   1.919
 1424SOL     OW 5170   6.592   5.427   2.793
 1424SOL    HW1 5171   6.535   5.499   2.754
 1424SOL    HW2 5172   6.546   5.339   2.782
 1425SOL     OW 5173   1.519   0.712   4.343
 1425SOL    HW1 5174   1.495   0.651   4.419
 1425SOL    HW2 5175   1.608   0.755   4.361
 1426SOL     OW 5176   1.725   1.530   5.293
 1426SOL    HW1 5177   1.813   1.547   5.336
 1426SOL    HW2 5178   1.673   1.465   5.348
 1427SOL     OW 5179   5.699   1.001   5.172
 1427SOL    HW1 5180   5.602   0.987   5.154
 1427SOL    HW2 5181   5.748   1.013   5.085
 1428SOL     OW 5182   5.798   1.157   0.127
 1428SOL    HW1 5183   5.873   1.199   0.077
 1428SOL    HW2 5184   5.771   1.216   0.203
 1429SOL     OW 5185   5.740   6.671   6.973
 1429SOL    HW1 5186   5.731   6.573   6.989
 1429SOL    HW2 5187   5.683   6.721   0.009
 1430SOL     OW 5188   2.586   4.561   3.105
 1430SOL    HW1 5189   2.529   4.545   3.025
 1430SOL    HW2 5190   2.580   4.482   3.166
 1431SOL     OW 5191   1.922   0.263   0.714
 1431SOL    HW1 5192   1.937   0.352   0.672
 1431SOL    HW2 5193   2.011   0.224   0.740
 1432SOL     OW 5194   3.116   0.303   1.078
 1432SOL    HW1 5195   3.170   0.387   1.068
 1432SOL    HW2 5196   3.133   0.263   1.168
 1433SOL     OW 5197   4.372   0.617   4.235
 1433SOL    HW1 5198   4.344   0.532   4.190
 1433SOL    HW2 5199   4.362   0.607   4.334
 1434SOL     OW 5200   0.945   0.967   5.229
 1434SOL    HW1 5201   0.884   0.930   5.299
 1434SOL    HW2 5202   1.021   1.016   5.272
 1435SOL     OW 5203   0.158   2.458   3.605
 1435SOL    HW1 5204   0.101   2.378   3.584
 1435SOL    HW2 5205   0.211   2.483   3.524
 1436SOL     OW 5206   4.644   3.910   0.659
 1436SOL    HW1 5207   4.674   3.949   0.746
 1436SOL    HW2 5208   4.703   3.944   0.586
 1437SOL     OW 5209   4.816   1.619   2.328
 1437SOL    HW1 5210   4.820   1.622   2.228
 1437SOL    HW2 5211   4.728   1.655   2.360
 1438SOL     OW 5212   2.225   0.392   1.468
 1438SOL    HW1 5213   2.201   0.470   1.526
 1438SOL    HW2 5214   2.325   0.383   1.465
 1439SOL     OW 5215   0.642   5.777   2.188
 1439SOL    HW1 5216   0.688   5.820   2.111
 1439SOL    HW2 5217   0.599   5.691   2.158
 1440SOL     OW 5218   2.148   2.851   1.853
 1440SOL    HW1 5219   2.186   2.885   1.767
 1440SOL    HW2 5220   2.220   2.812   1.909
 1441SOL     OW 5221   5.354   5.730   6.806
 1441SOL    HW1 5222   5.369   5.634   6.826
 1441SOL    HW2 5223   5.298   5.771   6.878
 1442SOL     OW 5224   5.438   5.493   0.430
 1442SOL    HW1 5225   5.525   5.445   0.426
 1442SOL    HW2 5226   5.442   5.567   0.498
 1443SOL     OW 5227   0.474   2.728   1.994
 1443SOL    HW1 5228   0.406   2.772   2.052
 1443SOL    HW2 5229   0.487   2.633   2.023
 1444SOL     OW 5230   0.771   5.765   6.165
 1444SOL    HW1 5231   0.773   5.859   6.131
 1444SOL    HW2 5232   0.685   5.749   6.213
 1445SOL     OW 5233   0.427   2.874   1.079
 1445SOL    HW1 5234   0.441   2.785   1.035
 1445SOL    HW2 5235   0.454   2.869   1.175
 1446SOL     OW 5236   6.908   5.406   0.908
 1446SOL    HW1 5237   7.007   5.418   0.901
 1446SOL    HW2 5238   6.869   5.404   0.816
 1447SOL     OW 5239   6.440   5.837   3.839
 1447SOL    HW1 5240   6.368   5.774   3.808
 1447SOL    HW2 5241   6.401   5.903   3.903
 1448SOL     OW 5242   0.797   1.404   5.980
 1448SOL    HW1 5243   0.829   1.496   5.959
 1448SOL    HW2 5244   0.864   1.358   6.039
 1449SOL     OW 5245   2.111   3.286   3.267
 1449SOL    HW1 5246   2.108   3.276   3.168
 1449SOL    HW2 5247   2.174   3.218   3.306
 1450SOL     OW 5248   3.217   2.095   3.532
 1450SOL    HW1 5249   3.298   2.121   3.478
 1450SOL    HW2 5250   3.179   2.010   3.496
 1451SOL     OW 5251   3.344   1.495   2.577
 1451SOL    HW1 5252   3.338   1.547   2.662
 1451SOL    HW2 5253   3.258   1.503   2.526
 1452SOL     OW 5254   4.347   2.638   6.648
 1452SOL    HW1 5255   4.320   2.734   6.636
 1452SOL    HW2 5256   4.430   2.634   6.704
 1453SOL     OW 5257   1.134   3.369   4.920
 1453SOL    HW1 5258   1.176   3.339   5.006
 1453SOL    HW2 5259   1.035   3.378   4.933
 1454SOL     OW 5260   3.201   2.208   2.785
 1454SOL    HW1 5261   3.288   2.170   2.756
 1454SOL    HW2 5262   3.155   2.144   2.846
 1455SOL     OW 5263   0.091   5.051   2.565
 1455SOL    HW1 5264   0.033   4.978   2.601
 1455SOL    HW2 5265   0.052   5.139   2.588
 1456SOL     OW 5266   6.473   6.114   4.219
 1456SOL    HW1 5267   6.409   6.088   4.147
 1456SOL    HW2 5268   6.551   6.051   4.219
 1457SOL     OW 5269   0.833   5.224   5.964
 1457SOL    HW1 5270   0.855   5.285   5.888
 1457SOL    HW2 5271   0.839   5.129   5.934
 1458SOL     OW 5272   6.441   4.913   5.264
 1458SOL    HW1 5273   6.383   4.955   5.334
 1458SOL    HW2 5274   6.406   4.822   5.241
 1459SOL     OW 5275   6.378   6.482   4.948
 1459SOL    HW1 5276   6.308   6.549   4.971
 1459SOL    HW2 5277   6.447   6.478   5.020
 1460SOL     OW 5278   1.908   6.122   5.115
 1460SOL    HW1 5279   1.816   6.098   5.144
 1460SOL    HW2 5280   1.961   6.039   5.099
 1461SOL     OW 5281   6.149   3.485   4.011
 1461SOL    HW1 5282   6.195   3.434   3.938
 1461SOL    HW2 5283   6.187   3.457   4.099
 1462SOL     OW 5284   0.289   1.485   1.760
 1462SOL    HW1 5285   0.222   1.558   1.777
 1462SOL    HW2 5286   0.360   1.488   1.831
 1463SOL     OW 5287   1.359   5.136   6.671
 1463SOL    HW1 5288   1.413   5.158   6.753
 1463SOL    HW2 5289   1.281   5.079   6.698
 1464SOL     OW 5290   1.020   4.417   4.588
 1464SOL    HW1 5291   1.113   4.403   4.556
 1464SOL    HW2 5292   0.983   4.501   4.549
 1465SOL     OW 5293   1.403   2.810   5.621
 1465SOL    HW1 5294   1.390   2.750   5.542
 1465SOL    HW2 5295   1.314   2.839   5.656
 1466SOL     OW 5296   5.555   1.199   2.689
 1466SOL    HW1 5297   5.650   1.207   2.658
 1466SOL    HW2 5298   5.527   1.103   2.686
 1467SOL     OW 5299   0.374   6.657   3.566
 1467SOL    HW1 5300   0.328   6.699   3.644
 1467SOL    HW2 5301   0.352   6.559   3.562
 1468SOL     OW 5302   3.675   6.454   3.340
 1468SOL    HW1 5303   3.647   6.380   3.279
 1468SOL    HW2 5304   3.595   6.508   3.365
 1469SOL     OW 5305   5.811   4.155   3.008
 1469SOL    HW1 5306   5.909   4.136   3.007
 1469SOL    HW2 5307   5.788   4.203   3.093
 1470SOL     OW 5308   6.524   2.336   2.306
 1470SOL    HW1 5309   6.454   2.366   2.371
 1470SOL    HW2 5310   6.480   2.291   2.228
 1471SOL     OW 5311   5.002   7.023   6.986
 1471SOL    HW1 5312   5.034   6.930   7.003
 1471SOL    HW2 5313   4.908   7.020   6.953
 1472SOL     OW 5314   2.034   0.952   6.648
 1472SOL    HW1 5315   2.116   0.968   6.701
 1472SOL    HW2 5316   2.042   0.864   6.600
 1473SOL     OW 5317   1.724   5.959   3.145
 1473SOL    HW1 5318   1.776   5.887   3.190
 1473SOL    HW2 5319   1.642   5.980   3.199
 1474SOL     OW 5320   2.135   4.624   2.178
 1474SOL    HW1 5321   2.223   4.671   2.168
 1474SOL    HW2 5322   2.127   4.588   2.271
 1475SOL     OW 5323   6.223   0.104   6.649
 1475SOL    HW1 5324   6.137   0.153   6.636
 1475SOL    HW2 5325   6.203   0.009   6.674
 1476SOL     OW 5326   5.618   0.184   6.122
 1476SOL    HW1 5327   5.541   0.245   6.140
 1476SOL    HW2 5328   5.584   0.096   6.089
 1477SOL     OW 5329   3.345   4.245   1.640
 1477SOL    HW1 5330   3.273   4.313   1.654
 1477SOL    HW2 5331   3.305   4.153   1.639
 1478SOL     OW 5332   4.733   4.692   6.334
 1478SOL    HW1 5333   4.636   4.675   6.316
 1478SOL    HW2 5334   4.755   4.661   6.427
 1479SOL     OW 5335   4.860   4.419   0.992
 1479SOL    HW1 5336   4.891   4.471   1.072
 1479SOL    HW2 5337   4.765   4.390   1.006
 1480SOL     OW 5338   2.674   1.056   4.400
 1480SOL    HW1 5339   2.708   0.962   4.405
 1480SOL    HW2 5340   2.627   1.069   4.313
 1481SOL     OW 5341   4.472   2.178   5.787
 1481SOL    HW1 5342   4.560   2.168   5.833
 1481SOL    HW2 5343   4.442   2.088   5.754
 1482SOL     OW 5344   6.439   1.289   1.670
 1482SOL    HW1 5345   6.353   1.341   1.663
 1482SOL    HW2 5346   6.429   1.219   1.740
 1483SOL     OW 5347   6.378   0.162   6.872
 1483SOL    HW1 5348   6.471   0.128   6.858
 1483SOL    HW2 5349   6.326   0.154   6.787
 1484SOL     OW 5350   3.314   6.036   4.977
 1484SOL    HW1 5351   3.402   5.990   4.961
 1484SOL    HW2 5352   3.240   5.969   4.969
 1485SOL     OW 5353   4.972   3.759   3.801
 1485SOL    HW1 5354   4.932   3.786   3.889
 1485SOL    HW2 5355   5.012   3.839   3.756
 1486SOL     OW 5356   5.011   6.265   4.048
 1486SOL    HW1 5357   5.091   6.207   4.029
 1486SOL    HW2 5358   4.997   6.329   3.972
 1487SOL     OW 5359   6.078   1.093   0.426
 1487SOL    HW1 5360   5.980   1.115   0.431
 1487SOL    HW2 5361   6.105   1.085   0.330
 1488SOL     OW 5362   6.692   2.575   2.750
 1488SOL    HW1 5363   6.761   2.593   2.680
 1488SOL    HW2 5364   6.727   2.509   2.816
 1489SOL     OW 5365   3.063   5.081   0.015
 1489SOL    HW1 5366   3.124   5.024   6.989
 1489SOL    HW2 5367   3.057   5.172   7.003
 1490SOL     OW 5368   6.802   3.182   2.119
 1490SOL    HW1 5369   6.847   3.187   2.209
 1490SOL    HW2 5370   6.834   3.100   2.071
 1491SOL     OW 5371   5.275   2.660   3.747
 1491SOL    HW1 5372   5.197   2.649   3.685
 1491SOL    HW2 5373   5.348   2.708   3.699
 1492SOL     OW 5374   0.782   2.207   2.469
 1492SOL    HW1 5375   0.801   2.285   2.408
 1492SOL    HW2 5376   0.687   2.210   2.498
 1493SOL     OW 5377   6.037   2.394   6.564
 1493SOL    HW1 5378   6.017   2.314   6.620
 1493SOL    HW2 5379   6.108   2.371   6.497
 1494SOL     OW 5380   0.661   4.219   6.329
 1494SOL    HW1 5381   0.686   4.210   6.425
 1494SOL    HW2 5382   0.612   4.137   6.299
 1495SOL     OW 5383   6.726   4.194   3.664
 1495SOL    HW1 5384   6.695   4.234   3.751
 1495SOL    HW2 5385   6.825   4.197   3.660
 1496SOL     OW 5386   6.617   6.321   5.666
 1496SOL    HW1 5387   6.637   6.255   5.594
 1496SOL    HW2 5388   6.518   6.338   5.669
 1497SOL     OW 5389   5.438   2.638   2.396
 1497SOL    HW1 5390   5.424   2.567   2.328
 1497SOL    HW2 5391   5.517   2.615   2.453
 1498SOL     OW 5392   3.984   4.693   0.440
 1498SOL    HW1 5393   4.004   4.638   0.521
 1498SOL    HW2 5394   3.914   4.648   0.385
 1499SOL     OW 5395   0.553   4.523   4.125
 1499SOL    HW1 5396   0.569   4.485   4.216
 1499SOL    HW2 5397   0.465   4.571   4.124
 1500SOL     OW 5398   2.202   5.500   2.071
 1500SOL    HW1 5399   2.239   5.524   2.161
 1500SOL    HW2 5400   2.139   5.422   2.081
 1501SOL     OW 5401   6.266   1.898   0.761
 1501SOL    HW1 5402   6.229   1.956   0.833
 1501SOL    HW2 5403   6.335   1.836   0.800
 1502SOL     OW 5404   0.271   6.366   6.465
 1502SOL    HW1 5405   0.298   6.404   6.553
 1502SOL    HW2 5406   0.172   6.353   6.463
 1503SOL     OW 5407   0.069   5.175   1.709
 1503SOL    HW1 5408   0.055   5.269   1.678
 1503SOL    HW2 5409   7.012   5.137   1.743
 1504SOL     OW 5410   1.625   0.103   3.334
 1504SOL    HW1 5411   1.659   0.088   3.241
 1504SOL    HW2 5412   1.525   0.101   3.333
 1505SOL     OW 5413   6.683   4.920   4.947
 1505SOL    HW1 5414   6.677   4.834   4.997
 1505SOL    HW2 5415   6.651   4.907   4.853
 1506SOL     OW 5416   1.508   0.916   0.909
 1506SOL    HW1 5417   1.563   0.843   0.950
 1506SOL    HW2 5418   1.468   0.884   0.823
 1507SOL     OW 5419   2.893   2.206   3.197
 1507SOL    HW1 5420   2.857   2.188   3.106
 1507SOL    HW2 5421   2.830   2.264   3.247
 1508SOL     OW 5422   1.590   0.426   2.030
 1508SOL    HW1 5423   1.510   0.366   2.041
 1508SOL    HW2 5424   1.612   0.467   2.118
 1509SOL     OW 5425   4.844   1.398   4.266
 1509SOL    HW1 5426   4.805   1.469   4.324
 1509SOL    HW2 5427   4.898   1.441   4.193
 1510SOL     OW 5428   3.565   6.487   5.075
 1510SOL    HW1 5429   3.487   6.496   5.136
 1510SOL    HW2 5430   3.573   6.569   5.019
 1511SOL     OW 5431   3.425   4.265   5.278
 1511SOL    HW1 5432   3.418   4.261   5.179
 1511SOL    HW2 5433   3.480   4.188   5.311
 1512SOL     OW 5434   5.209   6.341   0.605
 1512SOL    HW1 5435   5.300   6.302   0.609
 1512SOL    HW2 5436   5.176   6.341   0.511
 1513SOL     OW 5437   2.912   0.741   5.866
 1513SOL    HW1 5438   2.879   0.779   5.779
 1513SOL    HW2 5439   2.872   0.792   5.942
 1514SOL     OW 5440   2.896   2.317   7.011
 1514SOL    HW1 5441   2.893   2.221   0.011
 1514SOL    HW2 5442   2.985   2.356   0.007
 1515SOL     OW 5443   3.585   0.657   2.234
 1515SOL    HW1 5444   3.576   0.656   2.134
 1515SOL    HW2 5445   3.579   0.564   2.269
 1516SOL     OW 5446   6.560   6.698   6.234
 1516SOL    HW1 5447   6.554   6.649   6.146
 1516SOL    HW2 5448   6.529   6.637   6.307
 1517SOL     OW 5449   2.604   6.448   2.850
 1517SOL    HW1 5450   2.514   6.485   2.872
 1517SOL    HW2 5451   2.672   6.522   2.854
 1518SOL     OW 5452   0.912   3.080   0.024
 1518SOL    HW1 5453   0.966   3.110   6.974
 1518SOL    HW2 5454   0.830   3.032   7.021
 1519SOL     OW 5455   0.318   4.260   6.801
 1519SOL    HW1 5456   0.356   4.180   6.756
 1519SOL    HW2 5457   0.220   4.266   6.781
 1520SOL     OW 5458   0.043   6.747   3.459
 1520SOL    HW1 5459   0.003   6.832   3.495
 1520SOL    HW2 5460   0.142   6.759   3.447
 1521SOL     OW 5461   1.736   4.767   6.335
 1521SOL    HW1 5462   1.747   4.866   6.319
 1521SOL    HW2 5463   1.755   4.747   6.431
 1522SOL     OW 5464   5.139   6.757   4.494
 1522SOL    HW1 5465   5.226   6.732   4.538
 1522SOL    HW2 5466   5.145   6.739   4.396
 1523SOL     OW 5467   2.543   6.594   0.669
 1523SOL    HW1 5468   2.491   6.538   0.734
 1523SOL    HW2 5469   2.615   6.642   0.718
 1524SOL     OW 5470   1.726   2.410   4.133
 1524SOL    HW1 5471   1.626   2.418   4.138
 1524SOL    HW2 5472   1.759   2.357   4.210
 1525SOL     OW 5473   5.309   4.137   6.190
 1525SOL    HW1 5474   5.264   4.087   6.265
 1525SOL    HW2 5475   5.407   4.116   6.191
 1526SOL     OW 5476   0.969   1.522   1.188
 1526SOL    HW1 5477   0.930   1.432   1.170
 1526SOL    HW2 5478   0.919   1.567   1.262
 1527SOL     OW 5479   4.875   1.300   4.879
 1527SOL    HW1 5480   4.932   1.233   4.830
 1527SOL    HW2 5481   4.928   1.383   4.895
 1528SOL     OW 5482   3.478   3.108   2.296
 1528SOL    HW1 5483   3.475   3.133   2.199
 1528SOL    HW2 5484   3.450   3.013   2.307
 1529SOL     OW 5485   4.190   1.383   5.686
 1529SOL    HW1 5486   4.259   1.442   5.645
 1529SOL    HW2 5487   4.143   1.331   5.615
 1530SOL     OW 5488   2.337   6.988   1.352
 1530SOL    HW1 5489   2.297   0.019   1.283
 1530SOL    HW2 5490   2.354   6.898   1.312
 1531SOL     OW 5491   4.985   6.249   4.497
 1531SOL    HW1 5492   4.897   6.234   4.452
 1531SOL    HW2 5493   5.037   6.319   4.448
 1532SOL     OW 5494   2.510   5.802   1.668
 1532SOL    HW1 5495   2.526   5.703   1.670
 1532SOL    HW2 5496   2.505   5.833   1.573
 1533SOL     OW 5497   5.950   6.113   0.994
 1533SOL    HW1 5498   6.017   6.048   1.030
 1533SOL    HW2 5499   5.929   6.090   0.899
 1534SOL     OW 5500   2.297   4.566   6.662
 1534SOL    HW1 5501   2.354   4.517   6.596
 1534SOL    HW2 5502   2.215   4.599   6.616
 1535SOL     OW 5503   5.061   3.954   3.647
 1535SOL    HW1 5504   5.141   4.008   3.673
 1535SOL    HW2 5505   5.045   3.965   3.549
 1536SOL     OW 5506   4.282   4.067   6.667
 1536SOL    HW1 5507   4.202   4.127   6.659
 1536SOL    HW2 5508   4.352   4.112   6.723
 1537SOL     OW 5509   3.275   5.395   2.787
 1537SOL    HW1 5510   3.290   5.435   2.696
 1537SOL    HW2 5511   3.344   5.325   2.805
 1538SOL     OW 5512   2.892   0.909   0.556
 1538SOL    HW1 5513   2.849   0.997   0.536
 1538SOL    HW2 5514   2.894   0.853   0.473
 1539SOL     OW 5515   6.981   3.348   0.886
 1539SOL    HW1 5516   0.046   3.381   0.878
 1539SOL    HW2 5517   6.971   3.296   0.971
 1540SOL     OW 5518   3.318   6.313   3.433
 1540SOL    HW1 5519   3.357   6.400   3.463
 1540SOL    HW2 5520   3.237   6.293   3.488
 1541SOL     OW 5521   4.375   2.859   5.648
 1541SOL    HW1 5522   4.290   2.812   5.626
 1541SOL    HW2 5523   4.411   2.825   5.735
 1542SOL     OW 5524   6.740   5.539   2.991
 1542SOL    HW1 5525   6.752   5.463   3.055
 1542SOL    HW2 5526   6.690   5.508   2.911
 1543SOL     OW 5527   2.927   5.390   0.724
 1543SOL    HW1 5528   2.878   5.309   0.758
 1543SOL    HW2 5529   3.017   5.362   0.691
 1544SOL     OW 5530   4.076   3.600   4.004
 1544SOL    HW1 5531   4.091   3.608   3.905
 1544SOL    HW2 5532   3.977   3.598   4.022
 1545SOL     OW 5533   5.931   5.320   1.368
 1545SOL    HW1 5534   5.999   5.390   1.348
 1545SOL    HW2 5535   5.928   5.304   1.467
 1546SOL     OW 5536   6.312   6.411   5.244
 1546SOL    HW1 5537   6.314   6.509   5.265
 1546SOL    HW2 5538   6.218   6.378   5.246
 1547SOL     OW 5539   1.719   3.509   6.218
 1547SOL    HW1 5540   1.761   3.424   6.186
 1547SOL    HW2 5541   1.701   3.503   6.316
 1548SOL     OW 5542   6.377   2.325   0.677
 1548SOL    HW1 5543   6.299   2.380   0.648
 1548SOL    HW2 5544   6.411   2.272   0.600
 1549SOL     OW 5545   4.659   0.847   4.845
 1549SOL    HW1 5546   4.728   0.819   4.778
 1549SOL    HW2 5547   4.614   0.930   4.814
 1550SOL     OW 5548   3.134   3.166   4.011
 1550SOL    HW1 5549   3.188   3.092   3.973
 1550SOL    HW2 5550   3.083   3.133   4.090
 1551SOL     OW 5551   6.721   5.248   5.820
 1551SOL    HW1 5552   6.630   5.258   5.778
 1551SOL    HW2 5553   6.716   5.271   5.917
 1552SOL     OW 5554   2.010   4.339   1.570
 1552SOL    HW1 5555   2.008   4.429   1.613
 1552SOL    HW2 5556   1.988   4.348   1.473
 1553SOL     OW 5557   1.969   2.097   5.808
 1553SOL    HW1 5558   1.990   2.112   5.712
 1553SOL    HW2 5559   2.054   2.089   5.860
 1554SOL     OW 5560   4.610   1.899   3.075
 1554SOL    HW1 5561   4.511   1.908   3.087
 1554SOL    HW2 5562   4.639   1.810   3.110
 1555SOL     OW 5563   5.784   5.020   5.384
 1555SOL    HW1 5564   5.733   5.090   5.333
 1555SOL    HW2 5565   5.730   4.936   5.386
 1556SOL     OW 5566   1.661   0.931   5.863
 1556SOL    HW1 5567   1.621   0.964   5.777
 1556SOL    HW2 5568   1.721   1.001   5.900
 1557SOL     OW 5569   0.908   1.821   5.419
 1557SOL    HW1 5570   0.989   1.763   5.411
 1557SOL    HW2 5571   0.826   1.765   5.413
 1558SOL     OW 5572   7.028   6.614   4.640
 1558SOL    HW1 5573   0.065   6.539   4.638
 1558SOL    HW2 5574   6.935   6.577   4.641
 1559SOL     OW 5575   1.263   1.328   6.106
 1559SOL    HW1 5576   1.337   1.392   6.084
 1559SOL    HW2 5577   1.198   1.325   6.031
 1560SOL     OW 5578   0.116   0.395   0.222
 1560SOL    HW1 5579   0.114   0.322   0.290
 1560SOL    HW2 5580   0.197   0.384   0.164
 1561SOL     OW 5581   6.037   6.334   1.642
 1561SOL    HW1 5582   5.944   6.348   1.675
 1561SOL    HW2 5583   6.094   6.301   1.718
 1562SOL     OW 5584   5.452   0.451   4.258
 1562SOL    HW1 5585   5.399   0.411   4.334
 1562SOL    HW2 5586   5.505   0.379   4.213
 1563SOL     OW 5587   2.971   6.900   5.769
 1563SOL    HW1 5588   3.000   6.964   5.698
 1563SOL    HW2 5589   3.013   6.926   5.856
 1564SOL     OW 5590   1.876   2.122   3.347
 1564SOL    HW1 5591   1.793   2.108   3.401
 1564SOL    HW2 5592   1.855   2.180   3.268
 1565SOL     OW 5593   6.388   4.808   1.345
 1565SOL    HW1 5594   6.352   4.788   1.254
 1565SOL    HW2 5595   6.370   4.903   1.369
 1566SOL     OW 5596   6.318   4.773   2.179
 1566SOL    HW1 5597   6.330   4.734   2.088
 1566SOL    HW2 5598   6.247   4.723   2.228
 1567SOL     OW 5599   6.520   5.749   5.322
 1567SOL    HW1 5600   6.423   5.769   5.336
 1567SOL    HW2 5601   6.553   5.690   5.395
 1568SOL     OW 5602   6.804   6.706   0.600
 1568SOL    HW1 5603   6.714   6.669   0.622
 1568SOL    HW2 5604   6.847   6.651   0.528
 1569SOL     OW 5605   3.123   6.263   5.496
 1569SOL    HW1 5606   3.081   6.241   5.408
 1569SOL    HW2 5607   3.095   6.195   5.564
 1570SOL     OW 5608   2.984   2.136   1.875
 1570SOL    HW1 5609   2.957   2.230   1.855
 1570SOL    HW2 5610   2.903   2.084   1.902
 1571SOL     OW 5611   0.243   3.435   1.164
 1571SOL    HW1 5612   0.246   3.400   1.070
 1571SOL    HW2 5613   0.308   3.383   1.220
 1572SOL     OW 5614   0.424   5.689   3.404
 1572SOL    HW1 5615   0.382   5.672   3.315
 1572SOL    HW2 5616   0.520   5.659   3.402
 1573SOL     OW 5617   4.495   6.832   0.300
 1573SOL    HW1 5618   4.582   6.810   0.255
 1573SOL    HW2 5619   4.511   6.846   0.397
 1574SOL     OW 5620   5.431   3.511   2.275
 1574SOL    HW1 5621   5.494   3.541   2.204
 1574SOL    HW2 5622   5.350   3.570   2.274
 1575SOL     OW 5623   3.452   2.143   0.703
 1575SOL    HW1 5624   3.408   2.080   0.767
 1575SOL    HW2 5625   3.449   2.105   0.611
 1576SOL     OW 5626   6.441   5.285   3.090
 1576SOL    HW1 5627   6.398   5.200   3.120
 1576SOL    HW2 5628   6.528   5.265   3.045
 1577SOL     OW 5629   1.520   0.439   0.267
 1577SOL    HW1 5630   1.458   0.512   0.295
 1577SOL    HW2 5631   1.570   0.406   0.347
 1578SOL     OW 5632   5.888   5.773   4.608
 1578SOL    HW1 5633   5.817   5.732   4.665
 1578SOL    HW2 5634   5.846   5.815   4.528
 1579SOL     OW 5635   7.028   0.049   2.928
 1579SOL    HW1 5636   6.999   6.983   2.940
 1579SOL    HW2 5637   0.042   0.060   2.838
 1580SOL     OW 5638   3.226   3.740   5.815
 1580SOL    HW1 5639   3.260   3.667   5.874
 1580SOL    HW2 5640   3.222   3.707   5.721
 1581SOL     OW 5641   6.133   2.953   4.575
 1581SOL    HW1 5642   6.091   3.042   4.595
 1581SOL    HW2 5643   6.173   2.916   4.658
 1582SOL     OW 5644   6.147   6.229   4.334
 1582SOL    HW1 5645   6.215   6.178   4.386
 1582SOL    HW2 5646   6.192   6.285   4.265
 1583SOL     OW 5647   2.140   2.228   1.857
 1583SOL    HW1 5648   2.044   2.255   1.863
 1583SOL    HW2 5649   2.162   2.164   1.930
 1584SOL     OW 5650   2.449   6.925   6.480
 1584SOL    HW1 5651   2.538   6.965   6.462
 1584SOL    HW2 5652   2.378   6.977   6.432
 1585SOL     OW 5653   5.927   1.136   5.907
 1585SOL    HW1 5654   5.952   1.104   5.998
 1585SOL    HW2 5655   5.986   1.093   5.839
 1586SOL     OW 5656   3.716   3.332   3.027
 1586SOL    HW1 5657   3.632   3.365   3.069
 1586SOL    HW2 5658   3.791   3.394   3.049
 1587SOL     OW 5659   2.222   6.591   6.230
 1587SOL    HW1 5660   2.204   6.601   6.328
 1587SOL    HW2 5661   2.137   6.569   6.182
 1588SOL     OW 5662   6.092   3.507   0.656
 1588SOL    HW1 5663   6.000   3.529   0.624
 1588SOL    HW2 5664   6.151   3.587   0.646
 1589SOL     OW 5665   4.672   5.119   3.159
 1589SOL    HW1 5666   4.574   5.102   3.154
 1589SOL    HW2 5667   4.722   5.033   3.153
 1590SOL     OW 5668   2.117   6.527   4.933
 1590SOL    HW1 5669   2.137   6.443   4.983
 1590SOL    HW2 5670   2.123   6.605   4.995
 1591SOL     OW 5671   2.193   3.425   0.067
 1591SOL    HW1 5672   2.229   3.342   0.109
 1591SOL    HW2 5673   2.093   3.423   0.069
 1592SOL     OW 5674   3.982   3.926   3.948
 1592SOL    HW1 5675   4.064   3.871   3.961
 1592SOL    HW2 5676   3.965   3.939   3.850
 1593SOL     OW 5677   1.433   4.636   4.458
 1593SOL    HW1 5678   1.467   4.682   4.376
 1593SOL    HW2 5679   1.358   4.689   4.497
 1594SOL     OW 5680   0.577   5.203   2.812
 1594SOL    HW1 5681   0.577   5.265   2.891
 1594SOL    HW2 5682   0.652   5.226   2.751
 1595SOL     OW 5683   0.144   3.707   4.754
 1595SOL    HW1 5684   0.195   3.622   4.765
 1595SOL    HW2 5685   0.065   3.707   4.815
 1596SOL     OW 5686   2.808   5.144   0.105
 1596SOL    HW1 5687   2.889   5.104   0.061
 1596SOL    HW2 5688   2.765   5.209   0.043
 1597SOL     OW 5689   2.508   0.529   0.548
 1597SOL    HW1 5690   2.576   0.562   0.483
 1597SOL    HW2 5691   2.416   0.540   0.509
 1598SOL     OW 5692   0.338   5.486   1.481
 1598SOL    HW1 5693   0.278   5.564   1.464
 1598SOL    HW2 5694   0.330   5.420   1.406
 1599SOL     OW 5695   3.100   5.444   0.361
 1599SOL    HW1 5696   3.162   5.403   0.427
 1599SOL    HW2 5697   3.026   5.379   0.340
 1600SOL     OW 5698   3.386   1.511   5.175
 1600SOL    HW1 5699   3.378   1.604   5.141
 1600SOL    HW2 5700   3.331   1.501   5.258
 1601SOL     OW 5701   1.688   5.443   5.039
 1601SOL    HW1 5702   1.626   5.375   5.078
 1601SOL    HW2 5703   1.701   5.518   5.104
 1602SOL     OW 5704   0.650   3.520   2.136
 1602SOL    HW1 5705   0.678   3.433   2.176
 1602SOL    HW2 5706   0.604   3.575   2.205
 1603SOL     OW 5707   5.909   6.787   0.595
 1603SOL    HW1 5708   5.937   6.883   0.596
 1603SOL    HW2 5709   5.966   6.736   0.530
 1604SOL     OW 5710   0.991   5.693   4.811
 1604SOL    HW1 5711   1.006   5.749   4.730
 1604SOL    HW2 5712   0.942   5.610   4.785
 1605SOL     OW 5713   5.373   5.418   2.300
 1605SOL    HW1 5714   5.419   5.497   2.258
 1605SOL    HW2 5715   5.378   5.425   2.399
 1606SOL     OW 5716   5.744   5.579   4.344
 1606SOL    HW1 5717   5.766   5.539   4.255
 1606SOL    HW2 5718   5.744   5.679   4.337
 1607SOL     OW 5719   4.821   3.307   1.551
 1607SOL    HW1 5720   4.908   3.302   1.502
 1607SOL    HW2 5721   4.791   3.214   1.573
 1608SOL     OW 5722   2.867   0.539   0.796
 1608SOL    HW1 5723   2.962   0.541   0.766
 1608SOL    HW2 5724   2.859   0.482   0.878
 1609SOL     OW 5725   5.631   1.188   5.381
 1609SOL    HW1 5726   5.534   1.165   5.367
 1609SOL    HW2 5727   5.688   1.122   5.333
 1610SOL     OW 5728   4.819   6.594   2.746
 1610SOL    HW1 5729   4.841   6.692   2.741
 1610SOL    HW2 5730   4.899   6.543   2.777
 1611SOL     OW 5731   4.431   3.565   1.319
 1611SOL    HW1 5732   4.433   3.609   1.229
 1611SOL    HW2 5733   4.506   3.500   1.326
 1612SOL     OW 5734   3.148   0.582   4.991
 1612SOL    HW1 5735   3.141   0.488   4.957
 1612SOL    HW2 5736   3.076   0.599   5.058
 1613SOL     OW 5737   1.851   0.554   1.042
 1613SOL    HW1 5738   1.787   0.491   0.998
 1613SOL    HW2 5739   1.908   0.597   0.972
 1614SOL     OW 5740   0.328   2.419   5.400
 1614SOL    HW1 5741   0.337   2.400   5.302
 1614SOL    HW2 5742   0.404   2.476   5.430
 1615SOL     OW 5743   6.592   5.068   5.517
 1615SOL    HW1 5744   6.589   5.055   5.616
 1615SOL    HW2 5745   6.673   5.023   5.479
 1616SOL     OW 5746   2.406   2.108   6.295
 1616SOL    HW1 5747   2.503   2.100   6.317
 1616SOL    HW2 5748   2.375   2.026   6.247
 1617SOL     OW 5749   3.587   0.715   3.603
 1617SOL    HW1 5750   3.574   0.813   3.613
 1617SOL    HW2 5751   3.637   0.680   3.682
 1618SOL     OW 5752   5.463   2.912   2.059
 1618SOL    HW1 5753   5.415   2.999   2.074
 1618SOL    HW2 5754   5.459   2.888   1.962
 1619SOL     OW 5755   1.593   2.717   4.764
 1619SOL    HW1 5756   1.614   2.801   4.713
 1619SOL    HW2 5757   1.617   2.729   4.860
 1620SOL     OW 5758   3.470   6.236   1.916
 1620SOL    HW1 5759   3.516   6.162   1.965
 1620SOL    HW2 5760   3.460   6.211   1.819
 1621SOL     OW 5761   2.003   1.912   1.841
 1621SOL    HW1 5762   1.989   1.902   1.743
 1621SOL    HW2 5763   2.101   1.908   1.861
 1622SOL     OW 5764   2.393   2.427   5.202
 1622SOL    HW1 5765   2.397   2.360   5.128
 1622SOL    HW2 5766   2.437   2.512   5.174
 1623SOL     OW 5767   2.001   2.241   4.709
 1623SOL    HW1 5768   2.054   2.292   4.641
 1623SOL    HW2 5769   2.008   2.287   4.798
 1624SOL     OW 5770   2.502   0.872   0.584
 1624SOL    HW1 5771   2.549   0.793   0.622
 1624SOL    HW2 5772   2.516   0.873   0.485
 1625SOL     OW 5773   0.937   6.539   1.318
 1625SOL    HW1 5774   1.027   6.576   1.292
 1625SOL    HW2 5775   0.869   6.613   1.315
 1626SOL     OW 5776   2.440   3.098   6.405
 1626SOL    HW1 5777   2.489   3.046   6.475
 1626SOL    HW2 5778   2.354   3.052   6.383
 1627SOL     OW 5779   4.870   3.900   3.400
 1627SOL    HW1 5780   4.847   3.922   3.305
 1627SOL    HW2 5781   4.812   3.955   3.461
 1628SOL     OW 5782   3.062   3.162   0.125
 1628SOL    HW1 5783   3.022   3.241   0.079
 1628SOL    HW2 5784   2.990   3.095   0.144
 1629SOL     OW 5785   2.911   2.222   2.706
 1629SOL    HW1 5786   2.907   2.231   2.606
 1629SOL    HW2 5787   3.003   2.243   2.737
 1630SOL     OW 5788   5.554   5.133   4.093
 1630SOL    HW1 5789   5.611   5.087   4.025
 1630SOL    HW2 5790   5.535   5.227   4.062
 1631SOL     OW 5791   1.051   6.969   6.312
 1631SOL    HW1 5792   1.121   7.012   6.369
 1631SOL    HW2 5793   1.093   6.898   6.256
 1632SOL     OW 5794   4.728   6.812   0.123
 1632SOL    HW1 5795   4.794   6.779   0.056
 1632SOL    HW2 5796   4.765   6.891   0.171
 1633SOL     OW 5797   6.210   3.829   3.115
 1633SOL    HW1 5798   6.215   3.913   3.168
 1633SOL    HW2 5799   6.302   3.804   3.083
 1634SOL     OW 5800   3.867   1.219   0.938
 1634SOL    HW1 5801   3.937   1.175   0.882
 1634SOL    HW2 5802   3.829   1.297   0.888
 1635SOL     OW 5803   1.228   4.695   3.443
 1635SOL    HW1 5804   1.307   4.751   3.418
 1635SOL    HW2 5805   1.252   4.638   3.522
 1636SOL     OW 5806   2.640   6.596   0.124
 1636SOL    HW1 5807   2.648   6.610   0.223
 1636SOL    HW2 5808   2.730   6.583   0.084
 1637SOL     OW 5809   1.026   2.860   2.700
 1637SOL    HW1 5810   1.105   2.871   2.639
 1637SOL    HW2 5811   1.050   2.797   2.774
 1638SOL     OW 5812   1.253   2.430   5.974
 1638SOL    HW1 5813   1.314   2.438   6.052
 1638SOL    HW2 5814   1.172   2.376   5.999
 1639SOL     OW 5815   4.273   4.847   2.335
 1639SOL    HW1 5816   4.216   4.860   2.417
 1639SOL    HW2 5817   4.351   4.909   2.339
 1640SOL     OW 5818   5.523   6.587   1.405
 1640SOL    HW1 5819   5.556   6.631   1.489
 1640SOL    HW2 5820   5.522   6.654   1.331
 1641SOL     OW 5821   0.031   2.659   4.939
 1641SOL    HW1 5822   0.114   2.709   4.962
 1641SOL    HW2 5823   0.013   2.669   4.841
 1642SOL     OW 5824   0.777   2.458   1.987
 1642SOL    HW1 5825   0.844   2.513   2.037
 1642SOL    HW2 5826   0.766   2.496   1.894
 1643SOL     OW 5827   3.688   0.542   5.733
 1643SOL    HW1 5828   3.710   0.512   5.825
 1643SOL    HW2 5829   3.710   0.639   5.724
 1644SOL     OW 5830   4.437   0.926   0.470
 1644SOL    HW1 5831   4.445   0.905   0.372
 1644SOL    HW2 5832   4.406   0.845   0.519
 1645SOL     OW 5833   2.470   6.003   6.589
 1645SOL    HW1 5834   2.545   5.956   6.542
 1645SOL    HW2 5835   2.393   6.015   6.525
 1646SOL     OW 5836   2.390   3.985   0.378
 1646SOL    HW1 5837   2.383   4.067   0.434
 1646SOL    HW2 5838   2.484   3.949   0.383
 1647SOL     OW 5839   5.570   3.261   2.719
 1647SOL    HW1 5840   5.472   3.246   2.733
 1647SOL    HW2 5841   5.606   3.187   2.663
 1648SOL     OW 5842   3.378   0.196   2.839
 1648SOL    HW1 5843   3.378   0.244   2.926
 1648SOL    HW2 5844   3.319   0.115   2.845
 1649SOL     OW 5845   2.516   0.361   3.421
 1649SOL    HW1 5846   2.600   0.335   3.468
 1649SOL    HW2 5847   2.533   0.440   3.363
 1650SOL     OW 5848   3.201   6.916   4.185
 1650SOL    HW1 5849   3.206   6.941   4.088
 1650SOL    HW2 5850   3.168   6.822   4.193
 1651SOL     OW 5851   1.247   6.559   2.044
 1651SOL    HW1 5852   1.323   6.577   2.107
 1651SOL    HW2 5853   1.163   6.597   2.082
 1652SOL     OW 5854   3.350   3.141   1.734
 1652SOL    HW1 5855   3.446   3.142   1.760
 1652SOL    HW2 5856   3.326   3.229   1.692
 1653SOL     OW 5857   1.219   4.784   1.241
 1653SOL    HW1 5858   1.272   4.834   1.310
 1653SOL    HW2 5859   1.209   4.840   1.160
 1654SOL     OW 5860   0.547   2.221   4.048
 1654SOL    HW1 5861   0.627   2.213   3.988
 1654SOL    HW2 5862   0.473   2.163   4.014
 1655SOL     OW 5863   4.263   4.258   5.536
 1655SOL    HW1 5864   4.270   4.281   5.633
 1655SOL    HW2 5865   4.230   4.164   5.526
 1656SOL     OW 5866   0.369   4.148   2.188
 1656SOL    HW1 5867   0.387   4.051   2.203
 1656SOL    HW2 5868   0.273   4.161   2.164
 1657SOL     OW 5869   0.988   0.612   5.240
 1657SOL    HW1 5870   0.961   0.684   5.303
 1657SOL    HW2 5871   0.906   0.568   5.204
 1658SOL     OW 5872   5.804   6.906   2.504
 1658SOL    HW1 5873   5.729   6.970   2.489
 1658SOL    HW2 5874   5.829   6.906   2.601
 1659SOL     OW 5875   5.434   2.220   6.466
 1659SOL    HW1 5876   5.509   2.278   6.498
 1659SOL    HW2 5877   5.352   2.275   6.454
 1660SOL     OW 5878   2.147   6.266   3.417
 1660SOL    HW1 5879   2.234   6.282   3.462
 1660SOL    HW2 5880   2.155   6.187   3.356
 1661SOL     OW 5881   2.843   0.763   3.151
 1661SOL    HW1 5882   2.803   0.675   3.127
 1661SOL    HW2 5883   2.937   0.768   3.117
 1662SOL     OW 5884   6.336   0.627   3.135
 1662SOL    HW1 5885   6.424   0.610   3.090
 1662SOL    HW2 5886   6.351   0.677   3.220
 1663SOL     OW 5887   1.620   0.538   3.557
 1663SOL    HW1 5888   1.688   0.498   3.620
 1663SOL    HW2 5889   1.619   0.638   3.570
 1664SOL     OW 5890   2.109   5.538   4.819
 1664SOL    HW1 5891   2.070   5.629   4.834
 1664SOL    HW2 5892   2.146   5.503   4.906
 1665SOL     OW 5893   0.082   1.192   3.524
 1665SOL    HW1 5894   0.093   1.121   3.454
 1665SOL    HW2 5895   0.150   1.180   3.596
 1666SOL     OW 5896   5.508   2.625   5.958
 1666SOL    HW1 5897   5.595   2.674   5.968
 1666SOL    HW2 5898   5.443   2.657   6.027
 1667SOL     OW 5899   6.923   0.698   0.500
 1667SOL    HW1 5900   6.833   0.742   0.501
 1667SOL    HW2 5901   6.974   0.729   0.420
 1668SOL     OW 5902   1.429   0.589   4.547
 1668SOL    HW1 5903   1.462   0.526   4.618
 1668SOL    HW2 5904   1.380   0.665   4.590
 1669SOL     OW 5905   5.469   6.089   6.113
 1669SOL    HW1 5906   5.556   6.128   6.081
 1669SOL    HW2 5907   5.488   6.017   6.180
 1670SOL     OW 5908   6.686   3.314   6.558
 1670SOL    HW1 5909   6.693   3.323   6.459
 1670SOL    HW2 5910   6.590   3.309   6.584
 1671SOL     OW 5911   5.416   5.455   7.003
 1671SOL    HW1 5912   5.343   5.399   0.013
 1671SOL    HW2 5913   5.414   5.448   6.903
 1672SOL     OW 5914   1.797   5.142   2.680
 1672SOL    HW1 5915   1.715   5.129   2.736
 1672SOL    HW2 5916   1.869   5.183   2.735
 1673SOL     OW 5917   6.346   3.170   3.551
 1673SOL    HW1 5918   6.403   3.142   3.628
 1673SOL    HW2 5919   6.279   3.237   3.582
 1674SOL     OW 5920   2.236   5.599   0.444
 1674SOL    HW1 5921   2.316   5.611   0.504
 1674SOL    HW2 5922   2.163   5.661   0.473
 1675SOL     OW 5923   4.619   1.877   0.096
 1675SOL    HW1 5924   4.524   1.885   0.130
 1675SOL    HW2 5925   4.649   1.782   0.103
 1676SOL     OW 5926   2.878   1.597   3.952
 1676SOL    HW1 5927   2.950   1.593   4.021
 1676SOL    HW2 5928   2.791   1.570   3.993
 1677SOL     OW 5929   6.138   0.271   5.487
 1677SOL    HW1 5930   6.041   0.272   5.464
 1677SOL    HW2 5931   6.153   0.212   5.567
 1678SOL     OW 5932   5.104   6.611   1.604
 1678SOL    HW1 5933   5.187   6.664   1.588
 1678SOL    HW2 5934   5.071   6.628   1.696
 1679SOL     OW 5935   5.589   4.343   0.159
 1679SOL    HW1 5936   5.684   4.313   0.165
 1679SOL    HW2 5937   5.530   4.277   0.205
 1680SOL     OW 5938   0.854   2.457   5.533
 1680SOL    HW1 5939   0.824   2.414   5.618
 1680SOL    HW2 5940   0.802   2.420   5.456
 1681SOL     OW 5941   4.496   5.280   0.307
 1681SOL    HW1 5942   4.410   5.239   0.279
 1681SOL    HW2 5943   4.571   5.217   0.288
 1682SOL     OW 5944   6.806   2.486   5.504
 1682SOL    HW1 5945   6.891   2.477   5.452
 1682SOL    HW2 5946   6.771   2.396   5.527
 1683SOL     OW 5947   5.361   5.379   5.727
 1683SOL    HW1 5948   5.412   5.451   5.773
 1683SOL    HW2 5949   5.422   5.329   5.665
 1684SOL     OW 5950   0.294   6.695   4.271
 1684SOL    HW1 5951   0.385   6.729   4.292
 1684SOL    HW2 5952   0.280   6.694   4.172
 1685SOL     OW 5953   0.664   1.933   0.679
 1685SOL    HW1 5954   0.658   2.021   0.726
 1685SOL    HW2 5955   0.709   1.945   0.590
 1686SOL     OW 5956   2.094   6.647   6.537
 1686SOL    HW1 5957   2.125   6.617   6.627
 1686SOL    HW2 5958   2.006   6.604   6.516
 1687SOL     OW 5959   3.267   6.404   1.920
 1687SOL    HW1 5960   3.342   6.339   1.935
 1687SOL    HW2 5961   3.303   6.485   1.872
 1688SOL     OW 5962   0.195   1.393   3.952
 1688SOL    HW1 5963   0.154   1.305   3.977
 1688SOL    HW2 5964   0.294   1.382   3.946
 1689SOL     OW 5965   3.610   1.255   1.522
 1689SOL    HW1 5966   3.613   1.260   1.422
 1689SOL    HW2 5967   3.694   1.214   1.556
 1690SOL     OW 5968   0.753   2.268   0.401
 1690SOL    HW1 5969   0.840   2.254   0.447
 1690SOL    HW2 5970   0.760   2.243   0.305
 1691SOL     OW 5971   4.429   4.471   3.258
 1691SOL    HW1 5972   4.454   4.462   3.161
 1691SOL    HW2 5973   4.471   4.397   3.310
 1692SOL     OW 5974   1.004   0.325   3.594
 1692SOL    HW1 5975   0.969   0.398   3.653
 1692SOL    HW2 5976   0.940   0.310   3.518
 1693SOL     OW 5977   3.566   1.901   3.823
 1693SOL    HW1 5978   3.545   1.846   3.904
 1693SOL    HW2 5979   3.578   1.840   3.744
 1694SOL     OW 5980   5.861   5.763   4.977
 1694SOL    HW1 5981   5.916   5.680   4.984
 1694SOL    HW2 5982   5.894   5.830   5.045
 1695SOL     OW 5983   3.680   1.052   6.303
 1695SOL    HW1 5984   3.698   1.052   6.204
 1695SOL    HW2 5985   3.765   1.071   6.352
 1696SOL     OW 5986   3.418   5.795   1.862
 1696SOL    HW1 5987   3.477   5.718   1.835
 1696SOL    HW2 5988   3.470   5.858   1.919
 1697SOL     OW 5989   1.066   1.686   2.183
 1697SOL    HW1 5990   0.988   1.710   2.126
 1697SOL    HW2 5991   1.037   1.680   2.279
 1698SOL     OW 5992   4.696   1.921   0.815
 1698SOL    HW1 5993   4.655   1.837   0.780
 1698SOL    HW2 5994   4.793   1.924   0.790
 1699SOL     OW 5995   2.722   4.732   0.673
 1699SOL    HW1 5996   2.679   4.680   0.599
 1699SOL    HW2 5997   2.675   4.820   0.682
 1700SOL     OW 5998   5.921   2.407   4.309
 1700SOL    HW1 5999   5.932   2.408   4.409
 1700SOL    HW2 6000   5.904   2.499   4.276
 1701SOL     OW 6001   6.333   2.825   5.180
 1701SOL    HW1 6002   6.423   2.819   5.223
 1701SOL    HW2 6003   6.266   2.859   5.247
 1702SOL     OW 6004   4.547   2.739   1.783
 1702SOL    HW1 6005   4.493   2.758   1.701
 1702SOL    HW2 6006   4.583   2.825   1.820
 1703SOL     OW 6007   1.955   3.513   0.834
 1703SOL    HW1 6008   1.982   3.473   0.922
 1703SOL    HW2 6009   1.887   3.454   0.790
 1704SOL     OW 6010   0.219   1.451   2.582
 1704SOL    HW1 6011   0.124   1.422   2.574
 1704SOL    HW2 6012   0.224   1.527   2.648
 1705SOL     OW 6013   3.706   2.941   2.506
 1705SOL    HW1 6014   3.792   2.893   2.490
 1705SOL    HW2 6015   3.703   3.023   2.449
 1706SOL     OW 6016   1.918   0.691   6.227
 1706SOL    HW1 6017   1.943   0.595   6.230
 1706SOL    HW2 6018   1.858   0.712   6.304
 1707SOL     OW 6019   5.243   1.769   2.832
 1707SOL    HW1 6020   5.309   1.720   2.890
 1707SOL    HW2 6021   5.164   1.797   2.887
 1708SOL     OW 6022   0.131   4.071   1.707
 1708SOL    HW1 6023   0.207   4.127   1.740
 1708SOL    HW2 6024   0.155   3.974   1.712
 1709SOL     OW 6025   3.186   5.488   4.042
 1709SOL    HW1 6026   3.150   5.412   4.097
 1709SOL    HW2 6027   3.248   5.452   3.972
 1710SOL     OW 6028   6.725   4.931   4.506
 1710SOL    HW1 6029   6.714   4.966   4.413
 1710SOL    HW2 6030   6.818   4.897   4.518
 1711SOL     OW 6031   1.454   4.600   5.632
 1711SOL    HW1 6032   1.550   4.616   5.608
 1711SOL    HW2 6033   1.406   4.687   5.639
 1712SOL     OW 6034   1.944   4.707   2.003
 1712SOL    HW1 6035   1.857   4.681   2.046
 1712SOL    HW2 6036   2.018   4.656   2.046
 1713SOL     OW 6037   2.268   3.337   0.798
 1713SOL    HW1 6038   2.202   3.302   0.864
 1713SOL    HW2 6039   2.360   3.308   0.823
 1714SOL     OW 6040   4.238   1.136   1.544
 1714SOL    HW1 6041   4.204   1.174   1.630
 1714SOL    HW2 6042   4.160   1.104   1.489
 1715SOL     OW 6043   0.539   2.914   3.894
 1715SOL    HW1 6044   0.494   3.003   3.889
 1715SOL    HW2 6045   0.624   2.916   3.841
 1716SOL     OW 6046   0.489   0.475   6.675
 1716SOL    HW1 6047   0.544   0.397   6.644
 1716SOL    HW2 6048   0.406   0.481   6.620
 1717SOL     OW 6049   2.920   0.319   6.491
 1717SOL    HW1 6050   3.018   0.327   6.510
 1717SOL    HW2 6051   2.904   0.332   6.393
 1718SOL     OW 6052   1.715   4.026   5.484
 1718SOL    HW1 6053   1.717   3.929   5.509
 1718SOL    HW2 6054   1.733   4.035   5.386
 1719SOL     OW 6055   1.818   3.527   1.111
 1719SOL    HW1 6056   1.796   3.624   1.117
 1719SOL    HW2 6057   1.916   3.515   1.124
 1720SOL     OW 6058   6.922   1.944   2.423
 1720SOL    HW1 6059   6.842   1.934   2.482
 1720SOL    HW2 6060   6.899   1.915   2.330
 1721SOL     OW 6061   0.981   6.283   4.333
 1721SOL    HW1 6062   0.976   6.383   4.328
 1721SOL    HW2 6063   0.920   6.243   4.264
 1722SOL     OW 6064   5.746   0.173   1.963
 1722SOL    HW1 6065   5.693   0.235   2.021
 1722SOL    HW2 6066   5.795   0.225   1.894
 1723SOL     OW 6067   5.381   1.137   3.061
 1723SOL    HW1 6068   5.417   1.210   3.004
 1723SOL    HW2 6069   5.449   1.065   3.071
 1724SOL     OW 6070   5.051   0.293   0.367
 1724SOL    HW1 6071   5.074   0.338   0.280
 1724SOL    HW2 6072   4.994   0.354   0.422
 1725SOL     OW 6073   3.738   5.709   1.948
 1725SOL    HW1 6074   3.748   5.801   1.909
 1725SOL    HW2 6075   3.684   5.652   1.885
 1726SOL     OW 6076   6.789   4.176   4.797
 1726SOL    HW1 6077   6.876   4.174   4.846
 1726SOL    HW2 6078   6.714   4.189   4.862
 1727SOL     OW 6079   2.726   3.584   5.337
 1727SOL    HW1 6080   2.631   3.587   5.369
 1727SOL    HW2 6081   2.765   3.676   5.338
 1728SOL     OW 6082   4.483   5.707   3.557
 1728SOL    HW1 6083   4.429   5.789   3.539
 1728SOL    HW2 6084   4.451   5.664   3.642
 1729SOL     OW 6085   0.710   3.260   2.292
 1729SOL    HW1 6086   0.762   3.249   2.377
 1729SOL    HW2 6087   0.614   3.241   2.310
 1730SOL     OW 6088   5.120   2.082   4.815
 1730SOL    HW1 6089   5.176   2.161   4.789
 1730SOL    HW2 6090   5.179   2.008   4.848
 1731SOL     OW 6091   0.198   6.936   0.459
 1731SOL    HW1 6092   0.144   6.912   0.540
 1731SOL    HW2 6093   0.161   6.888   0.379
 1732SOL     OW 6094   0.882   4.303   7.011
 1732SOL    HW1 6095   0.835   4.372   0.037
 1732SOL    HW2 6096   0.863   4.212   0.019
 1733SOL     OW 6097   1.266   4.454   0.061
 1733SOL    HW1 6098   1.204   4.469   7.014
 1733SOL    HW2 6099   1.328   4.379   0.040
 1734SOL     OW 6100   5.001   4.063   0.993
 1734SOL    HW1 6101   5.010   4.159   0.965
 1734SOL    HW2 6102   4.944   4.058   1.076
 1735SOL     OW 6103   4.930   5.672   6.827
 1735SOL    HW1 6104   4.857   5.729   6.790
 1735SOL    HW2 6105   4.946   5.696   6.922
 1736SOL     OW 6106   2.918   3.150   0.384
 1736SOL    HW1 6107   2.998   3.102   0.420
 1736SOL    HW2 6108   2.872   3.197   0.458
 1737SOL     OW 6109   0.782   5.891   3.269
 1737SOL    HW1 6110   0.815   5.984   3.282
 1737SOL    HW2 6111   0.695   5.892   3.220
 1738SOL     OW 6112   0.627   1.246   1.865
 1738SOL    HW1 6113   0.600   1.212   1.775
 1738SOL    HW2 6114   0.719   1.284   1.860
 1739SOL     OW 6115   4.216   2.201   6.108
 1739SOL    HW1 6116   4.159   2.269   6.153
 1739SOL    HW2 6117   4.188   2.110   6.138
 1740SOL     OW 6118   0.624   1.978   6.244
 1740SOL    HW1 6119   0.569   1.918   6.187
 1740SOL    HW2 6120   0.719   1.946   6.245
 1741SOL     OW 6121   1.395   1.225   2.465
 1741SOL    HW1 6122   1.374   1.321   2.482
 1741SOL    HW2 6123   1.483   1.202   2.506
 1742SOL     OW 6124   5.794   6.054   4.030
 1742SOL    HW1 6125   5.864   5.994   3.992
 1742SOL    HW2 6126   5.710   6.002   4.047
 1743SOL     OW 6127   5.025   1.280   0.287
 1743SOL    HW1 6128   4.997   1.350   0.220
 1743SOL    HW2 6129   4.945   1.225   0.312
 1744SOL     OW 6130   3.603   6.302   1.391
 1744SOL    HW1 6131   3.514   6.307   1.344
 1744SOL    HW2 6132   3.664   6.242   1.339
 1745SOL     OW 6133   0.293   3.192   4.990
 1745SOL    HW1 6134   0.271   3.192   5.088
 1745SOL    HW2 6135   0.282   3.100   4.954
 1746SOL     OW 6136   2.405   1.060   5.904
 1746SOL    HW1 6137   2.364   1.089   5.818
 1746SOL    HW2 6138   2.449   0.971   5.891
 1747SOL     OW 6139   5.059   6.878   5.551
 1747SOL    HW1 6140   4.973   6.873   5.500
 1747SOL    HW2 6141   5.084   6.974   5.565
 1748SOL     OW 6142   5.545   0.995   1.952
 1748SOL    HW1 6143   5.642   0.976   1.937
 1748SOL    HW2 6144   5.529   1.093   1.939
 1749SOL     OW 6145   5.282   0.216   6.050
 1749SOL    HW1 6146   5.206   0.159   6.016
 1749SOL    HW2 6147   5.251   0.310   6.062
 1750SOL     OW 6148   4.008   0.662   4.066
 1750SOL    HW1 6149   4.036   0.716   3.986
 1750SOL    HW2 6150   4.018   0.565   4.046
 1751SOL     OW 6151   1.908   5.733   4.515
 1751SOL    HW1 6152   1.950   5.789   4.586
 1751SOL    HW2 6153   1.861   5.655   4.558
 1752SOL     OW 6154   6.937   2.274   6.546
 1752SOL    HW1 6155   6.908   2.248   6.454
 1752SOL    HW2 6156   0.005   2.298   6.545
 1753SOL     OW 6157   2.337   6.329   2.340
 1753SOL    HW1 6158   2.419   6.363   2.385
 1753SOL    HW2 6159   2.362   6.286   2.253
 1754SOL     OW 6160   2.993   3.135   2.525
 1754SOL    HW1 6161   3.066   3.155   2.591
 1754SOL    HW2 6162   2.947   3.050   2.551
 1755SOL     OW 6163   6.322   4.442   0.521
 1755SOL    HW1 6164   6.328   4.514   0.452
 1755SOL    HW2 6165   6.297   4.356   0.478
 1756SOL     OW 6166   6.080   4.921   4.837
 1756SOL    HW1 6167   6.084   5.006   4.785
 1756SOL    HW2 6168   6.149   4.857   4.803
 1757SOL     OW 6169   4.019   0.475   5.681
 1757SOL    HW1 6170   4.031   0.403   5.749
 1757SOL    HW2 6171   4.019   0.564   5.726
 1758SOL     OW 6172   3.183   1.338   3.284
 1758SOL    HW1 6173   3.282   1.355   3.289
 1758SOL    HW2 6174   3.152   1.348   3.190
 1759SOL     OW 6175   0.226   5.590   6.022
 1759SOL    HW1 6176   0.279   5.529   5.963
 1759SOL    HW2 6177   0.265   5.588   6.114
 1760SOL     OW 6178   4.564   6.355   2.308
 1760SOL    HW1 6179   4.496   6.288   2.335
 1760SOL    HW2 6180   4.641   6.308   2.263
 1761SOL     OW 6181   5.551   3.193   1.396
 1761SOL    HW1 6182   5.639   3.148   1.410
 1761SOL    HW2 6183   5.545   3.226   1.302
 1762SOL     OW 6184   5.684   3.116   0.758
 1762SOL    HW1 6185   5.731   3.178   0.694
 1762SOL    HW2 6186   5.603   3.162   0.794
 1763SOL     OW 6187   2.052   2.971   4.360
 1763SOL    HW1 6188   2.079   3.063   4.334
 1763SOL    HW2 6189   2.090   2.950   4.450
 1764SOL     OW 6190   6.655   3.488   3.216
 1764SOL    HW1 6191   6.577   3.489   3.279
 1764SOL    HW2 6192   6.739   3.468   3.266
 1765SOL     OW 6193   2.057   3.642   6.186
 1765SOL    HW1 6194   2.094   3.560   6.142
 1765SOL    HW2 6195   2.074   3.639   6.284
 1766SOL     OW 6196   6.215   3.697   5.635
 1766SOL    HW1 6197   6.170   3.621   5.683
 1766SOL    HW2 6198   6.229   3.772   5.698
 1767SOL     OW 6199   6.532   4.828   1.567
 1767SOL    HW1 6200   6.461   4.819   1.497
 1767SOL    HW2 6201   6.609   4.880   1.531
 1768SOL     OW 6202   5.960   6.412   3.199
 1768SOL    HW1 6203   6.024   6.400   3.275
 1768SOL    HW2 6204   5.878   6.460   3.231
 1769SOL     OW 6205   4.955   0.936   3.263
 1769SOL    HW1 6206   4.987   1.018   3.310
 1769SOL    HW2 6207   4.864   0.911   3.298
 1770SOL     OW 6208   3.792   5.725   5.188
 1770SOL    HW1 6209   3.828   5.650   5.244
 1770SOL    HW2 6210   3.862   5.796   5.180
 1771SOL     OW 6211   4.387   6.579   6.516
 1771SOL    HW1 6212   4.409   6.496   6.567
 1771SOL    HW2 6213   4.463   6.643   6.523
 1772SOL     OW 6214   2.721   6.303   2.624
 1772SOL    HW1 6215   2.736   6.204   2.626
 1772SOL    HW2 6216   2.679   6.333   2.710
 1773SOL     OW 6217   1.217   0.417   0.597
 1773SOL    HW1 6218   1.168   0.452   0.677
 1773SOL    HW2 6219   1.171   0.447   0.514
 1774SOL     OW 6220   2.914   5.077   2.729
 1774SOL    HW1 6221   2.964   5.026   2.658
 1774SOL    HW2 6222   2.846   5.136   2.685
 1775SOL     OW 6223   1.273   5.008   0.669
 1775SOL    HW1 6224   1.283   4.949   0.748
 1775SOL    HW2 6225   1.181   4.998   0.631
 1776SOL     OW 6226   2.883   6.115   5.367
 1776SOL    HW1 6227   2.847   6.066   5.447
 1776SOL    HW2 6228   2.810   6.168   5.324
 1777SOL     OW 6229   3.265   6.382   0.384
 1777SOL    HW1 6230   3.310   6.326   0.453
 1777SOL    HW2 6231   3.252   6.328   0.300
 1778SOL     OW 6232   6.890   3.024   5.886
 1778SOL    HW1 6233   6.818   3.088   5.859
 1778SOL    HW2 6234   6.888   3.010   5.985
 1779SOL     OW 6235   3.584   0.133   5.733
 1779SOL    HW1 6236   3.520   0.062   5.703
 1779SOL    HW2 6237   3.659   0.141   5.667
 1780SOL     OW 6238   3.158   2.972   6.938
 1780SOL    HW1 6239   3.104   3.018   7.009
 1780SOL    HW2 6240   3.202   3.041   6.881
 1781SOL     OW 6241   2.925   5.739   3.585
 1781SOL    HW1 6242   3.014   5.785   3.583
 1781SOL    HW2 6243   2.919   5.681   3.666
 1782SOL     OW 6244   2.992   1.700   4.710
 1782SOL    HW1 6245   2.954   1.707   4.617
 1782SOL    HW2 6246   2.955   1.618   4.754
 1783SOL     OW 6247   2.524   6.079   0.192
 1783SOL    HW1 6248   2.441   6.051   0.143
 1783SOL    HW2 6249   2.508   6.169   0.234
 1784SOL     OW 6250   2.386   7.011   6.122
 1784SOL    HW1 6251   2.307   0.011   6.176
 1784SOL    HW2 6252   2.385   6.911   6.113
 1785SOL     OW 6253   6.919   5.634   2.150
 1785SOL    HW1 6254   6.947   5.552   2.100
 1785SOL    HW2 6255   6.943   5.623   2.247
 1786SOL     OW 6256   3.912   2.667   1.695
 1786SOL    HW1 6257   3.845   2.741   1.706
 1786SOL    HW2 6258   4.003   2.707   1.682
 1787SOL     OW 6259   3.316   0.766   5.541
 1787SOL    HW1 6260   3.283   0.842   5.598
 1787SOL    HW2 6261   3.284   0.680   5.579
 1788SOL     OW 6262   1.369   4.897   5.478
 1788SOL    HW1 6263   1.431   4.923   5.404
 1788SOL    HW2 6264   1.299   4.835   5.443
 1789SOL     OW 6265   5.780   6.702   6.709
 1789SOL    HW1 6266   5.765   6.696   6.808
 1789SOL    HW2 6267   5.790   6.610   6.671
 1790SOL     OW 6268   2.505   0.030   2.444
 1790SOL    HW1 6269   2.494   0.029   2.543
 1790SOL    HW2 6270   2.589   7.009   2.419
 1791SOL     OW 6271   0.448   6.522   2.976
 1791SOL    HW1 6272   0.477   6.580   2.900
 1791SOL    HW2 6273   0.395   6.444   2.941
 1792SOL     OW 6274   0.902   3.433   4.266
 1792SOL    HW1 6275   0.925   3.368   4.193
 1792SOL    HW2 6276   0.815   3.477   4.245
 1793SOL     OW 6277   0.131   0.558   3.678
 1793SOL    HW1 6278   0.173   0.643   3.646
 1793SOL    HW2 6279   0.103   0.503   3.600
 1794SOL     OW 6280   4.805   6.086   6.528
 1794SOL    HW1 6281   4.888   6.092   6.472
 1794SOL    HW2 6282   4.802   6.164   6.590
 1795SOL     OW 6283   1.116   3.196   6.829
 1795SOL    HW1 6284   1.057   3.196   6.748
 1795SOL    HW2 6285   1.151   3.289   6.844
 1796SOL     OW 6286   3.705   0.329   6.087
 1796SOL    HW1 6287   3.620   0.381   6.092
 1796SOL    HW2 6288   3.736   0.308   6.180
 1797SOL     OW 6289   0.082   1.648   1.760
 1797SOL    HW1 6290   0.020   1.712   1.805
 1797SOL    HW2 6291   0.031   1.590   1.697
 1798SOL     OW 6292   5.756   1.480   3.011
 1798SOL    HW1 6293   5.751   1.549   2.939
 1798SOL    HW2 6294   5.851   1.458   3.031
 1799SOL     OW 6295   2.597   1.286   0.156
 1799SOL    HW1 6296   2.570   1.228   0.233
 1799SOL    HW2 6297   2.517   1.307   0.101
 1800SOL     OW 6298   3.128   4.986   2.570
 1800SOL    HW1 6299   3.093   4.933   2.492
 1800SOL    HW2 6300   3.141   5.081   2.543
 1801SOL     OW 6301   5.743   6.591   0.671
 1801SOL    HW1 6302   5.780   6.568   0.761
 1801SOL    HW2 6303   5.809   6.647   0.621
 1802SOL     OW 6304   6.035   4.773   4.048
 1802SOL    HW1 6305   6.067   4.865   4.023
 1802SOL    HW2 6306   5.950   4.753   3.998
 1803SOL     OW 6307   5.945   5.007   0.969
 1803SOL    HW1 6308   5.971   5.031   1.062
 1803SOL    HW2 6309   5.914   4.912   0.967
 1804SOL     OW 6310   3.176   3.415   6.098
 1804SOL    HW1 6311   3.095   3.370   6.136
 1804SOL    HW2 6312   3.247   3.346   6.082
 1805SOL     OW 6313   6.030   3.207   6.882
 1805SOL    HW1 6314   5.952   3.147   6.866
 1805SOL    HW2 6315   6.009   3.270   6.957
 1806SOL     OW 6316   6.707   0.504   0.630
 1806SOL    HW1 6317   6.734   0.410   0.611
 1806SOL    HW2 6318   6.779   0.567   0.602
 1807SOL     OW 6319   6.504   2.155   5.944
 1807SOL    HW1 6320   6.593   2.110   5.928
 1807SOL    HW2 6321   6.443   2.090   5.989
 1808SOL     OW 6322   2.577   4.721   4.353
 1808SOL    HW1 6323   2.535   4.810   4.366
 1808SOL    HW2 6324   2.564   4.666   4.436
 1809SOL     OW 6325   3.743   6.889   6.606
 1809SOL    HW1 6326   3.840   6.903   6.586
 1809SOL    HW2 6327   3.708   6.967   6.659
 1810SOL     OW 6328   3.094   6.599   2.529
 1810SOL    HW1 6329   3.191   6.579   2.545
 1810SOL    HW2 6330   3.038   6.543   2.589
 1811SOL     OW 6331   5.852   5.948   3.110
 1811SOL    HW1 6332   5.835   5.850   3.098
 1811SOL    HW2 6333   5.916   5.979   3.040
 1812SOL     OW 6334   4.103   5.081   5.757
 1812SOL    HW1 6335   4.123   4.994   5.801
 1812SOL    HW2 6336   4.185   5.139   5.760
 1813SOL     OW 6337   6.786   5.621   5.438
 1813SOL    HW1 6338   6.838   5.574   5.510
 1813SOL    HW2 6339   6.738   5.699   5.477
 1814SOL     OW 6340   4.723   6.215   2.549
 1814SOL    HW1 6341   4.804   6.208   2.607
 1814SOL    HW2 6342   4.724   6.304   2.502
 1815SOL     OW 6343   0.311   1.629   3.055
 1815SOL    HW1 6344   0.373   1.666   3.124
 1815SOL    HW2 6345   0.265   1.704   3.008
 1816SOL     OW 6346   1.221   5.242   0.469
 1816SOL    HW1 6347   1.165   5.179   0.524
 1816SOL    HW2 6348   1.172   5.328   0.457
 1817SOL     OW 6349   1.613   5.376   1.967
 1817SOL    HW1 6350   1.644   5.468   1.942
 1817SOL    HW2 6351   1.663   5.345   2.048
 1818SOL     OW 6352   1.133   1.656   3.642
 1818SOL    HW1 6353   1.105   1.712   3.720
 1818SOL    HW2 6354   1.098   1.563   3.654
 1819SOL     OW 6355   1.048   4.267   2.576
 1819SOL    HW1 6356   0.954   4.238   2.594
 1819SOL    HW2 6357   1.102   4.257   2.660
 1820SOL     OW 6358   5.634   6.957   2.762
 1820SOL    HW1 6359   5.714   6.957   2.823
 1820SOL    HW2 6360   5.648   7.024   2.690
 1821SOL     OW 6361   1.856   1.878   3.489
 1821SOL    HW1 6362   1.822   1.789   3.460
 1821SOL    HW2 6363   1.877   1.934   3.409
 1822SOL     OW 6364   2.989   3.875   2.305
 1822SOL    HW1 6365   2.975   3.872   2.206
 1822SOL    HW2 6366   2.927   3.809   2.349
 1823SOL     OW 6367   4.505   0.133   2.318
 1823SOL    HW1 6368   4.563   0.167   2.392
 1823SOL    HW2 6369   4.499   0.033   2.324
 1824SOL     OW 6370   5.328   1.805   1.605
 1824SOL    HW1 6371   5.359   1.884   1.551
 1824SOL    HW2 6372   5.356   1.816   1.700
 1825SOL     OW 6373   0.399   0.417   2.021
 1825SOL    HW1 6374   0.498   0.407   2.015
 1825SOL    HW2 6375   0.354   0.335   1.987
 1826SOL     OW 6376   2.974   5.851   6.079
 1826SOL    HW1 6377   2.993   5.753   6.085
 1826SOL    HW2 6378   3.038   5.901   6.137
 1827SOL     OW 6379   5.971   6.898   1.193
 1827SOL    HW1 6380   5.916   6.916   1.111
 1827SOL    HW2 6381   5.994   6.984   1.237
 1828SOL     OW 6382   1.799   2.868   0.247
 1828SOL    HW1 6383   1.787   2.957   0.203
 1828SOL    HW2 6384   1.710   2.830   0.271
 1829SOL     OW 6385   5.843   5.396   2.405
 1829SOL    HW1 6386   5.920   5.364   2.350
 1829SOL    HW2 6387   5.878   5.444   2.486
 1830SOL     OW 6388   5.168   6.664   4.245
 1830SOL    HW1 6389   5.264   6.679   4.222
 1830SOL    HW2 6390   5.155   6.569   4.273
 1831SOL     OW 6391   5.397   0.590   3.252
 1831SOL    HW1 6392   5.337   0.648   3.307
 1831SOL    HW2 6393   5.483   0.638   3.233
 1832SOL     OW 6394   4.638   2.235   0.232
 1832SOL    HW1 6395   4.616   2.318   0.180
 1832SOL    HW2 6396   4.581   2.159   0.198
 1833SOL     OW 6397   5.467   1.980   5.669
 1833SOL    HW1 6398   5.430   2.073   5.669
 1833SOL    HW2 6399   5.502   1.959   5.577
 1834SOL     OW 6400   2.918   3.979   0.284
 1834SOL    HW1 6401   2.849   3.961   0.354
 1834SOL    HW2 6402   2.874   4.023   0.205
 1835SOL     OW 6403   1.979   4.407   6.750
 1835SOL    HW1 6404   2.009   4.445   6.662
 1835SOL    HW2 6405   1.879   4.405   6.753
 1836SOL     OW 6406   0.918   6.760   0.732
 1836SOL    HW1 6407   0.929   6.689   0.802
 1836SOL    HW2 6408   0.853   6.829   0.764
 1837SOL     OW 6409   0.724   2.641   4.895
 1837SOL    HW1 6410   0.636   2.681   4.920
 1837SOL    HW2 6411   0.786   2.713   4.864
 1838SOL     OW 6412   0.797   2.918   5.098
 1838SOL    HW1 6413   0.800   2.823   5.128
 1838SOL    HW2 6414   0.887   2.945   5.063
 1839SOL     OW 6415   1.191   1.615   6.835
 1839SOL    HW1 6416   1.277   1.643   6.876
 1839SOL    HW2 6417   1.119   1.615   6.905
 1840SOL     OW 6418   1.049   5.038   1.497
 1840SOL    HW1 6419   1.107   5.078   1.568
 1840SOL    HW2 6420   1.001   5.111   1.449
 1841SOL     OW 6421   1.070   2.863   3.877
 1841SOL    HW1 6422   1.042   2.860   3.973
 1841SOL    HW2 6423   1.165   2.831   3.870
 1842SOL     OW 6424   0.879   6.164   6.342
 1842SOL    HW1 6425   0.972   6.182   6.373
 1842SOL    HW2 6426   0.840   6.087   6.393
 1843SOL     OW 6427   4.613   2.084   5.097
 1843SOL    HW1 6428   4.600   2.010   5.030
 1843SOL    HW2 6429   4.577   2.169   5.060
 1844SOL     OW 6430   5.651   4.562   3.586
 1844SOL    HW1 6431   5.645   4.526   3.679
 1844SOL    HW2 6432   5.561   4.557   3.542
 1845SOL     OW 6433   4.795   6.392   0.812
 1845SOL    HW1 6434   4.824   6.448   0.735
 1845SOL    HW2 6435   4.827   6.433   0.898
 1846SOL     OW 6436   3.691   1.539   5.715
 1846SOL    HW1 6437   3.766   1.490   5.761
 1846SOL    HW2 6438   3.728   1.619   5.669
 1847SOL     OW 6439   1.305   6.604   6.379
 1847SOL    HW1 6440   1.343   6.650   6.460
 1847SOL    HW2 6441   1.356   6.520   6.362
 1848SOL     OW 6442   1.801   0.383   3.138
 1848SOL    HW1 6443   1.893   0.399   3.101
 1848SOL    HW2 6444   1.807   0.372   3.237
 1849SOL     OW 6445   2.800   0.560   6.665
 1849SOL    HW1 6446   2.808   0.487   6.597
 1849SOL    HW2 6447   2.706   0.594   6.668
 1850SOL     OW 6448   5.457   1.774   2.275
 1850SOL    HW1 6449   5.401   1.728   2.343
 1850SOL    HW2 6450   5.486   1.863   2.310
 1851SOL     OW 6451   6.650   4.226   3.021
 1851SOL    HW1 6452   6.695   4.174   2.948
 1851SOL    HW2 6453   6.590   4.165   3.073
 1852SOL     OW 6454   5.247   1.373   5.490
 1852SOL    HW1 6455   5.288   1.285   5.466
 1852SOL    HW2 6456   5.201   1.366   5.578
 1853SOL     OW 6457   1.362   4.809   0.861
 1853SOL    HW1 6458   1.462   4.804   0.854
 1853SOL    HW2 6459   1.337   4.860   0.943
 1854SOL     OW 6460   2.580   5.310   3.746
 1854SOL    HW1 6461   2.508   5.246   3.773
 1854SOL    HW2 6462   2.540   5.385   3.694
 1855SOL     OW 6463   6.357   4.559   2.581
 1855SOL    HW1 6464   6.379   4.575   2.677
 1855SOL    HW2 6465   6.431   4.595   2.523
 1856SOL     OW 6466   5.339   3.029   6.877
 1856SOL    HW1 6467   5.382   2.988   6.957
 1856SOL    HW2 6468   5.374   3.122   6.864
 1857SOL     OW 6469   5.074   1.456   2.932
 1857SOL    HW1 6470   5.158   1.506   2.914
 1857SOL    HW2 6471   5.014   1.461   2.852
 1858SOL     OW 6472   5.426   4.182   3.063
 1858SOL    HW1 6473   5.461   4.090   3.045
 1858SOL    HW2 6474   5.405   4.228   2.976
 1859SOL     OW 6475   6.154   1.746   2.963
 1859SOL    HW1 6476   6.196   1.752   3.054
 1859SOL    HW2 6477   6.199   1.674   2.910
 1860SOL     OW 6478   4.011   2.202   4.616
 1860SOL    HW1 6479   3.991   2.127   4.679
 1860SOL    HW2 6480   4.031   2.285   4.668
 1861SOL     OW 6481   5.082   6.044   2.448
 1861SOL    HW1 6482   5.073   6.140   2.421
 1861SOL    HW2 6483   5.026   5.987   2.388
 1862SOL     OW 6484   2.676   1.104   0.576
 1862SOL    HW1 6485   2.633   1.017   0.603
 1862SOL    HW2 6486   2.626   1.144   0.500
 1863SOL     OW 6487   1.883   2.004   1.323
 1863SOL    HW1 6488   1.905   2.062   1.401
 1863SOL    HW2 6489   1.793   2.028   1.288
 1864SOL     OW 6490   0.598   6.326   3.099
 1864SOL    HW1 6491   0.661   6.296   3.027
 1864SOL    HW2 6492   0.535   6.394   3.062
 1865SOL     OW 6493   4.809   2.790   6.720
 1865SOL    HW1 6494   4.728   2.833   6.680
 1865SOL    HW2 6495   4.882   2.786   6.653
 1866SOL     OW 6496   5.503   5.343   1.598
 1866SOL    HW1 6497   5.560   5.284   1.542
 1866SOL    HW2 6498   5.468   5.419   1.543
 1867SOL     OW 6499   0.653   4.558   6.642
 1867SOL    HW1 6500   0.628   4.580   6.548
 1867SOL    HW2 6501   0.732   4.496   6.642
 1868SOL     OW 6502   6.620   3.802   5.642
 1868SOL    HW1 6503   6.715   3.809   5.611
 1868SOL    HW2 6504   6.609   3.855   5.727
 1869SOL     OW 6505   5.929   1.885   4.346
 1869SOL    HW1 6506   5.971   1.897   4.257
 1869SOL    HW2 6507   5.939   1.790   4.376
 1870SOL     OW 6508   2.208   4.123   4.738
 1870SOL    HW1 6509   2.185   4.067   4.659
 1870SOL    HW2 6510   2.269   4.072   4.798
 1871SOL     OW 6511   1.431   0.303   0.713
 1871SOL    HW1 6512   1.359   0.345   0.658
 1871SOL    HW2 6513   1.512   0.363   0.714
 1872SOL     OW 6514   1.786   4.659   6.600
 1872SOL    HW1 6515   1.737   4.572   6.602
 1872SOL    HW2 6516   1.725   4.732   6.631
 1873SOL     OW 6517   5.183   0.179   0.003
 1873SOL    HW1 6518   5.189   0.238   6.952
 1873SOL    HW2 6519   5.108   0.114   7.021
 1874SOL     OW 6520   0.317   3.851   2.705
 1874SOL    HW1 6521   0.383   3.851   2.780
 1874SOL    HW2 6522   0.236   3.904   2.731
 1875SOL     OW 6523   0.665   6.451   2.029
 1875SOL    HW1 6524   0.631   6.412   1.944
 1875SOL    HW2 6525   0.617   6.409   2.106
 1876SOL     OW 6526   1.906   6.826   3.519
 1876SOL    HW1 6527   1.962   6.877   3.585
 1876SOL    HW2 6528   1.965   6.778   3.455
 1877SOL     OW 6529   0.122   6.993   3.864
 1877SOL    HW1 6530   0.216   7.006   3.831
 1877SOL    HW2 6531   0.073   0.051   3.858
 1878SOL     OW 6532   6.049   2.578   5.767
 1878SOL    HW1 6533   5.977   2.608   5.705
 1878SOL    HW2 6534   6.031   2.615   5.859
 1879SOL     OW 6535   1.422   4.763   6.154
 1879SOL    HW1 6536   1.486   4.710   6.211
 1879SOL    HW2 6537   1.390   4.706   6.078
 1880SOL     OW 6538   6.396   0.075   4.880
 1880SOL    HW1 6539   6.430   0.127   4.803
 1880SOL    HW2 6540   6.304   0.041   4.859
 1881SOL     OW 6541   6.839   2.231   6.962
 1881SOL    HW1 6542   6.782   2.295   6.910
 1881SOL    HW2 6543   6.861   2.271   0.022
 1882SOL     OW 6544   1.389   6.575   0.175
 1882SOL    HW1 6545   1.344   6.506   0.118
 1882SOL    HW2 6546   1.414   6.534   0.263
 1883SOL     OW 6547   0.383   2.038   3.910
 1883SOL    HW1 6548   0.380   2.124   3.859
 1883SOL    HW2 6549   0.424   1.966   3.852
 1884SOL     OW 6550   6.549   2.121   1.083
 1884SOL    HW1 6551   6.467   2.174   1.061
 1884SOL    HW2 6552   6.544   2.089   1.177
 1885SOL     OW 6553   2.684   1.439   4.124
 1885SOL    HW1 6554   2.654   1.480   4.211
 1885SOL    HW2 6555   2.604   1.400   4.078
 1886SOL     OW 6556   0.544   5.904   3.139
 1886SOL    HW1 6557   0.535   5.944   3.231
 1886SOL    HW2 6558   0.471   5.939   3.081
 1887SOL     OW 6559   2.661   6.064   6.216
 1887SOL    HW1 6560   2.635   5.973   6.249
 1887SOL    HW2 6561   2.658   6.065   6.116
 1888SOL     OW 6562   2.053   0.460   3.023
 1888SOL    HW1 6563   2.135   0.449   3.078
 1888SOL    HW2 6564   2.016   0.552   3.037
 1889SOL     OW 6565   0.239   3.310   2.848
 1889SOL    HW1 6566   0.241   3.371   2.770
 1889SOL    HW2 6567   0.330   3.306   2.891
 1890SOL     OW 6568   1.426   5.957   4.836
 1890SOL    HW1 6569   1.357   5.890   4.864
 1890SOL    HW2 6570   1.514   5.913   4.827
 1891SOL     OW 6571   3.829   3.460   3.668
 1891SOL    HW1 6572   3.771   3.436   3.591
 1891SOL    HW2 6573   3.857   3.376   3.715
 1892SOL     OW 6574   0.266   0.381   2.458
 1892SOL    HW1 6575   0.202   0.396   2.533
 1892SOL    HW2 6576   0.215   0.368   2.373
 1893SOL     OW 6577   3.702   3.188   4.635
 1893SOL    HW1 6578   3.693   3.256   4.562
 1893SOL    HW2 6579   3.687   3.096   4.598
 1894SOL     OW 6580   3.110   3.419   3.902
 1894SOL    HW1 6581   3.197   3.462   3.882
 1894SOL    HW2 6582   3.125   3.332   3.950
 1895SOL     OW 6583   1.413   6.020   1.231
 1895SOL    HW1 6584   1.347   6.085   1.192
 1895SOL    HW2 6585   1.490   6.010   1.168
 1896SOL     OW 6586   6.391   2.455   1.133
 1896SOL    HW1 6587   6.364   2.400   1.054
 1896SOL    HW2 6588   6.378   2.402   1.216
 1897SOL     OW 6589   1.271   4.471   3.608
 1897SOL    HW1 6590   1.331   4.415   3.550
 1897SOL    HW2 6591   1.300   4.463   3.704
 1898SOL     OW 6592   1.846   6.053   2.652
 1898SOL    HW1 6593   1.940   6.073   2.677
 1898SOL    HW2 6594   1.792   6.032   2.734
 1899SOL     OW 6595   0.099   1.201   2.287
 1899SOL    HW1 6596   0.087   1.103   2.300
 1899SOL    HW2 6597   0.181   1.218   2.232
 1900SOL     OW 6598   2.602   6.564   6.831
 1900SOL    HW1 6599   2.563   6.569   6.739
 1900SOL    HW2 6600   2.606   6.656   6.870
 1901SOL     OW 6601   2.931   3.257   2.278
 1901SOL    HW1 6602   2.935   3.354   2.256
 1901SOL    HW2 6603   2.933   3.245   2.378
 1902SOL     OW 6604   1.298   6.440   4.853
 1902SOL    HW1 6605   1.360   6.519   4.858
 1902SOL    HW2 6606   1.328   6.371   4.918
 1903SOL     OW 6607   1.383   1.879   4.189
 1903SOL    HW1 6608   1.440   1.944   4.139
 1903SOL    HW2 6609   1.418   1.786   4.175
 1904SOL     OW 6610   6.098   5.574   1.380
 1904SOL    HW1 6611   6.057   5.621   1.302
 1904SOL    HW2 6612   6.054   5.606   1.464
 1905SOL     OW 6613   0.871   2.023   4.034
 1905SOL    HW1 6614   0.802   1.989   4.098
 1905SOL    HW2 6615   0.831   2.092   3.974
 1906SOL     OW 6616   0.432   6.273   4.160
 1906SOL    HW1 6617   0.521   6.284   4.203
 1906SOL    HW2 6618   0.408   6.176   4.156
 1907SOL     OW 6619   5.878   3.253   0.947
 1907SOL    HW1 6620   5.856   3.177   1.007
 1907SOL    HW2 6621   5.907   3.217   0.858
 1908SOL     OW 6622   3.701   0.846   1.702
 1908SOL    HW1 6623   3.751   0.928   1.675
 1908SOL    HW2 6624   3.608   0.871   1.727
 1909SOL     OW 6625   6.183   5.375   5.011
 1909SOL    HW1 6626   6.102   5.413   4.964
 1909SOL    HW2 6627   6.262   5.434   4.992
 1910SOL     OW 6628   0.546   5.973   5.849
 1910SOL    HW1 6629   0.468   5.924   5.811
 1910SOL    HW2 6630   0.561   5.945   5.944
 1911SOL     OW 6631   6.014   6.020   4.215
 1911SOL    HW1 6632   5.920   6.054   4.208
 1911SOL    HW2 6633   6.073   6.095   4.245
 1912SOL     OW 6634   3.623   5.093   2.354
 1912SOL    HW1 6635   3.585   5.031   2.422
 1912SOL    HW2 6636   3.631   5.046   2.266
 1913SOL     OW 6637   2.990   4.592   6.560
 1913SOL    HW1 6638   2.959   4.620   6.469
 1913SOL    HW2 6639   3.022   4.498   6.557
 1914SOL     OW 6640   3.460   4.208   0.569
 1914SOL    HW1 6641   3.511   4.257   0.498
 1914SOL    HW2 6642   3.438   4.271   0.644
 1915SOL     OW 6643   3.721   2.943   0.211
 1915SOL    HW1 6644   3.759   2.856   0.181
 1915SOL    HW2 6645   3.680   2.990   0.133
 1916SOL     OW 6646   3.981   1.216   2.427
 1916SOL    HW1 6647   4.058   1.181   2.480
 1916SOL    HW2 6648   3.933   1.285   2.480
 1917SOL     OW 6649   2.224   3.862   1.312
 1917SOL    HW1 6650   2.227   3.957   1.280
 1917SOL    HW2 6651   2.135   3.844   1.354
 1918SOL     OW 6652   5.327   2.218   3.661
 1918SOL    HW1 6653   5.272   2.156   3.606
 1918SOL    HW2 6654   5.284   2.232   3.750
 1919SOL     OW 6655   6.273   2.211   6.236
 1919SOL    HW1 6656   6.321   2.137   6.189
 1919SOL    HW2 6657   6.211   2.257   6.172
 1920SOL     OW 6658   4.396   3.492   0.472
 1920SOL    HW1 6659   4.358   3.401   0.486
 1920SOL    HW2 6660   4.415   3.506   0.375
 1921SOL     OW 6661   2.688   2.321   0.203
 1921SOL    HW1 6662   2.760   2.333   0.134
 1921SOL    HW2 6663   2.639   2.408   0.215
 1922SOL     OW 6664   3.162   3.511   4.189
 1922SOL    HW1 6665   3.130   3.430   4.239
 1922SOL    HW2 6666   3.103   3.589   4.211
 1923SOL     OW 6667   3.134   1.045   4.061
 1923SOL    HW1 6668   3.146   1.135   4.019
 1923SOL    HW2 6669   3.114   1.056   4.158
 1924SOL     OW 6670   5.520   1.004   0.566
 1924SOL    HW1 6671   5.602   1.031   0.515
 1924SOL    HW2 6672   5.466   0.941   0.511
 1925SOL     OW 6673   1.030   4.376   0.963
 1925SOL    HW1 6674   1.044   4.321   1.045
 1925SOL    HW2 6675   1.017   4.316   0.884
 1926SOL     OW 6676   3.448   0.243   1.739
 1926SOL    HW1 6677   3.478   0.162   1.791
 1926SOL    HW2 6678   3.518   0.314   1.746
 1927SOL     OW 6679   2.253   5.692   0.867
 1927SOL    HW1 6680   2.164   5.700   0.821
 1927SOL    HW2 6681   2.242   5.715   0.964
 1928SOL     OW 6682   0.087   4.239   3.033
 1928SOL    HW1 6683   0.135   4.315   3.077
 1928SOL    HW2 6684   0.001   4.222   3.081
 1929SOL     OW 6685   3.332   6.843   3.303
 1929SOL    HW1 6686   3.300   6.937   3.294
 1929SOL    HW2 6687   3.427   6.837   3.274
 1930SOL     OW 6688   3.459   3.312   0.403
 1930SOL    HW1 6689   3.528   3.371   0.362
 1930SOL    HW2 6690   3.504   3.234   0.447
 1931SOL     OW 6691   6.554   3.456   3.660
 1931SOL    HW1 6692   6.617   3.384   3.631
 1931SOL    HW2 6693   6.599   3.545   3.650
 1932SOL     OW 6694   5.179   0.506   1.971
 1932SOL    HW1 6695   5.123   0.578   2.012
 1932SOL    HW2 6696   5.250   0.479   2.036
 1933SOL     OW 6697   1.798   1.655   1.303
 1933SOL    HW1 6698   1.736   1.577   1.308
 1933SOL    HW2 6699   1.750   1.734   1.265
 1934SOL     OW 6700   6.800   1.237   6.747
 1934SOL    HW1 6701   6.763   1.283   6.827
 1934SOL    HW2 6702   6.751   1.268   6.665
 1935SOL     OW 6703   5.822   5.073   3.953
 1935SOL    HW1 6704   5.894   5.118   4.006
 1935SOL    HW2 6705   5.847   5.074   3.856
 1936SOL     OW 6706   5.018   3.057   6.638
 1936SOL    HW1 6707   5.005   3.152   6.610
 1936SOL    HW2 6708   4.964   2.997   6.580
 1937SOL     OW 6709   0.303   4.612   6.964
 1937SOL    HW1 6710   0.393   4.630   6.925
 1937SOL    HW2 6711   0.235   4.611   6.891
 1938SOL     OW 6712   6.673   2.122   0.219
 1938SOL    HW1 6713   6.710   2.209   0.185
 1938SOL    HW2 6714   6.744   2.071   0.266
 1939SOL     OW 6715   0.263   0.069   4.103
 1939SOL    HW1 6716   0.237   0.043   4.010
 1939SOL    HW2 6717   0.307   0.159   4.102
 1940SOL     OW 6718   1.177   5.182   1.701
 1940SOL    HW1 6719   1.187   5.157   1.798
 1940SOL    HW2 6720   1.235   5.261   1.681
 1941SOL     OW 6721   6.039   0.970   4.454
 1941SOL    HW1 6722   6.044   0.891   4.392
 1941SOL    HW2 6723   6.067   1.053   4.404
 1942SOL     OW 6724   0.510   5.317   1.860
 1942SOL    HW1 6725   0.499   5.243   1.926
 1942SOL    HW2 6726   0.506   5.279   1.767
 1943SOL     OW 6727   0.798   3.025   4.046
 1943SOL    HW1 6728   0.770   3.002   3.952
 1943SOL    HW2 6729   0.835   3.118   4.048
 1944SOL     OW 6730   0.442   3.189   3.941
 1944SOL    HW1 6731   0.393   3.263   3.894
 1944SOL    HW2 6732   0.442   3.207   4.039
 1945SOL     OW 6733   5.297   1.685   2.514
 1945SOL    HW1 6734   5.200   1.699   2.534
 1945SOL    HW2 6735   5.347   1.675   2.600
 1946SOL     OW 6736   5.882   5.625   0.401
 1946SOL    HW1 6737   5.961   5.680   0.377
 1946SOL    HW2 6738   5.896   5.582   0.490
 1947SOL     OW 6739   5.898   5.788   2.700
 1947SOL    HW1 6740   5.942   5.757   2.784
 1947SOL    HW2 6741   5.827   5.856   2.723
 1948SOL     OW 6742   5.436   3.493   3.438
 1948SOL    HW1 6743   5.379   3.574   3.445
 1948SOL    HW2 6744   5.466   3.480   3.343
 1949SOL     OW 6745   3.600   4.423   6.602
 1949SOL    HW1 6746   3.642   4.411   6.512
 1949SOL    HW2 6747   3.670   4.410   6.672
 1950SOL     OW 6748   3.949   3.901   3.678
 1950SOL    HW1 6749   3.899   3.816   3.695
 1950SOL    HW2 6750   3.903   3.952   3.606
 1951SOL     OW 6751   6.748   5.530   6.465
 1951SOL    HW1 6752   6.835   5.499   6.427
 1951SOL    HW2 6753   6.753   5.629   6.482
 1952SOL     OW 6754   5.756   3.877   6.631
 1952SOL    HW1 6755   5.696   3.895   6.708
 1952SOL    HW2 6756   5.786   3.781   6.634
 1953SOL     OW 6757   0.473   0.747   7.026
 1953SOL    HW1 6758   0.484   0.660   6.978
 1953SOL    HW2 6759   0.532   0.747   0.078
 1954SOL     OW 6760   3.940   0.032   2.211
 1954SOL    HW1 6761   4.028   7.020   2.189
 1954SOL    HW2 6762   3.919   0.018   2.307
 1955SOL     OW 6763   6.443   2.711   4.078
 1955SOL    HW1 6764   6.511   2.667   4.019
 1955SOL    HW2 6765   6.381   2.642   4.115
 1956SOL     OW 6766   4.818   1.105   1.216
 1956SOL    HW1 6767   4.784   1.162   1.141
 1956SOL    HW2 6768   4.892   1.047   1.183
 1957SOL     OW 6769   6.623   2.571   4.426
 1957SOL    HW1 6770   6.557   2.505   4.391
 1957SOL    HW2 6771   6.639   2.643   4.358
 1958SOL     OW 6772   4.380   1.975   0.233
 1958SOL    HW1 6773   4.424   1.970   0.322
 1958SOL    HW2 6774   4.286   1.941   0.240
 1959SOL     OW 6775   1.454   1.523   5.892
 1959SOL    HW1 6776   1.379   1.549   5.831
 1959SOL    HW2 6777   1.541   1.550   5.850
 1960SOL     OW 6778   4.941   4.329   2.751
 1960SOL    HW1 6779   4.845   4.307   2.771
 1960SOL    HW2 6780   4.949   4.355   2.655
 1961SOL     OW 6781   0.321   4.064   4.417
 1961SOL    HW1 6782   0.268   4.005   4.478
 1961SOL    HW2 6783   0.409   4.085   4.459
 1962SOL     OW 6784   0.129   7.006   1.783
 1962SOL    HW1 6785   0.031   7.025   1.794
 1962SOL    HW2 6786   0.166   0.035   1.711
 1963SOL     OW 6787   0.819   2.120   0.150
 1963SOL    HW1 6788   0.869   2.038   0.181
 1963SOL    HW2 6789   0.884   2.186   0.114
 1964SOL     OW 6790   5.463   3.591   0.761
 1964SOL    HW1 6791   5.519   3.667   0.728
 1964SOL    HW2 6792   5.523   3.522   0.803
 1965SOL     OW 6793   5.814   5.017   4.851
 1965SOL    HW1 6794   5.739   4.965   4.890
 1965SOL    HW2 6795   5.888   4.954   4.826
 1966SOL     OW 6796   0.844   5.327   6.620
 1966SOL    HW1 6797   0.836   5.229   6.636
 1966SOL    HW2 6798   0.916   5.344   6.552
 1967SOL     OW 6799   6.527   2.667   4.703
 1967SOL    HW1 6800   6.568   2.641   4.615
 1967SOL    HW2 6801   6.595   2.715   4.758
 1968SOL     OW 6802   2.746   1.391   6.177
 1968SOL    HW1 6803   2.768   1.451   6.254
 1968SOL    HW2 6804   2.649   1.399   6.155
 1969SOL     OW 6805   0.558   6.191   1.162
 1969SOL    HW1 6806   0.519   6.113   1.210
 1969SOL    HW2 6807   0.568   6.267   1.226
 1970SOL     OW 6808   5.302   4.269   3.558
 1970SOL    HW1 6809   5.286   4.367   3.546
 1970SOL    HW2 6810   5.348   4.233   3.476
 1971SOL     OW 6811   2.144   5.223   4.369
 1971SOL    HW1 6812   2.162   5.135   4.412
 1971SOL    HW2 6813   2.139   5.294   4.440
 1972SOL     OW 6814   5.624   2.283   2.629
 1972SOL    HW1 6815   5.590   2.335   2.707
 1972SOL    HW2 6816   5.548   2.265   2.565
 1973SOL     OW 6817   3.717   2.258   0.671
 1973SOL    HW1 6818   3.638   2.201   0.694
 1973SOL    HW2 6819   3.713   2.343   0.723
 1974SOL     OW 6820   2.201   6.446   4.648
 1974SOL    HW1 6821   2.285   6.400   4.675
 1974SOL    HW2 6822   2.166   6.500   4.725
 1975SOL     OW 6823   2.325   2.748   2.045
 1975SOL    HW1 6824   2.397   2.784   1.986
 1975SOL    HW2 6825   2.325   2.797   2.132
 1976SOL     OW 6826   1.640   1.002   5.332
 1976SOL    HW1 6827   1.638   1.020   5.233
 1976SOL    HW2 6828   1.640   0.903   5.348
 1977SOL     OW 6829   1.128   3.639   6.725
 1977SOL    HW1 6830   1.048   3.605   6.677
 1977SOL    HW2 6831   1.105   3.726   6.770
 1978SOL     OW 6832   2.560   0.432   2.095
 1978SOL    HW1 6833   2.555   0.401   2.190
 1978SOL    HW2 6834   2.649   0.407   2.056
 1979SOL     OW 6835   5.445   3.706   6.317
 1979SOL    HW1 6836   5.380   3.740   6.249
 1979SOL    HW2 6837   5.416   3.617   6.351
 1980SOL     OW 6838   3.811   0.409   1.350
 1980SOL    HW1 6839   3.876   0.485   1.351
 1980SOL    HW2 6840   3.725   0.439   1.309
 1981SOL     OW 6841   4.433   2.280   1.968
 1981SOL    HW1 6842   4.344   2.236   1.961
 1981SOL    HW2 6843   4.460   2.284   2.064
 1982SOL     OW 6844   1.736   2.739   6.625
 1982SOL    HW1 6845   1.787   2.705   6.703
 1982SOL    HW2 6846   1.676   2.814   6.654
 1983SOL     OW 6847   0.277   1.757   1.608
 1983SOL    HW1 6848   0.220   1.685   1.647
 1983SOL    HW2 6849   0.366   1.758   1.652
 1984SOL     OW 6850   4.440   3.534   5.555
 1984SOL    HW1 6851   4.341   3.546   5.563
 1984SOL    HW2 6852   4.486   3.616   5.589
 1985SOL     OW 6853   5.796   4.644   4.350
 1985SOL    HW1 6854   5.857   4.715   4.316
 1985SOL    HW2 6855   5.735   4.614   4.276
 1986SOL     OW 6856   2.883   3.399   2.888
 1986SOL    HW1 6857   2.814   3.460   2.848
 1986SOL    HW2 6858   2.894   3.421   2.985
 1987SOL     OW 6859   1.923   1.621   1.880
 1987SOL    HW1 6860   2.023   1.613   1.875
 1987SOL    HW2 6861   1.896   1.711   1.846
 1988SOL     OW 6862   1.072   2.350   3.106
 1988SOL    HW1 6863   1.015   2.317   3.031
 1988SOL    HW2 6864   1.062   2.449   3.115
 1989SOL     OW 6865   3.338   5.569   4.278
 1989SOL    HW1 6866   3.264   5.523   4.229
 1989SOL    HW2 6867   3.354   5.659   4.238
 1990SOL     OW 6868   4.728   6.479   0.334
 1990SOL    HW1 6869   4.735   6.515   0.427
 1990SOL    HW2 6870   4.632   6.479   0.305
 1991SOL     OW 6871   3.109   6.148   1.874
 1991SOL    HW1 6872   3.111   6.246   1.893
 1991SOL    HW2 6873   3.015   6.120   1.853
 1992SOL     OW 6874   1.383   6.942   3.178
 1992SOL    HW1 6875   1.476   6.918   3.205
 1992SOL    HW2 6876   1.327   6.954   3.260
 1993SOL     OW 6877   1.924   1.565   2.126
 1993SOL    HW1 6878   1.897   1.592   2.033
 1993SOL    HW2 6879   1.863   1.494   2.159
 1994SOL     OW 6880   3.235   3.353   1.582
 1994SOL    HW1 6881   3.191   3.424   1.637
 1994SOL    HW2 6882   3.234   3.380   1.486
 1995SOL     OW 6883   6.111   1.160   4.291
 1995SOL    HW1 6884   6.131   1.228   4.361
 1995SOL    HW2 6885   6.054   1.202   4.220
 1996SOL     OW 6886   4.776   0.318   0.874
 1996SOL    HW1 6887   4.689   0.331   0.826
 1996SOL    HW2 6888   4.762   0.331   0.972
 1997SOL     OW 6889   3.706   1.518   3.280
 1997SOL    HW1 6890   3.613   1.549   3.297
 1997SOL    HW2 6891   3.750   1.495   3.367
 1998SOL     OW 6892   2.495   3.747   1.119
 1998SOL    HW1 6893   2.438   3.721   1.041
 1998SOL    HW2 6894   2.441   3.743   1.203
 1999SOL     OW 6895   0.816   0.079   6.290
 1999SOL    HW1 6896   0.887   0.037   6.346
 1999SOL    HW2 6897   0.764   0.008   6.243
 2000SOL     OW 6898   4.302   4.364   6.572
 2000SOL    HW1 6899   4.326   4.309   6.492
 2000SOL    HW2 6900   4.219   4.327   6.614
 2001SOL     OW 6901   1.456   2.253   0.947
 2001SOL    HW1 6902   1.444   2.245   0.848
 2001SOL    HW2 6903   1.445   2.163   0.990
 2002SOL     OW 6904   6.183   5.260   0.413
 2002SOL    HW1 6905   6.107   5.206   0.449
 2002SOL    HW2 6906   6.186   5.252   0.314
 2003SOL     OW 6907   6.213   5.326   1.272
 2003SOL    HW1 6908   6.202   5.295   1.366
 2003SOL    HW2 6909   6.241   5.422   1.273
 2004SOL     OW 6910   3.796   0.339   2.804
 2004SOL    HW1 6911   3.794   0.342   2.904
 2004SOL    HW2 6912   3.702   0.341   2.769
 2005SOL     OW 6913   1.910   6.669   0.345
 2005SOL    HW1 6914   1.882   6.748   0.399
 2005SOL    HW2 6915   1.887   6.585   0.394
 2006SOL     OW 6916   6.263   6.996   2.222
 2006SOL    HW1 6917   6.218   6.951   2.144
 2006SOL    HW2 6918   6.209   6.982   2.305
 2007SOL     OW 6919   5.489   5.181   5.574
 2007SOL    HW1 6920   5.434   5.108   5.612
 2007SOL    HW2 6921   5.495   5.171   5.475
 2008SOL     OW 6922   1.800   3.158   2.903
 2008SOL    HW1 6923   1.807   3.211   2.987
 2008SOL    HW2 6924   1.734   3.202   2.842
 2009SOL     OW 6925   6.058   0.087   2.989
 2009SOL    HW1 6926   6.036   0.049   3.079
 2009SOL    HW2 6927   6.132   0.034   2.949
 2010SOL     OW 6928   0.245   1.337   1.528
 2010SOL    HW1 6929   0.274   1.399   1.601
 2010SOL    HW2 6930   0.276   1.374   1.440
 2011SOL     OW 6931   0.948   0.171   5.067
 2011SOL    HW1 6932   0.943   0.124   5.155
 2011SOL    HW2 6933   0.903   0.115   4.997
 2012SOL     OW 6934   0.175   2.569   0.557
 2012SOL    HW1 6935   0.199   2.557   0.460
 2012SOL    HW2 6936   0.244   2.525   0.614
 2013SOL     OW 6937   0.903   3.148   2.488
 2013SOL    HW1 6938   0.909   3.133   2.586
 2013SOL    HW2 6939   0.990   3.184   2.454
 2014SOL     OW 6940   3.830   1.826   3.995
 2014SOL    HW1 6941   3.921   1.810   4.033
 2014SOL    HW2 6942   3.837   1.838   3.895
 2015SOL     OW 6943   4.058   6.093   1.369
 2015SOL    HW1 6944   4.033   6.023   1.437
 2015SOL    HW2 6945   3.979   6.111   1.310
 2016SOL     OW 6946   1.647   0.753   5.418
 2016SOL    HW1 6947   1.744   0.751   5.441
 2016SOL    HW2 6948   1.614   0.660   5.405
 2017SOL     OW 6949   2.496   6.827   4.433
 2017SOL    HW1 6950   2.554   6.793   4.507
 2017SOL    HW2 6951   2.416   6.767   4.423
 2018SOL     OW 6952   0.250   0.540   4.691
 2018SOL    HW1 6953   0.300   0.457   4.666
 2018SOL    HW2 6954   0.304   0.593   4.757
 2019SOL     OW 6955   0.097   4.627   6.763
 2019SOL    HW1 6956   0.052   4.712   6.792
 2019SOL    HW2 6957   0.070   4.606   6.669
 2020SOL     OW 6958   1.557   6.796   1.254
 2020SOL    HW1 6959   1.581   6.888   1.286
 2020SOL    HW2 6960   1.636   6.755   1.209
 2021SOL     OW 6961   6.923   5.671   4.162
 2021SOL    HW1 6962   6.915   5.637   4.069
 2021SOL    HW2 6963   6.939   5.770   4.161
 2022SOL     OW 6964   1.845   3.207   4.287
 2022SOL    HW1 6965   1.827   3.177   4.193
 2022SOL    HW2 6966   1.944   3.205   4.304
 2023SOL     OW 6967   0.497   5.435   0.097
 2023SOL    HW1 6968   0.573   5.487   0.135
 2023SOL    HW2 6969   0.529   5.379   0.021
 2024SOL     OW 6970   6.642   6.033   3.830
 2024SOL    HW1 6971   6.584   5.951   3.825
 2024SOL    HW2 6972   6.598   6.107   3.780
 2025SOL     OW 6973   2.099   0.393   4.191
 2025SOL    HW1 6974   2.191   0.408   4.230
 2025SOL    HW2 6975   2.098   0.423   4.096
 2026SOL     OW 6976   1.536   0.024   5.429
 2026SOL    HW1 6977   1.479   7.002   5.364
 2026SOL    HW2 6978   1.630   7.022   5.423
 2027SOL     OW 6979   6.538   6.287   2.790
 2027SOL    HW1 6980   6.514   6.226   2.715
 2027SOL    HW2 6981   6.527   6.382   2.761
 2028SOL     OW 6982   2.246   6.161   5.293
 2028SOL    HW1 6983   2.335   6.203   5.308
 2028SOL    HW2 6984   2.193   6.218   5.229
 2029SOL     OW 6985   6.224   1.911   6.606
 2029SOL    HW1 6986   6.236   1.812   6.613
 2029SOL    HW2 6987   6.200   1.935   6.512
 2030SOL     OW 6988   1.898   6.585   2.935
 2030SOL    HW1 6989   1.941   6.516   2.993
 2030SOL    HW2 6990   1.922   6.568   2.839
 2031SOL     OW 6991   0.229   6.794   5.511
 2031SOL    HW1 6992   0.319   6.798   5.467
 2031SOL    HW2 6993   0.162   6.842   5.454
 2032SOL     OW 6994   2.493   3.089   6.746
 2032SOL    HW1 6995   2.416   3.045   6.793
 2032SOL    HW2 6996   2.544   3.021   6.694
 2033SOL     OW 6997   2.494   0.724   1.493
 2033SOL    HW1 6998   2.506   0.660   1.417
 2033SOL    HW2 6999   2.526   0.681   1.578
 2034SOL     OW 7000   0.643   4.291   5.126
 2034SOL    HW1 7001   0.612   4.275   5.220
 2034SOL    HW2 7002   0.569   4.334   5.074
 2035SOL     OW 7003   5.679   5.559   2.788
 2035SOL    HW1 7004   5.642   5.605   2.869
 2035SOL    HW2 7005   5.624   5.583   2.709
 2036SOL     OW 7006   0.337   3.911   5.897
 2036SOL    HW1 7007   0.419   3.921   5.841
 2036SOL    HW2 7008   0.310   3.815   5.899
 2037SOL     OW 7009   0.909   2.445   6.773
 2037SOL    HW1 7010   0.992   2.499   6.769
 2037SOL    HW2 7011   0.838   2.489   6.717
 2038SOL     OW 7012   1.532   0.671   5.788
 2038SOL    HW1 7013   1.450   0.712   5.747
 2038SOL    HW2 7014   1.571   0.735   5.854
 2039SOL     OW 7015   5.158   5.949   4.139
 2039SOL    HW1 7016   5.185   5.957   4.235
 2039SOL    HW2 7017   5.077   5.892   4.132
 2040SOL     OW 7018   2.736   1.728   0.695
 2040SOL    HW1 7019   2.671   1.693   0.628
 2040SOL    HW2 7020   2.818   1.760   0.648
 2041SOL     OW 7021   3.064   6.610   0.142
 2041SOL    HW1 7022   3.039   6.603   0.238
 2041SOL    HW2 7023   3.013   6.686   0.100
 2042SOL     OW 7024   0.204   0.040   5.339
 2042SOL    HW1 7025   0.199   0.115   5.405
 2042SOL    HW2 7026   0.116   7.022   5.337
 2043SOL     OW 7027   0.769   3.680   0.319
 2043SOL    HW1 7028   0.688   3.637   0.360
 2043SOL    HW2 7029   0.781   3.771   0.357
 2044SOL     OW 7030   3.957   0.660   1.956
 2044SOL    HW1 7031   4.055   0.649   1.941
 2044SOL    HW2 7032   3.929   0.604   2.035
 2045SOL     OW 7033   1.861   5.737   3.261
 2045SOL    HW1 7034   1.957   5.739   3.290
 2045SOL    HW2 7035   1.851   5.676   3.183
 2046SOL     OW 7036   0.816   2.775   6.144
 2046SOL    HW1 7037   0.902   2.781   6.194
 2046SOL    HW2 7038   0.765   2.860   6.156
 2047SOL     OW 7039   6.895   0.049   1.746
 2047SOL    HW1 7040   6.890   0.148   1.756
 2047SOL    HW2 7041   6.838   0.005   1.815
 2048SOL     OW 7042   1.633   0.808   3.579
 2048SOL    HW1 7043   1.648   0.851   3.490
 2048SOL    HW2 7044   1.560   0.857   3.628
 2049SOL     OW 7045   4.654   2.101   5.391
 2049SOL    HW1 7046   4.747   2.095   5.426
 2049SOL    HW2 7047   4.655   2.103   5.291
 2050SOL     OW 7048   0.521   1.098   2.569
 2050SOL    HW1 7049   0.604   1.121   2.518
 2050SOL    HW2 7050   0.449   1.072   2.505
 2051SOL     OW 7051   2.852   0.194   6.716
 2051SOL    HW1 7052   2.823   0.103   6.687
 2051SOL    HW2 7053   2.845   0.258   6.640
 2052SOL     OW 7054   6.666   4.246   1.114
 2052SOL    HW1 7055   6.755   4.259   1.156
 2052SOL    HW2 7056   6.615   4.332   1.115
 2053SOL     OW 7057   5.135   4.882   2.003
 2053SOL    HW1 7058   5.199   4.956   1.983
 2053SOL    HW2 7059   5.077   4.866   1.923
 2054SOL     OW 7060   3.149   3.991   3.192
 2054SOL    HW1 7061   3.199   4.034   3.267
 2054SOL    HW2 7062   3.069   3.943   3.227
 2055SOL     OW 7063   3.957   2.624   6.168
 2055SOL    HW1 7064   3.973   2.531   6.201
 2055SOL    HW2 7065   3.949   2.687   6.246
 2056SOL     OW 7066   2.696   5.131   2.152
 2056SOL    HW1 7067   2.627   5.144   2.081
 2056SOL    HW2 7068   2.777   5.088   2.112
 2057SOL     OW 7069   6.031   3.122   3.798
 2057SOL    HW1 7070   6.073   3.040   3.759
 2057SOL    HW2 7071   6.005   3.185   3.724
 2058SOL     OW 7072   5.170   0.147   3.908
 2058SOL    HW1 7073   5.124   0.220   3.958
 2058SOL    HW2 7074   5.115   0.064   3.911
 2059SOL     OW 7075   2.303   1.435   5.790
 2059SOL    HW1 7076   2.267   1.495   5.861
 2059SOL    HW2 7077   2.229   1.402   5.732
 2060SOL     OW 7078   1.194   2.516   6.817
 2060SOL    HW1 7079   1.216   2.494   6.722
 2060SOL    HW2 7080   1.217   2.438   6.875
 2061SOL     OW 7081   1.648   2.119   4.305
 2061SOL    HW1 7082   1.677   2.193   4.365
 2061SOL    HW2 7083   1.678   2.031   4.343
 2062SOL     OW 7084   5.510   5.809   3.667
 2062SOL    HW1 7085   5.575   5.814   3.743
 2062SOL    HW2 7086   5.440   5.741   3.687
 2063SOL     OW 7087   1.144   1.461   4.289
 2063SOL    HW1 7088   1.145   1.530   4.362
 2063SOL    HW2 7089   1.217   1.482   4.223
 2064SOL     OW 7090   0.535   4.010   4.839
 2064SOL    HW1 7091   0.470   4.051   4.902
 2064SOL    HW2 7092   0.619   3.986   4.887
 2065SOL     OW 7093   3.958   3.574   5.945
 2065SOL    HW1 7094   3.874   3.616   5.980
 2065SOL    HW2 7095   3.944   3.545   5.851
 2066SOL     OW 7096   1.830   2.820   4.381
 2066SOL    HW1 7097   1.747   2.847   4.332
 2066SOL    HW2 7098   1.894   2.896   4.384
 2067SOL     OW 7099   6.509   5.221   2.429
 2067SOL    HW1 7100   6.493   5.278   2.348
 2067SOL    HW2 7101   6.602   5.185   2.427
 2068SOL     OW 7102   3.305   6.646   4.127
 2068SOL    HW1 7103   3.262   6.642   4.217
 2068SOL    HW2 7104   3.405   6.651   4.139
 2069SOL     OW 7105   6.283   1.817   3.230
 2069SOL    HW1 7106   6.259   1.757   3.306
 2069SOL    HW2 7107   6.381   1.810   3.211
 2070SOL     OW 7108   0.072   5.010   2.061
 2070SOL    HW1 7109   0.142   5.060   2.010
 2070SOL    HW2 7110   7.019   5.000   2.005
 2071SOL     OW 7111   6.973   2.458   3.967
 2071SOL    HW1 7112   6.963   2.532   3.900
 2071SOL    HW2 7113   6.954   2.370   3.922
 2072SOL     OW 7114   5.427   2.962   5.556
 2072SOL    HW1 7115   5.331   2.988   5.548
 2072SOL    HW2 7116   5.438   2.893   5.627
 2073SOL     OW 7117   3.483   5.083   6.912
 2073SOL    HW1 7118   3.432   4.998   6.915
 2073SOL    HW2 7119   3.521   5.097   6.821
 2074SOL     OW 7120   3.852   4.802   5.243
 2074SOL    HW1 7121   3.859   4.873   5.173
 2074SOL    HW2 7122   3.912   4.824   5.320
 2075SOL     OW 7123   5.360   1.458   1.128
 2075SOL    HW1 7124   5.270   1.495   1.152
 2075SOL    HW2 7125   5.421   1.464   1.207
 2076SOL     OW 7126   6.895   6.901   3.714
 2076SOL    HW1 7127   6.922   6.959   3.638
 2076SOL    HW2 7128   6.960   6.913   3.790
 2077SOL     OW 7129   0.364   4.313   1.112
 2077SOL    HW1 7130   0.369   4.377   1.036
 2077SOL    HW2 7131   0.295   4.344   1.177
 2078SOL     OW 7132   0.875   2.575   0.108
 2078SOL    HW1 7133   0.800   2.638   0.089
 2078SOL    HW2 7134   0.877   2.554   0.206
 2079SOL     OW 7135   5.933   2.105   3.403
 2079SOL    HW1 7136   5.935   2.057   3.315
 2079SOL    HW2 7137   5.838   2.124   3.427
 2080SOL     OW 7138   2.144   3.376   5.754
 2080SOL    HW1 7139   2.078   3.334   5.692
 2080SOL    HW2 7140   2.177   3.462   5.715
 2081SOL     OW 7141   0.615   6.005   2.549
 2081SOL    HW1 7142   0.676   5.932   2.580
 2081SOL    HW2 7143   0.610   6.076   2.619
 2082SOL     OW 7144   6.573   6.245   3.699
 2082SOL    HW1 7145   6.540   6.328   3.744
 2082SOL    HW2 7146   6.652   6.268   3.642
 2083SOL     OW 7147   0.674   5.352   3.295
 2083SOL    HW1 7148   0.753   5.383   3.348
 2083SOL    HW2 7149   0.635   5.270   3.338
 2084SOL     OW 7150   6.301   2.237   1.354
 2084SOL    HW1 7151   6.370   2.281   1.411
 2084SOL    HW2 7152   6.212   2.243   1.399
 2085SOL     OW 7153   6.075   5.555   6.827
 2085SOL    HW1 7154   6.062   5.505   6.913
 2085SOL    HW2 7155   6.149   5.621   6.838
 2086SOL     OW 7156   6.337   0.088   5.637
 2086SOL    HW1 7157   6.340   0.051   5.544
 2086SOL    HW2 7158   6.308   0.016   5.700
 2087SOL     OW 7159   5.065   1.586   6.759
 2087SOL    HW1 7160   5.036   1.682   6.758
 2087SOL    HW2 7161   5.000   1.533   6.813
 2088SOL     OW 7162   0.398   3.531   5.843
 2088SOL    HW1 7163   0.323   3.553   5.904
 2088SOL    HW2 7164   0.386   3.437   5.808
 2089SOL     OW 7165   3.227   5.242   5.053
 2089SOL    HW1 7166   3.176   5.174   5.105
 2089SOL    HW2 7167   3.225   5.218   4.956
 2090SOL     OW 7168   5.090   2.115   6.493
 2090SOL    HW1 7169   4.995   2.134   6.519
 2090SOL    HW2 7170   5.146   2.197   6.508
 2091SOL     OW 7171   5.517   6.469   0.800
 2091SOL    HW1 7172   5.599   6.521   0.775
 2091SOL    HW2 7173   5.435   6.523   0.777
 2092SOL     OW 7174   3.306   2.929   2.638
 2092SOL    HW1 7175   3.269   3.020   2.620
 2092SOL    HW2 7176   3.330   2.886   2.552
 2093SOL     OW 7177   5.243   0.094   0.452
 2093SOL    HW1 7178   5.297   0.055   0.378
 2093SOL    HW2 7179   5.169   0.149   0.413
 2094SOL     OW 7180   4.794   2.930   0.959
 2094SOL    HW1 7181   4.765   2.876   1.039
 2094SOL    HW2 7182   4.872   2.988   0.985
 2095SOL     OW 7183   4.944   5.537   3.241
 2095SOL    HW1 7184   4.987   5.449   3.224
 2095SOL    HW2 7185   4.857   5.542   3.191
 2096SOL     OW 7186   4.053   6.682   2.902
 2096SOL    HW1 7187   4.133   6.687   2.842
 2096SOL    HW2 7188   4.016   6.589   2.900
 2097SOL     OW 7189   1.773   5.854   5.364
 2097SOL    HW1 7190   1.743   5.916   5.436
 2097SOL    HW2 7191   1.832   5.783   5.403
 2098SOL     OW 7192   1.810   0.187   3.803
 2098SOL    HW1 7193   1.846   0.116   3.864
 2098SOL    HW2 7194   1.747   0.145   3.737
 2099SOL     OW 7195   4.607   2.091   6.624
 2099SOL    HW1 7196   4.615   1.997   6.591
 2099SOL    HW2 7197   4.595   2.091   6.723
 2100SOL     OW 7198   4.723   0.248   0.469
 2100SOL    HW1 7199   4.669   0.325   0.434
 2100SOL    HW2 7200   4.795   0.283   0.529
 2101SOL     OW 7201   1.786   0.921   2.599
 2101SOL    HW1 7202   1.750   1.014   2.611
 2101SOL    HW2 7203   1.720   0.855   2.635
 2102SOL     OW 7204   3.564   2.935   1.941
 2102SOL    HW1 7205   3.586   2.914   2.036
 2102SOL    HW2 7206   3.468   2.962   1.934
 2103SOL     OW 7207   1.901   6.982   1.387
 2103SOL    HW1 7208   1.961   6.902   1.375
 2103SOL    HW2 7209   1.957   0.033   1.406
 2104SOL     OW 7210   1.293   4.265   2.749
 2104SOL    HW1 7211   1.307   4.361   2.773
 2104SOL    HW2 7212   1.375   4.229   2.705
 2105SOL     OW 7213   5.488   6.609   5.588
 2105SOL    HW1 7214   5.416   6.677   5.598
 2105SOL    HW2 7215   5.519   6.607   5.493
 2106SOL     OW 7216   3.403   2.237   1.373
 2106SOL    HW1 7217   3.408   2.222   1.274
 2106SOL    HW2 7218   3.491   2.270   1.407
 2107SOL     OW 7219   5.678   4.283   4.952
 2107SOL    HW1 7220   5.693   4.346   5.028
 2107SOL    HW2 7221   5.745   4.301   4.880
 2108SOL     OW 7222   4.709   6.922   5.357
 2108SOL    HW1 7223   4.788   6.905   5.298
 2108SOL    HW2 7224   4.668   7.011   5.334
 2109SOL     OW 7225   2.747   5.690   1.964
 2109SOL    HW1 7226   2.655   5.724   1.947
 2109SOL    HW2 7227   2.743   5.594   1.988
 2110SOL     OW 7228   4.061   5.641   6.734
 2110SOL    HW1 7229   4.058   5.559   6.678
 2110SOL    HW2 7230   4.154   5.656   6.767
 2111SOL     OW 7231   0.463   2.795   0.481
 2111SOL    HW1 7232   0.435   2.870   0.421
 2111SOL    HW2 7233   0.445   2.708   0.434
 2112SOL     OW 7234   0.941   0.524   6.753
 2112SOL    HW1 7235   0.992   0.558   6.832
 2112SOL    HW2 7236   0.945   0.424   6.752
 2113SOL     OW 7237   6.886   1.444   4.623
 2113SOL    HW1 7238   6.926   1.457   4.533
 2113SOL    HW2 7239   6.820   1.517   4.641
 2114SOL     OW 7240   2.888   1.080   5.188
 2114SOL    HW1 7241   2.938   1.093   5.103
 2114SOL    HW2 7242   2.880   1.167   5.235
 2115SOL     OW 7243   6.647   7.018   3.637
 2115SOL    HW1 7244   6.713   6.955   3.677
 2115SOL    HW2 7245   6.579   0.015   3.706
 2116SOL     OW 7246   2.083   1.035   5.906
 2116SOL    HW1 7247   2.093   0.937   5.925
 2116SOL    HW2 7248   2.159   1.085   5.947
 2117SOL     OW 7249   5.789   3.371   1.723
 2117SOL    HW1 7250   5.713   3.307   1.722
 2117SOL    HW2 7251   5.759   3.459   1.686
 2118SOL     OW 7252   7.014   3.075   2.753
 2118SOL    HW1 7253   0.050   3.082   2.829
 2118SOL    HW2 7254   6.946   3.147   2.761
 2119SOL     OW 7255   2.061   2.537   0.301
 2119SOL    HW1 7256   2.006   2.547   0.384
 2119SOL    HW2 7257   2.139   2.599   0.305
 2120SOL     OW 7258   5.389   2.325   0.997
 2120SOL    HW1 7259   5.387   2.362   0.904
 2120SOL    HW2 7260   5.353   2.232   0.997
 2121SOL     OW 7261   3.094   6.038   1.468
 2121SOL    HW1 7262   3.130   6.005   1.556
 2121SOL    HW2 7263   3.000   6.005   1.456
 2122SOL     OW 7264   0.280   0.652   5.385
 2122SOL    HW1 7265   0.216   0.602   5.443
 2122SOL    HW2 7266   0.362   0.597   5.371
 2123SOL     OW 7267   0.954   4.962   3.247
 2123SOL    HW1 7268   1.017   4.965   3.324
 2123SOL    HW2 7269   0.872   4.911   3.272
 2124SOL     OW 7270   4.839   2.977   6.173
 2124SOL    HW1 7271   4.871   2.931   6.090
 2124SOL    HW2 7272   4.778   3.052   6.149
 2125SOL     OW 7273   1.787   5.486   6.216
 2125SOL    HW1 7274   1.698   5.453   6.184
 2125SOL    HW2 7275   1.774   5.560   6.282
 2126SOL     OW 7276   2.871   5.194   1.726
 2126SOL    HW1 7277   2.903   5.126   1.661
 2126SOL    HW2 7278   2.859   5.152   1.816
 2127SOL     OW 7279   1.556   3.767   3.974
 2127SOL    HW1 7280   1.465   3.729   3.990
 2127SOL    HW2 7281   1.596   3.798   4.060
 2128SOL     OW 7282   5.235   2.757   1.221
 2128SOL    HW1 7283   5.247   2.660   1.244
 2128SOL    HW2 7284   5.231   2.811   1.305
 2129SOL     OW 7285   5.977   4.261   3.628
 2129SOL    HW1 7286   5.921   4.179   3.634
 2129SOL    HW2 7287   6.074   4.236   3.625
 2130SOL     OW 7288   1.925   0.559   2.660
 2130SOL    HW1 7289   1.997   0.622   2.632
 2130SOL    HW2 7290   1.843   0.611   2.684
 2131SOL     OW 7291   5.459   0.929   6.815
 2131SOL    HW1 7292   5.364   0.959   6.817
 2131SOL    HW2 7293   5.467   0.851   6.753
 2132SOL     OW 7294   2.609   2.055   6.969
 2132SOL    HW1 7295   2.621   2.052   6.869
 2132SOL    HW2 7296   2.698   2.041   7.013
 2133SOL     OW 7297   4.178   2.733   1.635
 2133SOL    HW1 7298   4.226   2.646   1.651
 2133SOL    HW2 7299   4.244   2.801   1.603
 2134SOL     OW 7300   2.379   0.387   5.101
 2134SOL    HW1 7301   2.396   0.288   5.105
 2134SOL    HW2 7302   2.308   0.411   5.168
 2135SOL     OW 7303   1.058   5.878   4.234
 2135SOL    HW1 7304   1.119   5.891   4.312
 2135SOL    HW2 7305   1.042   5.966   4.190
 2136SOL     OW 7306   0.771   4.907   3.582
 2136SOL    HW1 7307   0.839   4.835   3.597
 2136SOL    HW2 7308   0.809   4.975   3.520
 2137SOL     OW 7309   0.195   0.086   4.716
 2137SOL    HW1 7310   0.122   0.150   4.741
 2137SOL    HW2 7311   0.241   0.055   4.799
 2138SOL     OW 7312   1.221   2.200   6.883
 2138SOL    HW1 7313   1.237   2.196   6.785
 2138SOL    HW2 7314   1.294   2.151   6.931
 2139SOL     OW 7315   3.173   6.119   4.415
 2139SOL    HW1 7316   3.210   6.198   4.366
 2139SOL    HW2 7317   3.104   6.074   4.359
 2140SOL     OW 7318   1.514   5.791   3.879
 2140SOL    HW1 7319   1.439   5.777   3.944
 2140SOL    HW2 7320   1.494   5.872   3.823
 2141SOL     OW 7321   6.564   0.982   6.818
 2141SOL    HW1 7322   6.528   0.923   6.746
 2141SOL    HW2 7323   6.570   1.076   6.784
 2142SOL     OW 7324   4.204   0.966   2.977
 2142SOL    HW1 7325   4.263   1.046   2.987
 2142SOL    HW2 7326   4.146   0.956   3.058
 2143SOL     OW 7327   3.576   5.866   0.618
 2143SOL    HW1 7328   3.510   5.790   0.621
 2143SOL    HW2 7329   3.546   5.933   0.550
 2144SOL     OW 7330   0.861   1.372   1.882
 2144SOL    HW1 7331   0.842   1.358   1.980
 2144SOL    HW2 7332   0.957   1.398   1.871
 2145SOL     OW 7333   2.438   6.150   3.664
 2145SOL    HW1 7334   2.357   6.093   3.648
 2145SOL    HW2 7335   2.436   6.229   3.602
 2146SOL     OW 7336   3.038   2.505   1.221
 2146SOL    HW1 7337   3.108   2.506   1.292
 2146SOL    HW2 7338   3.081   2.501   1.131
 2147SOL     OW 7339   6.734   0.169   4.884
 2147SOL    HW1 7340   6.728   0.267   4.903
 2147SOL    HW2 7341   6.695   0.150   4.794
 2148SOL     OW 7342   6.517   3.882   3.768
 2148SOL    HW1 7343   6.569   3.806   3.728
 2148SOL    HW2 7344   6.577   3.960   3.782
 2149SOL     OW 7345   2.768   1.296   2.655
 2149SOL    HW1 7346   2.828   1.348   2.715
 2149SOL    HW2 7347   2.673   1.317   2.676
 2150SOL     OW 7348   4.669   0.547   2.642
 2150SOL    HW1 7349   4.767   0.528   2.646
 2150SOL    HW2 7350   4.645   0.580   2.551
 2151SOL     OW 7351   4.379   4.918   5.559
 2151SOL    HW1 7352   4.332   4.844   5.511
 2151SOL    HW2 7353   4.337   4.931   5.649
 2152SOL     OW 7354   0.381   6.315   2.513
 2152SOL    HW1 7355   0.467   6.330   2.560
 2152SOL    HW2 7356   0.369   6.385   2.441
 2153SOL     OW 7357   4.352   1.265   3.661
 2153SOL    HW1 7358   4.371   1.354   3.701
 2153SOL    HW2 7359   4.428   1.203   3.681
 2154SOL     OW 7360   4.106   6.752   4.354
 2154SOL    HW1 7361   4.057   6.696   4.288
 2154SOL    HW2 7362   4.197   6.773   4.319
 2155SOL     OW 7363   6.211   3.369   0.444
 2155SOL    HW1 7364   6.196   3.388   0.347
 2155SOL    HW2 7365   6.130   3.394   0.496
 2156SOL     OW 7366   6.236   6.183   2.397
 2156SOL    HW1 7367   6.219   6.203   2.493
 2156SOL    HW2 7368   6.148   6.172   2.349
 2157SOL     OW 7369   5.819   1.553   3.453
 2157SOL    HW1 7370   5.737   1.533   3.399
 2157SOL    HW2 7371   5.871   1.468   3.466
 2158SOL     OW 7372   4.277   0.225   3.231
 2158SOL    HW1 7373   4.301   0.148   3.290
 2158SOL    HW2 7374   4.265   0.192   3.137
 2159SOL     OW 7375   2.590   1.077   5.569
 2159SOL    HW1 7376   2.660   1.103   5.636
 2159SOL    HW2 7377   2.560   1.159   5.519
 2160SOL     OW 7378   2.434   4.154   0.809
 2160SOL    HW1 7379   2.377   4.216   0.863
 2160SOL    HW2 7380   2.480   4.090   0.870
 2161SOL     OW 7381   4.578   2.356   3.403
 2161SOL    HW1 7382   4.478   2.353   3.403
 2161SOL    HW2 7383   4.613   2.323   3.490
 2162SOL     OW 7384   2.569   1.695   2.387
 2162SOL    HW1 7385   2.512   1.637   2.446
 2162SOL    HW2 7386   2.549   1.791   2.405
 2163SOL     OW 7387   3.642   1.942   1.117
 2163SOL    HW1 7388   3.719   1.938   1.054
 2163SOL    HW2 7389   3.577   1.869   1.095
 2164SOL     OW 7390   6.540   0.893   1.449
 2164SOL    HW1 7391   6.546   0.885   1.549
 2164SOL    HW2 7392   6.494   0.812   1.412
 2165SOL     OW 7393   2.430   0.904   2.197
 2165SOL    HW1 7394   2.393   0.894   2.104
 2165SOL    HW2 7395   2.358   0.933   2.259
 2166SOL     OW 7396   5.535   2.712   4.801
 2166SOL    HW1 7397   5.594   2.641   4.763
 2166SOL    HW2 7398   5.476   2.670   4.871
 2167SOL     OW 7399   3.487   1.760   1.048
 2167SOL    HW1 7400   3.427   1.727   1.122
 2167SOL    HW2 7401   3.532   1.682   1.005
 2168SOL     OW 7402   5.169   6.412   4.362
 2168SOL    HW1 7403   5.205   6.389   4.272
 2168SOL    HW2 7404   5.245   6.436   4.423
 2169SOL     OW 7405   5.297   1.582   5.811
 2169SOL    HW1 7406   5.396   1.579   5.796
 2169SOL    HW2 7407   5.258   1.491   5.796
 2170SOL     OW 7408   5.204   5.252   4.165
 2170SOL    HW1 7409   5.272   5.181   4.180
 2170SOL    HW2 7410   5.125   5.236   4.224
 2171SOL     OW 7411   0.406   3.737   0.096
 2171SOL    HW1 7412   0.338   3.692   0.154
 2171SOL    HW2 7413   0.480   3.772   0.153
 2172SOL     OW 7414   1.902   0.348   2.822
 2172SOL    HW1 7415   1.949   0.383   2.903
 2172SOL    HW2 7416   1.913   0.413   2.747
 2173SOL     OW 7417   4.722   2.061   4.794
 2173SOL    HW1 7418   4.797   2.058   4.859
 2173SOL    HW2 7419   4.665   2.141   4.812
 2174SOL     OW 7420   1.182   5.846   4.912
 2174SOL    HW1 7421   1.118   5.781   4.872
 2174SOL    HW2 7422   1.131   5.923   4.950
 2175SOL     OW 7423   1.529   6.773   6.136
 2175SOL    HW1 7424   1.550   6.683   6.098
 2175SOL    HW2 7425   1.583   6.788   6.218
 2176SOL     OW 7426   1.809   2.645   2.412
 2176SOL    HW1 7427   1.817   2.714   2.484
 2176SOL    HW2 7428   1.880   2.575   2.425
 2177SOL     OW 7429   0.859   1.613   1.428
 2177SOL    HW1 7430   0.837   1.702   1.468
 2177SOL    HW2 7431   0.815   1.541   1.481
 2178SOL     OW 7432   6.468   5.885   0.266
 2178SOL    HW1 7433   6.370   5.884   0.248
 2178SOL    HW2 7434   6.509   5.967   0.226
 2179SOL     OW 7435   2.151   3.967   4.114
 2179SOL    HW1 7436   2.149   4.043   4.179
 2179SOL    HW2 7437   2.232   3.910   4.132
 2180SOL     OW 7438   2.898   3.188   1.996
 2180SOL    HW1 7439   2.975   3.155   1.942
 2180SOL    HW2 7440   2.924   3.192   2.093
 2181SOL     OW 7441   3.754   6.805   0.891
 2181SOL    HW1 7442   3.740   6.709   0.914
 2181SOL    HW2 7443   3.683   6.835   0.827
 2182SOL     OW 7444   4.349   3.576   0.807
 2182SOL    HW1 7445   4.387   3.668   0.819
 2182SOL    HW2 7446   4.397   3.512   0.867
 2183SOL     OW 7447   4.261   2.854   0.850
 2183SOL    HW1 7448   4.263   2.954   0.853
 2183SOL    HW2 7449   4.180   2.821   0.899
 2184SOL     OW 7450   4.984   2.579   5.932
 2184SOL    HW1 7451   4.966   2.652   5.866
 2184SOL    HW2 7452   4.919   2.585   6.007
 2185SOL     OW 7453   6.670   6.505   2.379
 2185SOL    HW1 7454   6.659   6.573   2.307
 2185SOL    HW2 7455   6.583   6.460   2.397
 2186SOL     OW 7456   6.833   4.360   3.406
 2186SOL    HW1 7457   6.766   4.331   3.474
 2186SOL    HW2 7458   6.788   4.418   3.338
 2187SOL     OW 7459   6.369   1.064   7.008
 2187SOL    HW1 7460   6.405   0.990   6.951
 2187SOL    HW2 7461   6.307   1.120   6.954
 2188SOL     OW 7462   4.699   1.484   3.563
 2188SOL    HW1 7463   4.689   1.573   3.517
 2188SOL    HW2 7464   4.623   1.471   3.627
 2189SOL     OW 7465   3.684   6.300   0.255
 2189SOL    HW1 7466   3.602   6.250   0.226
 2189SOL    HW2 7467   3.763   6.269   0.202
 2190SOL     OW 7468   5.443   3.251   0.836
 2190SOL    HW1 7469   5.382   3.300   0.898
 2190SOL    HW2 7470   5.431   3.284   0.743
 2191SOL     OW 7471   3.735   0.959   6.718
 2191SOL    HW1 7472   3.661   0.897   6.747
 2191SOL    HW2 7473   3.696   1.039   6.673
 2192SOL     OW 7474   4.194   6.274   2.072
 2192SOL    HW1 7475   4.183   6.350   2.008
 2192SOL    HW2 7476   4.150   6.297   2.159
 2193SOL     OW 7477   6.769   6.044   4.886
 2193SOL    HW1 7478   6.837   6.092   4.830
 2193SOL    HW2 7479   6.795   6.051   4.982
 2194SOL     OW 7480   2.580   0.085   1.781
 2194SOL    HW1 7481   2.568   7.015   1.773
 2194SOL    HW2 7482   2.633   0.119   1.704
 2195SOL     OW 7483   0.214   4.772   2.110
 2195SOL    HW1 7484   0.223   4.777   2.210
 2195SOL    HW2 7485   0.148   4.840   2.079
 2196SOL     OW 7486   4.260   3.832   0.150
 2196SOL    HW1 7487   4.264   3.875   0.059
 2196SOL    HW2 7488   4.218   3.896   0.215
 2197SOL     OW 7489   4.978   3.317   6.544
 2197SOL    HW1 7490   4.968   3.393   6.610
 2197SOL    HW2 7491   4.944   3.346   6.455
 2198SOL     OW 7492   0.018   4.052   0.315
 2198SOL    HW1 7493   0.112   4.033   0.286
 2198SOL    HW2 7494   6.999   4.102   0.243
 2199SOL     OW 7495   4.248   1.039   3.317
 2199SOL    HW1 7496   4.340   1.081   3.313
 2199SOL    HW2 7497   4.184   1.096   3.265
 2200SOL     OW 7498   3.937   0.006   4.196
 2200SOL    HW1 7499   3.988   0.032   4.279
 2200SOL    HW2 7500   3.854   6.986   4.222
 2201SOL     OW 7501   5.075   4.530   4.067
 2201SOL    HW1 7502   5.051   4.434   4.082
 2201SOL    HW2 7503   5.063   4.581   4.152
 2202SOL     OW 7504   4.616   6.020   3.601
 2202SOL    HW1 7505   4.591   6.117   3.609
 2202SOL    HW2 7506   4.660   5.990   3.685
 2203SOL     OW 7507   2.183   1.714   2.954
 2203SOL    HW1 7508   2.119   1.708   2.878
 2203SOL    HW2 7509   2.212   1.809   2.966
 2204SOL     OW 7510   3.435   2.171   1.087
 2204SOL    HW1 7511   3.358   2.134   1.035
 2204SOL    HW2 7512   3.505   2.100   1.097
 2205SOL     OW 7513   3.272   1.298   2.172
 2205SOL    HW1 7514   3.358   1.331   2.133
 2205SOL    HW2 7515   3.290   1.241   2.252
 2206SOL     OW 7516   1.455   4.306   0.282
 2206SOL    HW1 7517   1.535   4.247   0.292
 2206SOL    HW2 7518   1.431   4.345   0.371
 2207SOL     OW 7519   0.018   4.735   4.918
 2207SOL    HW1 7520   0.017   4.817   4.860
 2207SOL    HW2 7521   6.996   4.662   4.872
 2208SOL     OW 7522   6.737   5.329   1.867
 2208SOL    HW1 7523   6.732   5.386   1.785
 2208SOL    HW2 7524   6.680   5.248   1.856
 2209SOL     OW 7525   6.969   6.858   2.047
 2209SOL    HW1 7526   6.987   6.811   2.133
 2209SOL    HW2 7527   6.961   6.791   1.973
 2210SOL     OW 7528   2.415   5.083   3.765
 2210SOL    HW1 7529   2.347   5.073   3.838
 2210SOL    HW2 7530   2.393   5.022   3.689
 2211SOL     OW 7531   6.437   1.192   5.817
 2211SOL    HW1 7532   6.442   1.111   5.875
 2211SOL    HW2 7533   6.358   1.247   5.844
 2212SOL     OW 7534   2.817   6.765   6.104
 2212SOL    HW1 7535   2.719   6.751   6.089
 2212SOL    HW2 7536   2.869   6.725   6.029
 2213SOL     OW 7537   4.715   0.853   3.394
 2213SOL    HW1 7538   4.620   0.825   3.402
 2213SOL    HW2 7539   4.774   0.772   3.399
 2214SOL     OW 7540   3.787   0.045   4.535
 2214SOL    HW1 7541   3.688   0.047   4.520
 2214SOL    HW2 7542   3.823   6.986   4.507
 2215SOL     OW 7543   5.416   1.948   5.200
 2215SOL    HW1 7544   5.389   2.041   5.226
 2215SOL    HW2 7545   5.469   1.907   5.274
 2216SOL     OW 7546   2.975   1.750   2.510
 2216SOL    HW1 7547   2.966   1.655   2.540
 2216SOL    HW2 7548   3.070   1.770   2.489
 2217SOL     OW 7549   3.025   6.771   1.413
 2217SOL    HW1 7550   2.972   6.806   1.336
 2217SOL    HW2 7551   3.097   6.711   1.379
 2218SOL     OW 7552   0.013   0.945   2.283
 2218SOL    HW1 7553   7.003   0.886   2.354
 2218SOL    HW2 7554   0.026   0.892   2.199
 2219SOL     OW 7555   2.756   2.136   2.954
 2219SOL    HW1 7556   2.746   2.194   2.873
 2219SOL    HW2 7557   2.684   2.066   2.954
 2220SOL     OW 7558   1.669   6.990   2.699
 2220SOL    HW1 7559   1.589   0.018   2.720
 2220SOL    HW2 7560   1.753   0.013   2.718
 2221SOL     OW 7561   0.537   6.779   5.640
 2221SOL    HW1 7562   0.568   6.686   5.662
 2221SOL    HW2 7563   0.553   6.797   5.543
 2222SOL     OW 7564   6.011   5.167   4.125
 2222SOL    HW1 7565   6.072   5.106   4.075
 2222SOL    HW2 7566   6.014   5.145   4.222
 2223SOL     OW 7567   0.093   6.422   2.643
 2223SOL    HW1 7568   0.161   6.494   2.633
 2223SOL    HW2 7569   0.046   6.408   2.556
 2224SOL     OW 7570   1.249   6.152   0.596
 2224SOL    HW1 7571   1.312   6.172   0.671
 2224SOL    HW2 7572   1.158   6.134   0.633
 2225SOL     OW 7573   0.652   4.181   0.555
 2225SOL    HW1 7574   0.614   4.177   0.647
 2225SOL    HW2 7575   0.739   4.230   0.558
 2226SOL     OW 7576   3.796   3.705   2.714
 2226SOL    HW1 7577   3.723   3.733   2.776
 2226SOL    HW2 7578   3.757   3.673   2.628
 2227SOL     OW 7579   1.218   1.628   4.795
 2227SOL    HW1 7580   1.170   1.550   4.836
 2227SOL    HW2 7581   1.168   1.712   4.815
 2228SOL     OW 7582   2.416   4.493   4.560
 2228SOL    HW1 7583   2.397   4.591   4.573
 2228SOL    HW2 7584   2.331   4.442   4.559
 2229SOL     OW 7585   6.267   6.107   3.115
 2229SOL    HW1 7586   6.201   6.168   3.072
 2229SOL    HW2 7587   6.277   6.132   3.212
 2230SOL     OW 7588   2.069   5.523   2.809
 2230SOL    HW1 7589   2.101   5.579   2.886
 2230SOL    HW2 7590   1.978   5.554   2.781
 2231SOL     OW 7591   1.960   6.052   0.964
 2231SOL    HW1 7592   1.925   5.969   1.007
 2231SOL    HW2 7593   1.945   6.048   0.866
 2232SOL     OW 7594   5.687   1.854   3.872
 2232SOL    HW1 7595   5.640   1.926   3.821
 2232SOL    HW2 7596   5.619   1.793   3.913
 2233SOL     OW 7597   4.048   1.203   0.485
 2233SOL    HW1 7598   4.008   1.247   0.405
 2233SOL    HW2 7599   4.131   1.252   0.513
 2234SOL     OW 7600   4.524   2.643   1.495
 2234SOL    HW1 7601   4.562   2.551   1.500
 2234SOL    HW2 7602   4.448   2.644   1.431
 2235SOL     OW 7603   1.891   2.356   2.359
 2235SOL    HW1 7604   1.835   2.372   2.278
 2235SOL    HW2 7605   1.942   2.270   2.347
 2236SOL     OW 7606   0.819   4.011   5.380
 2236SOL    HW1 7607   0.764   3.968   5.452
 2236SOL    HW2 7608   0.825   4.109   5.397
 2237SOL     OW 7609   6.504   3.116   3.747
 2237SOL    HW1 7610   6.539   3.125   3.840
 2237SOL    HW2 7611   6.579   3.127   3.682
 2238SOL     OW 7612   5.421   5.948   6.621
 2238SOL    HW1 7613   5.383   5.893   6.695
 2238SOL    HW2 7614   5.415   6.045   6.645
 2239SOL     OW 7615   0.425   5.553   0.995
 2239SOL    HW1 7616   0.477   5.632   0.963
 2239SOL    HW2 7617   0.462   5.522   1.083
 2240SOL     OW 7618   6.125   3.919   1.657
 2240SOL    HW1 7619   6.170   3.988   1.714
 2240SOL    HW2 7620   6.026   3.928   1.665
 2241SOL     OW 7621   0.982   0.035   3.879
 2241SOL    HW1 7622   0.997   0.048   3.781
 2241SOL    HW2 7623   0.904   0.091   3.908
 2242SOL     OW 7624   2.450   1.689   3.026
 2242SOL    HW1 7625   2.360   1.707   2.988
 2242SOL    HW2 7626   2.453   1.718   3.121
 2243SOL     OW 7627   1.787   0.136   4.432
 2243SOL    HW1 7628   1.770   0.050   4.383
 2243SOL    HW2 7629   1.700   0.178   4.458
 2244SOL     OW 7630   3.878   0.515   5.295
 2244SOL    HW1 7631   3.855   0.453   5.370
 2244SOL    HW2 7632   3.797   0.531   5.239
 2245SOL     OW 7633   0.593   2.628   2.504
 2245SOL    HW1 7634   0.575   2.710   2.451
 2245SOL    HW2 7635   0.686   2.631   2.540
 2246SOL     OW 7636   0.831   4.509   5.231
 2246SOL    HW1 7637   0.791   4.419   5.212
 2246SOL    HW2 7638   0.765   4.580   5.208
 2247SOL     OW 7639   1.946   1.348   4.289
 2247SOL    HW1 7640   1.895   1.420   4.336
 2247SOL    HW2 7641   1.946   1.265   4.344
 2248SOL     OW 7642   5.415   3.723   5.960
 2248SOL    HW1 7643   5.344   3.653   5.947
 2248SOL    HW2 7644   5.500   3.692   5.917
 2249SOL     OW 7645   5.227   5.656   5.047
 2249SOL    HW1 7646   5.246   5.747   5.083
 2249SOL    HW2 7647   5.254   5.651   4.951
 2250SOL     OW 7648   4.444   4.526   1.863
 2250SOL    HW1 7649   4.427   4.487   1.772
 2250SOL    HW2 7650   4.457   4.453   1.929
 2251SOL     OW 7651   0.101   0.921   5.490
 2251SOL    HW1 7652   0.174   0.928   5.421
 2251SOL    HW2 7653   0.038   0.997   5.479
 2252SOL     OW 7654   3.561   1.135   6.587
 2252SOL    HW1 7655   3.555   1.201   6.513
 2252SOL    HW2 7656   3.526   1.046   6.556
 2253SOL     OW 7657   0.786   3.935   0.519
 2253SOL    HW1 7658   0.739   3.933   0.607
 2253SOL    HW2 7659   0.766   4.022   0.473
 2254SOL     OW 7660   1.234   4.403   6.587
 2254SOL    HW1 7661   1.243   4.501   6.570
 2254SOL    HW2 7662   1.238   4.353   6.501
 2255SOL     OW 7663   6.792   3.765   6.600
 2255SOL    HW1 7664   6.852   3.745   6.523
 2255SOL    HW2 7665   6.739   3.683   6.623
 2256SOL     OW 7666   2.858   5.074   2.432
 2256SOL    HW1 7667   2.781   5.136   2.418
 2256SOL    HW2 7668   2.943   5.121   2.408
 2257SOL     OW 7669   1.276   4.482   5.135
 2257SOL    HW1 7670   1.203   4.459   5.071
 2257SOL    HW2 7671   1.269   4.424   5.216
 2258SOL     OW 7672   1.879   5.680   5.563
 2258SOL    HW1 7673   1.857   5.583   5.570
 2258SOL    HW2 7674   1.956   5.702   5.623
 2259SOL     OW 7675   5.940   1.905   6.159
 2259SOL    HW1 7676   5.910   1.826   6.212
 2259SOL    HW2 7677   5.861   1.962   6.136
 2260SOL     OW 7678   3.937   3.352   0.631
 2260SOL    HW1 7679   3.881   3.434   0.620
 2260SOL    HW2 7680   3.910   3.305   0.715
 2261SOL     OW 7681   2.584   6.636   5.098
 2261SOL    HW1 7682   2.536   6.713   5.140
 2261SOL    HW2 7683   2.555   6.550   5.140
 2262SOL     OW 7684   3.056   1.695   3.336
 2262SOL    HW1 7685   3.029   1.747   3.417
 2262SOL    HW2 7686   3.110   1.616   3.364
 2263SOL     OW 7687   0.958   4.348   5.414
 2263SOL    HW1 7688   0.981   4.380   5.507
 2263SOL    HW2 7689   0.948   4.426   5.354
 2264SOL     OW 7690   3.750   3.729   3.738
 2264SOL    HW1 7691   3.782   3.649   3.688
 2264SOL    HW2 7692   3.667   3.764   3.695
 2265SOL     OW 7693   0.727   6.713   4.506
 2265SOL    HW1 7694   0.759   6.785   4.445
 2265SOL    HW2 7695   0.794   6.639   4.509
 2266SOL     OW 7696   6.768   0.495   5.361
 2266SOL    HW1 7697   6.864   0.517   5.346
 2266SOL    HW2 7698   6.738   0.534   5.448
 2267SOL     OW 7699   5.538   1.783   5.005
 2267SOL    HW1 7700   5.519   1.857   5.070
 2267SOL    HW2 7701   5.558   1.821   4.915
 2268SOL     OW 7702   0.512   6.529   0.614
 2268SOL    HW1 7703   0.585   6.475   0.575
 2268SOL    HW2 7704   0.428   6.475   0.617
 2269SOL     OW 7705   0.257   6.310   2.859
 2269SOL    HW1 7706   0.192   6.340   2.790
 2269SOL    HW2 7707   0.215   6.240   2.917
 2270SOL     OW 7708   3.696   2.931   3.283
 2270SOL    HW1 7709   3.762   3.003   3.262
 2270SOL    HW2 7710   3.707   2.856   3.218
 2271SOL     OW 7711   2.042   4.149   2.535
 2271SOL    HW1 7712   2.011   4.214   2.604
 2271SOL    HW2 7713   2.005   4.174   2.446
 2272SOL     OW 7714   4.898   0.590   5.503
 2272SOL    HW1 7715   4.963   0.663   5.526
 2272SOL    HW2 7716   4.825   0.628   5.446
 2273SOL     OW 7717   0.476   1.416   2.416
 2273SOL    HW1 7718   0.437   1.433   2.507
 2273SOL    HW2 7719   0.402   1.406   2.350
 2274SOL     OW 7720   0.562   4.223   3.421
 2274SOL    HW1 7721   0.627   4.294   3.446
 2274SOL    HW2 7722   0.474   4.241   3.465
 2275SOL     OW 7723   4.734   6.572   3.032
 2275SOL    HW1 7724   4.759   6.563   2.936
 2275SOL    HW2 7725   4.659   6.509   3.054
 2276SOL     OW 7726   3.649   5.839   2.612
 2276SOL    HW1 7727   3.638   5.896   2.531
 2276SOL    HW2 7728   3.740   5.799   2.613
 2277SOL     OW 7729   3.129   3.437   2.148
 2277SOL    HW1 7730   3.039   3.467   2.116
 2277SOL    HW2 7731   3.163   3.364   2.089
 2278SOL     OW 7732   3.679   4.776   1.323
 2278SOL    HW1 7733   3.595   4.780   1.268
 2278SOL    HW2 7734   3.758   4.792   1.265
 2279SOL     OW 7735   5.976   3.789   5.437
 2279SOL    HW1 7736   6.050   3.733   5.473
 2279SOL    HW2 7737   6.005   3.884   5.433
 2280SOL     OW 7738   6.026   0.322   6.018
 2280SOL    HW1 7739   6.041   0.412   5.977
 2280SOL    HW2 7740   6.043   0.251   5.950
 2281SOL     OW 7741   2.607   0.653   0.770
 2281SOL    HW1 7742   2.705   0.637   0.768
 2281SOL    HW2 7743   2.562   0.594   0.703
 2282SOL     OW 7744   3.942   6.636   2.636
 2282SOL    HW1 7745   3.906   6.706   2.698
 2282SOL    HW2 7746   3.886   6.633   2.553
 2283SOL     OW 7747   0.685   3.329   1.440
 2283SOL    HW1 7748   0.689   3.363   1.534
 2283SOL    HW2 7749   0.756   3.261   1.425
 2284SOL     OW 7750   2.164   3.340   1.150
 2284SOL    HW1 7751   2.238   3.403   1.125
 2284SOL    HW2 7752   2.201   3.270   1.211
 2285SOL     OW 7753   2.097   2.356   6.974
 2285SOL    HW1 7754   2.012   2.392   7.012
 2285SOL    HW2 7755   2.136   2.289   0.008
 2286SOL     OW 7756   6.242   6.671   4.154
 2286SOL    HW1 7757   6.295   6.718   4.224
 2286SOL    HW2 7758   6.149   6.708   4.151
 2287SOL     OW 7759   2.537   1.367   0.601
 2287SOL    HW1 7760   2.492   1.456   0.610
 2287SOL    HW2 7761   2.489   1.300   0.657
 2288SOL     OW 7762   2.452   6.516   4.822
 2288SOL    HW1 7763   2.444   6.553   4.914
 2288SOL    HW2 7764   2.488   6.422   4.827
 2289SOL     OW 7765   3.469   6.794   6.646
 2289SOL    HW1 7766   3.405   6.839   6.584
 2289SOL    HW2 7767   3.561   6.796   6.607
 2290SOL     OW 7768   2.839   3.424   5.153
 2290SOL    HW1 7769   2.799   3.485   5.222
 2290SOL    HW2 7770   2.898   3.477   5.092
 2291SOL     OW 7771   2.957   1.786   0.458
 2291SOL    HW1 7772   3.040   1.754   0.504
 2291SOL    HW2 7773   2.952   1.746   0.367
 2292SOL     OW 7774   5.537   2.444   3.356
 2292SOL    HW1 7775   5.508   2.446   3.452
 2292SOL    HW2 7776   5.456   2.455   3.297
 2293SOL     OW 7777   0.529   0.790   0.262
 2293SOL    HW1 7778   0.485   0.872   0.298
 2293SOL    HW2 7779   0.607   0.766   0.320
 2294SOL     OW 7780   6.574   2.411   5.242
 2294SOL    HW1 7781   6.506   2.427   5.170
 2294SOL    HW2 7782   6.642   2.485   5.240
 2295SOL     OW 7783   5.670   5.969   0.517
 2295SOL    HW1 7784   5.702   6.016   0.599
 2295SOL    HW2 7785   5.592   6.018   0.479
 2296SOL     OW 7786   3.955   5.571   4.009
 2296SOL    HW1 7787   4.039   5.518   4.015
 2296SOL    HW2 7788   3.946   5.629   4.090
 2297SOL     OW 7789   6.255   2.786   6.810
 2297SOL    HW1 7790   6.339   2.838   6.792
 2297SOL    HW2 7791   6.227   2.739   6.727
 2298SOL     OW 7792   2.674   3.977   5.297
 2298SOL    HW1 7793   2.595   3.957   5.240
 2298SOL    HW2 7794   2.658   4.062   5.348
 2299SOL     OW 7795   6.017   3.475   4.468
 2299SOL    HW1 7796   6.104   3.504   4.508
 2299SOL    HW2 7797   5.950   3.549   4.478
 2300SOL     OW 7798   4.709   0.087   2.937
 2300SOL    HW1 7799   4.652   0.031   2.877
 2300SOL    HW2 7800   4.744   0.030   3.012
 2301SOL     OW 7801   4.096   3.105   5.436
 2301SOL    HW1 7802   4.052   3.181   5.387
 2301SOL    HW2 7803   4.187   3.131   5.465
 2302SOL     OW 7804   0.297   3.275   5.768
 2302SOL    HW1 7805   0.355   3.274   5.687
 2302SOL    HW2 7806   0.222   3.211   5.756
 2303SOL     OW 7807   3.036   1.513   6.038
 2303SOL    HW1 7808   3.021   1.533   6.134
 2303SOL    HW2 7809   3.088   1.428   6.029
 2304SOL     OW 7810   4.667   6.565   2.418
 2304SOL    HW1 7811   4.611   6.609   2.488
 2304SOL    HW2 7812   4.621   6.483   2.385
 2305SOL     OW 7813   3.004   6.174   5.120
 2305SOL    HW1 7814   2.962   6.144   5.034
 2305SOL    HW2 7815   2.961   6.127   5.197
 2306SOL     OW 7816   1.050   4.749   4.928
 2306SOL    HW1 7817   0.982   4.722   4.860
 2306SOL    HW2 7818   1.141   4.750   4.887
 2307SOL     OW 7819   6.190   3.794   4.921
 2307SOL    HW1 7820   6.157   3.700   4.911
 2307SOL    HW2 7821   6.125   3.857   4.877
 2308SOL     OW 7822   1.077   5.791   2.136
 2308SOL    HW1 7823   1.117   5.835   2.055
 2308SOL    HW2 7824   1.011   5.722   2.107
 2309SOL     OW 7825   1.623   0.956   4.693
 2309SOL    HW1 7826   1.593   1.046   4.662
 2309SOL    HW2 7827   1.667   0.965   4.783
 2310SOL     OW 7828   5.347   6.289   0.212
 2310SOL    HW1 7829   5.386   6.208   0.255
 2310SOL    HW2 7830   5.248   6.288   0.222
 2311SOL     OW 7831   2.771   5.922   0.856
 2311SOL    HW1 7832   2.681   5.918   0.898
 2311SOL    HW2 7833   2.828   5.988   0.906
 2312SOL     OW 7834   2.821   4.806   2.710
 2312SOL    HW1 7835   2.874   4.784   2.628
 2312SOL    HW2 7836   2.843   4.900   2.740
 2313SOL     OW 7837   4.625   4.976   0.973
 2313SOL    HW1 7838   4.719   5.008   0.959
 2313SOL    HW2 7839   4.612   4.888   0.926
 2314SOL     OW 7840   2.424   4.522   2.885
 2314SOL    HW1 7841   2.326   4.544   2.883
 2314SOL    HW2 7842   2.471   4.572   2.812
 2315SOL     OW 7843   4.111   1.753   6.631
 2315SOL    HW1 7844   4.054   1.672   6.619
 2315SOL    HW2 7845   4.131   1.766   6.728
 2316SOL     OW 7846   5.304   3.542   1.333
 2316SOL    HW1 7847   5.345   3.453   1.349
 2316SOL    HW2 7848   5.205   3.537   1.350
 2317SOL     OW 7849   0.504   6.217   3.821
 2317SOL    HW1 7850   0.413   6.204   3.861
 2317SOL    HW2 7851   0.507   6.171   3.732
 2318SOL     OW 7852   6.750   1.776   3.735
 2318SOL    HW1 7853   6.754   1.741   3.829
 2318SOL    HW2 7854   6.843   1.785   3.699
 2319SOL     OW 7855   1.018   5.025   2.541
 2319SOL    HW1 7856   0.988   4.936   2.575
 2319SOL    HW2 7857   1.046   5.082   2.618
 2320SOL     OW 7858   6.223   4.525   4.192
 2320SOL    HW1 7859   6.299   4.472   4.229
 2320SOL    HW2 7860   6.259   4.605   4.144
 2321SOL     OW 7861   3.616   4.984   3.939
 2321SOL    HW1 7862   3.534   4.957   3.991
 2321SOL    HW2 7863   3.680   4.907   3.938
 2322SOL     OW 7864   2.102   1.299   4.649
 2322SOL    HW1 7865   2.162   1.256   4.715
 2322SOL    HW2 7866   2.116   1.398   4.650
 2323SOL     OW 7867   5.308   3.380   1.969
 2323SOL    HW1 7868   5.218   3.411   2.001
 2323SOL    HW2 7869   5.329   3.424   1.882
 2324SOL     OW 7870   0.028   5.273   4.091
 2324SOL    HW1 7871   6.993   5.258   4.166
 2324SOL    HW2 7872   7.015   5.333   4.023
 2325SOL     OW 7873   6.120   2.111   0.580
 2325SOL    HW1 7874   6.120   2.031   0.519
 2325SOL    HW2 7875   6.197   2.103   0.645
 2326SOL     OW 7876   0.718   5.247   0.538
 2326SOL    HW1 7877   0.684   5.340   0.523
 2326SOL    HW2 7878   0.692   5.217   0.630
 2327SOL     OW 7879   4.686   1.350   3.119
 2327SOL    HW1 7880   4.705   1.350   3.021
 2327SOL    HW2 7881   4.677   1.256   3.151
 2328SOL     OW 7882   6.110   4.989   3.915
 2328SOL    HW1 7883   6.206   4.998   3.887
 2328SOL    HW2 7884   6.051   5.007   3.836
 2329SOL     OW 7885   1.298   6.440   3.356
 2329SOL    HW1 7886   1.217   6.469   3.406
 2329SOL    HW2 7887   1.321   6.509   3.287
 2330SOL     OW 7888   1.180   4.521   0.296
 2330SOL    HW1 7889   1.258   4.495   0.353
 2330SOL    HW2 7890   1.204   4.507   0.200
 2331SOL     OW 7891   1.743   5.046   5.154
 2331SOL    HW1 7892   1.820   5.092   5.111
 2331SOL    HW2 7893   1.715   4.967   5.099
 2332SOL     OW 7894   6.417   3.343   6.241
 2332SOL    HW1 7895   6.360   3.403   6.298
 2332SOL    HW2 7896   6.492   3.396   6.201
 2333SOL     OW 7897   2.645   4.997   4.008
 2333SOL    HW1 7898   2.734   5.042   3.998
 2333SOL    HW2 7899   2.609   4.974   3.918
 2334SOL     OW 7900   2.762   6.863   5.454
 2334SOL    HW1 7901   2.829   6.796   5.485
 2334SOL    HW2 7902   2.690   6.873   5.522
 2335SOL     OW 7903   4.595   4.378   4.336
 2335SOL    HW1 7904   4.616   4.361   4.432
 2335SOL    HW2 7905   4.560   4.472   4.326
 2336SOL     OW 7906   4.410   1.682   5.866
 2336SOL    HW1 7907   4.367   1.626   5.936
 2336SOL    HW2 7908   4.410   1.632   5.779
 2337SOL     OW 7909   5.786   0.439   4.859
 2337SOL    HW1 7910   5.740   0.411   4.775
 2337SOL    HW2 7911   5.757   0.531   4.884
 2338SOL     OW 7912   1.206   6.751   6.930
 2338SOL    HW1 7913   1.163   6.811   6.863
 2338SOL    HW2 7914   1.202   6.792   7.020
 2339SOL     OW 7915   3.877   4.880   6.570
 2339SOL    HW1 7916   3.946   4.950   6.554
 2339SOL    HW2 7917   3.786   4.920   6.558
 2340SOL     OW 7918   4.365   5.140   3.846
 2340SOL    HW1 7919   4.287   5.198   3.868
 2340SOL    HW2 7920   4.334   5.060   3.795
 2341SOL     OW 7921   0.142   4.565   6.229
 2341SOL    HW1 7922   0.072   4.628   6.197
 2341SOL    HW2 7923   0.231   4.590   6.191
 2342SOL     OW 7924   6.210   1.445   5.591
 2342SOL    HW1 7925   6.142   1.372   5.581
 2342SOL    HW2 7926   6.301   1.408   5.576
 2343SOL     OW 7927   1.416   5.982   0.908
 2343SOL    HW1 7928   1.345   5.955   0.974
 2343SOL    HW2 7929   1.417   5.916   0.833
 2344SOL     OW 7930   2.524   0.944   2.607
 2344SOL    HW1 7931   2.475   1.017   2.560
 2344SOL    HW2 7932   2.512   0.858   2.557
 2345SOL     OW 7933   1.443   2.233   2.464
 2345SOL    HW1 7934   1.534   2.200   2.489
 2345SOL    HW2 7935   1.397   2.269   2.546
 2346SOL     OW 7936   4.922   3.357   5.137
 2346SOL    HW1 7937   4.868   3.441   5.138
 2346SOL    HW2 7938   4.939   3.329   5.042
 2347SOL     OW 7939   1.288   4.180   0.699
 2347SOL    HW1 7940   1.288   4.084   0.668
 2347SOL    HW2 7941   1.202   4.200   0.745
 2348SOL     OW 7942   2.713   0.314   1.289
 2348SOL    HW1 7943   2.749   0.233   1.336
 2348SOL    HW2 7944   2.760   0.395   1.324
 2349SOL     OW 7945   5.302   3.015   6.551
 2349SOL    HW1 7946   5.250   3.030   6.467
 2349SOL    HW2 7947   5.242   2.983   6.623
 2350SOL     OW 7948   1.563   6.196   5.342
 2350SOL    HW1 7949   1.469   6.195   5.377
 2350SOL    HW2 7950   1.575   6.120   5.278
 2351SOL     OW 7951   1.575   5.077   3.188
 2351SOL    HW1 7952   1.522   5.093   3.271
 2351SOL    HW2 7953   1.533   5.127   3.112
 2352SOL     OW 7954   5.892   5.707   6.716
 2352SOL    HW1 7955   5.919   5.803   6.727
 2352SOL    HW2 7956   5.968   5.648   6.742
 2353SOL     OW 7957   3.124   2.603   6.140
 2353SOL    HW1 7958   3.198   2.621   6.074
 2353SOL    HW2 7959   3.079   2.517   6.116
 2354SOL     OW 7960   3.740   1.440   2.299
 2354SOL    HW1 7961   3.656   1.473   2.256
 2354SOL    HW2 7962   3.815   1.441   2.233
 2355SOL     OW 7963   0.143   1.234   1.988
 2355SOL    HW1 7964   0.202   1.300   1.941
 2355SOL    HW2 7965   0.163   1.142   1.955
 2356SOL     OW 7966   3.856   5.144   4.144
 2356SOL    HW1 7967   3.941   5.140   4.092
 2356SOL    HW2 7968   3.831   5.051   4.173
 2357SOL     OW 7969   1.386   5.368   1.593
 2357SOL    HW1 7970   1.300   5.383   1.545
 2357SOL    HW2 7971   1.442   5.451   1.587
 2358SOL     OW 7972   2.323   0.293   5.513
 2358SOL    HW1 7973   2.260   0.354   5.561
 2358SOL    HW2 7974   2.417   0.325   5.527
 2359SOL     OW 7975   2.731   2.244   6.199
 2359SOL    HW1 7976   2.721   2.290   6.111
 2359SOL    HW2 7977   2.823   2.257   6.234
 2360SOL     OW 7978   3.023   5.104   0.707
 2360SOL    HW1 7979   2.933   5.066   0.729
 2360SOL    HW2 7980   3.032   5.112   0.607
 2361SOL     OW 7981   3.285   5.121   1.305
 2361SOL    HW1 7982   3.304   5.023   1.309
 2361SOL    HW2 7983   3.353   5.171   1.358
 2362SOL     OW 7984   2.847   4.841   4.551
 2362SOL    HW1 7985   2.821   4.847   4.647
 2362SOL    HW2 7986   2.772   4.801   4.498
 2363SOL     OW 7987   2.261   4.252   1.043
 2363SOL    HW1 7988   2.306   4.335   1.077
 2363SOL    HW2 7989   2.211   4.208   1.117
 2364SOL     OW 7990   4.809   0.747   2.083
 2364SOL    HW1 7991   4.821   0.830   2.028
 2364SOL    HW2 7992   4.770   0.675   2.025
 2365SOL     OW 7993   5.592   4.599   3.107
 2365SOL    HW1 7994   5.628   4.534   3.040
 2365SOL    HW2 7995   5.656   4.607   3.184
 2366SOL     OW 7996   3.329   4.836   5.382
 2366SOL    HW1 7997   3.414   4.823   5.331
 2366SOL    HW2 7998   3.256   4.782   5.341
 2367SOL     OW 7999   6.143   5.391   5.308
 2367SOL    HW1 8000   6.177   5.305   5.347
 2367SOL    HW2 8001   6.143   5.384   5.208
 2368SOL     OW 8002   5.139   0.027   4.926
 2368SOL    HW1 8003   5.210   6.987   4.937
 2368SOL    HW2 8004   5.139   0.089   5.004
 2369SOL     OW 8005   3.971   1.623   4.543
 2369SOL    HW1 8006   4.034   1.697   4.521
 2369SOL    HW2 8007   3.950   1.572   4.459
 2370SOL     OW 8008   4.380   2.026   1.523
 2370SOL    HW1 8009   4.373   1.989   1.430
 2370SOL    HW2 8010   4.341   1.959   1.587
 2371SOL     OW 8011   2.364   6.661   2.258
 2371SOL    HW1 8012   2.361   6.561   2.267
 2371SOL    HW2 8013   2.277   6.693   2.222
 2372SOL     OW 8014   6.684   6.957   5.379
 2372SOL    HW1 8015   6.673   6.860   5.360
 2372SOL    HW2 8016   6.710   7.005   5.295
 2373SOL     OW 8017   6.281   4.141   6.036
 2373SOL    HW1 8018   6.378   4.159   6.050
 2373SOL    HW2 8019   6.261   4.045   6.056
 2374SOL     OW 8020   7.007   6.065   2.197
 2374SOL    HW1 8021   0.071   6.031   2.182
 2374SOL    HW2 8022   7.011   6.154   2.243
 2375SOL     OW 8023   1.452   0.501   4.137
 2375SOL    HW1 8024   1.496   0.524   4.050
 2375SOL    HW2 8025   1.452   0.582   4.196
 2376SOL     OW 8026   5.292   3.204   3.880
 2376SOL    HW1 8027   5.269   3.139   3.808
 2376SOL    HW2 8028   5.391   3.217   3.883
 2377SOL     OW 8029   3.532   4.147   5.892
 2377SOL    HW1 8030   3.463   4.081   5.922
 2377SOL    HW2 8031   3.488   4.231   5.861
 2378SOL     OW 8032   1.053   1.005   0.788
 2378SOL    HW1 8033   1.067   1.008   0.887
 2378SOL    HW2 8034   0.997   1.082   0.760
 2379SOL     OW 8035   0.783   4.740   2.417
 2379SOL    HW1 8036   0.840   4.720   2.338
 2379SOL    HW2 8037   0.840   4.749   2.498
 2380SOL     OW 8038   4.115   5.327   6.756
 2380SOL    HW1 8039   4.074   5.350   6.667
 2380SOL    HW2 8040   4.195   5.269   6.741
 2381SOL     OW 8041   2.115   3.803   3.815
 2381SOL    HW1 8042   2.125   3.878   3.881
 2381SOL    HW2 8043   2.042   3.825   3.750
 2382SOL     OW 8044   6.505   6.087   2.598
 2382SOL    HW1 8045   6.501   6.060   2.502
 2382SOL    HW2 8046   6.517   6.006   2.656
 2383SOL     OW 8047   5.025   4.349   5.922
 2383SOL    HW1 8048   4.978   4.391   6.000
 2383SOL    HW2 8049   5.075   4.420   5.872
 2384SOL     OW 8050   0.678   2.450   3.202
 2384SOL    HW1 8051   0.674   2.457   3.103
 2384SOL    HW2 8052   0.708   2.358   3.228
 2385SOL     OW 8053   0.460   1.111   0.690
 2385SOL    HW1 8054   0.371   1.134   0.731
 2385SOL    HW2 8055   0.531   1.118   0.760
 2386SOL     OW 8056   6.941   5.046   5.462
 2386SOL    HW1 8057   6.883   4.969   5.436
 2386SOL    HW2 8058   0.006   5.030   5.432
 2387SOL     OW 8059   6.973   0.286   3.555
 2387SOL    HW1 8060   0.000   0.293   3.473
 2387SOL    HW2 8061   6.903   0.358   3.555
 2388SOL     OW 8062   1.474   4.128   4.344
 2388SOL    HW1 8063   1.556   4.106   4.397
 2388SOL    HW2 8064   1.393   4.092   4.391
 2389SOL     OW 8065   3.768   6.735   3.020
 2389SOL    HW1 8066   3.808   6.752   2.930
 2389SOL    HW2 8067   3.725   6.645   3.021
 2390SOL     OW 8068   5.111   2.485   5.606
 2390SOL    HW1 8069   5.097   2.420   5.681
 2390SOL    HW2 8070   5.136   2.574   5.644
 2391SOL     OW 8071   2.689   3.832   6.274
 2391SOL    HW1 8072   2.622   3.856   6.344
 2391SOL    HW2 8073   2.775   3.807   6.317
 2392SOL     OW 8074   3.761   5.266   5.991
 2392SOL    HW1 8075   3.756   5.348   6.048
 2392SOL    HW2 8076   3.817   5.285   5.910
 2393SOL     OW 8077   4.135   4.215   0.104
 2393SOL    HW1 8078   4.132   4.315   0.101
 2393SOL    HW2 8079   4.225   4.183   0.077
 2394SOL     OW 8080   6.771   2.531   3.327
 2394SOL    HW1 8081   6.708   2.488   3.391
 2394SOL    HW2 8082   6.724   2.549   3.240
 2395SOL     OW 8083   1.582   2.559   3.817
 2395SOL    HW1 8084   1.676   2.544   3.788
 2395SOL    HW2 8085   1.521   2.550   3.737
 2396SOL     OW 8086   7.027   0.102   6.362
 2396SOL    HW1 8087   0.012   0.101   6.263
 2396SOL    HW2 8088   0.081   0.133   6.407
 2397SOL     OW 8089   2.228   4.948   5.995
 2397SOL    HW1 8090   2.281   4.869   5.962
 2397SOL    HW2 8091   2.207   4.936   6.092
 2398SOL     OW 8092   3.971   6.166   4.553
 2398SOL    HW1 8093   4.017   6.096   4.497
 2398SOL    HW2 8094   3.981   6.255   4.508
 2399SOL     OW 8095   2.993   1.437   2.212
 2399SOL    HW1 8096   2.913   1.443   2.153
 2399SOL    HW2 8097   3.046   1.356   2.188
 2400SOL     OW 8098   0.886   2.502   0.394
 2400SOL    HW1 8099   0.810   2.437   0.385
 2400SOL    HW2 8100   0.863   2.570   0.463
 2401SOL     OW 8101   1.447   6.485   0.432
 2401SOL    HW1 8102   1.440   6.525   0.524
 2401SOL    HW2 8103   1.500   6.400   0.436
 2402SOL     OW 8104   0.706   3.872   2.636
 2402SOL    HW1 8105   0.744   3.935   2.568
 2402SOL    HW2 8106   0.615   3.902   2.662
 2403SOL     OW 8107   3.038   4.244   5.273
 2403SOL    HW1 8108   3.018   4.338   5.247
 2403SOL    HW2 8109   3.042   4.186   5.192
 2404SOL     OW 8110   6.223   1.800   2.025
 2404SOL    HW1 8111   6.313   1.820   2.064
 2404SOL    HW2 8112   6.232   1.784   1.927
 2405SOL     OW 8113   1.610   2.941   0.805
 2405SOL    HW1 8114   1.524   2.982   0.776
 2405SOL    HW2 8115   1.642   2.877   0.736
 2406SOL     OW 8116   4.370   5.566   4.433
 2406SOL    HW1 8117   4.364   5.468   4.414
 2406SOL    HW2 8118   4.463   5.598   4.418
 2407SOL     OW 8119   2.055   1.743   3.926
 2407SOL    HW1 8120   2.036   1.826   3.874
 2407SOL    HW2 8121   2.136   1.697   3.887
 2408SOL     OW 8122   4.272   0.301   5.669
 2408SOL    HW1 8123   4.346   0.368   5.668
 2408SOL    HW2 8124   4.186   0.345   5.645
 2409SOL     OW 8125   0.831   2.897   6.754
 2409SOL    HW1 8126   0.921   2.861   6.776
 2409SOL    HW2 8127   0.836   2.950   6.669
 2410SOL     OW 8128   6.804   3.722   4.221
 2410SOL    HW1 8129   6.864   3.730   4.301
 2410SOL    HW2 8130   6.834   3.645   4.165
 2411SOL     OW 8131   3.360   1.166   0.119
 2411SOL    HW1 8132   3.295   1.163   0.196
 2411SOL    HW2 8133   3.444   1.211   0.148
 2412SOL     OW 8134   2.884   2.232   6.748
 2412SOL    HW1 8135   2.850   2.296   6.679
 2412SOL    HW2 8136   2.875   2.272   6.839
 2413SOL     OW 8137   6.860   4.000   6.752
 2413SOL    HW1 8138   6.811   3.937   6.692
 2413SOL    HW2 8139   6.840   3.977   6.847
 2414SOL     OW 8140   6.561   1.581   4.688
 2414SOL    HW1 8141   6.612   1.663   4.712
 2414SOL    HW2 8142   6.464   1.604   4.677
 2415SOL     OW 8143   3.037   3.993   6.262
 2415SOL    HW1 8144   3.011   4.084   6.291
 2415SOL    HW2 8145   2.969   3.957   6.198
 2416SOL     OW 8146   0.049   3.392   4.313
 2416SOL    HW1 8147   0.040   3.297   4.344
 2416SOL    HW2 8148   0.142   3.409   4.283
 2417SOL     OW 8149   3.659   2.528   1.671
 2417SOL    HW1 8150   3.743   2.581   1.685
 2417SOL    HW2 8151   3.658   2.449   1.732
 2418SOL     OW 8152   5.891   3.921   6.319
 2418SOL    HW1 8153   5.935   3.986   6.381
 2418SOL    HW2 8154   5.822   3.868   6.369
 2419SOL     OW 8155   3.504   0.900   2.722
 2419SOL    HW1 8156   3.525   0.861   2.633
 2419SOL    HW2 8157   3.586   0.942   2.761
 2420SOL     OW 8158   1.263   3.583   2.365
 2420SOL    HW1 8159   1.189   3.648   2.353
 2420SOL    HW2 8160   1.273   3.528   2.282
 2421SOL     OW 8161   2.492   0.031   2.714
 2421SOL    HW1 8162   2.430   6.982   2.701
 2421SOL    HW2 8163   2.532   0.027   2.805
 2422SOL     OW 8164   3.873   6.531   0.317
 2422SOL    HW1 8165   3.839   6.603   0.378
 2422SOL    HW2 8166   3.796   6.490   0.269
 2423SOL     OW 8167   3.654   4.934   4.768
 2423SOL    HW1 8168   3.573   4.916   4.823
 2423SOL    HW2 8169   3.650   4.879   4.684
 2424SOL     OW 8170   5.483   6.929   6.118
 2424SOL    HW1 8171   5.389   6.895   6.122
 2424SOL    HW2 8172   5.543   6.865   6.167
 2425SOL     OW 8173   4.010   5.532   5.287
 2425SOL    HW1 8174   4.040   5.481   5.206
 2425SOL    HW2 8175   3.940   5.479   5.335
 2426SOL     OW 8176   3.130   2.339   5.411
 2426SOL    HW1 8177   3.033   2.324   5.391
 2426SOL    HW2 8178   3.178   2.363   5.327
 2427SOL     OW 8179   3.979   2.108   0.355
 2427SOL    HW1 8180   3.986   2.121   0.454
 2427SOL    HW2 8181   4.038   2.173   0.308
 2428SOL     OW 8182   1.847   1.989   2.671
 2428SOL    HW1 8183   1.881   2.036   2.752
 2428SOL    HW2 8184   1.903   2.014   2.592
 2429SOL     OW 8185   5.267   5.896   1.071
 2429SOL    HW1 8186   5.278   5.984   1.118
 2429SOL    HW2 8187   5.329   5.829   1.111
 2430SOL     OW 8188   6.851   0.208   6.961
 2430SOL    HW1 8189   6.933   0.222   6.906
 2430SOL    HW2 8190   6.801   0.294   6.968
 2431SOL     OW 8191   1.872   3.369   1.902
 2431SOL    HW1 8192   1.775   3.371   1.925
 2431SOL    HW2 8193   1.917   3.295   1.951
 2432SOL     OW 8194   3.006   5.856   2.179
 2432SOL    HW1 8195   3.009   5.776   2.238
 2432SOL    HW2 8196   2.911   5.877   2.156
 2433SOL     OW 8197   6.878   4.573   4.063
 2433SOL    HW1 8198   6.894   4.649   4.001
 2433SOL    HW2 8199   6.782   4.547   4.061
 2434SOL     OW 8200   4.015   1.768   2.913
 2434SOL    HW1 8201   4.085   1.806   2.853
 2434SOL    HW2 8202   3.950   1.715   2.858
 2435SOL     OW 8203   5.962   6.976   6.430
 2435SOL    HW1 8204   6.035   7.011   6.371
 2435SOL    HW2 8205   5.999   6.948   6.518
 2436SOL     OW 8206   0.078   2.823   0.922
 2436SOL    HW1 8207   0.131   2.847   0.840
 2436SOL    HW2 8208   0.075   2.724   0.933
 2437SOL     OW 8209   1.093   4.243   1.395
 2437SOL    HW1 8210   1.077   4.186   1.475
 2437SOL    HW2 8211   1.006   4.271   1.355
 2438SOL     OW 8212   3.653   1.642   4.598
 2438SOL    HW1 8213   3.576   1.594   4.554
 2438SOL    HW2 8214   3.735   1.586   4.590
 2439SOL     OW 8215   0.065   5.943   0.416
 2439SOL    HW1 8216   0.033   6.034   0.442
 2439SOL    HW2 8217   0.139   5.951   0.349
 2440SOL     OW 8218   5.680   2.122   5.355
 2440SOL    HW1 8219   5.652   2.181   5.431
 2440SOL    HW2 8220   5.780   2.111   5.356
 2441SOL     OW 8221   6.072   1.070   6.910
 2441SOL    HW1 8222   6.136   1.065   6.834
 2441SOL    HW2 8223   5.986   1.112   6.879
 2442SOL     OW 8224   5.167   2.921   2.771
 2442SOL    HW1 8225   5.203   2.968   2.690
 2442SOL    HW2 8226   5.067   2.915   2.764
 2443SOL     OW 8227   0.213   2.939   1.391
 2443SOL    HW1 8228   0.170   2.893   1.313
 2443SOL    HW2 8229   0.311   2.949   1.374
 2444SOL     OW 8230   3.649   4.904   2.800
 2444SOL    HW1 8231   3.680   4.906   2.896
 2444SOL    HW2 8232   3.556   4.869   2.796
 2445SOL     OW 8233   0.683   1.701   0.845
 2445SOL    HW1 8234   0.687   1.795   0.811
 2445SOL    HW2 8235   0.614   1.650   0.794
 2446SOL     OW 8236   6.553   5.926   1.362
 2446SOL    HW1 8237   6.465   5.880   1.372
 2446SOL    HW2 8238   6.551   5.987   1.283
 2447SOL     OW 8239   1.864   6.753   0.602
 2447SOL    HW1 8240   1.793   6.718   0.663
 2447SOL    HW2 8241   1.890   6.845   0.630
 2448SOL     OW 8242   5.710   1.059   4.266
 2448SOL    HW1 8243   5.633   1.104   4.311
 2448SOL    HW2 8244   5.743   0.985   4.324
 2449SOL     OW 8245   2.163   4.148   1.270
 2449SOL    HW1 8246   2.071   4.187   1.263
 2449SOL    HW2 8247   2.188   4.139   1.366
 2450SOL     OW 8248   0.601   6.675   5.086
 2450SOL    HW1 8249   0.533   6.731   5.132
 2450SOL    HW2 8250   0.693   6.705   5.112
 2451SOL     OW 8251   1.404   6.961   6.766
 2451SOL    HW1 8252   1.310   6.929   6.752
 2451SOL    HW2 8253   1.467   6.884   6.754
 2452SOL     OW 8254   2.482   1.889   3.765
 2452SOL    HW1 8255   2.483   1.984   3.736
 2452SOL    HW2 8256   2.467   1.884   3.863
 2453SOL     OW 8257   1.507   1.627   6.153
 2453SOL    HW1 8258   1.491   1.571   6.071
 2453SOL    HW2 8259   1.487   1.723   6.132
 2454SOL     OW 8260   2.825   6.422   0.341
 2454SOL    HW1 8261   2.858   6.348   0.282
 2454SOL    HW2 8262   2.899   6.455   0.399
 2455SOL     OW 8263   4.651   2.499   0.105
 2455SOL    HW1 8264   4.585   2.570   0.126
 2455SOL    HW2 8265   4.708   2.528   0.028
 2456SOL     OW 8266   0.644   3.475   6.012
 2456SOL    HW1 8267   0.724   3.479   5.952
 2456SOL    HW2 8268   0.564   3.510   5.963
 2457SOL     OW 8269   4.921   1.306   6.141
 2457SOL    HW1 8270   4.990   1.253   6.091
 2457SOL    HW2 8271   4.876   1.369   6.078
 2458SOL     OW 8272   1.075   0.091   2.170
 2458SOL    HW1 8273   0.983   0.092   2.210
 2458SOL    HW2 8274   1.068   0.069   2.072
 2459SOL     OW 8275   1.783   6.626   1.238
 2459SOL    HW1 8276   1.745   6.567   1.166
 2459SOL    HW2 8277   1.817   6.568   1.312
 2460SOL     OW 8278   0.287   0.267   3.835
 2460SOL    HW1 8279   0.326   0.348   3.879
 2460SOL    HW2 8280   0.188   0.267   3.846
 2461SOL     OW 8281   3.444   1.354   3.242
 2461SOL    HW1 8282   3.482   1.310   3.324
 2461SOL    HW2 8283   3.491   1.320   3.161
 2462SOL     OW 8284   0.273   6.418   0.783
 2462SOL    HW1 8285   0.341   6.367   0.836
 2462SOL    HW2 8286   0.274   6.514   0.812
 2463SOL     OW 8287   6.920   0.058   1.056
 2463SOL    HW1 8288   6.849   0.089   1.119
 2463SOL    HW2 8289   7.002   0.112   1.069
 2464SOL     OW 8290   1.073   2.651   4.973
 2464SOL    HW1 8291   1.057   2.638   5.071
 2464SOL    HW2 8292   1.007   2.717   4.937
 2465SOL     OW 8293   6.185   1.393   6.796
 2465SOL    HW1 8294   6.204   1.384   6.894
 2465SOL    HW2 8295   6.208   1.307   6.751
 2466SOL     OW 8296   0.813   2.403   1.194
 2466SOL    HW1 8297   0.755   2.453   1.129
 2466SOL    HW2 8298   0.755   2.346   1.253
 2467SOL     OW 8299   5.046   2.691   5.182
 2467SOL    HW1 8300   5.062   2.748   5.102
 2467SOL    HW2 8301   5.051   2.595   5.156
 2468SOL     OW 8302   3.199   0.194   5.127
 2468SOL    HW1 8303   3.179   0.275   5.072
 2468SOL    HW2 8304   3.214   0.115   5.066
 2469SOL     OW 8305   3.028   1.699   5.851
 2469SOL    HW1 8306   3.113   1.720   5.802
 2469SOL    HW2 8307   3.045   1.628   5.918
 2470SOL     OW 8308   2.107   5.796   6.367
 2470SOL    HW1 8309   2.077   5.837   6.281
 2470SOL    HW2 8310   2.042   5.726   6.396
 2471SOL     OW 8311   3.102   5.950   3.074
 2471SOL    HW1 8312   3.014   5.953   3.027
 2471SOL    HW2 8313   3.144   5.860   3.061
 2472SOL     OW 8314   4.967   1.638   2.556
 2472SOL    HW1 8315   4.910   1.622   2.475
 2472SOL    HW2 8316   5.003   1.731   2.553
 2473SOL     OW 8317   0.547   4.344   4.369
 2473SOL    HW1 8318   0.595   4.390   4.444
 2473SOL    HW2 8319   0.588   4.254   4.354
 2474SOL     OW 8320   1.603   6.360   0.689
 2474SOL    HW1 8321   1.637   6.297   0.758
 2474SOL    HW2 8322   1.600   6.314   0.600
 2475SOL     OW 8323   5.330   2.376   0.697
 2475SOL    HW1 8324   5.244   2.401   0.652
 2475SOL    HW2 8325   5.349   2.279   0.681
 2476SOL     OW 8326   4.603   6.873   0.574
 2476SOL    HW1 8327   4.565   6.850   0.663
 2476SOL    HW2 8328   4.679   6.936   0.585
 2477SOL     OW 8329   3.887   0.444   3.528
 2477SOL    HW1 8330   3.942   0.461   3.610
 2477SOL    HW2 8331   3.866   0.531   3.484
 2478SOL     OW 8332   3.679   0.405   4.365
 2478SOL    HW1 8333   3.617   0.328   4.379
 2478SOL    HW2 8334   3.626   0.490   4.363
 2479SOL     OW 8335   5.011   3.685   1.285
 2479SOL    HW1 8336   5.066   3.671   1.203
 2479SOL    HW2 8337   5.014   3.782   1.311
 2480SOL     OW 8338   3.396   2.459   1.648
 2480SOL    HW1 8339   3.374   2.553   1.673
 2480SOL    HW2 8340   3.494   2.443   1.662
 2481SOL     OW 8341   3.286   0.148   1.536
 2481SOL    HW1 8342   3.354   0.194   1.592
 2481SOL    HW2 8343   3.266   0.058   1.575
 2482SOL     OW 8344   6.902   3.190   0.125
 2482SOL    HW1 8345   6.952   3.160   0.044
 2482SOL    HW2 8346   6.939   3.277   0.158
 2483SOL     OW 8347   2.692   2.354   1.019
 2483SOL    HW1 8348   2.610   2.297   1.012
 2483SOL    HW2 8349   2.725   2.377   0.927
 2484SOL     OW 8350   4.302   0.328   6.700
 2484SOL    HW1 8351   4.238   0.395   6.738
 2484SOL    HW2 8352   4.394   0.346   6.735
 2485SOL     OW 8353   0.226   1.769   6.130
 2485SOL    HW1 8354   0.217   1.688   6.072
 2485SOL    HW2 8355   0.233   1.741   6.226
 2486SOL     OW 8356   0.035   5.438   3.483
 2486SOL    HW1 8357   7.019   5.470   3.400
 2486SOL    HW2 8358   0.094   5.360   3.462
 2487SOL     OW 8359   4.573   6.131   0.238
 2487SOL    HW1 8360   4.512   6.176   0.172
 2487SOL    HW2 8361   4.587   6.036   0.209
 2488SOL     OW 8362   0.155   4.092   0.749
 2488SOL    HW1 8363   0.091   4.034   0.799
 2488SOL    HW2 8364   0.105   4.166   0.704
 2489SOL     OW 8365   6.299   4.965   4.462
 2489SOL    HW1 8366   6.332   4.989   4.553
 2489SOL    HW2 8367   6.222   4.902   4.469
 2490SOL     OW 8368   2.433   5.548   1.934
 2490SOL    HW1 8369   2.351   5.514   1.981
 2490SOL    HW2 8370   2.456   5.638   1.969
 2491SOL     OW 8371   3.848   4.584   1.612
 2491SOL    HW1 8372   3.937   4.584   1.658
 2491SOL    HW2 8373   3.858   4.539   1.523
 2492SOL     OW 8374   0.081   5.403   1.311
 2492SOL    HW1 8375   0.022   5.346   1.254
 2492SOL    HW2 8376   0.051   5.398   1.406
 2493SOL     OW 8377   5.294   6.709   0.435
 2493SOL    HW1 8378   5.211   6.673   0.478
 2493SOL    HW2 8379   5.362   6.636   0.427
 2494SOL     OW 8380   6.834   4.103   0.940
 2494SOL    HW1 8381   6.773   4.140   1.009
 2494SOL    HW2 8382   6.813   4.144   0.851
 2495SOL     OW 8383   0.525   3.160   1.962
 2495SOL    HW1 8384   0.479   3.113   2.037
 2495SOL    HW2 8385   0.462   3.224   1.919
 2496SOL     OW 8386   5.666   4.555   6.421
 2496SOL    HW1 8387   5.697   4.546   6.327
 2496SOL    HW2 8388   5.687   4.648   6.453
 2497SOL     OW 8389   0.394   6.992   2.451
 2497SOL    HW1 8390   0.314   6.935   2.467
 2497SOL    HW2 8391   0.425   0.004   2.537
 2498SOL     OW 8392   1.883   3.438   4.799
 2498SOL    HW1 8393   1.807   3.479   4.748
 2498SOL    HW2 8394   1.860   3.343   4.821
 2499SOL     OW 8395   5.999   3.671   2.195
 2499SOL    HW1 8396   6.008   3.571   2.190
 2499SOL    HW2 8397   5.929   3.701   2.130
 2500SOL     OW 8398   3.683   3.499   2.253
 2500SOL    HW1 8399   3.583   3.488   2.254
 2500SOL    HW2 8400   3.706   3.592   2.223
 2501SOL     OW 8401   6.055   5.385   6.206
 2501SOL    HW1 8402   5.972   5.365   6.258
 2501SOL    HW2 8403   6.077   5.307   6.148
 2502SOL     OW 8404   2.163   6.318   4.114
 2502SOL    HW1 8405   2.232   6.295   4.045
 2502SOL    HW2 8406   2.203   6.380   4.182
 2503SOL     OW 8407   2.425   0.134   5.138
 2503SOL    HW1 8408   2.453   0.075   5.062
 2503SOL    HW2 8409   2.331   0.112   5.164
 2504SOL     OW 8410   3.623   7.017   2.905
 2504SOL    HW1 8411   3.722   7.025   2.897
 2504SOL    HW2 8412   3.579   0.045   2.835
 2505SOL     OW 8413   6.264   4.247   3.585
 2505SOL    HW1 8414   6.316   4.165   3.559
 2505SOL    HW2 8415   6.325   4.326   3.587
 2506SOL     OW 8416   6.090   5.072   6.391
 2506SOL    HW1 8417   6.068   5.109   6.481
 2506SOL    HW2 8418   6.126   4.979   6.401
 2507SOL     OW 8419   6.770   3.210   2.658
 2507SOL    HW1 8420   6.774   3.305   2.625
 2507SOL    HW2 8421   6.677   3.190   2.689
 2508SOL     OW 8422   6.049   0.848   4.096
 2508SOL    HW1 8423   6.147   0.860   4.085
 2508SOL    HW2 8424   6.001   0.899   4.025
 2509SOL     OW 8425   0.102   3.110   5.717
 2509SOL    HW1 8426   0.012   3.076   5.746
 2509SOL    HW2 8427   0.124   3.073   5.627
 2510SOL     OW 8428   3.471   4.023   2.274
 2510SOL    HW1 8429   3.544   4.036   2.207
 2510SOL    HW2 8430   3.382   4.022   2.228
 2511SOL     OW 8431   1.953   0.686   4.298
 2511SOL    HW1 8432   1.895   0.641   4.231
 2511SOL    HW2 8433   1.990   0.618   4.362
 2512SOL     OW 8434   4.208   4.911   3.803
 2512SOL    HW1 8435   4.118   4.875   3.779
 2512SOL    HW2 8436   4.277   4.840   3.789
 2513SOL     OW 8437   2.122   5.867   6.765
 2513SOL    HW1 8438   2.103   5.873   6.863
 2513SOL    HW2 8439   2.194   5.800   6.749
 2514SOL     OW 8440   1.864   1.820   3.101
 2514SOL    HW1 8441   1.827   1.809   3.193
 2514SOL    HW2 8442   1.917   1.739   3.076
 2515SOL     OW 8443   0.284   1.729   1.051
 2515SOL    HW1 8444   0.191   1.766   1.055
 2515SOL    HW2 8445   0.338   1.765   1.127
 2516SOL     OW 8446   5.756   2.096   4.438
 2516SOL    HW1 8447   5.807   2.015   4.410
 2516SOL    HW2 8448   5.818   2.175   4.440
 2517SOL     OW 8449   0.479   1.267   3.919
 2517SOL    HW1 8450   0.439   1.178   3.941
 2517SOL    HW2 8451   0.546   1.292   3.990
 2518SOL     OW 8452   2.593   4.325   1.027
 2518SOL    HW1 8453   2.627   4.406   0.979
 2518SOL    HW2 8454   2.554   4.353   1.115
 2519SOL     OW 8455   0.893   1.209   1.176
 2519SOL    HW1 8456   0.831   1.187   1.251
 2519SOL    HW2 8457   0.957   1.134   1.162
 2520SOL     OW 8458   2.456   2.767   1.170
 2520SOL    HW1 8459   2.459   2.796   1.266
 2520SOL    HW2 8460   2.528   2.699   1.154
 2521SOL     OW 8461   5.101   0.821   4.847
 2521SOL    HW1 8462   5.057   0.794   4.761
 2521SOL    HW2 8463   5.200   0.826   4.833
 2522SOL     OW 8464   1.366   1.932   6.860
 2522SOL    HW1 8465   1.272   1.899   6.874
 2522SOL    HW2 8466   1.409   1.879   6.787
 2523SOL     OW 8467   1.027   5.341   6.402
 2523SOL    HW1 8468   0.948   5.340   6.340
 2523SOL    HW2 8469   1.107   5.378   6.353
 2524SOL     OW 8470   1.105   1.249   4.446
 2524SOL    HW1 8471   1.123   1.317   4.374
 2524SOL    HW2 8472   1.104   1.158   4.406
 2525SOL     OW 8473   6.328   2.664   5.646
 2525SOL    HW1 8474   6.331   2.683   5.744
 2525SOL    HW2 8475   6.418   2.677   5.606
 2526SOL     OW 8476   1.429   0.668   0.362
 2526SOL    HW1 8477   1.342   0.662   0.411
 2526SOL    HW2 8478   1.497   0.713   0.419
 2527SOL     OW 8479   3.650   5.156   6.708
 2527SOL    HW1 8480   3.683   5.120   6.621
 2527SOL    HW2 8481   3.726   5.195   6.759
 2528SOL     OW 8482   4.633   5.608   6.585
 2528SOL    HW1 8483   4.540   5.573   6.573
 2528SOL    HW2 8484   4.679   5.613   6.496
 2529SOL     OW 8485   0.614   6.514   5.733
 2529SOL    HW1 8486   0.610   6.487   5.829
 2529SOL    HW2 8487   0.621   6.432   5.675
 2530SOL     OW 8488   2.469   6.141   6.856
 2530SOL    HW1 8489   2.468   6.079   6.777
 2530SOL    HW2 8490   2.556   6.130   6.905
 2531SOL     OW 8491   6.874   5.193   6.235
 2531SOL    HW1 8492   6.922   5.118   6.189
 2531SOL    HW2 8493   6.860   5.169   6.332
 2532SOL     OW 8494   5.691   5.570   1.672
 2532SOL    HW1 8495   5.627   5.625   1.618
 2532SOL    HW2 8496   5.646   5.487   1.703
 2533SOL     OW 8497   4.408   0.956   3.756
 2533SOL    HW1 8498   4.382   0.981   3.663
 2533SOL    HW2 8499   4.495   0.906   3.754
 2534SOL     OW 8500   4.114   1.470   2.726
 2534SOL    HW1 8501   4.136   1.379   2.690
 2534SOL    HW2 8502   4.021   1.495   2.698
 2535SOL     OW 8503   3.612   2.931   6.405
 2535SOL    HW1 8504   3.711   2.922   6.419
 2535SOL    HW2 8505   3.563   2.886   6.479
 2536SOL     OW 8506   1.364   0.294   1.316
 2536SOL    HW1 8507   1.438   0.235   1.349
 2536SOL    HW2 8508   1.276   0.260   1.350
 2537SOL     OW 8509   3.924   6.881   5.721
 2537SOL    HW1 8510   3.933   6.814   5.795
 2537SOL    HW2 8511   3.937   6.973   5.757
 2538SOL     OW 8512   5.803   3.559   3.676
 2538SOL    HW1 8513   5.802   3.467   3.637
 2538SOL    HW2 8514   5.768   3.556   3.769
 2539SOL     OW 8515   4.838   2.804   5.360
 2539SOL    HW1 8516   4.786   2.833   5.280
 2539SOL    HW2 8517   4.900   2.729   5.335
 2540SOL     OW 8518   2.959   2.159   1.366
 2540SOL    HW1 8519   2.905   2.243   1.379
 2540SOL    HW2 8520   2.980   2.119   1.454
 2541SOL     OW 8521   3.143   6.700   3.920
 2541SOL    HW1 8522   3.163   6.627   3.854
 2541SOL    HW2 8523   3.200   6.688   4.001
 2542SOL     OW 8524   1.993   5.193   5.818
 2542SOL    HW1 8525   2.035   5.151   5.738
 2542SOL    HW2 8526   2.065   5.231   5.877
 2543SOL     OW 8527   0.391   0.375   4.325
 2543SOL    HW1 8528   0.455   0.301   4.303
 2543SOL    HW2 8529   0.434   0.438   4.390
 2544SOL     OW 8530   0.430   5.216   6.482
 2544SOL    HW1 8531   0.502   5.277   6.514
 2544SOL    HW2 8532   0.458   5.121   6.494
 2545SOL     OW 8533   2.689   5.867   3.556
 2545SOL    HW1 8534   2.785   5.858   3.580
 2545SOL    HW2 8535   2.632   5.831   3.631
 2546SOL     OW 8536   0.081   1.110   1.610
 2546SOL    HW1 8537   0.123   1.193   1.572
 2546SOL    HW2 8538   0.097   1.034   1.548
 2547SOL     OW 8539   0.941   3.312   5.248
 2547SOL    HW1 8540   0.908   3.260   5.327
 2547SOL    HW2 8541   0.976   3.400   5.278
 2548SOL     OW 8542   1.085   0.451   5.983
 2548SOL    HW1 8543   1.147   0.387   5.937
 2548SOL    HW2 8544   1.014   0.400   6.032
 2549SOL     OW 8545   6.427   2.983   2.188
 2549SOL    HW1 8546   6.492   2.940   2.250
 2549SOL    HW2 8547   6.384   3.062   2.234
 2550SOL     OW 8548   5.676   5.270   6.822
 2550SOL    HW1 8549   5.635   5.270   6.731
 2550SOL    HW2 8550   5.648   5.353   6.871
 2551SOL     OW 8551   0.771   5.208   0.265
 2551SOL    HW1 8552   0.774   5.198   0.365
 2551SOL    HW2 8553   0.705   5.143   0.227
 2552SOL     OW 8554   1.528   5.728   3.526
 2552SOL    HW1 8555   1.612   5.783   3.525
 2552SOL    HW2 8556   1.473   5.750   3.445
 2553SOL     OW 8557   4.187   3.635   6.770
 2553SOL    HW1 8558   4.137   3.577   6.834
 2553SOL    HW2 8559   4.164   3.609   6.676
 2554SOL     OW 8560   0.972   1.994   0.707
 2554SOL    HW1 8561   1.053   1.994   0.766
 2554SOL    HW2 8562   0.894   1.958   0.757
 2555SOL     OW 8563   6.589   0.175   6.557
 2555SOL    HW1 8564   6.674   0.181   6.505
 2555SOL    HW2 8565   6.516   0.223   6.508
 2556SOL     OW 8566   4.058   4.969   0.505
 2556SOL    HW1 8567   4.058   4.873   0.479
 2556SOL    HW2 8568   3.964   5.000   0.520
 2557SOL     OW 8569   1.413   4.463   6.773
 2557SOL    HW1 8570   1.381   4.412   6.853
 2557SOL    HW2 8571   1.352   4.447   6.696
 2558SOL     OW 8572   4.292   0.210   5.125
 2558SOL    HW1 8573   4.280   0.128   5.182
 2558SOL    HW2 8574   4.233   0.283   5.159
 2559SOL     OW 8575   0.677   5.079   4.797
 2559SOL    HW1 8576   0.721   5.039   4.717
 2559SOL    HW2 8577   0.605   5.142   4.768
 2560SOL     OW 8578   5.842   1.179   6.798
 2560SOL    HW1 8579   5.806   1.257   6.849
 2560SOL    HW2 8580   5.876   1.210   6.709
 2561SOL     OW 8581   3.027   6.019   4.208
 2561SOL    HW1 8582   2.944   6.050   4.163
 2561SOL    HW2 8583   3.052   5.928   4.173
 2562SOL     OW 8584   2.458   3.773   6.979
 2562SOL    HW1 8585   2.479   3.697   6.917
 2562SOL    HW2 8586   2.393   3.742   0.020
 2563SOL     OW 8587   1.860   0.799   1.448
 2563SOL    HW1 8588   1.936   0.829   1.391
 2563SOL    HW2 8589   1.828   0.876   1.504
 2564SOL     OW 8590   1.901   6.478   2.373
 2564SOL    HW1 8591   1.853   6.409   2.428
 2564SOL    HW2 8592   1.918   6.559   2.429
 2565SOL     OW 8593   0.699   0.870   1.881
 2565SOL    HW1 8594   0.615   0.854   1.934
 2565SOL    HW2 8595   0.759   0.791   1.890
 2566SOL     OW 8596   1.955   6.909   5.647
 2566SOL    HW1 8597   2.039   6.963   5.640
 2566SOL    HW2 8598   1.972   6.832   5.709
 2567SOL     OW 8599   1.039   0.915   0.417
 2567SOL    HW1 8600   1.052   0.858   0.336
 2567SOL    HW2 8601   0.982   0.994   0.394
 2568SOL     OW 8602   5.283   3.957   6.893
 2568SOL    HW1 8603   5.208   3.897   6.864
 2568SOL    HW2 8604   5.295   4.030   6.826
 2569SOL     OW 8605   2.556   0.741   2.395
 2569SOL    HW1 8606   2.650   0.772   2.410
 2569SOL    HW2 8607   2.517   0.791   2.317
 2570SOL     OW 8608   5.375   2.335   5.959
 2570SOL    HW1 8609   5.412   2.245   5.982
 2570SOL    HW2 8610   5.443   2.405   5.979
 2571SOL     OW 8611   0.555   3.800   4.500
 2571SOL    HW1 8612   0.535   3.896   4.520
 2571SOL    HW2 8613   0.638   3.773   4.549
 2572SOL     OW 8614   1.604   4.703   3.646
 2572SOL    HW1 8615   1.589   4.614   3.689
 2572SOL    HW2 8616   1.694   4.704   3.601
 2573SOL     OW 8617   1.125   0.151   0.491
 2573SOL    HW1 8618   1.187   0.077   0.467
 2573SOL    HW2 8619   1.176   0.223   0.538
 2574SOL     OW 8620   6.426   3.751   0.513
 2574SOL    HW1 8621   6.507   3.802   0.541
 2574SOL    HW2 8622   6.446   3.653   0.515
 2575SOL     OW 8623   0.573   6.221   6.156
 2575SOL    HW1 8624   0.673   6.223   6.166
 2575SOL    HW2 8625   0.549   6.236   6.060
 2576SOL     OW 8626   4.471   6.413   4.842
 2576SOL    HW1 8627   4.375   6.392   4.859
 2576SOL    HW2 8628   4.478   6.479   4.768
 2577SOL     OW 8629   1.746   4.256   2.492
 2577SOL    HW1 8630   1.765   4.161   2.466
 2577SOL    HW2 8631   1.802   4.281   2.571
 2578SOL     OW 8632   4.098   1.865   2.518
 2578SOL    HW1 8633   4.151   1.858   2.602
 2578SOL    HW2 8634   4.018   1.806   2.523
 2579SOL     OW 8635   0.609   6.414   2.666
 2579SOL    HW1 8636   0.689   6.430   2.608
 2579SOL    HW2 8637   0.620   6.465   2.752
 2580SOL     OW 8638   2.477   1.664   6.103
 2580SOL    HW1 8639   2.553   1.666   6.038
 2580SOL    HW2 8640   2.477   1.576   6.151
 2581SOL     OW 8641   3.088   0.696   5.416
 2581SOL    HW1 8642   3.174   0.734   5.450
 2581SOL    HW2 8643   3.049   0.634   5.484
 2582SOL     OW 8644   6.860   3.434   1.612
 2582SOL    HW1 8645   6.933   3.378   1.574
 2582SOL    HW2 8646   6.803   3.379   1.672
 2583SOL     OW 8647   5.803   0.614   1.335
 2583SOL    HW1 8648   5.735   0.681   1.304
 2583SOL    HW2 8649   5.895   0.646   1.310
 2584SOL     OW 8650   3.659   4.368   6.325
 2584SOL    HW1 8651   3.602   4.328   6.253
 2584SOL    HW2 8652   3.744   4.316   6.332
 2585SOL     OW 8653   2.791   5.523   0.124
 2585SOL    HW1 8654   2.701   5.486   0.102
 2585SOL    HW2 8655   2.784   5.583   0.204
 2586SOL     OW 8656   2.424   0.821   3.653
 2586SOL    HW1 8657   2.354   0.750   3.648
 2586SOL    HW2 8658   2.497   0.791   3.714
 2587SOL     OW 8659   6.036   0.731   4.340
 2587SOL    HW1 8660   6.122   0.687   4.364
 2587SOL    HW2 8661   6.038   0.757   4.244
 2588SOL     OW 8662   4.437   0.341   0.040
 2588SOL    HW1 8663   4.478   0.362   6.981
 2588SOL    HW2 8664   4.340   0.317   0.027
 2589SOL     OW 8665   2.088   6.122   0.246
 2589SOL    HW1 8666   2.079   6.168   0.334
 2589SOL    HW2 8667   2.027   6.165   0.179
 2590SOL     OW 8668   2.964   5.823   0.155
 2590SOL    HW1 8669   2.885   5.876   0.125
 2590SOL    HW2 8670   2.933   5.737   0.195
 2591SOL     OW 8671   5.405   5.942   2.827
 2591SOL    HW1 8672   5.369   5.852   2.852
 2591SOL    HW2 8673   5.337   5.991   2.773
 2592SOL     OW 8674   2.870   3.473   1.242
 2592SOL    HW1 8675   2.807   3.396   1.235
 2592SOL    HW2 8676   2.837   3.549   1.186
 2593SOL     OW 8677   3.671   4.655   6.870
 2593SOL    HW1 8678   3.616   4.640   6.788
 2593SOL    HW2 8679   3.701   4.750   6.875
 2594SOL     OW 8680   2.053   3.315   3.777
 2594SOL    HW1 8681   2.114   3.237   3.764
 2594SOL    HW2 8682   2.085   3.392   3.721
 2595SOL     OW 8683   2.145   1.395   2.875
 2595SOL    HW1 8684   2.191   1.478   2.907
 2595SOL    HW2 8685   2.068   1.419   2.816
 2596SOL     OW 8686   0.214   2.088   0.516
 2596SOL    HW1 8687   0.289   2.034   0.556
 2596SOL    HW2 8688   0.127   2.040   0.533
 2597SOL     OW 8689   6.624   6.635   0.161
 2597SOL    HW1 8690   6.678   6.578   0.224
 2597SOL    HW2 8691   6.534   6.594   0.148
 2598SOL     OW 8692   4.762   2.436   2.461
 2598SOL    HW1 8693   4.688   2.489   2.503
 2598SOL    HW2 8694   4.808   2.492   2.392
 2599SOL     OW 8695   2.607   5.739   2.612
 2599SOL    HW1 8696   2.688   5.744   2.671
 2599SOL    HW2 8697   2.560   5.827   2.613
 2600SOL     OW 8698   5.483   3.695   4.445
 2600SOL    HW1 8699   5.424   3.762   4.489
 2600SOL    HW2 8700   5.510   3.729   4.355
 2601SOL     OW 8701   6.564   1.341   4.568
 2601SOL    HW1 8702   6.568   1.260   4.626
 2601SOL    HW2 8703   6.557   1.422   4.626
 2602SOL     OW 8704   0.955   4.804   2.675
 2602SOL    HW1 8705   0.904   4.840   2.753
 2602SOL    HW2 8706   0.996   4.716   2.700
 2603SOL     OW 8707   2.342   5.655   2.580
 2603SOL    HW1 8708   2.429   5.693   2.611
 2603SOL    HW2 8709   2.330   5.563   2.618
 2604SOL     OW 8710   4.605   2.614   3.501
 2604SOL    HW1 8711   4.604   2.530   3.447
 2604SOL    HW2 8712   4.573   2.594   3.594
 2605SOL     OW 8713   1.585   3.041   1.455
 2605SOL    HW1 8714   1.640   2.983   1.394
 2605SOL    HW2 8715   1.533   2.982   1.518
 2606SOL     OW 8716   4.876   3.806   0.890
 2606SOL    HW1 8717   4.944   3.746   0.849
 2606SOL    HW2 8718   4.921   3.886   0.930
 2607SOL     OW 8719   2.523   3.092   1.634
 2607SOL    HW1 8720   2.602   3.120   1.689
 2607SOL    HW2 8721   2.440   3.128   1.676
 2608SOL     OW 8722   3.210   5.532   5.074
 2608SOL    HW1 8723   3.238   5.438   5.097
 2608SOL    HW2 8724   3.254   5.560   4.989
 2609SOL     OW 8725   0.646   1.943   1.536
 2609SOL    HW1 8726   0.628   1.965   1.440
 2609SOL    HW2 8727   0.745   1.942   1.552
 2610SOL     OW 8728   1.133   4.171   5.015
 2610SOL    HW1 8729   1.037   4.197   5.016
 2610SOL    HW2 8730   1.141   4.074   4.991
 2611SOL     OW 8731   5.852   0.329   5.455
 2611SOL    HW1 8732   5.797   0.246   5.449
 2611SOL    HW2 8733   5.807   0.395   5.516
 2612SOL     OW 8734   6.926   6.569   7.023
 2612SOL    HW1 8735   6.868   6.635   6.974
 2612SOL    HW2 8736   6.991   6.529   6.959
 2613SOL     OW 8737   1.509   6.864   0.031
 2613SOL    HW1 8738   1.423   6.813   0.020
 2613SOL    HW2 8739   1.543   6.852   0.124
 2614SOL     OW 8740   5.558   2.187   0.614
 2614SOL    HW1 8741   5.572   2.282   0.587
 2614SOL    HW2 8742   5.641   2.152   0.658
 2615SOL     OW 8743   0.755   3.470   6.841
 2615SOL    HW1 8744   0.660   3.446   6.862
 2615SOL    HW2 8745   0.789   3.537   6.907
 2616SOL     OW 8746   1.085   0.993   4.292
 2616SOL    HW1 8747   1.075   0.924   4.220
 2616SOL    HW2 8748   1.167   0.973   4.346
 2617SOL     OW 8749   5.601   0.125   1.456
 2617SOL    HW1 8750   5.518   0.174   1.431
 2617SOL    HW2 8751   5.647   0.092   1.373
 2618SOL     OW 8752   1.430   0.206   6.779
 2618SOL    HW1 8753   1.439   0.110   6.752
 2618SOL    HW2 8754   1.447   0.264   6.699
 2619SOL     OW 8755   4.965   1.399   2.685
 2619SOL    HW1 8756   4.966   1.487   2.637
 2619SOL    HW2 8757   5.056   1.357   2.678
 2620SOL     OW 8758   6.310   2.231   2.124
 2620SOL    HW1 8759   6.295   2.325   2.094
 2620SOL    HW2 8760   6.221   2.185   2.134
 2621SOL     OW 8761   2.602   6.578   1.422
 2621SOL    HW1 8762   2.572   6.494   1.377
 2621SOL    HW2 8763   2.688   6.562   1.471
 2622SOL     OW 8764   2.558   3.595   6.721
 2622SOL    HW1 8765   2.515   3.523   6.666
 2622SOL    HW2 8766   2.642   3.626   6.676
 2623SOL     OW 8767   6.998   0.609   4.161
 2623SOL    HW1 8768   7.009   0.644   4.254
 2623SOL    HW2 8769   6.938   0.671   4.109
 2624SOL     OW 8770   1.057   1.827   5.741
 2624SOL    HW1 8771   1.120   1.902   5.764
 2624SOL    HW2 8772   0.969   1.865   5.712
 2625SOL     OW 8773   2.742   5.336   5.616
 2625SOL    HW1 8774   2.700   5.284   5.542
 2625SOL    HW2 8775   2.733   5.286   5.702
 2626SOL     OW 8776   6.902   6.868   6.855
 2626SOL    HW1 8777   6.950   6.898   6.938
 2626SOL    HW2 8778   6.904   6.942   6.788
 2627SOL     OW 8779   2.437   0.682   5.665
 2627SOL    HW1 8780   2.492   0.717   5.741
 2627SOL    HW2 8781   2.413   0.586   5.684
 2628SOL     OW 8782   0.067   5.076   1.194
 2628SOL    HW1 8783   0.145   5.108   1.140
 2628SOL    HW2 8784   7.019   5.140   1.183
 2629SOL     OW 8785   3.245   4.083   2.794
 2629SOL    HW1 8786   3.272   4.099   2.699
 2629SOL    HW2 8787   3.146   4.078   2.800
 2630SOL     OW 8788   3.270   0.675   4.399
 2630SOL    HW1 8789   3.233   0.708   4.312
 2630SOL    HW2 8790   3.231   0.728   4.474
 2631SOL     OW 8791   4.984   5.681   0.079
 2631SOL    HW1 8792   4.888   5.662   0.103
 2631SOL    HW2 8793   5.026   5.735   0.152
 2632SOL     OW 8794   5.482   5.071   1.730
 2632SOL    HW1 8795   5.486   5.165   1.697
 2632SOL    HW2 8796   5.531   5.064   1.817
 2633SOL     OW 8797   0.063   3.360   6.142
 2633SOL    HW1 8798   0.058   3.271   6.097
 2633SOL    HW2 8799   0.015   3.428   6.086
 2634SOL     OW 8800   1.405   1.883   6.057
 2634SOL    HW1 8801   1.307   1.903   6.064
 2634SOL    HW2 8802   1.434   1.892   5.962
 2635SOL     OW 8803   3.804   5.211   2.833
 2635SOL    HW1 8804   3.901   5.197   2.812
 2635SOL    HW2 8805   3.779   5.306   2.815
 2636SOL     OW 8806   3.453   6.430   6.012
 2636SOL    HW1 8807   3.449   6.482   6.097
 2636SOL    HW2 8808   3.372   6.372   6.004
 2637SOL     OW 8809   0.130   1.415   3.223
 2637SOL    HW1 8810   0.204   1.441   3.285
 2637SOL    HW2 8811   0.142   1.319   3.196
 2638SOL     OW 8812   0.616   6.366   4.818
 2638SOL    HW1 8813   0.584   6.448   4.865
 2638SOL    HW2 8814   0.606   6.378   4.719
 2639SOL     OW 8815   4.903   5.284   4.818
 2639SOL    HW1 8816   4.969   5.324   4.755
 2639SOL    HW2 8817   4.810   5.309   4.790
 2640SOL     OW 8818   2.195   1.001   3.206
 2640SOL    HW1 8819   2.111   1.018   3.258
 2640SOL    HW2 8820   2.202   1.068   3.132
 2641SOL     OW 8821   5.212   2.478   0.044
 2641SOL    HW1 8822   5.207   2.490   0.144
 2641SOL    HW2 8823   5.158   2.399   0.017
 2642SOL     OW 8824   0.040   0.012   2.308
 2642SOL    HW1 8825   0.025   0.003   2.209
 2642SOL    HW2 8826   0.049   0.109   2.331
 2643SOL     OW 8827   1.821   4.511   3.838
 2643SOL    HW1 8828   1.777   4.449   3.772
 2643SOL    HW2 8829   1.761   4.525   3.916
 2644SOL     OW 8830   5.735   5.480   3.711
 2644SOL    HW1 8831   5.677   5.406   3.744
 2644SOL    HW2 8832   5.688   5.530   3.638
 2645SOL     OW 8833   4.906   5.841   2.340
 2645SOL    HW1 8834   4.883   5.777   2.266
 2645SOL    HW2 8835   4.902   5.792   2.427
 2646SOL     OW 8836   1.213   2.105   6.290
 2646SOL    HW1 8837   1.138   2.077   6.350
 2646SOL    HW2 8838   1.200   2.067   6.199
 2647SOL     OW 8839   4.196   6.744   2.611
 2647SOL    HW1 8840   4.114   6.693   2.586
 2647SOL    HW2 8841   4.260   6.745   2.534
 2648SOL     OW 8842   1.851   0.594   5.687
 2648SOL    HW1 8843   1.837   0.495   5.692
 2648SOL    HW2 8844   1.770   0.641   5.722
 2649SOL     OW 8845   6.369   2.039   3.840
 2649SOL    HW1 8846   6.367   2.126   3.790
 2649SOL    HW2 8847   6.322   1.969   3.786
 2650SOL     OW 8848   2.180   0.253   4.487
 2650SOL    HW1 8849   2.092   0.291   4.458
 2650SOL    HW2 8850   2.168   0.158   4.515
 2651SOL     OW 8851   3.770   1.797   3.291
 2651SOL    HW1 8852   3.862   1.810   3.254
 2651SOL    HW2 8853   3.768   1.713   3.346
 2652SOL     OW 8854   4.902   3.793   5.668
 2652SOL    HW1 8855   4.927   3.888   5.689
 2652SOL    HW2 8856   4.985   3.740   5.650
 2653SOL     OW 8857   1.976   6.273   0.051
 2653SOL    HW1 8858   2.020   6.349   0.003
 2653SOL    HW2 8859   1.886   6.304   0.085
 2654SOL     OW 8860   0.147   1.043   0.682
 2654SOL    HW1 8861   0.114   0.952   0.704
 2654SOL    HW2 8862   0.152   1.054   0.583
 2655SOL     OW 8863   5.161   0.031   2.884
 2655SOL    HW1 8864   5.155   0.007   2.787
 2655SOL    HW2 8865   5.253   0.066   2.904
 2656SOL     OW 8866   4.823   6.530   4.372
 2656SOL    HW1 8867   4.894   6.461   4.387
 2656SOL    HW2 8868   4.755   6.496   4.308
 2657SOL     OW 8869   1.450   3.202   6.878
 2657SOL    HW1 8870   1.413   3.139   6.946
 2657SOL    HW2 8871   1.387   3.279   6.867
 2658SOL     OW 8872   3.159   4.411   0.118
 2658SOL    HW1 8873   3.149   4.370   0.209
 2658SOL    HW2 8874   3.078   4.392   0.063
 2659SOL     OW 8875   0.225   2.092   5.183
 2659SOL    HW1 8876   0.289   2.024   5.149
 2659SOL    HW2 8877   0.225   2.092   5.283
 2660SOL     OW 8878   0.812   1.348   0.963
 2660SOL    HW1 8879   0.853   1.303   1.043
 2660SOL    HW2 8880   0.838   1.444   0.962
 2661SOL     OW 8881   1.898   1.028   1.052
 2661SOL    HW1 8882   1.946   0.971   1.119
 2661SOL    HW2 8883   1.945   1.116   1.043
 2662SOL     OW 8884   3.118   1.692   1.443
 2662SOL    HW1 8885   3.148   1.732   1.530
 2662SOL    HW2 8886   3.025   1.721   1.423
 2663SOL     OW 8887   4.146   1.084   0.912
 2663SOL    HW1 8888   4.221   1.150   0.906
 2663SOL    HW2 8889   4.142   1.029   0.829
 2664SOL     OW 8890   4.873   2.829   5.821
 2664SOL    HW1 8891   4.826   2.864   5.740
 2664SOL    HW2 8892   4.924   2.903   5.865
 2665SOL     OW 8893   1.479   3.269   4.016
 2665SOL    HW1 8894   1.443   3.244   3.927
 2665SOL    HW2 8895   1.526   3.358   4.010
 2666SOL     OW 8896   1.955   4.218   1.900
 2666SOL    HW1 8897   2.040   4.270   1.907
 2666SOL    HW2 8898   1.961   4.136   1.957
 2667SOL     OW 8899   6.299   2.588   4.501
 2667SOL    HW1 8900   6.332   2.579   4.595
 2667SOL    HW2 8901   6.349   2.661   4.455
 2668SOL     OW 8902   5.594   0.824   3.967
 2668SOL    HW1 8903   5.637   0.765   4.035
 2668SOL    HW2 8904   5.494   0.813   3.971
 2669SOL     OW 8905   2.573   1.123   1.531
 2669SOL    HW1 8906   2.622   1.209   1.547
 2669SOL    HW2 8907   2.572   1.069   1.615
 2670SOL     OW 8908   0.757   0.517   0.668
 2670SOL    HW1 8909   0.844   0.526   0.621
 2670SOL    HW2 8910   0.693   0.463   0.612
 2671SOL     OW 8911   5.332   4.387   6.027
 2671SOL    HW1 8912   5.297   4.380   5.933
 2671SOL    HW2 8913   5.329   4.296   6.070
 2672SOL     OW 8914   2.286   1.949   2.934
 2672SOL    HW1 8915   2.287   2.015   2.859
 2672SOL    HW2 8916   2.365   1.965   2.994
 2673SOL     OW 8917   3.215   6.988   2.835
 2673SOL    HW1 8918   3.149   6.915   2.853
 2673SOL    HW2 8919   3.305   6.961   2.869
 2674SOL     OW 8920   6.512   5.949   3.240
 2674SOL    HW1 8921   6.561   6.000   3.312
 2674SOL    HW2 8922   6.513   6.002   3.155
 2675SOL     OW 8923   4.315   1.008   4.896
 2675SOL    HW1 8924   4.329   0.910   4.911
 2675SOL    HW2 8925   4.276   1.023   4.805
 2676SOL     OW 8926   3.924   3.029   4.687
 2676SOL    HW1 8927   3.848   3.086   4.717
 2676SOL    HW2 8928   3.955   3.059   4.597
 2677SOL     OW 8929   1.672   5.932   0.341
 2677SOL    HW1 8930   1.709   5.951   0.250
 2677SOL    HW2 8931   1.576   5.959   0.345
 2678SOL     OW 8932   3.494   1.871   2.321
 2678SOL    HW1 8933   3.540   1.903   2.238
 2678SOL    HW2 8934   3.510   1.773   2.332
 2679SOL     OW 8935   2.101   3.531   2.518
 2679SOL    HW1 8936   2.054   3.612   2.553
 2679SOL    HW2 8937   2.036   3.473   2.469
 2680SOL     OW 8938   5.638   2.668   6.738
 2680SOL    HW1 8939   5.730   2.630   6.729
 2680SOL    HW2 8940   5.603   2.649   6.830
 2681SOL     OW 8941   2.506   2.202   3.761
 2681SOL    HW1 8942   2.465   2.170   3.676
 2681SOL    HW2 8943   2.437   2.252   3.814
 2682SOL     OW 8944   3.802   4.067   2.070
 2682SOL    HW1 8945   3.730   4.126   2.034
 2682SOL    HW2 8946   3.816   4.085   2.167
 2683SOL     OW 8947   1.807   3.477   1.576
 2683SOL    HW1 8948   1.869   3.443   1.505
 2683SOL    HW2 8949   1.758   3.400   1.616
 2684SOL     OW 8950   5.429   0.543   3.629
 2684SOL    HW1 8951   5.417   0.627   3.576
 2684SOL    HW2 8952   5.515   0.549   3.680
 2685SOL     OW 8953   1.533   6.888   5.664
 2685SOL    HW1 8954   1.515   6.959   5.596
 2685SOL    HW2 8955   1.582   6.927   5.741
 2686SOL     OW 8956   1.786   1.514   6.134
 2686SOL    HW1 8957   1.745   1.423   6.142
 2686SOL    HW2 8958   1.716   1.583   6.152
 2687SOL     OW 8959   4.116   2.094   1.426
 2687SOL    HW1 8960   4.077   2.003   1.411
 2687SOL    HW2 8961   4.215   2.087   1.433
 2688SOL     OW 8962   3.873   2.737   6.742
 2688SOL    HW1 8963   3.930   2.674   6.796
 2688SOL    HW2 8964   3.782   2.743   6.783
 2689SOL     OW 8965   6.844   3.585   2.818
 2689SOL    HW1 8966   6.839   3.599   2.719
 2689SOL    HW2 8967   6.754   3.561   2.853
 2690SOL     OW 8968   5.106   1.101   4.968
 2690SOL    HW1 8969   5.131   1.092   4.871
 2690SOL    HW2 8970   5.017   1.058   4.984
 2691SOL     OW 8971   7.029   3.349   4.694
 2691SOL    HW1 8972   7.028   3.371   4.791
 2691SOL    HW2 8973   0.080   3.293   4.673
 2692SOL     OW 8974   1.995   5.184   1.804
 2692SOL    HW1 8975   1.912   5.139   1.837
 2692SOL    HW2 8976   2.027   5.138   1.722
 2693SOL     OW 8977   0.537   5.019   3.023
 2693SOL    HW1 8978   0.481   5.067   3.091
 2693SOL    HW2 8979   0.558   5.081   2.948
 2694SOL     OW 8980   2.158   0.526   2.438
 2694SOL    HW1 8981   2.203   0.473   2.510
 2694SOL    HW2 8982   2.071   0.482   2.414
 2695SOL     OW 8983   6.967   5.508   3.247
 2695SOL    HW1 8984   0.016   5.506   3.185
 2695SOL    HW2 8985   6.939   5.602   3.261
 2696SOL     OW 8986   3.729   4.566   6.082
 2696SOL    HW1 8987   3.668   4.505   6.132
 2696SOL    HW2 8988   3.679   4.609   6.007
 2697SOL     OW 8989   3.695   2.576   0.298
 2697SOL    HW1 8990   3.702   2.631   0.381
 2697SOL    HW2 8991   3.756   2.613   0.228
 2698SOL     OW 8992   1.352   5.791   6.869
 2698SOL    HW1 8993   1.347   5.783   6.968
 2698SOL    HW2 8994   1.352   5.887   6.843
 2699SOL     OW 8995   2.959   0.103   1.867
 2699SOL    HW1 8996   2.905   0.171   1.818
 2699SOL    HW2 8997   3.053   0.135   1.877
 2700SOL     OW 8998   4.530   2.191   1.677
 2700SOL    HW1 8999   4.488   2.139   1.603
 2700SOL    HW2 9000   4.480   2.174   1.762
 2701SOL     OW 9001   5.330   3.703   5.112
 2701SOL    HW1 9002   5.368   3.631   5.170
 2701SOL    HW2 9003   5.247   3.670   5.068
 2702SOL     OW 9004   1.820   1.310   4.620
 2702SOL    HW1 9005   1.919   1.317   4.626
 2702SOL    HW2 9006   1.778   1.392   4.658
 2703SOL     OW 9007   2.321   6.009   2.030
 2703SOL    HW1 9008   2.301   6.100   1.994
 2703SOL    HW2 9009   2.247   5.946   2.005
 2704SOL     OW 9010   4.268   0.647   3.537
 2704SOL    HW1 9011   4.172   0.628   3.557
 2704SOL    HW2 9012   4.309   0.567   3.494
 2705SOL     OW 9013   1.425   6.843   5.244
 2705SOL    HW1 9014   1.480   6.877   5.168
 2705SOL    HW2 9015   1.446   6.747   5.260
 2706SOL     OW 9016   6.575   4.644   3.812
 2706SOL    HW1 9017   6.593   4.743   3.810
 2706SOL    HW2 9018   6.496   4.626   3.870
 2707SOL     OW 9019   4.686   1.362   2.857
 2707SOL    HW1 9020   4.743   1.409   2.790
 2707SOL    HW2 9021   4.603   1.328   2.813
 2708SOL     OW 9022   5.016   3.353   5.806
 2708SOL    HW1 9023   4.949   3.332   5.735
 2708SOL    HW2 9024   5.108   3.338   5.769
 2709SOL     OW 9025   5.127   1.339   5.749
 2709SOL    HW1 9026   5.035   1.335   5.709
 2709SOL    HW2 9027   5.133   1.275   5.826
 2710SOL     OW 9028   1.363   2.606   4.582
 2710SOL    HW1 9029   1.436   2.670   4.605
 2710SOL    HW2 9030   1.307   2.588   4.663
 2711SOL     OW 9031   4.600   0.771   1.547
 2711SOL    HW1 9032   4.625   0.812   1.460
 2711SOL    HW2 9033   4.525   0.822   1.588
 2712SOL     OW 9034   5.554   5.745   1.531
 2712SOL    HW1 9035   5.540   5.843   1.540
 2712SOL    HW2 9036   5.467   5.697   1.542
 2713SOL     OW 9037   3.724   5.140   5.597
 2713SOL    HW1 9038   3.636   5.177   5.624
 2713SOL    HW2 9039   3.717   5.042   5.582
 2714SOL     OW 9040   3.232   4.461   6.395
 2714SOL    HW1 9041   3.231   4.453   6.495
 2714SOL    HW2 9042   3.187   4.382   6.354
 2715SOL     OW 9043   4.645   6.348   6.920
 2715SOL    HW1 9044   4.578   6.406   6.967
 2715SOL    HW2 9045   4.611   6.254   6.918
 2716SOL     OW 9046   4.423   1.290   2.454
 2716SOL    HW1 9047   4.330   1.317   2.432
 2716SOL    HW2 9048   4.487   1.344   2.399
 2717SOL     OW 9049   1.128   2.182   2.533
 2717SOL    HW1 9050   1.224   2.179   2.560
 2717SOL    HW2 9051   1.111   2.113   2.463
 2718SOL     OW 9052   6.330   1.747   5.706
 2718SOL    HW1 9053   6.283   1.835   5.718
 2718SOL    HW2 9054   6.272   1.674   5.743
 2719SOL     OW 9055   0.717   4.813   3.263
 2719SOL    HW1 9056   0.689   4.746   3.332
 2719SOL    HW2 9057   0.683   4.785   3.173
 2720SOL     OW 9058   2.232   5.112   6.344
 2720SOL    HW1 9059   2.199   5.059   6.422
 2720SOL    HW2 9060   2.154   5.143   6.289
 2721SOL     OW 9061   2.128   6.884   3.164
 2721SOL    HW1 9062   2.063   6.824   3.211
 2721SOL    HW2 9063   2.215   6.836   3.152
 2722SOL     OW 9064   3.464   4.730   6.367
 2722SOL    HW1 9065   3.442   4.708   6.462
 2722SOL    HW2 9066   3.451   4.649   6.310
 2723SOL     OW 9067   4.206   5.405   0.004
 2723SOL    HW1 9068   4.259   5.485   7.004
 2723SOL    HW2 9069   4.156   5.367   6.955
 2724SOL     OW 9070   6.544   5.732   1.165
 2724SOL    HW1 9071   6.609   5.670   1.121
 2724SOL    HW2 9072   6.592   5.787   1.234
 2725SOL     OW 9073   6.028   5.065   3.171
 2725SOL    HW1 9074   5.956   4.996   3.165
 2725SOL    HW2 9075   6.046   5.103   3.079
 2726SOL     OW 9076   6.480   2.369   3.051
 2726SOL    HW1 9077   6.421   2.297   3.014
 2726SOL    HW2 9078   6.466   2.453   2.999
 2727SOL     OW 9079   1.696   5.306   3.700
 2727SOL    HW1 9080   1.787   5.266   3.687
 2727SOL    HW2 9081   1.702   5.382   3.764
 2728SOL     OW 9082   5.124   5.477   5.636
 2728SOL    HW1 9083   5.212   5.438   5.665
 2728SOL    HW2 9084   5.090   5.538   5.707
 2729SOL     OW 9085   6.665   0.133   0.140
 2729SOL    HW1 9086   6.685   0.173   0.230
 2729SOL    HW2 9087   6.739   0.156   0.077
 2730SOL     OW 9088   1.314   5.396   2.894
 2730SOL    HW1 9089   1.291   5.485   2.934
 2730SOL    HW2 9090   1.277   5.391   2.801
 2731SOL     OW 9091   4.043   3.833   5.111
 2731SOL    HW1 9092   4.105   3.828   5.189
 2731SOL    HW2 9093   3.949   3.816   5.141
 2732SOL     OW 9094   4.741   0.690   1.763
 2732SOL    HW1 9095   4.700   0.727   1.680
 2732SOL    HW2 9096   4.815   0.749   1.794
 2733SOL     OW 9097   0.537   0.391   0.515
 2733SOL    HW1 9098   0.570   0.301   0.485
 2733SOL    HW2 9099   0.475   0.428   0.445
 2734SOL     OW 9100   3.158   0.222   2.535
 2734SOL    HW1 9101   3.233   0.159   2.515
 2734SOL    HW2 9102   3.130   0.211   2.630
 2735SOL     OW 9103   1.443   2.362   2.970
 2735SOL    HW1 9104   1.499   2.281   2.951
 2735SOL    HW2 9105   1.478   2.440   2.919
 2736SOL     OW 9106   5.669   4.572   2.648
 2736SOL    HW1 9107   5.576   4.606   2.661
 2736SOL    HW2 9108   5.728   4.646   2.616
 2737SOL     OW 9109   3.023   0.228   5.667
 2737SOL    HW1 9110   2.940   0.192   5.625
 2737SOL    HW2 9111   3.006   0.245   5.764
 2738SOL     OW 9112   5.183   6.161   1.122
 2738SOL    HW1 9113   5.114   6.170   1.194
 2738SOL    HW2 9114   5.155   6.212   1.041
 2739SOL     OW 9115   0.556   5.538   1.313
 2739SOL    HW1 9116   0.502   5.582   1.385
 2739SOL    HW2 9117   0.596   5.454   1.348
 2740SOL     OW 9118   6.840   5.224   4.284
 2740SOL    HW1 9119   6.783   5.305   4.299
 2740SOL    HW2 9120   6.905   5.215   4.360
 2741SOL     OW 9121   1.218   6.855   6.612
 2741SOL    HW1 9122   1.173   6.766   6.603
 2741SOL    HW2 9123   1.244   6.888   6.521
 2742SOL     OW 9124   2.951   5.105   2.994
 2742SOL    HW1 9125   2.881   5.060   3.050
 2742SOL    HW2 9126   2.929   5.092   2.898
 2743SOL     OW 9127   5.674   2.023   2.623
 2743SOL    HW1 9128   5.772   2.024   2.607
 2743SOL    HW2 9129   5.637   2.116   2.614
 2744SOL     OW 9130   3.611   4.142   2.561
 2744SOL    HW1 9131   3.692   4.199   2.547
 2744SOL    HW2 9132   3.622   4.088   2.645
 2745SOL     OW 9133   0.463   6.299   0.007
 2745SOL    HW1 9134   0.495   6.382   0.054
 2745SOL    HW2 9135   0.365   6.307   7.018
 2746SOL     OW 9136   1.378   0.815   4.714
 2746SOL    HW1 9137   1.386   0.832   4.813
 2746SOL    HW2 9138   1.446   0.870   4.666
 2747SOL     OW 9139   4.199   4.788   0.197
 2747SOL    HW1 9140   4.266   4.786   0.271
 2747SOL    HW2 9141   4.233   4.846   0.123
 2748SOL     OW 9142   4.219   0.101   1.182
 2748SOL    HW1 9143   4.301   0.044   1.188
 2748SOL    HW2 9144   4.244   0.197   1.194
 2749SOL     OW 9145   3.775   1.155   0.501
 2749SOL    HW1 9146   3.759   1.130   0.405
 2749SOL    HW2 9147   3.874   1.154   0.518
 2750SOL     OW 9148   2.592   6.167   2.921
 2750SOL    HW1 9149   2.668   6.127   2.972
 2750SOL    HW2 9150   2.602   6.266   2.917
 2751SOL     OW 9151   6.313   5.069   1.158
 2751SOL    HW1 9152   6.404   5.087   1.120
 2751SOL    HW2 9153   6.250   5.143   1.133
 2752SOL     OW 9154   4.037   5.443   6.488
 2752SOL    HW1 9155   3.954   5.497   6.499
 2752SOL    HW2 9156   4.036   5.397   6.400
 2753SOL     OW 9157   5.426   4.942   5.656
 2753SOL    HW1 9158   5.436   4.881   5.577
 2753SOL    HW2 9159   5.508   4.938   5.712
 2754SOL     OW 9160   1.360   0.457   5.035
 2754SOL    HW1 9161   1.370   0.549   5.073
 2754SOL    HW2 9162   1.262   0.436   5.026
 2755SOL     OW 9163   3.196   7.000   2.088
 2755SOL    HW1 9164   3.187   6.971   2.183
 2755SOL    HW2 9165   3.215   0.069   2.085
 2756SOL     OW 9166   4.727   5.830   6.729
 2756SOL    HW1 9167   4.760   5.879   6.649
 2756SOL    HW2 9168   4.683   5.745   6.699
 2757SOL     OW 9169   1.022   4.864   0.810
 2757SOL    HW1 9170   1.028   4.860   0.710
 2757SOL    HW2 9171   0.995   4.774   0.845
 2758SOL     OW 9172   4.704   0.666   5.362
 2758SOL    HW1 9173   4.661   0.756   5.351
 2758SOL    HW2 9174   4.685   0.609   5.282
 2759SOL     OW 9175   4.858   5.004   3.810
 2759SOL    HW1 9176   4.871   5.018   3.712
 2759SOL    HW2 9177   4.875   5.090   3.858
 2760SOL     OW 9178   1.107   6.452   3.596
 2760SOL    HW1 9179   1.092   6.400   3.680
 2760SOL    HW2 9180   1.063   6.541   3.602
 2761SOL     OW 9181   2.541   5.295   4.682
 2761SOL    HW1 9182   2.626   5.320   4.730
 2761SOL    HW2 9183   2.539   5.339   4.592
 2762SOL     OW 9184   1.937   0.960   5.683
 2762SOL    HW1 9185   2.005   0.975   5.755
 2762SOL    HW2 9186   1.874   0.888   5.712
 2763SOL     OW 9187   5.440   0.726   2.159
 2763SOL    HW1 9188   5.400   0.789   2.093
 2763SOL    HW2 9189   5.459   0.775   2.244
 2764SOL     OW 9190   6.092   0.637   1.862
 2764SOL    HW1 9191   6.022   0.686   1.811
 2764SOL    HW2 9192   6.167   0.699   1.884
 2765SOL     OW 9193   5.393   2.106   2.863
 2765SOL    HW1 9194   5.416   2.203   2.856
 2765SOL    HW2 9195   5.418   2.073   2.954
 2766SOL     OW 9196   5.298   0.010   2.380
 2766SOL    HW1 9197   5.334   0.083   2.439
 2766SOL    HW2 9198   5.340   6.952   2.405
 2767SOL     OW 9199   6.521   4.045   5.785
 2767SOL    HW1 9200   6.565   4.093   5.860
 2767SOL    HW2 9201   6.454   4.105   5.742
 2768SOL     OW 9202   5.885   1.442   6.314
 2768SOL    HW1 9203   5.839   1.359   6.283
 2768SOL    HW2 9204   5.979   1.443   6.280
 2769SOL     OW 9205   0.579   4.274   0.811
 2769SOL    HW1 9206   0.601   4.194   0.866
 2769SOL    HW2 9207   0.611   4.356   0.857
 2770SOL     OW 9208   5.285   6.349   2.263
 2770SOL    HW1 9209   5.300   6.444   2.236
 2770SOL    HW2 9210   5.196   6.341   2.307
 2771SOL     OW 9211   4.779   0.600   1.225
 2771SOL    HW1 9212   4.822   0.518   1.264
 2771SOL    HW2 9213   4.790   0.677   1.288
 2772SOL     OW 9214   3.802   1.306   6.803
 2772SOL    HW1 9215   3.801   1.400   6.769
 2772SOL    HW2 9216   3.882   1.259   6.766
 2773SOL     OW 9217   2.917   4.771   0.867
 2773SOL    HW1 9218   2.842   4.771   0.802
 2773SOL    HW2 9219   2.897   4.835   0.942
 2774SOL     OW 9220   5.059   3.466   2.025
 2774SOL    HW1 9221   5.003   3.477   2.106
 2774SOL    HW2 9222   5.010   3.411   1.957
 2775SOL     OW 9223   0.034   0.055   2.638
 2775SOL    HW1 9224   0.082   7.003   2.604
 2775SOL    HW2 9225   6.965   0.043   2.627
 2776SOL     OW 9226   2.441   6.349   0.191
 2776SOL    HW1 9227   2.392   6.315   0.111
 2776SOL    HW2 9228   2.494   6.430   0.166
 2777SOL     OW 9229   1.838   2.326   4.364
 2777SOL    HW1 9230   1.782   2.390   4.416
 2777SOL    HW2 9231   1.930   2.323   4.403
 2778SOL     OW 9232   2.858   2.272   5.094
 2778SOL    HW1 9233   2.949   2.311   5.082
 2778SOL    HW2 9234   2.864   2.187   5.146
 2779SOL     OW 9235   6.107   0.978   1.315
 2779SOL    HW1 9236   6.195   1.018   1.340
 2779SOL    HW2 9237   6.082   1.006   1.222
 2780SOL     OW 9238   3.537   6.078   0.097
 2780SOL    HW1 9239   3.532   5.983   0.128
 2780SOL    HW2 9240   3.592   6.082   0.013
 2781SOL     OW 9241   4.923   3.769   6.554
 2781SOL    HW1 9242   4.972   3.832   6.614
 2781SOL    HW2 9243   4.914   3.810   6.463
 2782SOL     OW 9244   3.671   1.215   5.442
 2782SOL    HW1 9245   3.749   1.174   5.490
 2782SOL    HW2 9246   3.645   1.156   5.366
 2783SOL     OW 9247   0.432   4.076   5.505
 2783SOL    HW1 9248   0.516   4.021   5.506
 2783SOL    HW2 9249   0.452   4.166   5.467
 2784SOL     OW 9250   2.310   2.503   1.575
 2784SOL    HW1 9251   2.231   2.563   1.584
 2784SOL    HW2 9252   2.330   2.460   1.663
 2785SOL     OW 9253   6.032   1.717   2.216
 2785SOL    HW1 9254   6.091   1.756   2.145
 2785SOL    HW2 9255   5.986   1.791   2.266
 2786SOL     OW 9256   3.688   0.551   0.776
 2786SOL    HW1 9257   3.782   0.518   0.783
 2786SOL    HW2 9258   3.637   0.524   0.857
 2787SOL     OW 9259   2.142   3.900   6.121
 2787SOL    HW1 9260   2.096   3.812   6.132
 2787SOL    HW2 9261   2.122   3.937   6.030
 2788SOL     OW 9262   0.551   3.389   0.191
 2788SOL    HW1 9263   0.502   3.310   0.227
 2788SOL    HW2 9264   0.555   3.461   0.261
 2789SOL     OW 9265   0.770   2.621   4.254
 2789SOL    HW1 9266   0.725   2.711   4.247
 2789SOL    HW2 9267   0.808   2.611   4.346
 2790SOL     OW 9268   3.511   6.500   4.318
 2790SOL    HW1 9269   3.510   6.511   4.219
 2790SOL    HW2 9270   3.424   6.462   4.348
 2791SOL     OW 9271   1.894   3.797   2.874
 2791SOL    HW1 9272   1.841   3.867   2.920
 2791SOL    HW2 9273   1.892   3.713   2.928
 2792SOL     OW 9274   1.104   2.416   5.494
 2792SOL    HW1 9275   1.097   2.336   5.435
 2792SOL    HW2 9276   1.014   2.460   5.501
 2793SOL     OW 9277   4.601   0.676   4.115
 2793SOL    HW1 9278   4.666   0.722   4.176
 2793SOL    HW2 9279   4.518   0.653   4.166
 2794SOL     OW 9280   0.767   1.417   1.612
 2794SOL    HW1 9281   0.671   1.438   1.633
 2794SOL    HW2 9282   0.815   1.394   1.697
 2795SOL     OW 9283   0.956   3.793   1.169
 2795SOL    HW1 9284   1.016   3.872   1.152
 2795SOL    HW2 9285   0.983   3.749   1.254
 2796SOL     OW 9286   5.016   4.396   2.473
 2796SOL    HW1 9287   5.032   4.354   2.383
 2796SOL    HW2 9288   4.925   4.438   2.474
 2797SOL     OW 9289   4.453   4.346   5.340
 2797SOL    HW1 9290   4.382   4.396   5.292
 2797SOL    HW2 9291   4.414   4.298   5.418
 2798SOL     OW 9292   1.750   4.256   3.457
 2798SOL    HW1 9293   1.801   4.342   3.459
 2798SOL    HW2 9294   1.804   4.184   3.501
 2799SOL     OW 9295   0.065   5.794   5.946
 2799SOL    HW1 9296   0.122   5.720   5.981
 2799SOL    HW2 9297   7.015   5.807   6.006
 2800SOL     OW 9298   2.928   1.137   6.458
 2800SOL    HW1 9299   2.832   1.154   6.482
 2800SOL    HW2 9300   2.932   1.063   6.391
 2801SOL     OW 9301   4.151   5.226   1.935
 2801SOL    HW1 9302   4.130   5.168   1.856
 2801SOL    HW2 9303   4.079   5.216   2.004
 2802SOL     OW 9304   6.397   0.546   6.457
 2802SOL    HW1 9305   6.391   0.447   6.469
 2802SOL    HW2 9306   6.490   0.571   6.432
 2803SOL     OW 9307   2.571   5.885   5.558
 2803SOL    HW1 9308   2.517   5.847   5.634
 2803SOL    HW2 9309   2.559   5.984   5.555
 2804SOL     OW 9310   0.521   4.568   2.334
 2804SOL    HW1 9311   0.458   4.490   2.338
 2804SOL    HW2 9312   0.546   4.586   2.238
 2805SOL     OW 9313   5.929   3.745   6.844
 2805SOL    HW1 9314   5.857   3.690   6.887
 2805SOL    HW2 9315   5.961   3.700   6.761
 2806SOL     OW 9316   6.600   5.609   2.324
 2806SOL    HW1 9317   6.690   5.622   2.284
 2806SOL    HW2 9318   6.596   5.656   2.412
 2807SOL     OW 9319   3.832   4.854   3.510
 2807SOL    HW1 9320   3.749   4.866   3.456
 2807SOL    HW2 9321   3.904   4.813   3.454
 2808SOL     OW 9322   4.748   6.201   4.370
 2808SOL    HW1 9323   4.691   6.269   4.323
 2808SOL    HW2 9324   4.689   6.132   4.411
 2809SOL     OW 9325   5.931   2.843   0.022
 2809SOL    HW1 9326   5.939   2.758   6.999
 2809SOL    HW2 9327   5.951   2.825   0.118
 2810SOL     OW 9328   1.484   1.177   6.398
 2810SOL    HW1 9329   1.396   1.140   6.367
 2810SOL    HW2 9330   1.468   1.257   6.456
 2811SOL     OW 9331   0.314   0.481   4.077
 2811SOL    HW1 9332   0.232   0.535   4.098
 2811SOL    HW2 9333   0.345   0.435   4.160
 2812SOL     OW 9334   5.037   4.850   2.760
 2812SOL    HW1 9335   5.078   4.876   2.673
 2812SOL    HW2 9336   5.038   4.750   2.769
 2813SOL     OW 9337   6.139   1.983   6.378
 2813SOL    HW1 9338   6.184   2.066   6.345
 2813SOL    HW2 9339   6.079   1.947   6.306
 2814SOL     OW 9340   5.461   4.664   4.821
 2814SOL    HW1 9341   5.423   4.686   4.910
 2814SOL    HW2 9342   5.403   4.703   4.749
 2815SOL     OW 9343   0.449   0.899   4.673
 2815SOL    HW1 9344   0.525   0.956   4.641
 2815SOL    HW2 9345   0.383   0.887   4.600
 2816SOL     OW 9346   5.163   6.839   3.147
 2816SOL    HW1 9347   5.148   6.913   3.212
 2816SOL    HW2 9348   5.109   6.856   3.064
 2817SOL     OW 9349   1.365   1.561   1.256
 2817SOL    HW1 9350   1.462   1.537   1.260
 2817SOL    HW2 9351   1.311   1.479   1.276
 2818SOL     OW 9352   1.308   3.029   0.021
 2818SOL    HW1 9353   1.372   2.954   0.005
 2818SOL    HW2 9354   1.231   2.996   0.075
 2819SOL     OW 9355   6.539   2.980   1.098
 2819SOL    HW1 9356   6.567   3.070   1.066
 2819SOL    HW2 9357   6.620   2.929   1.129
 2820SOL     OW 9358   4.931   2.180   3.859
 2820SOL    HW1 9359   4.911   2.103   3.798
 2820SOL    HW2 9360   4.904   2.156   3.953
 2821SOL     OW 9361   1.586   3.419   3.415
 2821SOL    HW1 9362   1.675   3.463   3.427
 2821SOL    HW2 9363   1.518   3.488   3.389
 2822SOL     OW 9364   2.950   1.876   0.991
 2822SOL    HW1 9365   3.020   1.920   1.048
 2822SOL    HW2 9366   2.968   1.777   0.987
 2823SOL     OW 9367   1.607   0.142   4.066
 2823SOL    HW1 9368   1.571   0.199   3.992
 2823SOL    HW2 9369   1.667   0.072   4.028
 2824SOL     OW 9370   3.261   2.009   5.300
 2824SOL    HW1 9371   3.220   1.976   5.386
 2824SOL    HW2 9372   3.194   2.062   5.249
 2825SOL     OW 9373   6.186   6.272   1.016
 2825SOL    HW1 9374   6.104   6.215   1.011
 2825SOL    HW2 9375   6.165   6.354   1.069
 2826SOL     OW 9376   5.086   3.277   4.274
 2826SOL    HW1 9377   5.083   3.193   4.220
 2826SOL    HW2 9378   5.180   3.291   4.307
 2827SOL     OW 9379   6.832   0.284   6.427
 2827SOL    HW1 9380   6.840   0.381   6.403
 2827SOL    HW2 9381   6.919   0.238   6.408
 2828SOL     OW 9382   3.959   2.088   6.520
 2828SOL    HW1 9383   3.938   2.171   6.469
 2828SOL    HW2 9384   4.058   2.073   6.521
 2829SOL     OW 9385   3.033   0.607   0.066
 2829SOL    HW1 9386   3.082   0.551   0.133
 2829SOL    HW2 9387   3.009   0.551   7.016
 2830SOL     OW 9388   3.114   3.733   6.851
 2830SOL    HW1 9389   3.156   3.821   6.868
 2830SOL    HW2 9390   3.015   3.744   6.843
 2831SOL     OW 9391   6.794   6.437   4.169
 2831SOL    HW1 9392   6.794   6.532   4.201
 2831SOL    HW2 9393   6.796   6.437   4.069
 2832SOL     OW 9394   0.484   1.065   2.050
 2832SOL    HW1 9395   0.534   1.106   1.974
 2832SOL    HW2 9396   0.534   1.082   2.135
 2833SOL     OW 9397   6.516   3.573   2.361
 2833SOL    HW1 9398   6.522   3.488   2.308
 2833SOL    HW2 9399   6.426   3.614   2.347
 2834SOL     OW 9400   4.647   0.712   5.792
 2834SOL    HW1 9401   4.576   0.674   5.851
 2834SOL    HW2 9402   4.715   0.641   5.772
 2835SOL     OW 9403   6.574   6.583   3.423
 2835SOL    HW1 9404   6.545   6.558   3.331
 2835SOL    HW2 9405   6.661   6.633   3.418
 2836SOL     OW 9406   6.356   0.595   0.738
 2836SOL    HW1 9407   6.266   0.604   0.781
 2836SOL    HW2 9408   6.423   0.567   0.807
 2837SOL     OW 9409   5.980   3.085   3.439
 2837SOL    HW1 9410   6.032   3.101   3.355
 2837SOL    HW2 9411   6.026   3.015   3.493
 2838SOL     OW 9412   1.699   4.608   4.549
 2838SOL    HW1 9413   1.613   4.629   4.502
 2838SOL    HW2 9414   1.718   4.510   4.544
 2839SOL     OW 9415   4.538   2.734   0.784
 2839SOL    HW1 9416   4.589   2.817   0.765
 2839SOL    HW2 9417   4.455   2.756   0.835
 2840SOL     OW 9418   6.704   2.764   4.931
 2840SOL    HW1 9419   6.802   2.784   4.919
 2840SOL    HW2 9420   6.657   2.846   4.962
 2841SOL     OW 9421   6.809   6.332   0.827
 2841SOL    HW1 9422   6.855   6.321   0.739
 2841SOL    HW2 9423   6.834   6.421   0.866
 2842SOL     OW 9424   5.975   3.426   2.950
 2842SOL    HW1 9425   6.035   3.474   3.015
 2842SOL    HW2 9426   5.919   3.493   2.901
 2843SOL     OW 9427   3.903   1.295   3.930
 2843SOL    HW1 9428   3.890   1.253   4.019
 2843SOL    HW2 9429   3.955   1.380   3.940
 2844SOL     OW 9430   1.022   3.928   5.241
 2844SOL    HW1 9431   0.943   3.971   5.284
 2844SOL    HW2 9432   1.106   3.970   5.277
 2845SOL     OW 9433   7.000   4.081   5.537
 2845SOL    HW1 9434   0.024   4.052   5.458
 2845SOL    HW2 9435   0.032   4.094   5.615
 2846SOL     OW 9436   5.657   1.207   5.810
 2846SOL    HW1 9437   5.624   1.115   5.790
 2846SOL    HW2 9438   5.755   1.204   5.830
 2847SOL     OW 9439   4.601   4.654   4.366
 2847SOL    HW1 9440   4.573   4.664   4.271
 2847SOL    HW2 9441   4.672   4.721   4.387
 2848SOL     OW 9442   1.861   6.545   5.376
 2848SOL    HW1 9443   1.873   6.446   5.374
 2848SOL    HW2 9444   1.804   6.570   5.454
 2849SOL     OW 9445   2.028   3.097   1.954
 2849SOL    HW1 9446   1.977   3.101   1.869
 2849SOL    HW2 9447   2.091   3.019   1.952
 2850SOL     OW 9448   4.019   1.641   0.473
 2850SOL    HW1 9449   3.959   1.587   0.415
 2850SOL    HW2 9450   4.110   1.600   0.474
 2851SOL     OW 9451   2.493   5.227   5.931
 2851SOL    HW1 9452   2.577   5.279   5.950
 2851SOL    HW2 9453   2.466   5.175   6.012
 2852SOL     OW 9454   0.717   2.500   6.597
 2852SOL    HW1 9455   0.635   2.443   6.608
 2852SOL    HW2 9456   0.715   2.543   6.507
 2853SOL     OW 9457   3.664   2.260   1.517
 2853SOL    HW1 9458   3.669   2.225   1.610
 2853SOL    HW2 9459   3.716   2.346   1.511
 2854SOL     OW 9460   0.293   0.769   3.597
 2854SOL    HW1 9461   0.393   0.771   3.590
 2854SOL    HW2 9462   0.256   0.858   3.570
 2855SOL     OW 9463   3.249   1.705   4.609
 2855SOL    HW1 9464   3.150   1.720   4.598
 2855SOL    HW2 9465   3.267   1.675   4.703
 2856SOL     OW 9466   2.466   1.558   5.598
 2856SOL    HW1 9467   2.430   1.495   5.668
 2856SOL    HW2 9468   2.445   1.652   5.624
 2857SOL     OW 9469   3.447   3.292   3.532
 2857SOL    HW1 9470   3.528   3.269   3.478
 2857SOL    HW2 9471   3.385   3.214   3.535
 2858SOL     OW 9472   5.606   2.704   3.153
 2858SOL    HW1 9473   5.537   2.729   3.221
 2858SOL    HW2 9474   5.644   2.615   3.175
 2859SOL     OW 9475   5.568   6.207   0.064
 2859SOL    HW1 9476   5.509   6.264   0.121
 2859SOL    HW2 9477   5.516   6.128   0.030
 2860SOL     OW 9478   4.279   2.137   0.997
 2860SOL    HW1 9479   4.215   2.208   1.027
 2860SOL    HW2 9480   4.359   2.180   0.956
 2861SOL     OW 9481   3.851   5.099   6.197
 2861SOL    HW1 9482   3.813   5.162   6.129
 2861SOL    HW2 9483   3.805   5.011   6.189
 2862SOL     OW 9484   6.674   7.027   3.362
 2862SOL    HW1 9485   6.674   0.004   3.462
 2862SOL    HW2 9486   6.581   0.013   3.328
 2863SOL     OW 9487   6.736   0.748   6.842
 2863SOL    HW1 9488   6.668   0.819   6.822
 2863SOL    HW2 9489   6.788   0.773   6.924
 2864SOL     OW 9490   3.565   1.786   0.653
 2864SOL    HW1 9491   3.517   1.700   0.635
 2864SOL    HW2 9492   3.546   1.851   0.580
 2865SOL     OW 9493   4.489   4.786   5.057
 2865SOL    HW1 9494   4.446   4.710   5.008
 2865SOL    HW2 9495   4.577   4.756   5.094
 2866SOL     OW 9496   0.285   6.747   6.433
 2866SOL    HW1 9497   0.242   6.678   6.374
 2866SOL    HW2 9498   0.376   6.716   6.460
 2867SOL     OW 9499   6.718   4.484   3.650
 2867SOL    HW1 9500   6.688   4.551   3.717
 2867SOL    HW2 9501   6.727   4.394   3.693
 2868SOL     OW 9502   1.979   4.802   4.884
 2868SOL    HW1 9503   1.910   4.845   4.825
 2868SOL    HW2 9504   1.985   4.704   4.863
 2869SOL     OW 9505   6.130   1.436   2.139
 2869SOL    HW1 9506   6.117   1.354   2.196
 2869SOL    HW2 9507   6.099   1.517   2.190
 2870SOL     OW 9508   4.107   2.137   2.523
 2870SOL    HW1 9509   4.110   2.037   2.521
 2870SOL    HW2 9510   4.120   2.173   2.431
 2871SOL     OW 9511   1.206   1.549   5.732
 2871SOL    HW1 9512   1.161   1.507   5.653
 2871SOL    HW2 9513   1.208   1.648   5.720
 2872SOL     OW 9514   2.148   0.483   3.934
 2872SOL    HW1 9515   2.094   0.554   3.890
 2872SOL    HW2 9516   2.156   0.404   3.873
 2873SOL     OW 9517   6.717   5.752   1.710
 2873SOL    HW1 9518   6.684   5.835   1.665
 2873SOL    HW2 9519   6.793   5.714   1.657
 2874SOL     OW 9520   5.524   2.277   2.122
 2874SOL    HW1 9521   5.479   2.209   2.064
 2874SOL    HW2 9522   5.461   2.353   2.139
 2875SOL     OW 9523   2.650   5.058   1.377
 2875SOL    HW1 9524   2.700   5.139   1.409
 2875SOL    HW2 9525   2.632   5.067   1.279
 2876SOL     OW 9526   6.834   2.443   1.744
 2876SOL    HW1 9527   6.811   2.356   1.786
 2876SOL    HW2 9528   6.784   2.517   1.791
 2877SOL     OW 9529   1.847   3.568   5.454
 2877SOL    HW1 9530   1.775   3.523   5.402
 2877SOL    HW2 9531   1.807   3.634   5.518
 2878SOL     OW 9532   3.805   5.102   0.356
 2878SOL    HW1 9533   3.785   5.060   0.445
 2878SOL    HW2 9534   3.796   5.033   0.284
 2879SOL     OW 9535   4.685   4.308   6.917
 2879SOL    HW1 9536   4.636   4.385   6.959
 2879SOL    HW2 9537   4.619   4.238   6.889
 2880SOL     OW 9538   2.120   6.852   2.821
 2880SOL    HW1 9539   2.054   6.918   2.785
 2880SOL    HW2 9540   2.090   6.821   2.912
 2881SOL     OW 9541   0.136   0.178   6.958
 2881SOL    HW1 9542   0.101   0.215   6.872
 2881SOL    HW2 9543   0.195   0.246   7.002
 2882SOL     OW 9544   6.860   3.340   3.362
 2882SOL    HW1 9545   6.920   3.317   3.286
 2882SOL    HW2 9546   6.885   3.286   3.442
 2883SOL     OW 9547   4.366   5.766   2.034
 2883SOL    HW1 9548   4.317   5.767   2.120
 2883SOL    HW2 9549   4.340   5.846   1.980
 2884SOL     OW 9550   1.825   5.532   3.082
 2884SOL    HW1 9551   1.844   5.436   3.102
 2884SOL    HW2 9552   1.850   5.552   2.987
 2885SOL     OW 9553   0.921   2.414   4.686
 2885SOL    HW1 9554   0.901   2.417   4.784
 2885SOL    HW2 9555   0.923   2.318   4.655
 2886SOL     OW 9556   2.657   2.939   6.553
 2886SOL    HW1 9557   2.717   2.951   6.474
 2886SOL    HW2 9558   2.708   2.894   6.627
 2887SOL     OW 9559   2.532   1.348   4.915
 2887SOL    HW1 9560   2.543   1.325   5.012
 2887SOL    HW2 9561   2.568   1.440   4.898
 2888SOL     OW 9562   0.070   5.568   6.895
 2888SOL    HW1 9563   7.017   5.598   6.943
 2888SOL    HW2 9564   0.151   5.601   6.944
 2889SOL     OW 9565   0.973   0.055   0.876
 2889SOL    HW1 9566   0.993   0.149   0.848
 2889SOL    HW2 9567   0.880   0.031   0.848
 2890SOL     OW 9568   3.157   0.611   0.668
 2890SOL    HW1 9569   3.224   0.569   0.606
 2890SOL    HW2 9570   3.188   0.703   0.692
 2891SOL     OW 9571   3.049   4.856   5.036
 2891SOL    HW1 9572   3.011   4.940   4.998
 2891SOL    HW2 9573   2.987   4.780   5.018
 2892SOL     OW 9574   4.055   4.289   5.289
 2892SOL    HW1 9575   4.128   4.346   5.251
 2892SOL    HW2 9576   3.980   4.283   5.224
 2893SOL     OW 9577   3.436   0.993   5.918
 2893SOL    HW1 9578   3.424   1.058   5.843
 2893SOL    HW2 9579   3.445   0.901   5.881
 2894SOL     OW 9580   4.042   2.973   1.209
 2894SOL    HW1 9581   4.004   2.992   1.300
 2894SOL    HW2 9582   4.142   2.978   1.213
 2895SOL     OW 9583   3.166   3.006   0.350
 2895SOL    HW1 9584   3.258   2.978   0.323
 2895SOL    HW2 9585   3.120   3.050   0.273
 2896SOL     OW 9586   1.519   4.708   0.440
 2896SOL    HW1 9587   1.496   4.671   0.350
 2896SOL    HW2 9588   1.500   4.806   0.441
 2897SOL     OW 9589   1.103   0.064   3.640
 2897SOL    HW1 9590   1.114   0.009   3.557
 2897SOL    HW2 9591   1.072   0.156   3.615
 2898SOL     OW 9592   2.271   5.105   2.848
 2898SOL    HW1 9593   2.333   5.064   2.781
 2898SOL    HW2 9594   2.323   5.139   2.926
 2899SOL     OW 9595   5.808   0.921   0.841
 2899SOL    HW1 9596   5.727   0.863   0.827
 2899SOL    HW2 9597   5.870   0.912   0.763
 2900SOL     OW 9598   3.348   5.362   6.602
 2900SOL    HW1 9599   3.388   5.399   6.686
 2900SOL    HW2 9600   3.324   5.266   6.616
 2901SOL     OW 9601   2.656   6.978   1.246
 2901SOL    HW1 9602   2.577   6.917   1.252
 2901SOL    HW2 9603   2.683   7.008   1.338
 2902SOL     OW 9604   4.897   5.288   0.770
 2902SOL    HW1 9605   4.807   5.326   0.749
 2902SOL    HW2 9606   4.886   5.209   0.831
 2903SOL     OW 9607   2.843   2.357   1.653
 2903SOL    HW1 9608   2.815   2.382   1.560
 2903SOL    HW2 9609   2.935   2.392   1.671
 2904SOL     OW 9610   2.382   2.706   4.194
 2904SOL    HW1 9611   2.448   2.662   4.133
 2904SOL    HW2 9612   2.351   2.791   4.153
 2905SOL     OW 9613   1.335   1.637   2.263
 2905SOL    HW1 9614   1.247   1.681   2.248
 2905SOL    HW2 9615   1.343   1.609   2.359
 2906SOL     OW 9616   5.369   5.452   2.009
 2906SOL    HW1 9617   5.338   5.460   2.104
 2906SOL    HW2 9618   5.441   5.382   2.003
 2907SOL     OW 9619   6.026   0.280   4.355
 2907SOL    HW1 9620   6.045   0.205   4.418
 2907SOL    HW2 9621   6.111   0.329   4.334
 2908SOL     OW 9622   3.599   5.876   5.086
 2908SOL    HW1 9623   3.661   5.812   5.129
 2908SOL    HW2 9624   3.641   5.967   5.085
 2909SOL     OW 9625   2.148   5.747   5.649
 2909SOL    HW1 9626   2.234   5.711   5.683
 2909SOL    HW2 9627   2.164   5.833   5.599
 2910SOL     OW 9628   4.835   6.251   5.295
 2910SOL    HW1 9629   4.749   6.225   5.339
 2910SOL    HW2 9630   4.827   6.344   5.259
 2911SOL     OW 9631   2.449   4.461   3.619
 2911SOL    HW1 9632   2.418   4.539   3.672
 2911SOL    HW2 9633   2.476   4.387   3.681
 2912SOL     OW 9634   2.620   5.122   1.098
 2912SOL    HW1 9635   2.530   5.150   1.132
 2912SOL    HW2 9636   2.609   5.048   1.032
 2913SOL     OW 9637   0.987   3.673   2.596
 2913SOL    HW1 9638   0.904   3.616   2.602
 2913SOL    HW2 9639   1.017   3.677   2.501
 2914SOL     OW 9640   5.421   4.693   5.794
 2914SOL    HW1 9641   5.412   4.671   5.891
 2914SOL    HW2 9642   5.414   4.792   5.782
 2915SOL     OW 9643   4.525   1.477   3.773
 2915SOL    HW1 9644   4.529   1.403   3.839
 2915SOL    HW2 9645   4.584   1.552   3.804
 2916SOL     OW 9646   4.653   6.827   4.528
 2916SOL    HW1 9647   4.660   6.800   4.432
 2916SOL    HW2 9648   4.744   6.830   4.569
 2917SOL     OW 9649   3.883   0.566   2.203
 2917SOL    HW1 9650   3.853   0.658   2.229
 2917SOL    HW2 9651   3.831   0.499   2.256
 2918SOL     OW 9652   1.101   2.817   4.640
 2918SOL    HW1 9653   1.128   2.842   4.548
 2918SOL    HW2 9654   1.157   2.740   4.671
 2919SOL     OW 9655   6.200   6.093   0.615
 2919SOL    HW1 9656   6.284   6.039   0.623
 2919SOL    HW2 9657   6.224   6.190   0.608
 2920SOL     OW 9658   4.464   1.956   2.776
 2920SOL    HW1 9659   4.532   1.883   2.785
 2920SOL    HW2 9660   4.468   1.995   2.684
 2921SOL     OW 9661   0.107   0.992   1.260
 2921SOL    HW1 9662   0.148   0.940   1.185
 2921SOL    HW2 9663   0.161   1.074   1.277
 2922SOL     OW 9664   4.311   6.580   5.134
 2922SOL    HW1 9665   4.319   6.505   5.200
 2922SOL    HW2 9666   4.375   6.653   5.158
 2923SOL     OW 9667   6.991   4.390   6.987
 2923SOL    HW1 9668   7.002   4.450   0.037
 2923SOL    HW2 9669   6.967   4.444   6.907
 2924SOL     OW 9670   6.420   6.577   5.957
 2924SOL    HW1 9671   6.388   6.640   5.887
 2924SOL    HW2 9672   6.343   6.527   5.996
 2925SOL     OW 9673   5.696   3.451   0.896
 2925SOL    HW1 9674   5.735   3.359   0.896
 2925SOL    HW2 9675   5.756   3.513   0.948
 2926SOL     OW 9676   0.086   1.123   4.030
 2926SOL    HW1 9677   0.105   1.026   4.045
 2926SOL    HW2 9678   0.031   1.134   3.947
 2927SOL     OW 9679   0.664   3.236   2.736
 2927SOL    HW1 9680   0.665   3.254   2.835
 2927SOL    HW2 9681   0.757   3.237   2.701
 2928SOL     OW 9682   5.429   6.072   0.445
 2928SOL    HW1 9683   5.448   6.136   0.519
 2928SOL    HW2 9684   5.343   6.025   0.463
 2929SOL     OW 9685   0.887   0.261   6.068
 2929SOL    HW1 9686   0.907   0.196   5.994
 2929SOL    HW2 9687   0.874   0.211   6.153
 2930SOL     OW 9688   3.121   6.633   4.312
 2930SOL    HW1 9689   3.071   6.637   4.399
 2930SOL    HW2 9690   3.057   6.644   4.236
 2931SOL     OW 9691   4.236   4.594   6.423
 2931SOL    HW1 9692   4.159   4.650   6.452
 2931SOL    HW2 9693   4.258   4.528   6.496
 2932SOL     OW 9694   1.639   4.744   2.201
 2932SOL    HW1 9695   1.557   4.748   2.258
 2932SOL    HW2 9696   1.612   4.738   2.105
 2933SOL     OW 9697   4.910   2.184   3.334
 2933SOL    HW1 9698   4.879   2.259   3.275
 2933SOL    HW2 9699   4.950   2.223   3.418
 2934SOL     OW 9700   2.050   1.039   0.765
 2934SOL    HW1 9701   2.061   1.030   0.666
 2934SOL    HW2 9702   1.953   1.035   0.788
 2935SOL     OW 9703   6.761   1.306   1.266
 2935SOL    HW1 9704   6.718   1.267   1.347
 2935SOL    HW2 9705   6.822   1.381   1.293
 2936SOL     OW 9706   3.250   5.458   0.111
 2936SOL    HW1 9707   3.316   5.383   0.104
 2936SOL    HW2 9708   3.199   5.448   0.197
 2937SOL     OW 9709   2.742   4.438   0.206
 2937SOL    HW1 9710   2.761   4.514   0.144
 2937SOL    HW2 9711   2.807   4.364   0.190
 2938SOL     OW 9712   4.997   4.725   5.618
 2938SOL    HW1 9713   4.934   4.774   5.557
 2938SOL    HW2 9714   4.967   4.630   5.627
 2939SOL     OW 9715   0.360   6.572   5.986
 2939SOL    HW1 9716   0.393   6.635   6.056
 2939SOL    HW2 9717   0.312   6.496   6.030
 2940SOL     OW 9718   3.600   6.879   5.149
 2940SOL    HW1 9719   3.568   6.827   5.070
 2940SOL    HW2 9720   3.615   6.817   5.226
 2941SOL     OW 9721   3.671   1.695   4.870
 2941SOL    HW1 9722   3.664   1.661   4.776
 2941SOL    HW2 9723   3.724   1.630   4.925
 2942SOL     OW 9724   4.137   6.428   4.108
 2942SOL    HW1 9725   4.234   6.448   4.097
 2942SOL    HW2 9726   4.098   6.399   4.021
 2943SOL     OW 9727   5.391   4.715   2.718
 2943SOL    HW1 9728   5.329   4.708   2.640
 2943SOL    HW2 9729   5.378   4.636   2.777
 2944SOL     OW 9730   4.397   6.184   0.031
 2944SOL    HW1 9731   4.381   6.276   7.024
 2944SOL    HW2 9732   4.347   6.117   7.004
 2945SOL     OW 9733   3.206   3.878   3.948
 2945SOL    HW1 9734   3.305   3.892   3.942
 2945SOL    HW2 9735   3.173   3.832   3.866
 2946SOL     OW 9736   0.837   6.053   6.086
 2946SOL    HW1 9737   0.860   6.104   6.170
 2946SOL    HW2 9738   0.855   6.110   6.006
 2947SOL     OW 9739   6.970   5.435   0.189
 2947SOL    HW1 9740   6.932   5.491   0.262
 2947SOL    HW2 9741   6.953   5.479   0.101
 2948SOL     OW 9742   5.726   3.950   5.374
 2948SOL    HW1 9743   5.808   3.893   5.372
 2948SOL    HW2 9744   5.646   3.892   5.384
 2949SOL     OW 9745   0.755   6.588   0.996
 2949SOL    HW1 9746   0.844   6.629   1.016
 2949SOL    HW2 9747   0.683   6.655   1.013
 2950SOL     OW 9748   4.910   3.575   4.724
 2950SOL    HW1 9749   4.901   3.615   4.815
 2950SOL    HW2 9750   4.985   3.621   4.675
 2951SOL     OW 9751   5.904   0.427   0.819
 2951SOL    HW1 9752   5.984   0.379   0.853
 2951SOL    HW2 9753   5.873   0.384   0.734
 2952SOL     OW 9754   0.849   3.939   1.548
 2952SOL    HW1 9755   0.804   3.904   1.629
 2952SOL    HW2 9756   0.944   3.908   1.546
 2953SOL     OW 9757   5.643   1.603   2.186
 2953SOL    HW1 9758   5.560   1.649   2.218
 2953SOL    HW2 9759   5.690   1.560   2.264
 2954SOL     OW 9760   5.468   6.012   1.502
 2954SOL    HW1 9761   5.452   6.043   1.409
 2954SOL    HW2 9762   5.381   6.005   1.551
 2955SOL     OW 9763   6.196   2.485   0.539
 2955SOL    HW1 9764   6.103   2.497   0.574
 2955SOL    HW2 9765   6.196   2.498   0.439
 2956SOL     OW 9766   6.879   5.771   3.298
 2956SOL    HW1 9767   6.889   5.820   3.385
 2956SOL    HW2 9768   6.785   5.780   3.265
 2957SOL     OW 9769   1.528   4.508   1.449
 2957SOL    HW1 9770   1.497   4.589   1.499
 2957SOL    HW2 9771   1.450   4.463   1.406
 2958SOL     OW 9772   2.821   5.611   6.579
 2958SOL    HW1 9773   2.860   5.609   6.671
 2958SOL    HW2 9774   2.865   5.684   6.526
 2959SOL     OW 9775   3.996   5.606   0.119
 2959SOL    HW1 9776   4.047   5.522   0.100
 2959SOL    HW2 9777   4.023   5.642   0.208
 2960SOL     OW 9778   2.899   1.678   6.906
 2960SOL    HW1 9779   2.906   1.591   6.857
 2960SOL    HW2 9780   2.815   1.679   6.960
 2961SOL     OW 9781   6.008   1.653   4.431
 2961SOL    HW1 9782   6.106   1.634   4.419
 2961SOL    HW2 9783   5.978   1.615   4.519
 2962SOL     OW 9784   4.086   0.564   2.987
 2962SOL    HW1 9785   4.125   0.603   3.071
 2962SOL    HW2 9786   4.158   0.551   2.919
 2963SOL     OW 9787   1.922   3.702   5.042
 2963SOL    HW1 9788   1.903   3.625   4.982
 2963SOL    HW2 9789   1.838   3.753   5.059
 2964SOL     OW 9790   2.848   5.992   0.527
 2964SOL    HW1 9791   2.762   5.947   0.504
 2964SOL    HW2 9792   2.923   5.950   0.475
 2965SOL     OW 9793   0.273   2.503   6.133
 2965SOL    HW1 9794   0.174   2.503   6.128
 2965SOL    HW2 9795   0.307   2.597   6.122
 2966SOL     OW 9796   4.944   4.867   3.473
 2966SOL    HW1 9797   4.883   4.945   3.462
 2966SOL    HW2 9798   4.967   4.830   3.383
 2967SOL     OW 9799   5.510   2.420   3.981
 2967SOL    HW1 9800   5.586   2.459   4.032
 2967SOL    HW2 9801   5.442   2.491   3.962
 2968SOL     OW 9802   6.309   3.496   3.052
 2968SOL    HW1 9803   6.320   3.397   3.058
 2968SOL    HW2 9804   6.333   3.538   3.140
 2969SOL     OW 9805   3.803   1.308   4.541
 2969SOL    HW1 9806   3.800   1.208   4.541
 2969SOL    HW2 9807   3.809   1.340   4.636
 2970SOL     OW 9808   0.917   4.083   6.095
 2970SOL    HW1 9809   0.907   4.171   6.141
 2970SOL    HW2 9810   1.007   4.078   6.051
 2971SOL     OW 9811   5.518   3.548   2.736
 2971SOL    HW1 9812   5.540   3.453   2.711
 2971SOL    HW2 9813   5.423   3.553   2.769
 2972SOL     OW 9814   0.858   4.193   4.990
 2972SOL    HW1 9815   0.858   4.098   4.960
 2972SOL    HW2 9816   0.772   4.212   5.040
 2973SOL     OW 9817   5.835   0.301   3.951
 2973SOL    HW1 9818   5.902   0.251   4.005
 2973SOL    HW2 9819   5.832   0.262   3.858
 2974SOL     OW 9820   6.859   4.387   2.212
 2974SOL    HW1 9821   6.837   4.290   2.206
 2974SOL    HW2 9822   6.954   4.398   2.240
 2975SOL     OW 9823   6.807   0.959   4.291
 2975SOL    HW1 9824   6.744   1.034   4.313
 2975SOL    HW2 9825   6.806   0.892   4.365
 2976SOL     OW 9826   2.331   6.071   1.332
 2976SOL    HW1 9827   2.328   6.145   1.400
 2976SOL    HW2 9828   2.377   6.103   1.250
 2977SOL     OW 9829   3.273   6.405   4.373
 2977SOL    HW1 9830   3.262   6.376   4.468
 2977SOL    HW2 9831   3.192   6.457   4.345
 2978SOL     OW 9832   3.176   6.891   6.296
 2978SOL    HW1 9833   3.176   6.851   6.387
 2978SOL    HW2 9834   3.216   6.826   6.231
 2979SOL     OW 9835   3.553   1.281   2.951
 2979SOL    HW1 9836   3.521   1.281   2.856
 2979SOL    HW2 9837   3.607   1.364   2.968
 2980SOL     OW 9838   6.451   6.439   3.837
 2980SOL    HW1 9839   6.381   6.509   3.849
 2980SOL    HW2 9840   6.542   6.482   3.841
 2981SOL     OW 9841   1.987   1.562   6.300
 2981SOL    HW1 9842   1.920   1.581   6.228
 2981SOL    HW2 9843   1.939   1.541   6.385
 2982SOL     OW 9844   4.869   6.020   2.130
 2982SOL    HW1 9845   4.862   5.937   2.185
 2982SOL    HW2 9846   4.965   6.045   2.119
 2983SOL     OW 9847   6.627   0.866   2.979
 2983SOL    HW1 9848   6.623   0.949   3.035
 2983SOL    HW2 9849   6.683   0.797   3.024
 2984SOL     OW 9850   6.367   4.487   1.721
 2984SOL    HW1 9851   6.298   4.462   1.789
 2984SOL    HW2 9852   6.392   4.407   1.667
 2985SOL     OW 9853   6.906   2.271   3.453
 2985SOL    HW1 9854   6.819   2.321   3.448
 2985SOL    HW2 9855   6.949   2.269   3.362
 2986SOL     OW 9856   2.103   3.572   5.212
 2986SOL    HW1 9857   2.174   3.632   5.249
 2986SOL    HW2 9858   2.033   3.628   5.168
 2987SOL     OW 9859   5.045   1.495   4.962
 2987SOL    HW1 9860   5.043   1.493   5.062
 2987SOL    HW2 9861   5.130   1.539   4.932
 2988SOL     OW 9862   0.781   6.691   2.040
 2988SOL    HW1 9863   0.753   6.758   1.972
 2988SOL    HW2 9864   0.721   6.611   2.036
 2989SOL     OW 9865   6.542   5.299   0.808
 2989SOL    HW1 9866   6.574   5.204   0.808
 2989SOL    HW2 9867   6.455   5.306   0.857
 2990SOL     OW 9868   2.717   1.389   1.519
 2990SOL    HW1 9869   2.798   1.331   1.505
 2990SOL    HW2 9870   2.684   1.422   1.431
 2991SOL     OW 9871   6.310   4.722   0.303
 2991SOL    HW1 9872   6.393   4.712   0.247
 2991SOL    HW2 9873   6.233   4.677   0.256
 2992SOL     OW 9874   4.207   4.765   6.780
 2992SOL    HW1 9875   4.294   4.755   6.733
 2992SOL    HW2 9876   4.135   4.722   6.726
 2993SOL     OW 9877   1.708   4.485   0.057
 2993SOL    HW1 9878   1.790   4.541   0.073
 2993SOL    HW2 9879   1.725   4.392   0.089
 2994SOL     OW 9880   3.848   5.946   0.247
 2994SOL    HW1 9881   3.901   5.920   0.328
 2994SOL    HW2 9882   3.852   6.045   0.236
 2995SOL     OW 9883   2.740   0.517   5.582
 2995SOL    HW1 9884   2.681   0.449   5.624
 2995SOL    HW2 9885   2.700   0.548   5.496
 2996SOL     OW 9886   4.540   6.132   5.352
 2996SOL    HW1 9887   4.592   6.047   5.350
 2996SOL    HW2 9888   4.459   6.121   5.409
 2997SOL     OW 9889   4.294   5.944   0.462
 2997SOL    HW1 9890   4.379   5.997   0.472
 2997SOL    HW2 9891   4.269   5.941   0.365
 2998SOL     OW 9892   6.311   5.095   5.499
 2998SOL    HW1 9893   6.409   5.080   5.517
 2998SOL    HW2 9894   6.257   5.059   5.575
 2999SOL     OW 9895   2.114   1.083   1.812
 2999SOL    HW1 9896   2.048   1.027   1.863
 2999SOL    HW2 9897   2.065   1.155   1.762
 3000SOL     OW 9898   1.096   1.854   4.876
 3000SOL    HW1 9899   1.164   1.916   4.916
 3000SOL    HW2 9900   1.021   1.908   4.838
 3001SOL     OW 9901   4.780   6.663   5.960
 3001SOL    HW1 9902   4.739   6.720   5.889
 3001SOL    HW2 9903   4.781   6.568   5.930
 3002SOL     OW 9904   2.854   0.852   5.384
 3002SOL    HW1 9905   2.928   0.785   5.374
 3002SOL    HW2 9906   2.868   0.927   5.318
 3003SOL     OW 9907   1.980   0.081   5.893
 3003SOL    HW1 9908   1.973   7.016   5.859
 3003SOL    HW2 9909   2.016   0.079   5.986
 3004SOL     OW 9910   6.651   2.815   5.772
 3004SOL    HW1 9911   6.623   2.909   5.787
 3004SOL    HW2 9912   6.687   2.777   5.857
 3005SOL     OW 9913   4.583   2.434   1.040
 3005SOL    HW1 9914   4.608   2.405   0.948
 3005SOL    HW2 9915   4.651   2.401   1.106
 3006SOL     OW 9916   4.504   6.941   1.325
 3006SOL    HW1 9917   4.552   6.928   1.412
 3006SOL    HW2 9918   4.517   0.005   1.293
 3007SOL     OW 9919   5.918   5.340   1.664
 3007SOL    HW1 9920   5.905   5.256   1.717
 3007SOL    HW2 9921   5.864   5.414   1.703
 3008SOL     OW 9922   4.698   5.946   5.499
 3008SOL    HW1 9923   4.752   5.910   5.575
 3008SOL    HW2 9924   4.756   5.952   5.417
 3009SOL     OW 9925   1.304   0.745   2.243
 3009SOL    HW1 9926   1.259   0.666   2.285
 3009SOL    HW2 9927   1.314   0.818   2.310
 3010SOL     OW 9928   2.702   6.731   2.698
 3010SOL    HW1 9929   2.768   6.656   2.703
 3010SOL    HW2 9930   2.677   6.747   2.602
 3011SOL     OW 9931   5.694   0.473   0.030
 3011SOL    HW1 9932   5.744   0.542   0.082
 3011SOL    HW2 9933   5.759   0.412   7.013
 3012SOL     OW 9934   0.031   4.883   1.377
 3012SOL    HW1 9935   0.033   4.968   1.324
 3012SOL    HW2 9936   0.124   4.855   1.398
 3013SOL     OW 9937   6.269   4.061   2.149
 3013SOL    HW1 9938   6.312   4.000   2.083
 3013SOL    HW2 9939   6.178   4.027   2.171
 3014SOL     OW 9940   5.352   0.160   5.575
 3014SOL    HW1 9941   5.342   0.088   5.506
 3014SOL    HW2 9942   5.349   0.120   5.666
 3015SOL     OW 9943   2.851   1.049   0.187
 3015SOL    HW1 9944   2.928   0.994   0.219
 3015SOL    HW2 9945   2.824   1.018   0.095
 3016SOL     OW 9946   3.919   6.355   3.226
 3016SOL    HW1 9947   3.925   6.257   3.245
 3016SOL    HW2 9948   3.837   6.392   3.269
 3017SOL     OW 9949   0.208   5.715   1.316
 3017SOL    HW1 9950   0.177   5.802   1.354
 3017SOL    HW2 9951   0.132   5.669   1.271
 3018SOL     OW 9952   4.058   0.021   6.318
 3018SOL    HW1 9953   4.066   0.119   6.301
 3018SOL    HW2 9954   4.004   7.007   6.245
 3019SOL     OW 9955   5.126   6.845   1.845
 3019SOL    HW1 9956   5.206   6.906   1.846
 3019SOL    HW2 9957   5.068   6.869   1.767
 3020SOL     OW 9958   1.856   1.026   1.597
 3020SOL    HW1 9959   1.838   1.090   1.672
 3020SOL    HW2 9960   1.932   1.061   1.542
 3021SOL     OW 9961   4.496   0.637   6.197
 3021SOL    HW1 9962   4.496   0.727   6.241
 3021SOL    HW2 9963   4.469   0.568   6.264
 3022SOL     OW 9964   6.670   0.269   2.602
 3022SOL    HW1 9965   6.696   0.216   2.521
 3022SOL    HW2 9966   6.732   0.347   2.613
 3023SOL     OW 9967   5.741   0.279   1.628
 3023SOL    HW1 9968   5.682   0.341   1.681
 3023SOL    HW2 9969   5.684   0.219   1.571
 3024SOL     OW 9970   2.858   6.884   6.338
 3024SOL    HW1 9971   2.849   6.845   6.247
 3024SOL    HW2 9972   2.951   6.917   6.351
 3025SOL     OW 9973   1.881   2.534   1.938
 3025SOL    HW1 9974   1.910   2.532   1.842
 3025SOL    HW2 9975   1.910   2.620   1.979
 3026SOL     OW 9976   2.637   5.408   0.335
 3026SOL    HW1 9977   2.732   5.416   0.305
 3026SOL    HW2 9978   2.634   5.358   0.422
 3027SOL     OW 9979   1.701   1.793   3.786
 3027SOL    HW1 9980   1.641   1.854   3.734
 3027SOL    HW2 9981   1.657   1.704   3.798
 3028SOL     OW 9982   1.095   0.765   4.561
 3028SOL    HW1 9983   1.034   0.833   4.602
 3028SOL    HW2 9984   1.139   0.711   4.632
 3029SOL     OW 9985   5.789   5.011   5.647
 3029SOL    HW1 9986   5.829   5.082   5.705
 3029SOL    HW2 9987   5.773   5.048   5.556
 3030SOL     OW 9988   1.025   1.005   5.734
 3030SOL    HW1 9989   1.072   0.984   5.819
 3030SOL    HW2 9990   1.073   0.962   5.657
 3031SOL     OW 9991   0.590   5.473   6.282
 3031SOL    HW1 9992   0.569   5.567   6.255
 3031SOL    HW2 9993   0.532   5.446   6.359
 3032SOL     OW 9994   3.986   6.696   5.898
 3032SOL    HW1 9995   4.077   6.657   5.911
 3032SOL    HW2 9996   3.933   6.636   5.837
 3033SOL     OW 9997   5.663   4.518   5.871
 3033SOL    HW1 9998   5.598   4.586   5.836
 3033SOL    HW2 9999   5.724   4.561   5.936
 3034SOL     OW10000   2.719   6.570   4.354
 3034SOL    HW110001   2.713   6.654   4.300
 3034SOL    HW210002   2.727   6.593   4.451
 3035SOL     OW10003   6.395   6.882   6.990
 3035SOL    HW110004   6.321   6.891   0.028
 3035SOL    HW210005   6.412   6.970   6.947
 3036SOL     OW10006   1.320   5.017   5.114
 3036SOL    HW110007   1.321   4.921   5.141
 3036SOL    HW210008   1.228   5.041   5.080
 3037SOL     OW10009   5.852   6.842   5.702
 3037SOL    HW110010   5.905   6.920   5.669
 3037SOL    HW210011   5.778   6.875   5.762
 3038SOL     OW10012   6.216   6.316   5.828
 3038SOL    HW110013   6.274   6.370   5.766
 3038SOL    HW210014   6.224   6.352   5.921
 3039SOL     OW10015   0.472   4.967   0.408
 3039SOL    HW110016   0.470   5.028   0.487
 3039SOL    HW210017   0.528   4.887   0.429
 3040SOL     OW10018   2.918   1.421   6.817
 3040SOL    HW110019   3.011   1.401   6.846
 3040SOL    HW210020   2.861   1.340   6.827
 3041SOL     OW10021   1.681   2.258   6.219
 3041SOL    HW110022   1.606   2.246   6.284
 3041SOL    HW210023   1.651   2.317   6.145
 3042SOL     OW10024   6.041   6.844   1.662
 3042SOL    HW110025   6.030   6.747   1.642
 3042SOL    HW210026   6.072   6.856   1.756
 3043SOL     OW10027   6.797   5.146   6.802
 3043SOL    HW110028   6.765   5.239   6.785
 3043SOL    HW210029   6.879   5.149   6.860
 3044SOL     OW10030   2.525   3.264   6.162
 3044SOL    HW110031   2.505   3.196   6.232
 3044SOL    HW210032   2.500   3.355   6.196
 3045SOL     OW10033   4.349   2.030   3.807
 3045SOL    HW110034   4.263   2.017   3.856
 3045SOL    HW210035   4.425   2.003   3.865
 3046SOL     OW10036   1.916   2.559   5.989
 3046SOL    HW110037   1.955   2.650   5.971
 3046SOL    HW210038   1.978   2.507   6.047
 3047SOL     OW10039   0.275   4.690   1.300
 3047SOL    HW110040   0.260   4.642   1.213
 3047SOL    HW210041   0.317   4.779   1.282
 3048SOL     OW10042   2.907   2.676   1.723
 3048SOL    HW110043   2.918   2.582   1.753
 3048SOL    HW210044   2.820   2.686   1.674
 3049SOL     OW10045   0.872   0.456   1.699
 3049SOL    HW110046   0.915   0.470   1.788
 3049SOL    HW210047   0.943   0.453   1.628
 3050SOL     OW10048   2.011   0.655   3.786
 3050SOL    HW110049   2.047   0.690   3.699
 3050SOL    HW210050   1.928   0.705   3.810
 3051SOL     OW10051   2.984   4.542   5.958
 3051SOL    HW110052   2.973   4.638   5.932
 3051SOL    HW210053   2.981   4.534   6.057
 3052SOL     OW10054   4.869   6.876   2.679
 3052SOL    HW110055   4.949   6.936   2.680
 3052SOL    HW210056   4.837   6.864   2.585
 3053SOL     OW10057   4.751   0.000   1.733
 3053SOL    HW110058   4.842   6.987   1.733
 3053SOL    HW210059   4.759   0.095   1.703
 3054SOL     OW10060   2.138   4.307   5.609
 3054SOL    HW110061   2.131   4.224   5.664
 3054SOL    HW210062   2.232   4.317   5.575
 3055SOL     OW10063   5.818   6.776   2.951
 3055SOL    HW110064   5.902   6.759   3.003
 3055SOL    HW210065   5.769   6.690   2.939
 3056SOL     OW10066   5.702   0.670   2.090
 3056SOL    HW110067   5.604   0.656   2.075
 3056SOL    HW210068   5.716   0.743   2.157
 3057SOL     OW10069   6.394   5.926   2.339
 3057SOL    HW110070   6.333   6.004   2.328
 3057SOL    HW210071   6.478   5.940   2.287
 3058SOL     OW10072   6.313   5.807   1.419
 3058SOL    HW110073   6.262   5.751   1.354
 3058SOL    HW210074   6.251   5.836   1.493
 3059SOL     OW10075   1.939   2.826   5.918
 3059SOL    HW110076   1.991   2.901   5.878
 3059SOL    HW210077   1.842   2.850   5.921
 3060SOL     OW10078   0.448   6.542   0.358
 3060SOL    HW110079   0.354   6.509   0.366
 3060SOL    HW210080   0.489   6.550   0.449
 3061SOL     OW10081   0.433   0.804   6.061
 3061SOL    HW110082   0.415   0.764   6.151
 3061SOL    HW210083   0.450   0.731   5.994
 3062SOL     OW10084   3.148   5.441   6.431
 3062SOL    HW110085   3.209   5.393   6.495
 3062SOL    HW210086   3.066   5.387   6.415
 3063SOL     OW10087   2.527   6.095   0.657
 3063SOL    HW110088   2.559   6.157   0.585
 3063SOL    HW210089   2.568   6.121   0.744
 3064SOL     OW10090   6.879   4.780   3.909
 3064SOL    HW110091   6.885   4.840   3.989
 3064SOL    HW210092   6.855   4.834   3.828
 3065SOL     OW10093   3.045   1.221   1.123
 3065SOL    HW110094   3.002   1.167   1.196
 3065SOL    HW210095   3.049   1.167   1.039
 3066SOL     OW10096   5.378   5.724   0.251
 3066SOL    HW110097   5.466   5.771   0.245
 3066SOL    HW210098   5.390   5.638   0.300
 3067SOL     OW10099   4.146   0.130   2.985
 3067SOL    HW110100   4.137   0.203   2.917
 3067SOL    HW210101   4.056   0.100   3.015
 3068SOL     OW10102   5.848   4.559   0.052
 3068SOL    HW110103   5.815   4.549   6.987
 3068SOL    HW210104   5.780   4.605   0.107
 3069SOL     OW10105   1.129   5.071   3.953
 3069SOL    HW110106   1.036   5.034   3.952
 3069SOL    HW210107   1.133   5.154   3.898
 3070SOL     OW10108   3.889   1.502   4.215
 3070SOL    HW110109   3.926   1.425   4.162
 3070SOL    HW210110   3.809   1.471   4.267
 3071SOL     OW10111   5.588   0.261   4.074
 3071SOL    HW110112   5.532   0.284   3.995
 3071SOL    HW210113   5.684   0.252   4.046
 3072SOL     OW10114   6.990   0.540   1.993
 3072SOL    HW110115   0.039   0.561   2.051
 3072SOL    HW210116   7.022   0.518   1.901
 3073SOL     OW10117   1.761   2.313   5.027
 3073SOL    HW110118   1.847   2.357   5.004
 3073SOL    HW210119   1.713   2.367   5.097
 3074SOL     OW10120   4.883   3.572   5.881
 3074SOL    HW110121   4.921   3.485   5.851
 3074SOL    HW210122   4.816   3.604   5.813
 3075SOL     OW10123   6.992   5.731   0.727
 3075SOL    HW110124   6.894   5.722   0.741
 3075SOL    HW210125   7.016   5.699   0.636
 3076SOL     OW10126   0.773   0.792   4.861
 3076SOL    HW110127   0.713   0.854   4.911
 3076SOL    HW210128   0.854   0.842   4.829
 3077SOL     OW10129   5.554   4.256   3.720
 3077SOL    HW110130   5.526   4.221   3.810
 3077SOL    HW210131   5.474   4.292   3.672
 3078SOL     OW10132   2.157   2.272   0.250
 3078SOL    HW110133   2.077   2.253   0.306
 3078SOL    HW210134   2.170   2.371   0.241
 3079SOL     OW10135   5.563   3.088   6.504
 3079SOL    HW110136   5.465   3.088   6.527
 3079SOL    HW210137   5.589   3.180   6.472
 3080SOL     OW10138   6.587   6.698   1.204
 3080SOL    HW110139   6.578   6.620   1.266
 3080SOL    HW210140   6.616   6.779   1.257
 3081SOL     OW10141   0.869   4.760   6.084
 3081SOL    HW110142   0.814   4.842   6.067
 3081SOL    HW210143   0.961   4.787   6.109
 3082SOL     OW10144   2.805   7.013   2.394
 3082SOL    HW110145   2.864   6.954   2.450
 3082SOL    HW210146   2.853   0.006   2.308
 3083SOL     OW10147   3.262   0.387   2.252
 3083SOL    HW110148   3.183   0.336   2.285
 3083SOL    HW210149   3.242   0.423   2.161
 3084SOL     OW10150   4.325   6.454   3.771
 3084SOL    HW110151   4.303   6.541   3.816
 3084SOL    HW210152   4.268   6.443   3.690
 3085SOL     OW10153   1.221   5.102   1.953
 3085SOL    HW110154   1.289   5.159   1.999
 3085SOL    HW210155   1.142   5.089   2.013
 3086SOL     OW10156   6.241   1.344   4.068
 3086SOL    HW110157   6.227   1.321   3.972
 3086SOL    HW210158   6.153   1.346   4.115
 3087SOL     OW10159   5.718   3.873   1.911
 3087SOL    HW110160   5.650   3.852   1.981
 3087SOL    HW210161   5.757   3.963   1.929
 3088SOL     OW10162   2.956   3.788   6.428
 3088SOL    HW110163   3.001   3.877   6.421
 3088SOL    HW210164   3.023   3.715   6.415
 3089SOL     OW10165   3.533   1.814   1.460
 3089SOL    HW110166   3.470   1.819   1.382
 3089SOL    HW210167   3.585   1.899   1.466
 3090SOL     OW10168   6.592   2.101   0.796
 3090SOL    HW110169   6.539   2.090   0.880
 3090SOL    HW210170   6.555   2.177   0.743
 3091SOL     OW10171   2.312   6.645   0.481
 3091SOL    HW110172   2.396   6.647   0.535
 3091SOL    HW210173   2.257   6.726   0.503
 3092SOL     OW10174   3.598   5.441   0.168
 3092SOL    HW110175   3.580   5.539   0.173
 3092SOL    HW210176   3.657   5.414   0.245
 3093SOL     OW10177   4.980   6.590   3.170
 3093SOL    HW110178   4.902   6.596   3.107
 3093SOL    HW210179   5.035   6.673   3.162
 3094SOL     OW10180   3.062   5.534   5.344
 3094SOL    HW110181   3.092   5.452   5.394
 3094SOL    HW210182   3.086   5.525   5.247
 3095SOL     OW10183   2.212   5.032   5.198
 3095SOL    HW110184   2.150   4.955   5.186
 3095SOL    HW210185   2.307   4.999   5.199
 3096SOL     OW10186   0.074   0.743   5.707
 3096SOL    HW110187   0.106   0.807   5.777
 3096SOL    HW210188   0.069   0.791   5.619
 3097SOL     OW10189   2.083   1.620   0.218
 3097SOL    HW110190   2.013   1.604   0.149
 3097SOL    HW210191   2.172   1.592   0.182
 3098SOL     OW10192   4.148   2.413   0.615
 3098SOL    HW110193   4.180   2.352   0.542
 3098SOL    HW210194   4.055   2.443   0.596
 3099SOL     OW10195   1.382   5.857   5.464
 3099SOL    HW110196   1.348   5.845   5.371
 3099SOL    HW210197   1.388   5.954   5.485
 3100SOL     OW10198   6.207   6.424   6.065
 3100SOL    HW110199   6.216   6.334   6.108
 3100SOL    HW210200   6.160   6.486   6.127
 3101SOL     OW10201   3.610   0.123   1.182
 3101SOL    HW110202   3.688   0.155   1.127
 3101SOL    HW210203   3.639   0.048   1.240
 3102SOL     OW10204   0.743   6.397   0.524
 3102SOL    HW110205   0.785   6.307   0.510
 3102SOL    HW210206   0.769   6.458   0.449
 3103SOL     OW10207   4.224   4.057   1.765
 3103SOL    HW110208   4.305   4.102   1.803
 3103SOL    HW210209   4.252   3.978   1.711
 3104SOL     OW10210   5.998   5.719   3.732
 3104SOL    HW110211   5.975   5.634   3.685
 3104SOL    HW210212   5.945   5.794   3.693
 3105SOL     OW10213   5.963   5.550   3.503
 3105SOL    HW110214   5.998   5.627   3.451
 3105SOL    HW210215   5.921   5.483   3.441
 3106SOL     OW10216   6.681   3.281   4.739
 3106SOL    HW110217   6.721   3.293   4.648
 3106SOL    HW210218   6.689   3.366   4.791
 3107SOL     OW10219   2.650   6.766   4.152
 3107SOL    HW110220   2.556   6.798   4.166
 3107SOL    HW210221   2.710   6.844   4.139
 3108SOL     OW10222   2.812   0.764   2.809
 3108SOL    HW110223   2.887   0.731   2.867
 3108SOL    HW210224   2.816   0.864   2.802
 3109SOL     OW10225   4.810   5.866   3.263
 3109SOL    HW110226   4.722   5.913   3.271
 3109SOL    HW210227   4.815   5.817   3.176
 3110SOL     OW10228   1.230   2.728   1.976
 3110SOL    HW110229   1.225   2.771   2.067
 3110SOL    HW210230   1.180   2.784   1.910
 3111SOL     OW10231   0.167   4.741   2.848
 3111SOL    HW110232   0.234   4.685   2.798
 3111SOL    HW210233   0.103   4.782   2.783
 3112SOL     OW10234   2.866   3.879   6.035
 3112SOL    HW110235   2.803   3.871   6.112
 3112SOL    HW210236   2.925   3.798   6.032
 3113SOL     OW10237   4.299   6.672   3.936
 3113SOL    HW110238   4.221   6.734   3.934
 3113SOL    HW210239   4.344   6.679   4.025
 3114SOL     OW10240   5.292   5.884   0.592
 3114SOL    HW110241   5.196   5.867   0.567
 3114SOL    HW210242   5.297   5.907   0.689
 3115SOL     OW10243   2.549   3.423   1.718
 3115SOL    HW110244   2.594   3.348   1.766
 3115SOL    HW210245   2.467   3.451   1.768
 3116SOL     OW10246   0.428   1.251   6.862
 3116SOL    HW110247   0.336   1.287   6.878
 3116SOL    HW210248   0.441   1.167   6.915
 3117SOL     OW10249   3.741   4.044   5.673
 3117SOL    HW110250   3.746   3.951   5.711
 3117SOL    HW210251   3.663   4.092   5.714
 3118SOL     OW10252   6.031   5.462   6.551
 3118SOL    HW110253   6.021   5.503   6.461
 3118SOL    HW210254   5.986   5.521   6.619
 3119SOL     OW10255   2.237   4.578   6.925
 3119SOL    HW110256   2.258   4.568   6.827
 3119SOL    HW210257   2.253   4.673   6.953
 3120SOL     OW10258   2.621   5.199   6.324
 3120SOL    HW110259   2.573   5.154   6.248
 3120SOL    HW210260   2.560   5.267   6.365
 3121SOL     OW10261   0.520   5.940   3.411
 3121SOL    HW110262   0.570   5.970   3.493
 3121SOL    HW210263   0.485   5.847   3.426
 3122SOL     OW10264   3.054   5.876   1.041
 3122SOL    HW110265   2.978   5.823   1.003
 3122SOL    HW210266   3.122   5.895   0.970
 3123SOL     OW10267   3.958   6.609   4.194
 3123SOL    HW110268   3.888   6.652   4.138
 3123SOL    HW210269   4.021   6.558   4.135
 3124SOL     OW10270   3.768   0.246   6.353
 3124SOL    HW110271   3.816   0.242   6.441
 3124SOL    HW210272   3.705   0.169   6.346
 3125SOL     OW10273   6.990   2.222   5.643
 3125SOL    HW110274   6.974   2.250   5.549
 3125SOL    HW210275   6.926   2.149   5.668
 3126SOL     OW10276   3.704   6.131   6.891
 3126SOL    HW110277   3.701   6.229   6.872
 3126SOL    HW210278   3.672   6.081   6.811
 3127SOL     OW10279   1.274   1.710   3.922
 3127SOL    HW110280   1.306   1.793   3.876
 3127SOL    HW210281   1.180   1.723   3.953
 3128SOL     OW10282   1.915   0.763   0.683
 3128SOL    HW110283   1.995   0.747   0.740
 3128SOL    HW210284   1.857   0.834   0.725
 3129SOL     OW10285   1.291   2.958   3.296
 3129SOL    HW110286   1.258   2.967   3.202
 3129SOL    HW210287   1.236   3.014   3.357
 3130SOL     OW10288   2.315   5.336   3.468
 3130SOL    HW110289   2.352   5.408   3.525
 3130SOL    HW210290   2.388   5.272   3.444
 3131SOL     OW10291   0.848   3.162   4.593
 3131SOL    HW110292   0.919   3.127   4.531
 3131SOL    HW210293   0.847   3.262   4.589
 3132SOL     OW10294   5.212   4.756   5.452
 3132SOL    HW110295   5.149   4.761   5.529
 3132SOL    HW210296   5.174   4.805   5.373
 3133SOL     OW10297   2.400   2.122   3.526
 3133SOL    HW110298   2.468   2.102   3.456
 3133SOL    HW210299   2.314   2.150   3.483
 3134SOL     OW10300   5.508   2.874   1.766
 3134SOL    HW110301   5.565   2.954   1.747
 3134SOL    HW210302   5.411   2.898   1.754
 3135SOL     OW10303   2.133   1.874   3.626
 3135SOL    HW110304   2.034   1.889   3.630
 3135SOL    HW210305   2.181   1.961   3.639
 3136SOL     OW10306   6.247   6.836   4.784
 3136SOL    HW110307   6.277   6.762   4.724
 3136SOL    HW210308   6.261   6.810   4.879
 3137SOL     OW10309   0.271   1.569   4.540
 3137SOL    HW110310   0.336   1.620   4.484
 3137SOL    HW210311   0.179   1.605   4.526
 3138SOL     OW10312   5.254   1.585   4.760
 3138SOL    HW110313   5.322   1.659   4.765
 3138SOL    HW210314   5.301   1.498   4.743
 3139SOL     OW10315   4.539   5.570   5.111
 3139SOL    HW110316   4.534   5.488   5.054
 3139SOL    HW210317   4.448   5.592   5.147
 3140SOL     OW10318   5.654   5.836   6.173
 3140SOL    HW110319   5.742   5.862   6.213
 3140SOL    HW210320   5.586   5.828   6.246
 3141SOL     OW10321   0.755   5.470   1.875
 3141SOL    HW110322   0.682   5.404   1.859
 3141SOL    HW210323   0.834   5.448   1.818
 3142SOL     OW10324   3.859   7.009   0.474
 3142SOL    HW110325   3.765   6.997   0.443
 3142SOL    HW210326   3.921   6.994   0.398
 3143SOL     OW10327   0.329   1.471   0.869
 3143SOL    HW110328   0.374   1.385   0.892
 3143SOL    HW210329   0.370   1.545   0.923
 3144SOL     OW10330   1.779   3.150   7.003
 3144SOL    HW110331   1.713   3.077   7.021
 3144SOL    HW210332   1.855   3.113   6.950
 3145SOL     OW10333   3.008   5.195   3.531
 3145SOL    HW110334   3.081   5.178   3.597
 3145SOL    HW210335   3.014   5.290   3.498
 3146SOL     OW10336   2.394   6.949   3.810
 3146SOL    HW110337   2.391   0.018   3.790
 3146SOL    HW210338   2.438   6.901   3.734
 3147SOL     OW10339   3.891   4.406   0.839
 3147SOL    HW110340   3.925   4.326   0.886
 3147SOL    HW210341   3.953   4.430   0.764
 3148SOL     OW10342   3.135   5.840   4.900
 3148SOL    HW110343   3.185   5.754   4.889
 3148SOL    HW210344   3.128   5.886   4.811
 3149SOL     OW10345   2.624   6.322   5.847
 3149SOL    HW110346   2.712   6.299   5.806
 3149SOL    HW210347   2.639   6.368   5.935
 3150SOL     OW10348   0.027   0.042   4.324
 3150SOL    HW110349   0.048   6.979   4.358
 3150SOL    HW210350   0.093   0.068   4.254
 3151SOL     OW10351   3.968   6.662   1.469
 3151SOL    HW110352   3.950   6.589   1.403
 3151SOL    HW210353   3.938   6.634   1.560
 3152SOL     OW10354   1.290   4.678   6.467
 3152SOL    HW110355   1.221   4.710   6.402
 3152SOL    HW210356   1.374   4.653   6.418
 3153SOL     OW10357   6.636   4.642   2.984
 3153SOL    HW110358   6.540   4.669   2.976
 3153SOL    HW210359   6.694   4.722   2.970
 3154SOL     OW10360   5.698   2.832   6.237
 3154SOL    HW110361   5.700   2.857   6.334
 3154SOL    HW210362   5.668   2.910   6.183
 3155SOL     OW10363   4.543   6.043   0.480
 3155SOL    HW110364   4.621   5.993   0.518
 3155SOL    HW210365   4.567   6.080   0.390
 3156SOL     OW10366   3.725   3.536   3.289
 3156SOL    HW110367   3.639   3.553   3.338
 3156SOL    HW210368   3.778   3.620   3.285
 3157SOL     OW10369   2.240   2.854   5.246
 3157SOL    HW110370   2.181   2.797   5.188
 3157SOL    HW210371   2.321   2.882   5.194
 3158SOL     OW10372   4.543   6.295   1.247
 3158SOL    HW110373   4.493   6.336   1.323
 3158SOL    HW210374   4.555   6.363   1.174
 3159SOL     OW10375   5.360   4.864   0.321
 3159SOL    HW110376   5.325   4.786   0.269
 3159SOL    HW210377   5.400   4.833   0.406
 3160SOL     OW10378   6.069   4.814   0.558
 3160SOL    HW110379   6.028   4.724   0.553
 3160SOL    HW210380   6.169   4.805   0.560
 3161SOL     OW10381   1.012   1.285   3.399
 3161SOL    HW110382   1.077   1.359   3.380
 3161SOL    HW210383   0.956   1.309   3.478
 3162SOL     OW10384   0.094   6.909   5.918
 3162SOL    HW110385   0.192   6.899   5.899
 3162SOL    HW210386   0.045   6.829   5.883
 3163SOL     OW10387   1.965   4.501   5.501
 3163SOL    HW110388   1.999   4.410   5.527
 3163SOL    HW210389   2.032   4.570   5.527
 3164SOL     OW10390   5.949   5.152   5.829
 3164SOL    HW110391   6.006   5.193   5.758
 3164SOL    HW210392   6.007   5.108   5.898
 3165SOL     OW10393   0.626   2.792   1.768
 3165SOL    HW110394   0.679   2.869   1.804
 3165SOL    HW210395   0.572   2.752   1.842
 3166SOL     OW10396   4.585   2.890   6.568
 3166SOL    HW110397   4.573   2.882   6.469
 3166SOL    HW210398   4.497   2.879   6.614
 3167SOL     OW10399   0.218   4.525   1.939
 3167SOL    HW110400   0.244   4.597   2.003
 3167SOL    HW210401   0.123   4.498   1.955
 3168SOL     OW10402   6.224   3.213   1.192
 3168SOL    HW110403   6.229   3.116   1.169
 3168SOL    HW210404   6.296   3.262   1.144
 3169SOL     OW10405   2.533   2.159   5.503
 3169SOL    HW110406   2.542   2.256   5.479
 3169SOL    HW210407   2.490   2.151   5.593
 3170SOL     OW10408   3.808   6.882   5.488
 3170SOL    HW110409   3.763   6.968   5.509
 3170SOL    HW210410   3.870   6.857   5.563
 3171SOL     OW10411   6.052   6.286   2.972
 3171SOL    HW110412   6.016   6.329   3.055
 3171SOL    HW210413   6.141   6.325   2.950
 3172SOL     OW10414   6.121   6.509   5.536
 3172SOL    HW110415   6.054   6.558   5.592
 3172SOL    HW210416   6.073   6.454   5.468
 3173SOL     OW10417   2.079   1.105   1.490
 3173SOL    HW110418   2.146   1.176   1.470
 3173SOL    HW210419   2.119   1.038   1.552
 3174SOL     OW10420   2.463   2.928   0.062
 3174SOL    HW110421   2.384   2.976   0.101
 3174SOL    HW210422   2.461   2.833   0.091
 3175SOL     OW10423   0.244   6.401   0.456
 3175SOL    HW110424   0.191   6.345   0.520
 3175SOL    HW210425   0.216   6.380   0.363
 3176SOL     OW10426   1.082   5.944   0.158
 3176SOL    HW110427   0.993   5.906   0.182
 3176SOL    HW210428   1.109   6.011   0.227
 3177SOL     OW10429   1.112   6.854   4.500
 3177SOL    HW110430   1.057   6.857   4.583
 3177SOL    HW210431   1.053   6.833   4.422
 3178SOL     OW10432   2.861   3.278   6.983
 3178SOL    HW110433   2.795   3.203   6.968
 3178SOL    HW210434   2.813   3.365   6.979
 3179SOL     OW10435   1.274   2.362   4.470
 3179SOL    HW110436   1.324   2.441   4.504
 3179SOL    HW210437   1.292   2.283   4.528
 3180SOL     OW10438   6.140   1.409   6.238
 3180SOL    HW110439   6.197   1.340   6.282
 3180SOL    HW210440   6.110   1.376   6.149
 3181SOL     OW10441   0.813   1.873   2.855
 3181SOL    HW110442   0.749   1.857   2.780
 3181SOL    HW210443   0.887   1.933   2.823
 3182SOL     OW10444   1.373   4.342   5.621
 3182SOL    HW110445   1.303   4.321   5.689
 3182SOL    HW210446   1.412   4.432   5.639
 3183SOL     OW10447   4.471   3.192   1.254
 3183SOL    HW110448   4.494   3.115   1.194
 3183SOL    HW210449   4.530   3.270   1.233
 3184SOL     OW10450   0.822   1.965   3.688
 3184SOL    HW110451   0.841   2.056   3.652
 3184SOL    HW210452   0.882   1.947   3.765
 3185SOL     OW10453   0.350   6.548   7.016
 3185SOL    HW110454   0.346   6.581   6.922
 3185SOL    HW210455   0.367   6.626   0.048
 3186SOL     OW10456   3.231   0.566   1.651
 3186SOL    HW110457   3.260   0.636   1.586
 3186SOL    HW210458   3.168   0.607   1.718
 3187SOL     OW10459   2.719   4.185   0.389
 3187SOL    HW110460   2.624   4.206   0.366
 3187SOL    HW210461   2.780   4.219   0.318
 3188SOL     OW10462   3.841   0.051   3.112
 3188SOL    HW110463   3.859   0.100   3.198
 3188SOL    HW210464   3.824   6.983   3.132
 3189SOL     OW10465   6.386   6.417   2.349
 3189SOL    HW110466   6.336   6.334   2.374
 3189SOL    HW210467   6.329   6.497   2.370
 3190SOL     OW10468   1.206   6.676   1.776
 3190SOL    HW110469   1.190   6.649   1.871
 3190SOL    HW210470   1.121   6.711   1.737
 3191SOL     OW10471   4.177   1.024   0.285
 3191SOL    HW110472   4.165   1.068   0.375
 3191SOL    HW210473   4.173   0.925   0.296
 3192SOL     OW10474   5.189   2.282   3.935
 3192SOL    HW110475   5.219   2.371   3.968
 3192SOL    HW210476   5.089   2.277   3.937
 3193SOL     OW10477   5.307   4.360   1.242
 3193SOL    HW110478   5.353   4.449   1.240
 3193SOL    HW210479   5.221   4.369   1.293
 3194SOL     OW10480   2.592   5.628   4.948
 3194SOL    HW110481   2.508   5.673   4.978
 3194SOL    HW210482   2.644   5.597   5.028
 3195SOL     OW10483   7.011   4.367   3.922
 3195SOL    HW110484   0.057   4.378   3.857
 3195SOL    HW210485   6.998   4.453   3.972
 3196SOL     OW10486   0.182   6.410   6.117
 3196SOL    HW110487   0.210   6.339   6.181
 3196SOL    HW210488   0.159   6.493   6.168
 3197SOL     OW10489   0.586   4.763   4.929
 3197SOL    HW110490   0.564   4.675   4.972
 3197SOL    HW210491   0.504   4.820   4.926
 3198SOL     OW10492   5.939   0.067   0.514
 3198SOL    HW110493   5.872   0.074   0.589
 3198SOL    HW210494   6.023   0.114   0.541
 3199SOL     OW10495   3.595   1.200   3.401
 3199SOL    HW110496   3.580   1.158   3.312
 3199SOL    HW210497   3.694   1.211   3.416
 3200SOL     OW10498   6.478   2.195   0.458
 3200SOL    HW110499   6.471   2.099   0.482
 3200SOL    HW210500   6.532   2.205   0.374
 3201SOL     OW10501   4.790   4.559   3.322
 3201SOL    HW110502   4.852   4.560   3.401
 3201SOL    HW210503   4.699   4.589   3.349
 3202SOL     OW10504   1.542   5.222   1.760
 3202SOL    HW110505   1.502   5.278   1.687
 3202SOL    HW210506   1.564   5.280   1.839
 3203SOL     OW10507   4.844   0.031   0.877
 3203SOL    HW110508   4.870   0.009   0.783
 3203SOL    HW210509   4.797   0.119   0.880
 3204SOL     OW10510   6.386   6.475   1.847
 3204SOL    HW110511   6.433   6.477   1.759
 3204SOL    HW210512   6.366   6.569   1.877
 3205SOL     OW10513   0.781   3.669   4.627
 3205SOL    HW110514   0.811   3.580   4.593
 3205SOL    HW210515   0.861   3.723   4.655
 3206SOL     OW10516   1.765   0.307   6.841
 3206SOL    HW110517   1.799   0.246   6.769
 3206SOL    HW210518   1.715   0.254   6.909
 3207SOL     OW10519   1.414   1.581   3.063
 3207SOL    HW110520   1.339   1.530   3.023
 3207SOL    HW210521   1.391   1.605   3.158
 3208SOL     OW10522   6.225   6.699   5.072
 3208SOL    HW110523   6.138   6.684   5.118
 3208SOL    HW210524   6.275   6.773   5.119
 3209SOL     OW10525   1.326   0.183   3.330
 3209SOL    HW110526   1.320   0.273   3.375
 3209SOL    HW210527   1.314   0.195   3.232
 3210SOL     OW10528   0.814   5.392   2.203
 3210SOL    HW110529   0.763   5.470   2.166
 3210SOL    HW210530   0.897   5.425   2.247
 3211SOL     OW10531   0.227   4.410   3.603
 3211SOL    HW110532   0.172   4.444   3.526
 3211SOL    HW210533   0.201   4.459   3.686
 3212SOL     OW10534   4.723   2.950   5.143
 3212SOL    HW110535   4.773   2.984   5.063
 3212SOL    HW210536   4.628   2.932   5.118
 3213SOL     OW10537   5.720   6.799   1.525
 3213SOL    HW110538   5.651   6.850   1.474
 3213SOL    HW210539   5.759   6.857   1.596
 3214SOL     OW10540   4.272   3.956   6.936
 3214SOL    HW110541   4.257   3.973   6.839
 3214SOL    HW210542   4.344   4.017   6.970
 3215SOL     OW10543   6.276   1.358   0.030
 3215SOL    HW110544   6.331   1.370   0.112
 3215SOL    HW210545   6.183   1.391   0.048
 3216SOL     OW10546   5.048   6.209   4.753
 3216SOL    HW110547   5.042   6.233   4.656
 3216SOL    HW210548   4.992   6.128   4.770
 3217SOL     OW10549   6.809   4.350   0.284
 3217SOL    HW110550   6.884   4.400   0.240
 3217SOL    HW210551   6.774   4.403   0.361
 3218SOL     OW10552   3.907   1.968   1.945
 3218SOL    HW110553   3.845   1.986   1.869
 3218SOL    HW210554   3.891   1.875   1.979
 3219SOL     OW10555   0.192   0.984   3.353
 3219SOL    HW110556   0.291   0.997   3.363
 3219SOL    HW210557   0.166   0.998   3.258
 3220SOL     OW10558   6.204   3.128   6.655
 3220SOL    HW110559   6.141   3.157   6.726
 3220SOL    HW210560   6.202   3.028   6.647
 3221SOL     OW10561   3.579   0.680   1.981
 3221SOL    HW110562   3.607   0.614   1.911
 3221SOL    HW210563   3.483   0.706   1.966
 3222SOL     OW10564   6.267   4.330   2.158
 3222SOL    HW110565   6.263   4.236   2.122
 3222SOL    HW210566   6.353   4.343   2.206
 3223SOL     OW10567   1.960   4.525   4.424
 3223SOL    HW110568   2.002   4.528   4.515
 3223SOL    HW210569   1.864   4.551   4.431
 3224SOL     OW10570   3.242   6.300   1.067
 3224SOL    HW110571   3.278   6.394   1.067
 3224SOL    HW210572   3.251   6.262   1.159
 3225SOL     OW10573   1.912   2.705   0.662
 3225SOL    HW110574   1.921   2.717   0.760
 3225SOL    HW210575   1.921   2.608   0.639
 3226SOL     OW10576   6.485   1.019   3.979
 3226SOL    HW110577   6.573   0.972   3.972
 3226SOL    HW210578   6.489   1.086   4.053
 3227SOL     OW10579   2.265   1.847   5.430
 3227SOL    HW110580   2.342   1.824   5.370
 3227SOL    HW210581   2.286   1.818   5.523
 3228SOL     OW10582   5.091   3.624   4.982
 3228SOL    HW110583   5.119   3.646   4.888
 3228SOL    HW210584   4.993   3.637   4.991
 3229SOL     OW10585   4.633   1.532   5.159
 3229SOL    HW110586   4.686   1.578   5.089
 3229SOL    HW210587   4.537   1.557   5.151
 3230SOL     OW10588   1.374   0.208   3.678
 3230SOL    HW110589   1.335   0.289   3.635
 3230SOL    HW210590   1.301   0.149   3.713
 3231SOL     OW10591   4.576   4.709   0.886
 3231SOL    HW110592   4.559   4.674   0.978
 3231SOL    HW210593   4.544   4.642   0.819
 3232SOL     OW10594   0.970   4.122   2.882
 3232SOL    HW110595   0.890   4.177   2.856
 3232SOL    HW210596   0.989   4.055   2.810
 3233SOL     OW10597   2.050   4.451   1.089
 3233SOL    HW110598   1.993   4.508   1.030
 3233SOL    HW210599   2.087   4.375   1.036
 3234SOL     OW10600   6.869   2.216   4.920
 3234SOL    HW110601   6.820   2.223   4.833
 3234SOL    HW210602   6.930   2.295   4.930
 3235SOL     OW10603   5.724   0.686   2.403
 3235SOL    HW110604   5.811   0.711   2.444
 3235SOL    HW210605   5.658   0.761   2.415
 3236SOL     OW10606   0.601   2.255   1.306
 3236SOL    HW110607   0.551   2.249   1.220
 3236SOL    HW210608   0.652   2.170   1.321
 3237SOL     OW10609   2.835   6.025   4.938
 3237SOL    HW110610   2.793   6.071   4.859
 3237SOL    HW210611   2.892   5.950   4.907
 3238SOL     OW10612   6.638   6.554   6.692
 3238SOL    HW110613   6.569   6.592   6.629
 3238SOL    HW210614   6.648   6.615   6.771
 3239SOL     OW10615   1.364   6.138   5.540
 3239SOL    HW110616   1.309   6.103   5.616
 3239SOL    HW210617   1.378   6.236   5.551
 3240SOL     OW10618   0.657   2.217   4.962
 3240SOL    HW110619   0.677   2.313   4.980
 3240SOL    HW210620   0.674   2.164   5.045
 3241SOL     OW10621   4.057   6.683   5.222
 3241SOL    HW110622   4.039   6.775   5.258
 3241SOL    HW210623   4.155   6.673   5.204
 3242SOL     OW10624   3.343   0.459   0.502
 3242SOL    HW110625   3.302   0.465   0.410
 3242SOL    HW210626   3.393   0.373   0.510
 3243SOL     OW10627   4.017   5.284   1.620
 3243SOL    HW110628   4.030   5.197   1.668
 3243SOL    HW210629   3.970   5.267   1.533
 3244SOL     OW10630   0.922   0.086   5.875
 3244SOL    HW110631   0.878   0.055   5.791
 3244SOL    HW210632   0.934   0.009   5.937
 3245SOL     OW10633   3.287   1.747   5.802
 3245SOL    HW110634   3.272   1.794   5.889
 3245SOL    HW210635   3.336   1.807   5.739
 3246SOL     OW10636   5.542   6.505   3.169
 3246SOL    HW110637   5.540   6.407   3.191
 3246SOL    HW210638   5.461   6.550   3.208
 3247SOL     OW10639   6.146   3.187   5.417
 3247SOL    HW110640   6.087   3.267   5.404
 3247SOL    HW210641   6.205   3.202   5.496
 3248SOL     OW10642   4.767   4.192   3.208
 3248SOL    HW110643   4.731   4.109   3.165
 3248SOL    HW210644   4.867   4.185   3.215
 3249SOL     OW10645   3.277   4.961   5.627
 3249SOL    HW110646   3.268   4.903   5.708
 3249SOL    HW210647   3.278   4.904   5.545
 3250SOL     OW10648   4.178   4.800   1.127
 3250SOL    HW110649   4.210   4.894   1.142
 3250SOL    HW210650   4.151   4.789   1.031
 3251SOL     OW10651   3.373   0.662   3.417
 3251SOL    HW110652   3.432   0.684   3.494
 3251SOL    HW210653   3.415   0.695   3.332
 3252SOL     OW10654   3.573   2.099   3.044
 3252SOL    HW110655   3.513   2.026   3.076
 3252SOL    HW210656   3.521   2.160   2.984
 3253SOL     OW10657   5.168   4.242   1.726
 3253SOL    HW110658   5.099   4.177   1.759
 3253SOL    HW210659   5.237   4.257   1.797
 3254SOL     OW10660   6.631   4.713   2.676
 3254SOL    HW110661   6.689   4.760   2.743
 3254SOL    HW210662   6.675   4.628   2.647
 3255SOL     OW10663   3.536   5.179   0.594
 3255SOL    HW110664   3.625   5.224   0.604
 3255SOL    HW210665   3.512   5.175   0.497
 3256SOL     OW10666   6.513   0.392   5.330
 3256SOL    HW110667   6.520   0.359   5.424
 3256SOL    HW210668   6.598   0.436   5.303
 3257SOL     OW10669   2.602   1.193   1.161
 3257SOL    HW110670   2.629   1.127   1.091
 3257SOL    HW210671   2.617   1.154   1.252
 3258SOL     OW10672   5.425   6.509   1.728
 3258SOL    HW110673   5.382   6.421   1.707
 3258SOL    HW210674   5.412   6.571   1.651
 3259SOL     OW10675   5.606   5.744   3.088
 3259SOL    HW110676   5.586   5.748   3.186
 3259SOL    HW210677   5.623   5.837   3.054
 3260SOL     OW10678   2.512   1.588   1.359
 3260SOL    HW110679   2.524   1.687   1.366
 3260SOL    HW210680   2.569   1.553   1.285
 3261SOL     OW10681   5.010   6.935   3.916
 3261SOL    HW110682   5.008   6.949   4.015
 3261SOL    HW210683   4.922   6.962   3.877
 3262SOL     OW10684   4.547   1.830   3.653
 3262SOL    HW110685   4.600   1.782   3.584
 3262SOL    HW210686   4.580   1.924   3.662
 3263SOL     OW10687   3.034   4.947   3.419
 3263SOL    HW110688   3.018   5.034   3.466
 3263SOL    HW210689   2.968   4.937   3.344
 3264SOL     OW10690   5.730   4.817   6.020
 3264SOL    HW110691   5.771   4.727   6.003
 3264SOL    HW210692   5.787   4.866   6.086
 3265SOL     OW10693   5.675   0.115   5.441
 3265SOL    HW110694   5.651   0.050   5.368
 3265SOL    HW210695   5.627   0.090   5.525
 3266SOL     OW10696   1.088   2.789   6.773
 3266SOL    HW110697   1.151   2.856   6.734
 3266SOL    HW210698   1.133   2.700   6.779
 3267SOL     OW10699   5.354   3.934   1.911
 3267SOL    HW110700   5.299   3.859   1.948
 3267SOL    HW210701   5.370   4.002   1.982
 3268SOL     OW10702   1.856   5.662   0.018
 3268SOL    HW110703   1.837   5.634   0.112
 3268SOL    HW210704   1.770   5.663   6.995
 3269SOL     OW10705   4.432   3.824   0.852
 3269SOL    HW110706   4.342   3.865   0.838
 3269SOL    HW210707   4.503   3.892   0.835
 3270SOL     OW10708   6.868   5.605   3.691
 3270SOL    HW110709   6.963   5.596   3.660
 3270SOL    HW210710   6.808   5.565   3.622
 3271SOL     OW10711   4.890   6.609   0.993
 3271SOL    HW110712   4.959   6.578   1.058
 3271SOL    HW210713   4.800   6.608   1.036
 3272SOL     OW10714   4.725   5.699   6.334
 3272SOL    HW110715   4.710   5.775   6.271
 3272SOL    HW210716   4.806   5.716   6.389
 3273SOL     OW10717   0.401   0.215   2.910
 3273SOL    HW110718   0.391   0.149   2.984
 3273SOL    HW210719   0.423   0.167   2.825
 3274SOL     OW10720   2.868   1.339   0.250
 3274SOL    HW110721   2.864   1.248   0.209
 3274SOL    HW210722   2.779   1.384   0.239
 3275SOL     OW10723   4.176   0.314   6.982
 3275SOL    HW110724   4.110   0.358   6.921
 3275SOL    HW210725   4.140   0.312   0.046
 3276SOL     OW10726   1.364   6.233   0.838
 3276SOL    HW110727   1.425   6.299   0.882
 3276SOL    HW210728   1.387   6.141   0.869
 3277SOL     OW10729   0.190   6.402   0.206
 3277SOL    HW110730   0.240   6.444   0.131
 3277SOL    HW210731   0.125   6.336   0.170
 3278SOL     OW10732   1.077   0.319   0.056
 3278SOL    HW110733   1.039   0.246   0.112
 3278SOL    HW210734   1.177   0.311   0.053
 3279SOL     OW10735   2.269   6.877   1.595
 3279SOL    HW110736   2.340   6.809   1.612
 3279SOL    HW210737   2.301   6.942   1.527
 3280SOL     OW10738   2.722   6.179   3.721
 3280SOL    HW110739   2.624   6.164   3.707
 3280SOL    HW210740   2.762   6.099   3.767
 3281SOL     OW10741   1.163   6.388   0.895
 3281SOL    HW110742   1.221   6.315   0.861
 3281SOL    HW210743   1.169   6.467   0.834
 3282SOL     OW10744   2.071   4.748   2.719
 3282SOL    HW110745   1.986   4.794   2.692
 3282SOL    HW210746   2.052   4.651   2.736
 3283SOL     OW10747   1.479   0.479   3.338
 3283SOL    HW110748   1.555   0.491   3.402
 3283SOL    HW210749   1.395   0.463   3.390
 3284SOL     OW10750   1.547   5.399   5.807
 3284SOL    HW110751   1.476   5.469   5.809
 3284SOL    HW210752   1.586   5.389   5.899
 3285SOL     OW10753   0.639   2.379   4.599
 3285SOL    HW110754   0.566   2.439   4.632
 3285SOL    HW210755   0.726   2.429   4.600
 3286SOL     OW10756   4.895   4.446   6.173
 3286SOL    HW110757   4.936   4.529   6.211
 3286SOL    HW210758   4.797   4.444   6.195
 3287SOL     OW10759   0.193   2.981   1.923
 3287SOL    HW110760   0.180   3.079   1.905
 3287SOL    HW210761   0.200   2.932   1.836
 3288SOL     OW10762   0.637   0.154   0.503
 3288SOL    HW110763   0.723   0.154   0.554
 3288SOL    HW210764   0.619   0.063   0.467
 3289SOL     OW10765   1.529   0.331   3.857
 3289SOL    HW110766   1.482   0.281   3.784
 3289SOL    HW210767   1.625   0.343   3.832
 3290SOL     OW10768   0.282   5.012   3.741
 3290SOL    HW110769   0.187   5.044   3.744
 3290SOL    HW210770   0.344   5.089   3.761
 3291SOL     OW10771   1.448   1.791   1.657
 3291SOL    HW110772   1.405   1.716   1.607
 3291SOL    HW210773   1.542   1.803   1.625
 3292SOL     OW10774   0.731   6.121   4.514
 3292SOL    HW110775   0.660   6.095   4.580
 3292SOL    HW210776   0.817   6.138   4.563
 3293SOL     OW10777   5.565   0.397   2.964
 3293SOL    HW110778   5.467   0.400   2.983
 3293SOL    HW210779   5.616   0.421   3.047
 3294SOL     OW10780   6.577   0.269   1.059
 3294SOL    HW110781   6.553   0.336   0.988
 3294SOL    HW210782   6.538   0.180   1.036
 3295SOL     OW10783   2.574   2.966   6.179
 3295SOL    HW110784   2.523   2.887   6.144
 3295SOL    HW210785   2.521   3.010   6.252
 3296SOL     OW10786   1.164   6.339   1.834
 3296SOL    HW110787   1.196   6.355   1.741
 3296SOL    HW210788   1.195   6.414   1.893
 3297SOL     OW10789   3.158   1.017   5.478
 3297SOL    HW110790   3.246   0.972   5.495
 3297SOL    HW210791   3.162   1.065   5.391
 3298SOL     OW10792   0.597   4.749   3.026
 3298SOL    HW110793   0.569   4.845   3.027
 3298SOL    HW210794   0.588   4.713   2.934
 3299SOL     OW10795   1.343   1.208   4.216
 3299SOL    HW110796   1.354   1.307   4.223
 3299SOL    HW210797   1.420   1.163   4.262
 3300SOL     OW10798   0.519   6.723   4.673
 3300SOL    HW110799   0.452   6.793   4.649
 3300SOL    HW210800   0.595   6.726   4.608
 3301SOL     OW10801   6.254   4.309   2.528
 3301SOL    HW110802   6.174   4.315   2.587
 3301SOL    HW210803   6.300   4.397   2.525
 3302SOL     OW10804   1.029   5.951   5.217
 3302SOL    HW110805   0.959   6.000   5.269
 3302SOL    HW210806   1.085   6.017   5.166
 3303SOL     OW10807   3.155   3.616   4.632
 3303SOL    HW110808   3.246   3.618   4.591
 3303SOL    HW210809   3.126   3.709   4.654
 3304SOL     OW10810   1.490   1.105   3.868
 3304SOL    HW110811   1.574   1.087   3.918
 3304SOL    HW210812   1.488   1.201   3.838
 3305SOL     OW10813   0.846   2.679   0.583
 3305SOL    HW110814   0.931   2.688   0.635
 3305SOL    HW210815   0.770   2.710   0.640
 3306SOL     OW10816   2.140   1.913   1.260
 3306SOL    HW110817   2.052   1.945   1.297
 3306SOL    HW210818   2.215   1.953   1.313
 3307SOL     OW10819   0.786   0.095   6.846
 3307SOL    HW110820   0.788   7.026   6.869
 3307SOL    HW210821   0.873   0.122   6.806
 3308SOL     OW10822   5.009   6.130   0.614
 3308SOL    HW110823   4.951   6.139   0.694
 3308SOL    HW210824   5.074   6.206   0.610
 3309SOL     OW10825   1.524   4.424   1.908
 3309SOL    HW110826   1.616   4.412   1.870
 3309SOL    HW210827   1.508   4.521   1.927
 3310SOL     OW10828   2.065   6.474   1.932
 3310SOL    HW110829   2.033   6.569   1.937
 3310SOL    HW210830   2.003   6.421   1.875
 3311SOL     OW10831   4.043   5.387   0.759
 3311SOL    HW110832   4.097   5.327   0.701
 3311SOL    HW210833   4.051   5.481   0.728
 3312SOL     OW10834   1.453   2.208   6.402
 3312SOL    HW110835   1.496   2.172   6.484
 3312SOL    HW210836   1.359   2.173   6.396
 3313SOL     OW10837   5.404   6.323   5.058
 3313SOL    HW110838   5.435   6.228   5.056
 3313SOL    HW210839   5.321   6.332   5.004
 3314SOL     OW10840   0.577   3.931   6.529
 3314SOL    HW110841   0.664   3.981   6.526
 3314SOL    HW210842   0.553   3.900   6.437
 3315SOL     OW10843   6.194   2.876   2.900
 3315SOL    HW110844   6.252   2.882   2.982
 3315SOL    HW210845   6.202   2.785   2.860
 3316SOL     OW10846   3.686   0.107   6.745
 3316SOL    HW110847   3.743   0.108   6.827
 3316SOL    HW210848   3.700   0.192   6.694
 3317SOL     OW10849   4.802   2.683   1.488
 3317SOL    HW110850   4.822   2.620   1.412
 3317SOL    HW210851   4.710   2.666   1.522
 3318SOL     OW10852   2.687   5.046   6.564
 3318SOL    HW110853   2.782   5.075   6.572
 3318SOL    HW210854   2.650   5.079   6.477
 3319SOL     OW10855   0.803   6.218   6.796
 3319SOL    HW110856   0.713   6.215   6.753
 3319SOL    HW210857   0.860   6.287   6.750
 3320SOL     OW10858   1.277   0.497   1.038
 3320SOL    HW110859   1.299   0.528   1.130
 3320SOL    HW210860   1.302   0.401   1.028
 3321SOL     OW10861   3.729   3.743   4.238
 3321SOL    HW110862   3.638   3.707   4.258
 3321SOL    HW210863   3.735   3.766   4.141
 3322SOL     OW10864   4.852   3.170   2.890
 3322SOL    HW110865   4.875   3.218   2.805
 3322SOL    HW210866   4.897   3.216   2.967
 3323SOL     OW10867   1.570   4.533   0.873
 3323SOL    HW110868   1.554   4.543   0.971
 3323SOL    HW210869   1.555   4.437   0.847
 3324SOL     OW10870   6.094   3.048   1.495
 3324SOL    HW110871   6.075   3.127   1.553
 3324SOL    HW210872   6.048   3.059   1.407
 3325SOL     OW10873   0.829   4.413   4.775
 3325SOL    HW110874   0.839   4.356   4.857
 3325SOL    HW210875   0.909   4.402   4.716
 3326SOL     OW10876   5.074   6.948   2.216
 3326SOL    HW110877   4.977   6.939   2.239
 3326SOL    HW210878   5.123   6.986   2.294
 3327SOL     OW10879   4.569   5.929   1.462
 3327SOL    HW110880   4.632   5.983   1.518
 3327SOL    HW210881   4.514   5.870   1.521
 3328SOL     OW10882   5.972   6.452   4.193
 3328SOL    HW110883   6.066   6.436   4.163
 3328SOL    HW210884   5.949   6.548   4.181
 3329SOL     OW10885   5.719   0.345   5.870
 3329SOL    HW110886   5.622   0.321   5.878
 3329SOL    HW210887   5.742   0.414   5.938
 3330SOL     OW10888   6.126   0.325   3.123
 3330SOL    HW110889   6.225   0.308   3.119
 3330SOL    HW210890   6.078   0.238   3.113
 3331SOL     OW10891   0.929   3.522   2.811
 3331SOL    HW110892   0.952   3.614   2.780
 3331SOL    HW210893   0.840   3.523   2.856
 3332SOL     OW10894   4.184   5.173   0.635
 3332SOL    HW110895   4.270   5.211   0.671
 3332SOL    HW210896   4.205   5.094   0.578
 3333SOL     OW10897   2.373   4.226   0.550
 3333SOL    HW110898   2.398   4.197   0.642
 3333SOL    HW210899   2.275   4.246   0.547
 3334SOL     OW10900   1.881   2.818   2.654
 3334SOL    HW110901   1.918   2.910   2.658
 3334SOL    HW210902   1.916   2.764   2.731
 3335SOL     OW10903   4.320   4.198   6.363
 3335SOL    HW110904   4.393   4.136   6.391
 3335SOL    HW210905   4.276   4.162   6.281
 3336SOL     OW10906   3.697   5.751   6.137
 3336SOL    HW110907   3.677   5.653   6.148
 3336SOL    HW210908   3.621   5.795   6.090
 3337SOL     OW10909   2.912   3.618   3.879
 3337SOL    HW110910   2.989   3.558   3.901
 3337SOL    HW210911   2.832   3.563   3.854
 3338SOL     OW10912   3.002   3.225   1.365
 3338SOL    HW110913   2.986   3.313   1.319
 3338SOL    HW210914   3.100   3.215   1.383
 3339SOL     OW10915   1.184   6.737   6.201
 3339SOL    HW110916   1.255   6.800   6.169
 3339SOL    HW210917   1.226   6.665   6.258
 3340SOL     OW10918   4.738   1.136   6.596
 3340SOL    HW110919   4.759   1.191   6.515
 3340SOL    HW210920   4.652   1.087   6.581
 3341SOL     OW10921   1.488   4.348   1.185
 3341SOL    HW110922   1.488   4.283   1.109
 3341SOL    HW210923   1.402   4.399   1.185
 3342SOL     OW10924   5.904   7.027   2.114
 3342SOL    HW110925   5.863   0.069   2.057
 3342SOL    HW210926   5.832   6.978   2.163
 3343SOL     OW10927   3.012   5.182   0.972
 3343SOL    HW110928   3.017   5.145   0.879
 3343SOL    HW210929   2.958   5.121   1.029
 3344SOL     OW10930   1.240   3.175   1.765
 3344SOL    HW110931   1.256   3.257   1.819
 3344SOL    HW210932   1.195   3.200   1.679
 3345SOL     OW10933   5.128   5.429   0.820
 3345SOL    HW110934   5.043   5.377   0.822
 3345SOL    HW210935   5.205   5.367   0.837
 3346SOL     OW10936   1.164   1.212   6.605
 3346SOL    HW110937   1.093   1.271   6.645
 3346SOL    HW210938   1.127   1.120   6.592
 3347SOL     OW10939   0.820   3.602   5.599
 3347SOL    HW110940   0.908   3.650   5.594
 3347SOL    HW210941   0.814   3.551   5.684
 3348SOL     OW10942   3.631   3.908   6.215
 3348SOL    HW110943   3.680   3.881   6.298
 3348SOL    HW210944   3.572   3.986   6.235
 3349SOL     OW10945   1.960   5.476   1.799
 3349SOL    HW110946   2.002   5.387   1.817
 3349SOL    HW210947   2.020   5.530   1.740
 3350SOL     OW10948   2.822   5.799   4.329
 3350SOL    HW110949   2.879   5.801   4.412
 3350SOL    HW210950   2.869   5.846   4.255
 3351SOL     OW10951   5.859   6.701   1.326
 3351SOL    HW110952   5.810   6.733   1.407
 3351SOL    HW210953   5.912   6.777   1.287
 3352SOL     OW10954   5.790   1.407   6.946
 3352SOL    HW110955   5.745   1.486   6.988
 3352SOL    HW210956   5.824   1.432   6.856
 3353SOL     OW10957   4.082   0.273   6.462
 3353SOL    HW110958   4.041   0.363   6.477
 3353SOL    HW210959   4.074   0.218   6.545
 3354SOL     OW10960   2.423   2.033   0.217
 3354SOL    HW110961   2.355   1.971   0.256
 3354SOL    HW210962   2.502   2.038   0.278
 3355SOL     OW10963   1.256   1.583   5.079
 3355SOL    HW110964   1.238   1.672   5.120
 3355SOL    HW210965   1.309   1.596   4.995
 3356SOL     OW10966   3.249   0.540   5.699
 3356SOL    HW110967   3.158   0.507   5.671
 3356SOL    HW210968   3.302   0.464   5.736
 3357SOL     OW10969   3.228   4.104   4.142
 3357SOL    HW110970   3.136   4.094   4.179
 3357SOL    HW210971   3.240   4.040   4.066
 3358SOL     OW10972   0.295   1.924   1.886
 3358SOL    HW110973   0.340   1.895   1.802
 3358SOL    HW210974   0.329   1.869   1.962
 3359SOL     OW10975   1.240   7.013   3.974
 3359SOL    HW110976   1.284   0.064   4.016
 3359SOL    HW210977   1.143   0.004   3.958
 3360SOL     OW10978   1.245   5.453   4.981
 3360SOL    HW110979   1.278   5.537   4.940
 3360SOL    HW210980   1.276   5.448   5.076
 3361SOL     OW10981   0.460   6.929   4.209
 3361SOL    HW110982   0.390   6.991   4.173
 3361SOL    HW210983   0.539   6.981   4.240
 3362SOL     OW10984   3.113   0.856   4.893
 3362SOL    HW110985   3.173   0.891   4.965
 3362SOL    HW210986   3.110   0.756   4.897
 3363SOL     OW10987   4.670   3.628   0.588
 3363SOL    HW110988   4.574   3.638   0.563
 3363SOL    HW210989   4.705   3.714   0.624
 3364SOL     OW10990   1.887   3.141   1.306
 3364SOL    HW110991   1.876   3.041   1.311
 3364SOL    HW210992   1.803   3.181   1.271
 3365SOL     OW10993   0.704   3.029   2.951
 3365SOL    HW110994   0.686   2.931   2.950
 3365SOL    HW210995   0.799   3.046   2.923
 3366SOL     OW10996   5.963   3.679   3.980
 3366SOL    HW110997   5.872   3.646   3.954
 3366SOL    HW210998   6.030   3.606   3.970
 3367SOL     OW10999   3.193   3.721   3.683
 3367SOL    HW111000   3.113   3.711   3.624
 3367SOL    HW211001   3.237   3.632   3.695
 3368SOL     OW11002   1.958   1.103   3.327
 3368SOL    HW111003   1.921   1.022   3.372
 3368SOL    HW211004   1.994   1.166   3.396
 3369SOL     OW11005   5.252   2.983   1.088
 3369SOL    HW111006   5.249   2.886   1.110
 3369SOL    HW211007   5.345   3.010   1.064
 3370SOL     OW11008   0.695   5.621   3.419
 3370SOL    HW111009   0.740   5.601   3.506
 3370SOL    HW211010   0.761   5.660   3.355
 3371SOL     OW11011   2.628   3.050   1.355
 3371SOL    HW111012   2.579   3.100   1.426
 3371SOL    HW211013   2.705   3.105   1.322
 3372SOL     OW11014   4.841   2.852   3.061
 3372SOL    HW111015   4.820   2.911   2.983
 3372SOL    HW211016   4.901   2.778   3.032
 3373SOL     OW11017   0.628   4.741   0.827
 3373SOL    HW111018   0.652   4.695   0.741
 3373SOL    HW211019   0.691   4.712   0.899
 3374SOL     OW11020   1.250   5.778   4.010
 3374SOL    HW111021   1.195   5.711   4.059
 3374SOL    HW211022   1.232   5.869   4.047
 3375SOL     OW11023   7.005   6.664   5.765
 3375SOL    HW111024   6.934   6.620   5.710
 3375SOL    HW211025   0.043   6.596   5.794
 3376SOL     OW11026   3.463   3.810   4.910
 3376SOL    HW111027   3.433   3.884   4.971
 3376SOL    HW211028   3.557   3.827   4.881
 3377SOL     OW11029   0.284   5.403   4.155
 3377SOL    HW111030   0.192   5.369   4.134
 3377SOL    HW211031   0.308   5.475   4.090
 3378SOL     OW11032   1.082   5.679   0.649
 3378SOL    HW111033   1.111   5.671   0.744
 3378SOL    HW211034   1.145   5.739   0.599
 3379SOL     OW11035   5.697   4.825   3.662
 3379SOL    HW111036   5.719   4.800   3.756
 3379SOL    HW211037   5.650   4.749   3.617
 3380SOL     OW11038   1.807   4.969   2.192
 3380SOL    HW111039   1.870   4.972   2.269
 3380SOL    HW211040   1.758   4.882   2.192
 3381SOL     OW11041   2.857   4.081   6.549
 3381SOL    HW111042   2.827   4.014   6.617
 3381SOL    HW211043   2.791   4.083   6.473
 3382SOL     OW11044   0.685   3.758   6.703
 3382SOL    HW111045   0.625   3.824   6.658
 3382SOL    HW211046   0.716   3.795   6.791
 3383SOL     OW11047   3.462   6.077   0.476
 3383SOL    HW111048   3.382   6.112   0.526
 3383SOL    HW211049   3.496   6.147   0.414
 3384SOL     OW11050   3.273   2.689   6.357
 3384SOL    HW111051   3.236   2.642   6.277
 3384SOL    HW211052   3.202   2.744   6.399
 3385SOL     OW11053   5.838   2.757   4.648
 3385SOL    HW111054   5.916   2.712   4.691
 3385SOL    HW211055   5.868   2.802   4.564
 3386SOL     OW11056   0.363   4.919   5.540
 3386SOL    HW111057   0.324   4.892   5.628
 3386SOL    HW211058   0.402   5.011   5.548
 3387SOL     OW11059   5.878   0.389   3.019
 3387SOL    HW111060   5.974   0.366   3.033
 3387SOL    HW211061   5.870   0.449   2.939
 3388SOL     OW11062   1.009   3.795   0.517
 3388SOL    HW111063   0.933   3.860   0.518
 3388SOL    HW211064   0.981   3.712   0.469
 3389SOL     OW11065   6.316   5.101   5.901
 3389SOL    HW111066   6.267   5.123   5.985
 3389SOL    HW211067   6.365   5.015   5.912
 3390SOL     OW11068   2.840   5.256   1.388
 3390SOL    HW111069   2.856   5.336   1.445
 3390SOL    HW211070   2.908   5.253   1.315
 3391SOL     OW11071   5.257   4.028   5.932
 3391SOL    HW111072   5.328   3.958   5.940
 3391SOL    HW211073   5.247   4.075   6.020
 3392SOL     OW11074   4.970   6.225   5.905
 3392SOL    HW111075   5.020   6.241   5.990
 3392SOL    HW211076   5.004   6.143   5.860
 3393SOL     OW11077   3.646   0.477   1.038
 3393SOL    HW111078   3.742   0.454   1.058
 3393SOL    HW211079   3.589   0.454   1.117
 3394SOL     OW11080   2.785   6.253   1.418
 3394SOL    HW111081   2.766   6.230   1.513
 3394SOL    HW211082   2.848   6.330   1.414
 3395SOL     OW11083   1.942   6.117   3.134
 3395SOL    HW111084   1.868   6.057   3.164
 3395SOL    HW211085   1.911   6.212   3.141
 3396SOL     OW11086   3.790   0.870   4.110
 3396SOL    HW111087   3.715   0.864   4.175
 3396SOL    HW211088   3.840   0.783   4.108
 3397SOL     OW11089   2.457   6.407   1.250
 3397SOL    HW111090   2.373   6.446   1.213
 3397SOL    HW211091   2.489   6.334   1.190
 3398SOL     OW11092   6.491   0.581   0.119
 3398SOL    HW111093   6.479   0.598   0.021
 3398SOL    HW211094   6.408   0.607   0.168
 3399SOL     OW11095   0.147   6.392   1.996
 3399SOL    HW111096   0.165   6.489   2.009
 3399SOL    HW211097   0.231   6.340   2.011
 3400SOL     OW11098   3.464   3.017   5.817
 3400SOL    HW111099   3.558   2.985   5.803
 3400SOL    HW211100   3.404   2.938   5.832
 3401SOL     OW11101   6.772   3.621   3.910
 3401SOL    HW111102   6.710   3.570   3.969
 3401SOL    HW211103   6.849   3.654   3.963
 3402SOL     OW11104   5.791   3.556   6.989
 3402SOL    HW111105   5.693   3.543   7.003
 3402SOL    HW211106   5.842   3.481   0.004
 3403SOL     OW11107   5.956   6.865   3.895
 3403SOL    HW111108   5.999   6.920   3.823
 3403SOL    HW211109   5.872   6.910   3.926
 3404SOL     OW11110   5.356   5.041   3.234
 3404SOL    HW111111   5.429   5.019   3.299
 3404SOL    HW211112   5.281   5.087   3.282
 3405SOL     OW11113   4.246   6.547   1.216
 3405SOL    HW111114   4.174   6.602   1.174
 3405SOL    HW211115   4.211   6.502   1.297
 3406SOL     OW11116   3.734   5.077   0.842
 3406SOL    HW111117   3.720   5.176   0.832
 3406SOL    HW211118   3.832   5.057   0.840
 3407SOL     OW11119   1.369   2.242   0.693
 3407SOL    HW111120   1.439   2.202   0.635
 3407SOL    HW211121   1.305   2.296   0.638
 3408SOL     OW11122   3.809   0.067   3.779
 3408SOL    HW111123   3.737   0.039   3.716
 3408SOL    HW211124   3.778   0.052   3.873
 3409SOL     OW11125   4.254   2.192   6.472
 3409SOL    HW111126   4.250   2.262   6.401
 3409SOL    HW211127   4.247   2.234   6.562
 3410SOL     OW11128   6.529   0.923   2.741
 3410SOL    HW111129   6.610   0.936   2.684
 3410SOL    HW211130   6.555   0.886   2.830
 3411SOL     OW11131   5.638   3.347   6.454
 3411SOL    HW111132   5.631   3.429   6.511
 3411SOL    HW211133   5.637   3.373   6.357
 3412SOL     OW11134   4.924   3.147   3.738
 3412SOL    HW111135   4.932   3.216   3.810
 3412SOL    HW211136   4.930   3.056   3.779
 3413SOL     OW11137   1.073   2.525   1.019
 3413SOL    HW111138   1.171   2.515   1.003
 3413SOL    HW211139   1.057   2.556   1.113
 3414SOL     OW11140   3.858   3.056   2.108
 3414SOL    HW111141   3.852   3.155   2.107
 3414SOL    HW211142   3.878   3.023   2.016
 3415SOL     OW11143   2.521   0.521   6.639
 3415SOL    HW111144   2.529   0.423   6.623
 3415SOL    HW211145   2.537   0.571   6.554
 3416SOL     OW11146   5.428   6.732   5.894
 3416SOL    HW111147   5.359   6.757   5.962
 3416SOL    HW211148   5.388   6.737   5.803
 3417SOL     OW11149   5.947   0.765   2.529
 3417SOL    HW111150   6.009   0.832   2.488
 3417SOL    HW211151   5.899   0.807   2.606
 3418SOL     OW11152   4.163   5.086   1.025
 3418SOL    HW111153   4.133   5.176   1.054
 3418SOL    HW211154   4.251   5.064   1.067
 3419SOL     OW11155   3.103   4.711   5.271
 3419SOL    HW111156   3.054   4.630   5.239
 3419SOL    HW211157   3.122   4.772   5.194
 3420SOL     OW11158   4.333   1.372   1.479
 3420SOL    HW111159   4.282   1.293   1.513
 3420SOL    HW211160   4.335   1.443   1.549
 3421SOL     OW11161   0.556   1.373   4.603
 3421SOL    HW111162   0.644   1.335   4.575
 3421SOL    HW211163   0.526   1.441   4.536
 3422SOL     OW11164   3.112   5.660   1.512
 3422SOL    HW111165   3.117   5.693   1.417
 3422SOL    HW211166   3.017   5.666   1.544
 3423SOL     OW11167   1.710   4.406   6.403
 3423SOL    HW111168   1.792   4.459   6.381
 3423SOL    HW211169   1.732   4.338   6.473
 3424SOL     OW11170   5.959   6.658   2.708
 3424SOL    HW111171   5.883   6.594   2.696
 3424SOL    HW211172   5.931   6.731   2.770
 3425SOL     OW11173   5.471   2.779   6.564
 3425SOL    HW111174   5.462   2.873   6.598
 3425SOL    HW211175   5.538   2.730   6.620
 3426SOL     OW11176   6.793   5.825   6.501
 3426SOL    HW111177   6.823   5.841   6.594
 3426SOL    HW211178   6.724   5.893   6.476
 3427SOL     OW11179   1.669   1.613   6.813
 3427SOL    HW111180   1.757   1.660   6.806
 3427SOL    HW211181   1.683   1.514   6.808
 3428SOL     OW11182   4.334   0.549   3.923
 3428SOL    HW111183   4.246   0.501   3.931
 3428SOL    HW211184   4.338   0.621   3.992
 3429SOL     OW11185   4.744   5.566   0.492
 3429SOL    HW111186   4.702   5.630   0.557
 3429SOL    HW211187   4.833   5.538   0.527
 3430SOL     OW11188   2.470   4.322   0.237
 3430SOL    HW111189   2.559   4.344   0.198
 3430SOL    HW211190   2.424   4.255   0.179
 3431SOL     OW11191   1.289   4.299   2.307
 3431SOL    HW111192   1.285   4.311   2.406
 3431SOL    HW211193   1.340   4.216   2.285
 3432SOL     OW11194   0.285   5.353   6.308
 3432SOL    HW111195   0.228   5.296   6.249
 3432SOL    HW211196   0.348   5.296   6.361
 3433SOL     OW11197   0.711   1.432   0.218
 3433SOL    HW111198   0.793   1.384   0.249
 3433SOL    HW211199   0.695   1.410   0.122
 3434SOL     OW11200   4.178   2.228   2.256
 3434SOL    HW111201   4.231   2.176   2.189
 3434SOL    HW211202   4.080   2.215   2.239
 3435SOL     OW11203   2.987   3.009   1.185
 3435SOL    HW111204   2.945   3.042   1.100
 3435SOL    HW211205   3.002   3.085   1.247
 3436SOL     OW11206   4.398   5.769   4.926
 3436SOL    HW111207   4.315   5.724   4.893
 3436SOL    HW211208   4.382   5.867   4.936
 3437SOL     OW11209   2.127   6.285   0.459
 3437SOL    HW111210   2.066   6.361   0.437
 3437SOL    HW211211   2.187   6.311   0.534
 3438SOL     OW11212   2.669   4.552   0.486
 3438SOL    HW111213   2.742   4.501   0.533
 3438SOL    HW211214   2.673   4.531   0.388
 3439SOL     OW11215   2.935   6.174   0.980
 3439SOL    HW111216   3.011   6.119   0.946
 3439SOL    HW211217   2.966   6.231   1.056
 3440SOL     OW11218   3.984   4.473   5.742
 3440SOL    HW111219   4.030   4.447   5.827
 3440SOL    HW211220   3.951   4.391   5.695
 3441SOL     OW11221   0.149   5.067   5.049
 3441SOL    HW111222   0.235   5.093   5.093
 3441SOL    HW211223   0.124   5.135   4.980
 3442SOL     OW11224   1.001   2.186   0.474
 3442SOL    HW111225   1.093   2.185   0.435
 3442SOL    HW211226   1.000   2.131   0.557
 3443SOL     OW11227   0.279   5.873   2.055
 3443SOL    HW111228   0.313   5.787   2.018
 3443SOL    HW211229   0.213   5.855   2.128
 3444SOL     OW11230   0.746   3.890   6.016
 3444SOL    HW111231   0.756   3.823   6.090
 3444SOL    HW211232   0.804   3.969   6.034
 3445SOL     OW11233   5.997   5.522   4.617
 3445SOL    HW111234   6.000   5.608   4.567
 3445SOL    HW211235   5.914   5.472   4.592
 3446SOL     OW11236   5.275   1.876   0.510
 3446SOL    HW111237   5.293   1.943   0.582
 3446SOL    HW211238   5.289   1.919   0.421
 3447SOL     OW11239   5.053   1.698   5.853
 3447SOL    HW111240   4.977   1.661   5.799
 3447SOL    HW211241   5.139   1.672   5.810
 3448SOL     OW11242   0.991   5.404   4.861
 3448SOL    HW111243   1.085   5.432   4.881
 3448SOL    HW211244   0.927   5.466   4.906
 3449SOL     OW11245   1.569   4.061   4.741
 3449SOL    HW111246   1.625   4.117   4.801
 3449SOL    HW211247   1.624   4.027   4.665
 3450SOL     OW11248   2.193   0.082   2.604
 3450SOL    HW111249   2.253   0.008   2.633
 3450SOL    HW211250   2.114   0.086   2.664
 3451SOL     OW11251   2.028   1.884   0.727
 3451SOL    HW111252   2.009   1.908   0.822
 3451SOL    HW211253   2.017   1.785   0.714
 3452SOL     OW11254   4.642   0.909   5.553
 3452SOL    HW111255   4.558   0.962   5.543
 3452SOL    HW211256   4.625   0.832   5.614
 3453SOL     OW11257   4.530   6.222   5.057
 3453SOL    HW111258   4.539   6.202   5.154
 3453SOL    HW211259   4.581   6.305   5.035
 3454SOL     OW11260   1.197   3.082   3.744
 3454SOL    HW111261   1.143   3.160   3.773
 3454SOL    HW211262   1.146   2.997   3.761
 3455SOL     OW11263   1.361   3.986   6.107
 3455SOL    HW111264   1.359   3.887   6.119
 3455SOL    HW211265   1.403   4.009   6.020
 3456SOL     OW11266   4.608   5.290   2.407
 3456SOL    HW111267   4.630   5.270   2.502
 3456SOL    HW211268   4.564   5.379   2.401
 3457SOL     OW11269   3.893   3.810   0.192
 3457SOL    HW111270   3.857   3.823   0.284
 3457SOL    HW211271   3.884   3.714   0.165
 3458SOL     OW11272   4.104   1.575   0.955
 3458SOL    HW111273   4.118   1.547   1.050
 3458SOL    HW211274   4.071   1.670   0.953
 3459SOL     OW11275   6.579   0.556   3.035
 3459SOL    HW111276   6.637   0.506   3.099
 3459SOL    HW211277   6.634   0.590   2.959
 3460SOL     OW11278   4.850   1.434   5.260
 3460SOL    HW111279   4.764   1.465   5.218
 3460SOL    HW211280   4.849   1.334   5.265
 3461SOL     OW11281   4.058   4.747   3.412
 3461SOL    HW111282   4.110   4.687   3.351
 3461SOL    HW211283   4.088   4.734   3.506
 3462SOL     OW11284   0.869   4.410   6.706
 3462SOL    HW111285   0.901   4.389   6.798
 3462SOL    HW211286   0.942   4.454   6.653
 3463SOL     OW11287   5.974   4.281   6.911
 3463SOL    HW111288   5.952   4.366   6.958
 3463SOL    HW211289   6.054   4.238   6.954
 3464SOL     OW11290   6.457   4.946   3.979
 3464SOL    HW111291   6.455   4.976   4.074
 3464SOL    HW211292   6.531   4.993   3.931
 3465SOL     OW11293   0.806   2.582   1.749
 3465SOL    HW111294   0.890   2.602   1.698
 3465SOL    HW211295   0.744   2.661   1.744
 3466SOL     OW11296   5.681   3.736   3.487
 3466SOL    HW111297   5.694   3.676   3.566
 3466SOL    HW211298   5.706   3.687   3.404
 3467SOL     OW11299   2.107   1.737   5.754
 3467SOL    HW111300   2.185   1.725   5.815
 3467SOL    HW211301   2.025   1.698   5.797
 3468SOL     OW11302   5.292   4.954   1.569
 3468SOL    HW111303   5.331   4.959   1.661
 3468SOL    HW211304   5.203   4.999   1.568
 3469SOL     OW11305   5.492   3.604   7.014
 3469SOL    HW111306   5.460   3.611   6.920
 3469SOL    HW211307   5.495   3.695   0.026
 3470SOL     OW11308   6.278   5.732   6.834
 3470SOL    HW111309   6.325   5.705   6.918
 3470SOL    HW211310   6.345   5.753   6.763
 3471SOL     OW11311   4.453   6.647   4.652
 3471SOL    HW111312   4.362   6.668   4.687
 3471SOL    HW211313   4.499   6.733   4.628
 3472SOL     OW11314   3.765   1.036   4.581
 3472SOL    HW111315   3.669   1.048   4.555
 3472SOL    HW211316   3.791   0.940   4.573
 3473SOL     OW11317   4.570   6.951   3.909
 3473SOL    HW111318   4.585   6.860   3.949
 3473SOL    HW211319   4.492   6.994   3.954
 3474SOL     OW11320   4.907   4.562   0.310
 3474SOL    HW111321   4.955   4.476   0.291
 3474SOL    HW211322   4.895   4.613   0.225
 3475SOL     OW11323   1.630   5.513   5.496
 3475SOL    HW111324   1.688   5.464   5.561
 3475SOL    HW211325   1.537   5.519   5.531
 3476SOL     OW11326   3.540   1.838   3.517
 3476SOL    HW111327   3.466   1.902   3.496
 3476SOL    HW211328   3.611   1.844   3.447
 3477SOL     OW11329   4.483   5.409   2.796
 3477SOL    HW111330   4.487   5.333   2.861
 3477SOL    HW211331   4.389   5.420   2.764
 3478SOL     OW11332   3.801   4.533   0.305
 3478SOL    HW111333   3.799   4.466   0.379
 3478SOL    HW211334   3.709   4.541   0.265
 3479SOL     OW11335   2.080   0.506   0.139
 3479SOL    HW111336   2.009   0.528   0.072
 3479SOL    HW211337   2.120   0.417   0.118
 3480SOL     OW11338   1.261   6.544   4.396
 3480SOL    HW111339   1.230   6.471   4.456
 3480SOL    HW211340   1.330   6.599   4.443
 3481SOL     OW11341   2.305   4.860   6.957
 3481SOL    HW111342   2.243   4.933   6.987
 3481SOL    HW211343   2.360   4.892   6.880
 3482SOL     OW11344   0.367   2.200   1.865
 3482SOL    HW111345   0.393   2.231   1.956
 3482SOL    HW211346   0.332   2.106   1.871
 3483SOL     OW11347   3.949   1.300   1.207
 3483SOL    HW111348   3.945   1.246   1.123
 3483SOL    HW211349   3.880   1.372   1.203
 3484SOL     OW11350   3.311   4.087   3.386
 3484SOL    HW111351   3.300   4.155   3.459
 3484SOL    HW211352   3.396   4.036   3.401
 3485SOL     OW11353   5.872   2.211   4.087
 3485SOL    HW111354   5.821   2.140   4.135
 3485SOL    HW211355   5.859   2.299   4.132
 3486SOL     OW11356   6.210   1.523   3.134
 3486SOL    HW111357   6.153   1.442   3.146
 3486SOL    HW211358   6.221   1.569   3.223
 3487SOL     OW11359   1.632   7.024   0.809
 3487SOL    HW111360   1.562   6.953   0.807
 3487SOL    HW211361   1.662   0.010   0.903
 3488SOL     OW11362   6.264   3.756   5.271
 3488SOL    HW111363   6.292   3.796   5.358
 3488SOL    HW211364   6.330   3.781   5.200
 3489SOL     OW11365   2.854   5.554   6.866
 3489SOL    HW111366   2.900   5.641   6.846
 3489SOL    HW211367   2.803   5.563   6.952
 3490SOL     OW11368   5.219   3.462   0.214
 3490SOL    HW111369   5.260   3.517   0.287
 3490SOL    HW211370   5.257   3.370   0.217
 3491SOL     OW11371   5.669   2.506   4.700
 3491SOL    HW111372   5.683   2.408   4.689
 3491SOL    HW211373   5.757   2.553   4.691
 3492SOL     OW11374   0.063   4.656   6.479
 3492SOL    HW111375   0.052   4.699   6.390
 3492SOL    HW211376   0.156   4.672   6.513
 3493SOL     OW11377   6.746   4.853   1.153
 3493SOL    HW111378   6.699   4.765   1.157
 3493SOL    HW211379   6.841   4.840   1.127
 3494SOL     OW11380   3.809   0.193   0.995
 3494SOL    HW111381   3.750   0.183   0.914
 3494SOL    HW211382   3.904   0.176   0.969
 3495SOL     OW11383   6.109   4.385   6.482
 3495SOL    HW111384   6.158   4.305   6.515
 3495SOL    HW211385   6.037   4.409   6.548
 3496SOL     OW11386   0.634   5.749   0.950
 3496SOL    HW111387   0.664   5.843   0.934
 3496SOL    HW211388   0.678   5.713   1.032
 3497SOL     OW11389   2.685   0.056   4.997
 3497SOL    HW111390   2.660   0.028   4.905
 3497SOL    HW211391   2.736   7.012   5.043
 3498SOL     OW11392   0.772   1.987   0.427
 3498SOL    HW111393   0.804   1.913   0.369
 3498SOL    HW211394   0.823   2.070   0.406
 3499SOL     OW11395   6.444   4.083   3.188
 3499SOL    HW111396   6.350   4.086   3.221
 3499SOL    HW211397   6.496   4.018   3.244
 3500SOL     OW11398   6.570   2.930   0.830
 3500SOL    HW111399   6.531   3.023   0.833
 3500SOL    HW211400   6.648   2.929   0.767
 3501SOL     OW11401   6.906   5.121   3.519
 3501SOL    HW111402   6.834   5.186   3.494
 3501SOL    HW211403   6.970   5.111   3.443
 3502SOL     OW11404   0.876   6.138   1.356
 3502SOL    HW111405   0.837   6.056   1.397
 3502SOL    HW211406   0.956   6.113   1.301
 3503SOL     OW11407   3.193   0.292   3.561
 3503SOL    HW111408   3.113   0.278   3.502
 3503SOL    HW211409   3.171   0.360   3.630
 3504SOL     OW11410   2.180   2.969   2.970
 3504SOL    HW111411   2.202   2.909   3.047
 3504SOL    HW211412   2.208   2.925   2.884
 3505SOL     OW11413   4.415   6.492   4.444
 3505SOL    HW111414   4.424   6.544   4.529
 3505SOL    HW211415   4.384   6.399   4.466
 3506SOL     OW11416   6.701   4.109   2.764
 3506SOL    HW111417   6.606   4.122   2.735
 3506SOL    HW211418   6.762   4.119   2.685
 3507SOL     OW11419   6.854   0.240   5.256
 3507SOL    HW111420   6.812   0.316   5.306
 3507SOL    HW211421   6.935   0.272   5.207
 3508SOL     OW11422   6.994   4.559   0.178
 3508SOL    HW111423   0.062   4.574   0.197
 3508SOL    HW211424   6.939   4.625   0.228
 3509SOL     OW11425   4.888   0.004   6.611
 3509SOL    HW111426   4.974   0.053   6.625
 3509SOL    HW211427   4.835   0.004   6.695
 3510SOL     OW11428   1.985   1.205   2.394
 3510SOL    HW111429   1.910   1.251   2.441
 3510SOL    HW211430   1.949   1.159   2.312
 3511SOL     OW11431   0.815   0.918   4.326
 3511SOL    HW111432   0.758   0.966   4.391
 3511SOL    HW211433   0.909   0.911   4.361
 3512SOL     OW11434   3.488   3.396   1.873
 3512SOL    HW111435   3.578   3.371   1.838
 3512SOL    HW211436   3.472   3.493   1.856
 3513SOL     OW11437   6.592   4.623   1.266
 3513SOL    HW111438   6.513   4.644   1.323
 3513SOL    HW211439   6.667   4.589   1.323
 3514SOL     OW11440   3.181   5.994   3.346
 3514SOL    HW111441   3.125   6.047   3.410
 3514SOL    HW211442   3.128   5.975   3.264
 3515SOL     OW11443   3.916   5.540   3.630
 3515SOL    HW111444   3.836   5.566   3.685
 3515SOL    HW211445   3.885   5.492   3.548
 3516SOL     OW11446   1.013   1.395   0.477
 3516SOL    HW111447   0.976   1.480   0.514
 3516SOL    HW211448   1.096   1.416   0.424
 3517SOL     OW11449   0.502   0.471   6.950
 3517SOL    HW111450   0.491   0.476   6.851
 3517SOL    HW211451   0.578   0.410   6.973
 3518SOL     OW11452   4.187   3.698   6.212
 3518SOL    HW111453   4.129   3.677   6.290
 3518SOL    HW211454   4.283   3.687   6.238
 3519SOL     OW11455   4.110   0.322   0.216
 3519SOL    HW111456   4.130   0.404   0.269
 3519SOL    HW211457   4.150   0.242   0.262
 3520SOL     OW11458   3.868   4.891   1.519
 3520SOL    HW111459   3.814   4.857   1.442
 3520SOL    HW211460   3.962   4.907   1.489
 3521SOL     OW11461   0.213   2.054   5.445
 3521SOL    HW111462   0.129   2.075   5.495
 3521SOL    HW211463   0.276   2.004   5.504
 3522SOL     OW11464   2.175   0.265   0.876
 3522SOL    HW111465   2.200   0.353   0.916
 3522SOL    HW211466   2.243   0.239   0.807
 3523SOL     OW11467   2.201   4.136   5.226
 3523SOL    HW111468   2.220   4.128   5.324
 3523SOL    HW211469   2.276   4.094   5.174
 3524SOL     OW11470   2.983   1.819   3.557
 3524SOL    HW111471   2.954   1.902   3.605
 3524SOL    HW211472   3.012   1.750   3.625
 3525SOL     OW11473   1.374   2.798   3.550
 3525SOL    HW111474   1.427   2.835   3.474
 3525SOL    HW211475   1.397   2.846   3.634
 3526SOL     OW11476   3.505   5.987   3.702
 3526SOL    HW111477   3.598   5.950   3.711
 3526SOL    HW211478   3.491   6.021   3.610
 3527SOL     OW11479   6.813   4.252   6.247
 3527SOL    HW111480   6.869   4.311   6.189
 3527SOL    HW211481   6.859   4.239   6.335
 3528SOL     OW11482   0.905   6.794   4.292
 3528SOL    HW111483   0.814   6.778   4.252
 3528SOL    HW211484   0.945   6.876   4.252
 3529SOL     OW11485   3.305   5.678   0.547
 3529SOL    HW111486   3.378   5.625   0.591
 3529SOL    HW211487   3.245   5.616   0.497
 3530SOL     OW11488   2.201   5.673   2.988
 3530SOL    HW111489   2.172   5.688   3.082
 3530SOL    HW211490   2.301   5.672   2.983
 3531SOL     OW11491   5.179   4.696   6.756
 3531SOL    HW111492   5.253   4.673   6.694
 3531SOL    HW211493   5.213   4.757   6.828
 3532SOL     OW11494   2.136   6.487   7.017
 3532SOL    HW111495   2.222   6.440   6.997
 3532SOL    HW211496   2.143   6.532   0.077
 3533SOL     OW11497   1.109   1.074   3.254
 3533SOL    HW111498   1.037   1.098   3.319
 3533SOL    HW211499   1.170   1.151   3.242
 3534SOL     OW11500   5.069   6.643   3.986
 3534SOL    HW111501   5.081   6.736   3.951
 3534SOL    HW211502   5.073   6.645   4.086
 3535SOL     OW11503   4.724   5.114   0.256
 3535SOL    HW111504   4.789   5.162   0.197
 3535SOL    HW211505   4.747   5.130   0.352
 3536SOL     OW11506   1.846   3.333   2.406
 3536SOL    HW111507   1.877   3.404   2.343
 3536SOL    HW211508   1.875   3.244   2.372
 3537SOL     OW11509   3.343   4.954   2.245
 3537SOL    HW111510   3.252   4.913   2.253
 3537SOL    HW211511   3.393   4.938   2.330
 3538SOL     OW11512   3.328   0.070   3.169
 3538SOL    HW111513   3.388   0.138   3.214
 3538SOL    HW211514   3.234   0.104   3.168
 3539SOL     OW11515   5.051   5.641   5.443
 3539SOL    HW111516   5.093   5.587   5.516
 3539SOL    HW211517   4.979   5.587   5.399
 3540SOL     OW11518   4.526   4.151   6.770
 3540SOL    HW111519   4.584   4.069   6.770
 3540SOL    HW211520   4.564   4.219   6.708
 3541SOL     OW11521   0.637   2.895   2.410
 3541SOL    HW111522   0.573   2.961   2.449
 3541SOL    HW211523   0.728   2.910   2.447
 3542SOL     OW11524   5.760   1.650   0.019
 3542SOL    HW111525   5.732   1.669   6.954
 3542SOL    HW211526   5.691   1.686   0.082
 3543SOL     OW11527   0.176   3.171   4.615
 3543SOL    HW111528   0.265   3.179   4.569
 3543SOL    HW211529   0.107   3.141   4.549
 3544SOL     OW11530   3.199   4.800   5.823
 3544SOL    HW111531   3.239   4.709   5.828
 3544SOL    HW211532   3.103   4.792   5.796
 3545SOL     OW11533   2.648   6.976   0.886
 3545SOL    HW111534   2.705   6.895   0.871
 3545SOL    HW211535   2.606   6.971   0.976
 3546SOL     OW11536   0.163   4.718   0.762
 3546SOL    HW111537   0.176   4.811   0.796
 3546SOL    HW211538   0.209   4.707   0.675
 3547SOL     OW11539   1.715   4.048   4.461
 3547SOL    HW111540   1.783   4.109   4.503
 3547SOL    HW211541   1.759   3.963   4.435
 3548SOL     OW11542   6.572   0.276   5.565
 3548SOL    HW111543   6.500   0.206   5.562
 3548SOL    HW211544   6.571   0.320   5.655
 3549SOL     OW11545   1.857   0.140   6.673
 3549SOL    HW111546   1.792   0.111   6.602
 3549SOL    HW211547   1.911   0.062   6.702
 3550SOL     OW11548   6.206   2.112   5.156
 3550SOL    HW111549   6.244   2.137   5.067
 3550SOL    HW211550   6.107   2.128   5.155
 3551SOL     OW11551   6.461   0.773   4.951
 3551SOL    HW111552   6.455   0.694   5.011
 3551SOL    HW211553   6.442   0.856   5.002
 3552SOL     OW11554   6.215   1.319   3.417
 3552SOL    HW111555   6.272   1.375   3.477
 3552SOL    HW211556   6.232   1.222   3.434
 3553SOL     OW11557   5.343   6.407   6.168
 3553SOL    HW111558   5.402   6.434   6.092
 3553SOL    HW211559   5.362   6.312   6.193
 3554SOL     OW11560   5.538   3.938   6.443
 3554SOL    HW111561   5.510   3.843   6.426
 3554SOL    HW211562   5.529   3.958   6.541
 3555SOL     OW11563   2.998   1.209   5.608
 3555SOL    HW111564   3.007   1.300   5.568
 3555SOL    HW211565   3.047   1.143   5.552
 3556SOL     OW11566   5.500   1.371   0.898
 3556SOL    HW111567   5.459   1.403   0.983
 3556SOL    HW211568   5.473   1.276   0.882
 3557SOL     OW11569   4.796   0.026   1.167
 3557SOL    HW111570   4.718   0.025   1.229
 3557SOL    HW211571   4.763   0.033   1.073
 3558SOL     OW11572   3.885   5.704   2.658
 3558SOL    HW111573   3.905   5.652   2.575
 3558SOL    HW211574   3.971   5.723   2.706
 3559SOL     OW11575   4.075   6.376   6.418
 3559SOL    HW111576   4.055   6.471   6.441
 3559SOL    HW211577   3.994   6.334   6.376
 3560SOL     OW11578   2.202   5.949   4.611
 3560SOL    HW111579   2.109   5.947   4.649
 3560SOL    HW211580   2.248   5.863   4.632
 3561SOL     OW11581   3.708   2.654   5.993
 3561SOL    HW111582   3.805   2.669   6.015
 3561SOL    HW211583   3.701   2.593   5.914
 3562SOL     OW11584   3.014   0.837   0.247
 3562SOL    HW111585   3.024   0.764   0.315
 3562SOL    HW211586   3.015   0.797   0.155
 3563SOL     OW11587   6.947   2.525   6.747
 3563SOL    HW111588   6.935   2.427   6.730
 3563SOL    HW211589   6.988   2.568   6.667
 3564SOL     OW11590   6.159   3.072   3.209
 3564SOL    HW111591   6.080   3.122   3.173
 3564SOL    HW211592   6.139   2.974   3.210
 3565SOL     OW11593   4.979   0.070   4.647
 3565SOL    HW111594   5.038   0.079   4.728
 3565SOL    HW211595   4.929   0.155   4.633
 3566SOL     OW11596   0.538   0.935   4.951
 3566SOL    HW111597   0.473   0.997   4.995
 3566SOL    HW211598   0.516   0.927   4.854
 3567SOL     OW11599   0.400   4.439   6.608
 3567SOL    HW111600   0.381   4.411   6.702
 3567SOL    HW211601   0.487   4.489   6.605
 3568SOL     OW11602   3.324   4.317   5.697
 3568SOL    HW111603   3.282   4.324   5.606
 3568SOL    HW211604   3.259   4.274   5.760
 3569SOL     OW11605   1.033   0.439   2.927
 3569SOL    HW111606   0.971   0.419   2.851
 3569SOL    HW211607   0.988   0.499   2.992
 3570SOL     OW11608   0.461   2.121   4.788
 3570SOL    HW111609   0.527   2.157   4.853
 3570SOL    HW211610   0.509   2.083   4.709
 3571SOL     OW11611   6.651   5.173   5.024
 3571SOL    HW111612   6.667   5.077   5.001
 3571SOL    HW211613   6.573   5.180   5.086
 3572SOL     OW11614   5.836   6.163   5.467
 3572SOL    HW111615   5.890   6.205   5.540
 3572SOL    HW211616   5.769   6.229   5.434
 3573SOL     OW11617   0.710   2.804   2.158
 3573SOL    HW111618   0.656   2.838   2.235
 3573SOL    HW211619   0.649   2.787   2.080
 3574SOL     OW11620   6.915   3.726   0.198
 3574SOL    HW111621   6.823   3.693   0.179
 3574SOL    HW211622   6.942   3.792   0.127
 3575SOL     OW11623   6.301   0.434   2.813
 3575SOL    HW111624   6.339   0.525   2.796
 3575SOL    HW211625   6.202   0.440   2.821
 3576SOL     OW11626   0.684   1.263   0.493
 3576SOL    HW111627   0.604   1.322   0.506
 3576SOL    HW211628   0.748   1.276   0.568
 3577SOL     OW11629   2.368   4.828   0.229
 3577SOL    HW111630   2.297   4.839   0.160
 3577SOL    HW211631   2.348   4.886   0.308
 3578SOL     OW11632   3.444   4.747   1.589
 3578SOL    HW111633   3.471   4.694   1.669
 3578SOL    HW211634   3.466   4.843   1.603
 3579SOL     OW11635   2.177   2.948   6.423
 3579SOL    HW111636   2.122   2.922   6.503
 3579SOL    HW211637   2.116   2.982   6.351
 3580SOL     OW11638   6.043   1.642   1.701
 3580SOL    HW111639   6.129   1.691   1.715
 3580SOL    HW211640   5.968   1.692   1.746
 3581SOL     OW11641   6.845   1.153   2.999
 3581SOL    HW111642   6.882   1.067   3.034
 3581SOL    HW211643   6.855   1.156   2.899
 3582SOL     OW11644   0.435   0.694   5.746
 3582SOL    HW111645   0.385   0.780   5.753
 3582SOL    HW211646   0.461   0.678   5.651
 3583SOL     OW11647   1.646   6.760   1.791
 3583SOL    HW111648   1.690   6.675   1.819
 3583SOL    HW211649   1.710   6.816   1.740
 3584SOL     OW11650   5.182   0.540   4.430
 3584SOL    HW111651   5.102   0.482   4.409
 3584SOL    HW211652   5.243   0.491   4.492
 3585SOL     OW11653   2.665   4.644   3.848
 3585SOL    HW111654   2.682   4.684   3.938
 3585SOL    HW211655   2.603   4.566   3.856
 3586SOL     OW11656   1.021   1.191   6.938
 3586SOL    HW111657   1.049   1.111   6.886
 3586SOL    HW211658   1.102   1.234   6.979
 3587SOL     OW11659   3.905   6.967   6.037
 3587SOL    HW111660   3.926   6.870   6.022
 3587SOL    HW211661   3.811   6.977   6.069
 3588SOL     OW11662   2.974   2.637   5.861
 3588SOL    HW111663   3.068   2.655   5.888
 3588SOL    HW211664   2.973   2.592   5.771
 3589SOL     OW11665   2.880   6.545   4.816
 3589SOL    HW111666   2.954   6.528   4.752
 3589SOL    HW211667   2.879   6.473   4.886
 3590SOL     OW11668   0.830   5.534   6.805
 3590SOL    HW111669   0.920   5.567   6.836
 3590SOL    HW211670   0.843   5.452   6.749
 3591SOL     OW11671   5.377   1.139   5.341
 3591SOL    HW111672   5.361   1.193   5.258
 3591SOL    HW211673   5.301   1.076   5.354
 3592SOL     OW11674   5.761   1.479   1.682
 3592SOL    HW111675   5.667   1.493   1.711
 3592SOL    HW211676   5.821   1.481   1.761
 3593SOL     OW11677   1.039   5.623   4.127
 3593SOL    HW111678   1.082   5.565   4.196
 3593SOL    HW211679   1.016   5.711   4.168
 3594SOL     OW11680   4.092   1.239   4.233
 3594SOL    HW111681   4.005   1.200   4.204
 3594SOL    HW211682   4.140   1.277   4.154
 3595SOL     OW11683   2.414   6.164   6.216
 3595SOL    HW111684   2.363   6.140   6.298
 3595SOL    HW211685   2.504   6.121   6.218
 3596SOL     OW11686   6.603   3.474   2.940
 3596SOL    HW111687   6.514   3.432   2.921
 3596SOL    HW211688   6.610   3.494   3.038
 3597SOL     OW11689   4.098   0.393   3.999
 3597SOL    HW111690   4.086   0.367   4.095
 3597SOL    HW211691   4.122   0.313   3.945
 3598SOL     OW11692   2.278   0.416   0.326
 3598SOL    HW111693   2.349   0.370   0.273
 3598SOL    HW211694   2.211   0.456   0.265
 3599SOL     OW11695   0.208   2.223   4.693
 3599SOL    HW111696   0.295   2.199   4.738
 3599SOL    HW211697   0.140   2.153   4.715
 3600SOL     OW11698   6.390   6.588   1.559
 3600SOL    HW111699   6.419   6.507   1.509
 3600SOL    HW211700   6.293   6.580   1.582
 3601SOL     OW11701   6.861   3.339   5.718
 3601SOL    HW111702   6.940   3.367   5.772
 3601SOL    HW211703   6.788   3.309   5.778
 3602SOL     OW11704   3.203   2.473   1.431
 3602SOL    HW111705   3.167   2.502   1.520
 3602SOL    HW211706   3.261   2.393   1.443
 3603SOL     OW11707   4.039   4.877   4.366
 3603SOL    HW111708   4.076   4.790   4.398
 3603SOL    HW211709   3.991   4.922   4.441
 3604SOL     OW11710   6.251   4.364   2.944
 3604SOL    HW111711   6.257   4.413   3.031
 3604SOL    HW211712   6.330   4.386   2.887
 3605SOL     OW11713   5.822   1.696   6.324
 3605SOL    HW111714   5.858   1.730   6.411
 3605SOL    HW211715   5.839   1.597   6.317
 3606SOL     OW11716   2.274   4.106   3.087
 3606SOL    HW111717   2.207   4.067   3.023
 3606SOL    HW211718   2.245   4.198   3.113
 3607SOL     OW11719   4.285   0.067   5.502
 3607SOL    HW111720   4.262   0.152   5.550
 3607SOL    HW211721   4.286   7.020   5.567
 3608SOL     OW11722   0.150   3.034   3.275
 3608SOL    HW111723   0.221   3.016   3.343
 3608SOL    HW211724   0.155   2.966   3.202
 3609SOL     OW11725   6.878   0.825   3.574
 3609SOL    HW111726   6.902   0.886   3.649
 3609SOL    HW211727   6.792   0.854   3.533
 3610SOL     OW11728   1.579   4.895   5.721
 3610SOL    HW111729   1.546   4.985   5.748
 3610SOL    HW211730   1.557   4.880   5.624
 3611SOL     OW11731   5.118   5.188   5.393
 3611SOL    HW111732   5.203   5.210   5.346
 3611SOL    HW211733   5.132   5.191   5.492
 3612SOL     OW11734   1.668   6.152   1.045
 3612SOL    HW111735   1.687   6.137   0.948
 3612SOL    HW211736   1.673   6.065   1.094
 3613SOL     OW11737   5.477   4.925   5.986
 3613SOL    HW111738   5.571   4.891   5.982
 3613SOL    HW211739   5.417   4.853   6.021
 3614SOL     OW11740   3.277   3.310   4.616
 3614SOL    HW111741   3.237   3.252   4.687
 3614SOL    HW211742   3.206   3.340   4.553
 3615SOL     OW11743   5.644   6.911   5.866
 3615SOL    HW111744   5.549   6.879   5.873
 3615SOL    HW211745   5.690   6.895   5.954
 3616SOL     OW11746   6.313   1.261   4.446
 3616SOL    HW111747   6.406   1.296   4.455
 3616SOL    HW211748   6.303   1.177   4.499
 3617SOL     OW11749   0.174   0.542   0.549
 3617SOL    HW111750   0.202   0.586   0.635
 3617SOL    HW211751   0.247   0.552   0.481
 3618SOL     OW11752   3.820   5.626   6.434
 3618SOL    HW111753   3.828   5.598   6.339
 3618SOL    HW211754   3.725   5.652   6.453
 3619SOL     OW11755   5.149   3.598   3.681
 3619SOL    HW111756   5.094   3.672   3.719
 3619SOL    HW211757   5.160   3.526   3.749
 3620SOL     OW11758   6.224   1.704   4.923
 3620SOL    HW111759   6.173   1.618   4.925
 3620SOL    HW211760   6.250   1.730   5.016
 3621SOL     OW11761   1.366   2.441   6.224
 3621SOL    HW111762   1.436   2.509   6.205
 3621SOL    HW211763   1.391   2.389   6.306
 3622SOL     OW11764   0.969   3.936   0.820
 3622SOL    HW111765   0.948   3.839   0.807
 3622SOL    HW211766   1.055   3.945   0.870
 3623SOL     OW11767   6.206   4.717   4.703
 3623SOL    HW111768   6.147   4.752   4.631
 3623SOL    HW211769   6.261   4.641   4.667
 3624SOL     OW11770   1.783   0.374   1.621
 3624SOL    HW111771   1.827   0.332   1.542
 3624SOL    HW211772   1.832   0.457   1.647
 3625SOL     OW11773   1.471   2.458   4.873
 3625SOL    HW111774   1.497   2.491   4.963
 3625SOL    HW211775   1.488   2.529   4.805
 3626SOL     OW11776   2.200   3.637   5.680
 3626SOL    HW111777   2.161   3.675   5.596
 3626SOL    HW211778   2.273   3.697   5.713
 3627SOL     OW11779   3.454   3.303   4.406
 3627SOL    HW111780   3.407   3.305   4.494
 3627SOL    HW211781   3.550   3.329   4.419
 3628SOL     OW11782   2.529   6.002   4.089
 3628SOL    HW111783   2.528   5.980   4.187
 3628SOL    HW211784   2.512   5.919   4.036
 3629SOL     OW11785   5.632   3.395   4.679
 3629SOL    HW111786   5.666   3.489   4.687
 3629SOL    HW211787   5.706   3.331   4.702
 3630SOL     OW11788   5.910   1.704   5.131
 3630SOL    HW111789   5.826   1.685   5.182
 3630SOL    HW211790   5.914   1.801   5.107
 3631SOL     OW11791   1.991   0.970   4.007
 3631SOL    HW111792   1.925   0.903   3.974
 3631SOL    HW211793   2.054   0.926   4.071
 3632SOL     OW11794   4.958   6.723   6.164
 3632SOL    HW111795   4.871   6.676   6.151
 3632SOL    HW211796   4.998   6.744   6.075
 3633SOL     OW11797   0.938   2.694   5.646
 3633SOL    HW111798   0.905   2.616   5.592
 3633SOL    HW211799   0.916   2.679   5.742
 3634SOL     OW11800   2.826   5.137   5.831
 3634SOL    HW111801   2.769   5.055   5.827
 3634SOL    HW211802   2.897   5.132   5.761
 3635SOL     OW11803   2.384   1.712   4.467
 3635SOL    HW111804   2.392   1.760   4.379
 3635SOL    HW211805   2.439   1.629   4.464
 3636SOL     OW11806   1.020   6.400   1.540
 3636SOL    HW111807   0.976   6.447   1.464
 3636SOL    HW211808   0.958   6.331   1.577
 3637SOL     OW11809   4.843   1.139   2.169
 3637SOL    HW111810   4.856   1.227   2.215
 3637SOL    HW211811   4.815   1.070   2.236
 3638SOL     OW11812   6.486   5.002   3.626
 3638SOL    HW111813   6.406   4.952   3.659
 3638SOL    HW211814   6.494   4.992   3.527
 3639SOL     OW11815   2.813   6.475   6.952
 3639SOL    HW111816   2.876   6.474   6.875
 3639SOL    HW211817   2.722   6.503   6.921
 3640SOL     OW11818   2.272   6.766   1.901
 3640SOL    HW111819   2.259   6.789   1.804
 3640SOL    HW211820   2.230   6.838   1.958
 3641SOL     OW11821   1.878   1.417   5.067
 3641SOL    HW111822   1.821   1.442   5.145
 3641SOL    HW211823   1.835   1.341   5.018
 3642SOL     OW11824   6.081   6.884   2.468
 3642SOL    HW111825   6.100   6.897   2.565
 3642SOL    HW211826   5.983   6.895   2.451
 3643SOL     OW11827   4.070   6.594   4.574
 3643SOL    HW111828   4.133   6.607   4.652
 3643SOL    HW211829   4.086   6.666   4.507
 3644SOL     OW11830   6.438   0.145   2.032
 3644SOL    HW111831   6.406   0.201   2.109
 3644SOL    HW211832   6.375   0.154   1.956
 3645SOL     OW11833   4.205   6.296   3.422
 3645SOL    HW111834   4.156   6.379   3.449
 3645SOL    HW211835   4.251   6.311   3.335
 3646SOL     OW11836   0.425   5.139   4.708
 3646SOL    HW111837   0.447   5.102   4.618
 3646SOL    HW211838   0.407   5.237   4.700
 3647SOL     OW11839   2.938   3.236   1.036
 3647SOL    HW111840   2.884   3.310   0.996
 3647SOL    HW211841   3.035   3.251   1.015
 3648SOL     OW11842   2.813   6.588   3.051
 3648SOL    HW111843   2.802   6.656   3.123
 3648SOL    HW211844   2.801   6.496   3.089
 3649SOL     OW11845   3.114   3.005   2.298
 3649SOL    HW111846   3.135   3.082   2.237
 3649SOL    HW211847   3.022   3.017   2.336
 3650SOL     OW11848   5.819   6.416   1.288
 3650SOL    HW111849   5.824   6.516   1.298
 3650SOL    HW211850   5.754   6.394   1.215
 3651SOL     OW11851   1.859   6.095   2.222
 3651SOL    HW111852   1.932   6.163   2.231
 3651SOL    HW211853   1.885   6.011   2.271
 3652SOL     OW11854   4.468   6.081   3.050
 3652SOL    HW111855   4.398   6.148   3.025
 3652SOL    HW211856   4.423   5.996   3.077
 3653SOL     OW11857   6.767   2.980   3.891
 3653SOL    HW111858   6.735   2.900   3.942
 3653SOL    HW211859   6.746   3.063   3.944
 3654SOL     OW11860   2.153   6.923   2.072
 3654SOL    HW111861   2.070   6.970   2.103
 3654SOL    HW211862   2.234   6.972   2.104
 3655SOL     OW11863   6.438   1.132   3.715
 3655SOL    HW111864   6.448   1.066   3.790
 3655SOL    HW211865   6.506   1.205   3.725
 3656SOL     OW11866   2.403   2.113   3.140
 3656SOL    HW111867   2.328   2.095   3.204
 3656SOL    HW211868   2.489   2.117   3.190
 3657SOL     OW11869   4.990   5.344   1.645
 3657SOL    HW111870   5.014   5.417   1.581
 3657SOL    HW211871   5.059   5.338   1.717
 3658SOL     OW11872   2.503   4.531   5.768
 3658SOL    HW111873   2.458   4.576   5.845
 3658SOL    HW211874   2.480   4.580   5.683
 3659SOL     OW11875   1.379   4.083   6.668
 3659SOL    HW111876   1.452   4.045   6.611
 3659SOL    HW211877   1.320   4.141   6.613
 3660SOL     OW11878   4.646   4.057   0.901
 3660SOL    HW111879   4.713   3.999   0.946
 3660SOL    HW211880   4.645   4.147   0.944
 3661SOL     OW11881   5.905   1.325   1.483
 3661SOL    HW111882   5.937   1.241   1.526
 3661SOL    HW211883   5.856   1.381   1.550
 3662SOL     OW11884   1.247   6.284   4.237
 3662SOL    HW111885   1.277   6.380   4.234
 3662SOL    HW211886   1.174   6.274   4.304
 3663SOL     OW11887   1.946   2.867   6.264
 3663SOL    HW111888   1.860   2.896   6.307
 3663SOL    HW211889   1.980   2.785   6.309
 3664SOL     OW11890   3.439   0.196   2.100
 3664SOL    HW111891   3.532   0.222   2.071
 3664SOL    HW211892   3.396   0.274   2.145
 3665SOL     OW11893   2.286   1.196   5.198
 3665SOL    HW111894   2.264   1.282   5.152
 3665SOL    HW211895   2.206   1.164   5.249
 3666SOL     OW11896   0.685   4.540   3.391
 3666SOL    HW111897   0.690   4.499   3.482
 3666SOL    HW211898   0.769   4.521   3.341
 3667SOL     OW11899   0.246   1.278   0.169
 3667SOL    HW111900   0.341   1.249   0.179
 3667SOL    HW211901   0.234   1.323   0.081
 3668SOL     OW11902   2.254   6.290   1.907
 3668SOL    HW111903   2.165   6.330   1.928
 3668SOL    HW211904   2.322   6.363   1.899
 3669SOL     OW11905   5.303   1.420   4.012
 3669SOL    HW111906   5.361   1.493   3.976
 3669SOL    HW211907   5.331   1.397   4.105
 3670SOL     OW11908   2.906   5.317   6.341
 3670SOL    HW111909   2.923   5.319   6.243
 3670SOL    HW211910   2.809   5.306   6.359
 3671SOL     OW11911   2.257   0.640   3.549
 3671SOL    HW111912   2.203   0.724   3.552
 3671SOL    HW211913   2.199   0.564   3.519
 3672SOL     OW11914   6.330   0.071   0.660
 3672SOL    HW111915   6.411   0.119   0.693
 3672SOL    HW211916   6.357   7.016   0.613
 3673SOL     OW11917   4.432   6.719   6.200
 3673SOL    HW111918   4.407   6.769   6.283
 3673SOL    HW211919   4.455   6.784   6.127
 3674SOL     OW11920   0.816   6.376   0.812
 3674SOL    HW111921   0.788   6.440   0.883
 3674SOL    HW211922   0.820   6.424   0.724
 3675SOL     OW11923   2.184   2.046   4.381
 3675SOL    HW111924   2.273   2.025   4.340
 3675SOL    HW211925   2.120   1.972   4.359
 3676SOL     OW11926   1.552   5.041   2.783
 3676SOL    HW111927   1.507   5.089   2.858
 3676SOL    HW211928   1.492   5.041   2.703
 3677SOL     OW11929   5.658   0.553   3.789
 3677SOL    HW111930   5.726   0.625   3.804
 3677SOL    HW211931   5.689   0.469   3.833
 3678SOL     OW11932   1.440   2.457   4.231
 3678SOL    HW111933   1.406   2.396   4.304
 3678SOL    HW211934   1.419   2.417   4.142
 3679SOL     OW11935   6.793   1.075   2.014
 3679SOL    HW111936   6.846   1.106   2.093
 3679SOL    HW211937   6.796   1.144   1.942
 3680SOL     OW11938   5.940   4.118   4.525
 3680SOL    HW111939   5.912   4.086   4.435
 3680SOL    HW211940   6.040   4.124   4.530
 3681SOL     OW11941   5.311   6.770   4.967
 3681SOL    HW111942   5.320   6.703   4.893
 3681SOL    HW211943   5.384   6.838   4.960
 3682SOL     OW11944   0.535   2.285   6.650
 3682SOL    HW111945   0.569   2.191   6.655
 3682SOL    HW211946   0.436   2.286   6.668
 3683SOL     OW11947   4.982   5.914   2.770
 3683SOL    HW111948   5.051   5.987   2.760
 3683SOL    HW211949   4.891   5.953   2.759
 3684SOL     OW11950   2.121   3.707   1.113
 3684SOL    HW111951   2.028   3.742   1.113
 3684SOL    HW211952   2.165   3.730   1.200
 3685SOL     OW11953   5.534   6.481   5.970
 3685SOL    HW111954   5.593   6.457   5.893
 3685SOL    HW211955   5.501   6.575   5.959
 3686SOL     OW11956   0.179   4.306   0.278
 3686SOL    HW111957   0.249   4.248   0.319
 3686SOL    HW211958   0.160   4.275   0.185
 3687SOL     OW11959   4.336   1.162   0.114
 3687SOL    HW111960   4.422   1.120   0.087
 3687SOL    HW211961   4.295   1.109   0.189
 3688SOL     OW11962   0.051   3.454   0.476
 3688SOL    HW111963   0.133   3.422   0.428
 3688SOL    HW211964   0.044   3.553   0.467
 3689SOL     OW11965   1.700   6.656   3.398
 3689SOL    HW111966   1.710   6.563   3.431
 3689SOL    HW211967   1.776   6.712   3.431
 3690SOL     OW11968   4.842   5.340   5.671
 3690SOL    HW111969   4.798   5.424   5.701
 3690SOL    HW211970   4.937   5.359   5.647
 3691SOL     OW11971   3.269   2.651   5.860
 3691SOL    HW111972   3.352   2.698   5.890
 3691SOL    HW211973   3.266   2.649   5.760
 3692SOL     OW11974   0.300   0.473   5.855
 3692SOL    HW111975   0.324   0.560   5.813
 3692SOL    HW211976   0.380   0.412   5.853
 3693SOL     OW11977   1.343   1.326   3.588
 3693SOL    HW111978   1.437   1.296   3.607
 3693SOL    HW211979   1.279   1.253   3.613
 3694SOL     OW11980   1.967   5.020   3.510
 3694SOL    HW111981   1.910   5.049   3.433
 3694SOL    HW211982   2.062   5.014   3.480
 3695SOL     OW11983   1.920   2.448   0.513
 3695SOL    HW111984   1.840   2.445   0.573
 3695SOL    HW211985   1.957   2.356   0.502
 3696SOL     OW11986   2.880   6.286   5.762
 3696SOL    HW111987   2.944   6.313   5.833
 3696SOL    HW211988   2.912   6.202   5.718
 3697SOL     OW11989   4.992   1.138   3.899
 3697SOL    HW111990   4.969   1.055   3.950
 3697SOL    HW211991   5.091   1.151   3.899
 3698SOL     OW11992   3.118   6.959   6.830
 3698SOL    HW111993   3.166   0.011   6.795
 3698SOL    HW211994   3.158   6.932   6.918
 3699SOL     OW11995   1.025   5.155   2.144
 3699SOL    HW111996   1.075   5.237   2.174
 3699SOL    HW211997   0.971   5.119   2.220
 3700SOL     OW11998   6.099   0.668   3.854
 3700SOL    HW111999   6.179   0.717   3.889
 3700SOL    HW212000   6.019   0.690   3.910
 3701SOL     OW12001   4.686   0.876   3.986
 3701SOL    HW112002   4.706   0.863   3.889
 3701SOL    HW212003   4.633   0.798   4.020
 3702SOL     OW12004   5.008   1.096   6.680
 3702SOL    HW112005   5.061   1.164   6.629
 3702SOL    HW212006   4.915   1.092   6.643
 3703SOL     OW12007   3.513   4.691   0.808
 3703SOL    HW112008   3.493   4.787   0.789
 3703SOL    HW212009   3.444   4.634   0.764
 3704SOL     OW12010   3.318   6.146   1.324
 3704SOL    HW112011   3.232   6.116   1.366
 3704SOL    HW212012   3.371   6.066   1.297
 3705SOL     OW12013   6.673   1.103   4.670
 3705SOL    HW112014   6.691   1.047   4.751
 3705SOL    HW212015   6.758   1.114   4.618
 3706SOL     OW12016   3.131   2.080   3.215
 3706SOL    HW112017   3.043   2.129   3.211
 3706SOL    HW212018   3.190   2.124   3.282
 3707SOL     OW12019   4.329   2.470   5.430
 3707SOL    HW112020   4.386   2.397   5.468
 3707SOL    HW212021   4.387   2.535   5.381
 3708SOL     OW12022   6.152   0.349   6.967
 3708SOL    HW112023   6.218   0.419   6.994
 3708SOL    HW212024   6.195   0.259   6.974
 3709SOL     OW12025   6.924   0.039   6.662
 3709SOL    HW112026   6.957   0.121   6.708
 3709SOL    HW212027   6.962   0.035   6.569
 3710SOL     OW12028   0.392   4.955   6.585
 3710SOL    HW112029   0.311   4.985   6.635
 3710SOL    HW212030   0.457   4.914   6.649
 3711SOL     OW12031   0.014   5.643   2.404
 3711SOL    HW112032   6.998   5.631   2.493
 3711SOL    HW212033   0.101   5.690   2.417
 3712SOL     OW12034   1.612   0.504   6.690
 3712SOL    HW112035   1.663   0.432   6.736
 3712SOL    HW212036   1.639   0.593   6.726
 3713SOL     OW12037   3.467   5.173   5.653
 3713SOL    HW112038   3.403   5.104   5.621
 3713SOL    HW212039   3.440   5.204   5.744
 3714SOL     OW12040   4.830   1.678   4.984
 3714SOL    HW112041   4.874   1.733   5.055
 3714SOL    HW212042   4.881   1.593   4.971
 3715SOL     OW12043   4.913   3.671   3.529
 3715SOL    HW112044   4.906   3.761   3.486
 3715SOL    HW212045   4.879   3.677   3.623
 3716SOL     OW12046   1.099   1.376   3.983
 3716SOL    HW112047   1.186   1.392   4.029
 3716SOL    HW212048   1.065   1.285   4.007
 3717SOL     OW12049   5.839   0.708   6.555
 3717SOL    HW112050   5.866   0.766   6.633
 3717SOL    HW212051   5.837   0.613   6.584
 3718SOL     OW12052   0.962   6.318   6.591
 3718SOL    HW112053   0.876   6.337   6.544
 3718SOL    HW212054   1.013   6.249   6.540
 3719SOL     OW12055   3.283   4.487   0.439
 3719SOL    HW112056   3.350   4.546   0.393
 3719SOL    HW212057   3.193   4.500   0.397
 3720SOL     OW12058   0.173   1.043   6.317
 3720SOL    HW112059   0.272   1.038   6.303
 3720SOL    HW212060   0.154   1.078   6.409
 3721SOL     OW12061   4.895   3.017   0.482
 3721SOL    HW112062   4.836   2.965   0.545
 3721SOL    HW212063   4.985   2.974   0.477
 3722SOL     OW12064   5.447   5.714   1.118
 3722SOL    HW112065   5.467   5.678   1.027
 3722SOL    HW212066   5.508   5.671   1.185
 3723SOL     OW12067   4.827   1.113   0.681
 3723SOL    HW112068   4.806   1.133   0.776
 3723SOL    HW212069   4.914   1.156   0.656
 3724SOL     OW12070   0.749   4.164   5.770
 3724SOL    HW112071   0.727   4.215   5.686
 3724SOL    HW212072   0.844   4.133   5.766
 3725SOL     OW12073   5.647   6.164   1.336
 3725SOL    HW112074   5.564   6.182   1.389
 3725SOL    HW212075   5.708   6.243   1.342
 3726SOL     OW12076   6.103   2.542   1.413
 3726SOL    HW112077   6.132   2.450   1.439
 3726SOL    HW212078   6.056   2.585   1.490
 3727SOL     OW12079   2.790   2.939   5.366
 3727SOL    HW112080   2.717   2.963   5.302
 3727SOL    HW212081   2.777   2.991   5.451
 3728SOL     OW12082   0.714   3.830   6.976
 3728SOL    HW112083   0.649   3.866   0.014
 3728SOL    HW212084   0.757   3.747   7.012
 3729SOL     OW12085   0.678   2.872   4.227
 3729SOL    HW112086   0.595   2.845   4.179
 3729SOL    HW212087   0.741   2.916   4.164
 3730SOL     OW12088   2.296   0.530   0.982
 3730SOL    HW112089   2.341   0.616   0.958
 3730SOL    HW212090   2.357   0.475   1.040
 3731SOL     OW12091   2.238   5.494   6.953
 3731SOL    HW112092   2.294   5.519   0.002
 3731SOL    HW212093   2.243   5.566   6.884
 3732SOL     OW12094   2.133   3.960   4.511
 3732SOL    HW112095   2.109   4.016   4.432
 3732SOL    HW212096   2.206   3.896   4.485
 3733SOL     OW12097   2.932   4.324   1.275
 3733SOL    HW112098   2.914   4.257   1.347
 3733SOL    HW212099   2.978   4.279   1.198
 3734SOL     OW12100   4.190   0.727   3.189
 3734SOL    HW112101   4.222   0.712   3.283
 3734SOL    HW212102   4.261   0.773   3.137
 3735SOL     OW12103   3.637   1.954   2.106
 3735SOL    HW112104   3.573   1.924   2.035
 3735SOL    HW212105   3.662   2.050   2.090
 3736SOL     OW12106   4.931   0.912   6.394
 3736SOL    HW112107   4.977   0.981   6.337
 3736SOL    HW212108   4.838   0.896   6.359
 3737SOL     OW12109   3.256   6.863   3.630
 3737SOL    HW112110   3.291   6.956   3.644
 3737SOL    HW212111   3.315   6.798   3.677
 3738SOL     OW12112   0.073   0.316   4.369
 3738SOL    HW112113   0.170   0.301   4.353
 3738SOL    HW212114   0.029   0.227   4.386
 3739SOL     OW12115   0.424   3.289   1.360
 3739SOL    HW112116   0.363   3.269   1.438
 3739SOL    HW212117   0.515   3.313   1.394
 3740SOL     OW12118   5.658   0.099   0.020
 3740SOL    HW112119   5.601   0.171   0.058
 3740SOL    HW212120   5.754   0.124   0.029
 3741SOL     OW12121   3.770   1.747   6.930
 3741SOL    HW112122   3.791   1.814   7.001
 3741SOL    HW212123   3.855   1.710   6.893
 3742SOL     OW12124   3.653   3.440   6.103
 3742SOL    HW112125   3.731   3.378   6.116
 3742SOL    HW212126   3.573   3.387   6.076
 3743SOL     OW12127   0.748   6.012   6.542
 3743SOL    HW112128   0.677   5.954   6.582
 3743SOL    HW212129   0.762   6.093   6.600
 3744SOL     OW12130   6.592   5.085   3.350
 3744SOL    HW112131   6.644   5.001   3.336
 3744SOL    HW212132   6.651   5.164   3.335
 3745SOL     OW12133   5.446   4.753   1.497
 3745SOL    HW112134   5.528   4.733   1.552
 3745SOL    HW212135   5.391   4.821   1.544
 3746SOL     OW12136   4.325   1.726   1.419
 3746SOL    HW112137   4.257   1.732   1.345
 3746SOL    HW212138   4.416   1.741   1.382
 3747SOL     OW12139   2.614   0.288   0.619
 3747SOL    HW112140   2.660   0.282   0.707
 3747SOL    HW212141   2.590   0.383   0.600
 3748SOL     OW12142   5.933   0.393   1.867
 3748SOL    HW112143   5.977   0.480   1.890
 3748SOL    HW212144   5.952   0.371   1.771
 3749SOL     OW12145   0.820   0.609   4.235
 3749SOL    HW112146   0.910   0.584   4.270
 3749SOL    HW212147   0.792   0.696   4.275
 3750SOL     OW12148   0.454   3.602   6.682
 3750SOL    HW112149   0.383   3.594   6.751
 3750SOL    HW212150   0.529   3.658   6.717
 3751SOL     OW12151   1.692   5.162   1.541
 3751SOL    HW112152   1.775   5.105   1.537
 3751SOL    HW212153   1.664   5.173   1.636
 3752SOL     OW12154   5.003   5.708   6.419
 3752SOL    HW112155   5.032   5.773   6.489
 3752SOL    HW212156   5.042   5.618   6.438
 3753SOL     OW12157   0.646   0.340   2.948
 3753SOL    HW112158   0.692   0.270   3.003
 3753SOL    HW212159   0.552   0.313   2.930
 3754SOL     OW12160   3.329   1.861   1.282
 3754SOL    HW112161   3.295   1.775   1.245
 3754SOL    HW212162   3.270   1.936   1.251
 3755SOL     OW12163   2.279   6.098   4.341
 3755SOL    HW112164   2.252   6.039   4.418
 3755SOL    HW212165   2.300   6.190   4.375
 3756SOL     OW12166   1.414   6.575   0.693
 3756SOL    HW112167   1.411   6.662   0.742
 3756SOL    HW212168   1.493   6.522   0.724
 3757SOL     OW12169   0.668   4.767   0.429
 3757SOL    HW112170   0.627   4.680   0.455
 3757SOL    HW212171   0.679   4.770   0.330
 3758SOL     OW12172   0.626   6.056   3.623
 3758SOL    HW112173   0.597   5.973   3.672
 3758SOL    HW212174   0.725   6.062   3.625
 3759SOL     OW12175   4.654   0.811   3.716
 3759SOL    HW112176   4.696   0.824   3.627
 3759SOL    HW212177   4.600   0.727   3.716
 3760SOL     OW12178   0.624   0.705   2.935
 3760SOL    HW112179   0.531   0.668   2.939
 3760SOL    HW212180   0.642   0.741   2.844
 3761SOL     OW12181   4.582   1.462   5.408
 3761SOL    HW112182   4.592   1.363   5.411
 3761SOL    HW212183   4.613   1.496   5.319
 3762SOL     OW12184   0.646   2.110   4.530
 3762SOL    HW112185   0.617   2.104   4.435
 3762SOL    HW212186   0.646   2.206   4.559
 3763SOL     OW12187   0.841   6.343   0.028
 3763SOL    HW112188   0.836   6.296   6.970
 3763SOL    HW212189   0.769   6.413   0.033
 3764SOL     OW12190   3.072   1.487   2.488
 3764SOL    HW112191   3.044   1.476   2.392
 3764SOL    HW212192   3.048   1.405   2.540
 3765SOL     OW12193   5.801   3.409   2.597
 3765SOL    HW112194   5.752   3.337   2.647
 3765SOL    HW212195   5.837   3.476   2.663
 3766SOL     OW12196   1.565   2.533   2.126
 3766SOL    HW112197   1.483   2.490   2.164
 3766SOL    HW212198   1.641   2.469   2.128
 3767SOL     OW12199   1.945   5.878   6.166
 3767SOL    HW112200   1.928   5.977   6.162
 3767SOL    HW212201   1.948   5.842   6.073
 3768SOL     OW12202   1.691   6.701   3.118
 3768SOL    HW112203   1.687   6.653   3.205
 3768SOL    HW212204   1.716   6.637   3.046
 3769SOL     OW12205   5.547   5.152   5.300
 3769SOL    HW112206   5.461   5.202   5.293
 3769SOL    HW212207   5.573   5.118   5.209
 3770SOL     OW12208   2.905   6.984   1.165
 3770SOL    HW112209   2.806   6.993   1.177
 3770SOL    HW212210   2.926   6.899   1.118
 3771SOL     OW12211   6.670   5.811   5.597
 3771SOL    HW112212   6.742   5.857   5.649
 3771SOL    HW212213   6.581   5.837   5.632
 3772SOL     OW12214   2.493   5.805   1.950
 3772SOL    HW112215   2.477   5.795   1.852
 3772SOL    HW212216   2.446   5.887   1.984
 3773SOL     OW12217   4.908   4.703   6.791
 3773SOL    HW112218   4.855   4.659   6.719
 3773SOL    HW212219   5.005   4.691   6.773
 3774SOL     OW12220   6.968   4.512   1.304
 3774SOL    HW112221   6.918   4.427   1.322
 3774SOL    HW212222   6.925   4.559   1.227
 3775SOL     OW12223   5.348   5.706   4.790
 3775SOL    HW112224   5.399   5.721   4.874
 3775SOL    HW212225   5.301   5.790   4.763
 3776SOL     OW12226   4.481   2.399   6.444
 3776SOL    HW112227   4.450   2.372   6.535
 3776SOL    HW212228   4.519   2.319   6.397
 3777SOL     OW12229   2.892   5.120   3.990
 3777SOL    HW112230   2.966   5.063   3.953
 3777SOL    HW212231   2.862   5.184   3.919
 3778SOL     OW12232   2.821   5.250   6.780
 3778SOL    HW112233   2.863   5.337   6.810
 3778SOL    HW212234   2.722   5.255   6.792
 3779SOL     OW12235   0.103   4.955   6.308
 3779SOL    HW112236   0.193   4.926   6.338
 3779SOL    HW212237   0.107   5.049   6.274
 3780SOL     OW12238   6.290   2.791   2.025
 3780SOL    HW112239   6.299   2.829   1.933
 3780SOL    HW212240   6.308   2.862   2.092
 3781SOL     OW12241   1.396   6.640   5.855
 3781SOL    HW112242   1.307   6.623   5.812
 3781SOL    HW212243   1.404   6.737   5.876
 3782SOL     OW12244   3.761   5.483   6.923
 3782SOL    HW112245   3.806   5.523   7.002
 3782SOL    HW212246   3.798   5.392   6.906
 3783SOL     OW12247   4.637   4.837   5.578
 3783SOL    HW112248   4.696   4.911   5.610
 3783SOL    HW212249   4.542   4.868   5.581
 3784SOL     OW12250   5.962   3.203   4.538
 3784SOL    HW112251   5.897   3.213   4.613
 3784SOL    HW212252   5.997   3.293   4.512
 3785SOL     OW12253   0.932   3.113   2.736
 3785SOL    HW112254   0.967   3.020   2.745
 3785SOL    HW212255   1.007   3.178   2.748
 3786SOL     OW12256   2.422   2.785   6.024
 3786SOL    HW112257   2.351   2.856   6.021
 3786SOL    HW212258   2.444   2.756   5.930
 3787SOL     OW12259   4.886   5.846   5.036
 3787SOL    HW112260   4.808   5.897   4.999
 3787SOL    HW212261   4.855   5.757   5.070
 3788SOL     OW12262   5.714   3.124   5.831
 3788SOL    HW112263   5.684   3.168   5.747
 3788SOL    HW212264   5.805   3.083   5.817
 3789SOL     OW12265   1.943   4.049   0.978
 3789SOL    HW112266   1.883   4.127   0.994
 3789SOL    HW212267   2.022   4.078   0.924
 3790SOL     OW12268   1.803   6.912   1.626
 3790SOL    HW112269   1.882   6.946   1.676
 3790SOL    HW212270   1.820   6.920   1.528
 3791SOL     OW12271   4.654   0.532   4.436
 3791SOL    HW112272   4.720   0.582   4.381
 3791SOL    HW212273   4.606   0.595   4.497
 3792SOL     OW12274   6.234   6.890   3.441
 3792SOL    HW112275   6.267   6.818   3.380
 3792SOL    HW212276   6.204   6.969   3.387
 3793SOL     OW12277   5.110   3.690   0.106
 3793SOL    HW112278   5.164   3.768   0.136
 3793SOL    HW212279   5.150   3.606   0.141
 3794SOL     OW12280   1.146   5.001   5.907
 3794SOL    HW112281   1.049   5.000   5.932
 3794SOL    HW212282   1.200   5.039   5.982
 3795SOL     OW12283   3.267   6.201   0.610
 3795SOL    HW112284   3.228   6.109   0.621
 3795SOL    HW212285   3.217   6.265   0.668
 3796SOL     OW12286   5.343   0.614   0.055
 3796SOL    HW112287   5.371   0.710   0.061
 3796SOL    HW212288   5.386   0.572   7.004
 3797SOL     OW12289   0.044   3.217   1.458
 3797SOL    HW112290   0.089   3.190   1.373
 3797SOL    HW212291   0.113   3.228   1.530
 3798SOL     OW12292   0.811   5.316   3.670
 3798SOL    HW112293   0.879   5.284   3.603
 3798SOL    HW212294   0.787   5.241   3.731
 3799SOL     OW12295   0.130   1.841   2.945
 3799SOL    HW112296   0.044   1.869   2.904
 3799SOL    HW212297   0.111   1.794   3.032
 3800SOL     OW12298   5.148   3.265   2.309
 3800SOL    HW112299   5.163   3.309   2.398
 3800SOL    HW212300   5.096   3.327   2.250
 3801SOL     OW12301   6.148   1.454   0.950
 3801SOL    HW112302   6.169   1.536   0.898
 3801SOL    HW212303   6.125   1.479   1.044
 3802SOL     OW12304   6.110   3.265   2.781
 3802SOL    HW112305   6.096   3.166   2.784
 3802SOL    HW212306   6.038   3.311   2.834
 3803SOL     OW12307   4.195   3.645   5.638
 3803SOL    HW112308   4.134   3.723   5.632
 3803SOL    HW212309   4.190   3.591   5.554
 3804SOL     OW12310   2.996   6.119   3.568
 3804SOL    HW112311   3.023   6.099   3.662
 3804SOL    HW212312   2.897   6.104   3.557
 3805SOL     OW12313   2.562   1.693   6.738
 3805SOL    HW112314   2.531   1.780   6.699
 3805SOL    HW212315   2.606   1.639   6.666
 3806SOL     OW12316   1.903   4.011   2.088
 3806SOL    HW112317   1.864   3.943   2.026
 3806SOL    HW212318   1.944   3.966   2.167
 3807SOL     OW12319   0.670   4.108   4.257
 3807SOL    HW112320   0.589   4.071   4.213
 3807SOL    HW212321   0.733   4.033   4.280
 3808SOL     OW12322   2.712   6.443   6.073
 3808SOL    HW112323   2.629   6.437   6.130
 3808SOL    HW212324   2.791   6.459   6.132
 3809SOL     OW12325   5.327   1.424   2.032
 3809SOL    HW112326   5.277   1.433   2.117
 3809SOL    HW212327   5.386   1.504   2.019
 3810SOL     OW12328   5.391   2.057   3.130
 3810SOL    HW112329   5.436   2.016   3.210
 3810SOL    HW212330   5.296   2.078   3.152
 3811SOL     OW12331   0.249   6.052   5.376
 3811SOL    HW112332   0.279   6.005   5.460
 3811SOL    HW212333   0.149   6.054   5.373
 3812SOL     OW12334   3.682   5.553   0.529
 3812SOL    HW112335   3.632   5.587   0.608
 3812SOL    HW212336   3.673   5.618   0.453
 3813SOL     OW12337   6.156   3.428   6.781
 3813SOL    HW112338   6.070   3.376   6.784
 3813SOL    HW212339   6.226   3.377   6.831
 3814SOL     OW12340   0.105   0.252   5.168
 3814SOL    HW112341   0.104   0.154   5.185
 3814SOL    HW212342   0.181   0.294   5.218
 3815SOL     OW12343   4.907   2.027   5.541
 3815SOL    HW112344   4.958   2.014   5.626
 3815SOL    HW212345   4.926   1.951   5.479
 3816SOL     OW12346   6.824   6.857   0.903
 3816SOL    HW112347   6.782   6.889   0.818
 3816SOL    HW212348   6.853   6.935   0.958
 3817SOL     OW12349   3.779   3.751   2.156
 3817SOL    HW112350   3.743   3.732   2.065
 3817SOL    HW212351   3.795   3.850   2.165
 3818SOL     OW12352   4.165   5.502   2.507
 3818SOL    HW112353   4.071   5.509   2.472
 3818SOL    HW212354   4.229   5.499   2.430
 3819SOL     OW12355   6.374   3.235   3.108
 3819SOL    HW112356   6.465   3.205   3.137
 3819SOL    HW212357   6.305   3.173   3.146
 3820SOL     OW12358   3.034   6.378   5.974
 3820SOL    HW112359   2.985   6.335   6.050
 3820SOL    HW212360   3.122   6.332   5.961
 3821SOL     OW12361   2.131   6.998   1.013
 3821SOL    HW112362   2.089   6.950   1.090
 3821SOL    HW212363   2.060   0.002   0.951
 3822SOL     OW12364   5.753   6.965   1.750
 3822SOL    HW112365   5.847   6.937   1.770
 3822SOL    HW212366   5.738   0.029   1.784
 3823SOL     OW12367   5.290   5.931   5.213
 3823SOL    HW112368   5.222   5.986   5.164
 3823SOL    HW212369   5.270   5.932   5.311
 3824SOL     OW12370   2.061   2.210   0.692
 3824SOL    HW112371   2.103   2.271   0.759
 3824SOL    HW212372   2.132   2.165   0.638
 3825SOL     OW12373   0.673   4.728   5.217
 3825SOL    HW112374   0.577   4.707   5.238
 3825SOL    HW212375   0.681   4.824   5.191
 3826SOL     OW12376   4.764   4.095   3.592
 3826SOL    HW112377   4.786   4.118   3.687
 3826SOL    HW212378   4.833   4.134   3.532
 3827SOL     OW12379   0.640   1.346   6.998
 3827SOL    HW112380   0.699   1.269   7.021
 3827SOL    HW212381   0.554   1.313   6.960
 3828SOL     OW12382   3.325   3.501   5.243
 3828SOL    HW112383   3.269   3.584   5.237
 3828SOL    HW212384   3.268   3.421   5.226
 3829SOL     OW12385   0.751   3.347   1.898
 3829SOL    HW112386   0.713   3.394   1.818
 3829SOL    HW212387   0.685   3.278   1.929
 3830SOL     OW12388   5.010   6.726   3.676
 3830SOL    HW112389   4.990   6.650   3.614
 3830SOL    HW212390   4.925   6.765   3.709
 3831SOL     OW12391   5.146   1.974   3.602
 3831SOL    HW112392   5.077   2.018   3.659
 3831SOL    HW212393   5.103   1.934   3.522
 3832SOL     OW12394   6.251   1.304   3.816
 3832SOL    HW112395   6.324   1.248   3.777
 3832SOL    HW212396   6.164   1.256   3.806
 3833SOL     OW12397   1.653   2.868   5.892
 3833SOL    HW112398   1.570   2.820   5.920
 3833SOL    HW212399   1.643   2.901   5.798
 3834SOL     OW12400   5.499   4.591   0.831
 3834SOL    HW112401   5.594   4.589   0.861
 3834SOL    HW212402   5.493   4.558   0.737
 3835SOL     OW12403   4.438   5.356   4.960
 3835SOL    HW112404   4.439   5.372   4.862
 3835SOL    HW212405   4.529   5.328   4.990
 3836SOL     OW12406   0.339   6.909   4.590
 3836SOL    HW112407   0.309   6.996   4.629
 3836SOL    HW212408   0.262   6.864   4.546
 3837SOL     OW12409   4.489   4.510   5.927
 3837SOL    HW112410   4.579   4.505   5.884
 3837SOL    HW212411   4.421   4.472   5.864
 3838SOL     OW12412   6.817   0.844   4.535
 3838SOL    HW112413   6.830   0.900   4.617
 3838SOL    HW212414   6.744   0.777   4.551
 3839SOL     OW12415   4.633   1.200   3.664
 3839SOL    HW112416   4.680   1.286   3.642
 3839SOL    HW212417   4.694   1.123   3.650
 3840SOL     OW12418   3.946   1.183   6.368
 3840SOL    HW112419   3.897   1.260   6.327
 3840SOL    HW212420   4.017   1.152   6.305
 3841SOL     OW12421   5.832   4.274   3.346
 3841SOL    HW112422   5.784   4.362   3.352
 3841SOL    HW212423   5.791   4.209   3.409
 3842SOL     OW12424   2.057   3.754   5.484
 3842SOL    HW112425   1.988   3.697   5.441
 3842SOL    HW212426   2.013   3.820   5.544
 3843SOL     OW12427   5.989   2.604   6.083
 3843SOL    HW112428   5.929   2.665   6.031
 3843SOL    HW212429   5.947   2.582   6.171
 3844SOL     OW12430   6.768   6.891   1.291
 3844SOL    HW112431   6.825   6.893   1.373
 3844SOL    HW212432   6.744   6.985   1.265
 3845SOL     OW12433   2.035   5.452   0.328
 3845SOL    HW112434   2.031   5.439   0.229
 3845SOL    HW212435   2.112   5.513   0.351
 3846SOL     OW12436   6.734   3.103   2.974
 3846SOL    HW112437   6.654   3.087   2.917
 3846SOL    HW212438   6.801   3.158   2.923
 3847SOL     OW12439   0.618   1.591   6.836
 3847SOL    HW112440   0.530   1.637   6.842
 3847SOL    HW212441   0.625   1.521   6.907
 3848SOL     OW12442   6.499   5.210   2.074
 3848SOL    HW112443   6.475   5.280   2.007
 3848SOL    HW212444   6.422   5.146   2.083
 3849SOL     OW12445   0.653   3.889   5.552
 3849SOL    HW112446   0.628   3.892   5.649
 3849SOL    HW212447   0.683   3.797   5.528
 3850SOL     OW12448   2.858   2.709   1.226
 3850SOL    HW112449   2.918   2.629   1.217
 3850SOL    HW212450   2.914   2.792   1.233
 3851SOL     OW12451   0.309   5.893   2.924
 3851SOL    HW112452   0.255   5.899   2.840
 3851SOL    HW212453   0.400   5.858   2.904
 3852SOL     OW12454   2.241   0.475   4.876
 3852SOL    HW112455   2.318   0.463   4.939
 3852SOL    HW212456   2.224   0.573   4.863
 3853SOL     OW12457   2.514   1.039   3.022
 3853SOL    HW112458   2.550   0.970   2.959
 3853SOL    HW212459   2.433   1.082   2.982
 3854SOL     OW12460   0.595   1.881   2.220
 3854SOL    HW112461   0.621   1.784   2.225
 3854SOL    HW212462   0.633   1.928   2.300
 3855SOL     OW12463   3.140   6.572   6.566
 3855SOL    HW112464   3.207   6.513   6.520
 3855SOL    HW212465   3.051   6.526   6.568
 3856SOL     OW12466   6.665   2.601   6.811
 3856SOL    HW112467   6.626   2.605   6.719
 3856SOL    HW212468   6.763   2.581   6.804
 3857SOL     OW12469   2.299   0.307   6.428
 3857SOL    HW112470   2.205   0.310   6.463
 3857SOL    HW212471   2.359   0.268   6.498
 3858SOL     OW12472   3.703   0.763   4.926
 3858SOL    HW112473   3.658   0.710   4.854
 3858SOL    HW212474   3.683   0.722   5.015
 3859SOL     OW12475   6.321   0.294   2.229
 3859SOL    HW112476   6.383   0.254   2.297
 3859SOL    HW212477   6.227   0.290   2.264
 3860SOL     OW12478   1.380   6.771   4.494
 3860SOL    HW112479   1.407   6.818   4.410
 3860SOL    HW212480   1.284   6.790   4.513
 3861SOL     OW12481   3.306   5.657   2.143
 3861SOL    HW112482   3.215   5.667   2.184
 3861SOL    HW212483   3.326   5.736   2.086
 3862SOL     OW12484   1.243   0.388   4.460
 3862SOL    HW112485   1.202   0.335   4.535
 3862SOL    HW212486   1.312   0.450   4.498
 3863SOL     OW12487   4.267   0.735   0.582
 3863SOL    HW112488   4.200   0.792   0.628
 3863SOL    HW212489   4.342   0.714   0.644
 3864SOL     OW12490   0.967   0.029   4.208
 3864SOL    HW112491   0.927   0.043   4.118
 3864SOL    HW212492   1.006   0.116   4.240
 3865SOL     OW12493   5.272   1.091   1.048
 3865SOL    HW112494   5.335   1.092   0.970
 3865SOL    HW212495   5.178   1.102   1.014
 3866SOL     OW12496   2.985   0.955   6.775
 3866SOL    HW112497   2.999   0.900   6.693
 3866SOL    HW212498   3.049   0.924   6.846
 3867SOL     OW12499   6.761   3.431   2.463
 3867SOL    HW112500   6.665   3.408   2.478
 3867SOL    HW212501   6.772   3.530   2.459
 3868SOL     OW12502   3.796   0.116   7.010
 3868SOL    HW112503   3.825   0.194   0.036
 3868SOL    HW212504   3.876   0.066   6.977
 3869SOL     OW12505   3.870   1.132   4.164
 3869SOL    HW112506   3.790   1.136   4.223
 3869SOL    HW212507   3.863   1.053   4.102
 3870SOL     OW12508   0.103   1.772   5.764
 3870SOL    HW112509   0.101   1.856   5.819
 3870SOL    HW212510   0.142   1.698   5.819
 3871SOL     OW12511   2.700   5.672   3.822
 3871SOL    HW112512   2.613   5.640   3.786
 3871SOL    HW212513   2.731   5.610   3.894
 3872SOL     OW12514   2.898   3.827   5.225
 3872SOL    HW112515   2.914   3.816   5.127
 3872SOL    HW212516   2.814   3.880   5.239
 3873SOL     OW12517   4.560   2.022   6.877
 3873SOL    HW112518   4.549   2.108   6.926
 3873SOL    HW212519   4.537   1.946   6.938
 3874SOL     OW12520   2.684   1.471   1.182
 3874SOL    HW112521   2.660   1.374   1.176
 3874SOL    HW212522   2.781   1.484   1.162
 3875SOL     OW12523   0.893   1.783   6.363
 3875SOL    HW112524   0.961   1.714   6.386
 3875SOL    HW212525   0.808   1.738   6.336
 3876SOL     OW12526   3.335   5.495   2.501
 3876SOL    HW112527   3.362   5.589   2.523
 3876SOL    HW212528   3.365   5.472   2.409
 3877SOL     OW12529   0.559   1.529   5.619
 3877SOL    HW112530   0.459   1.529   5.630
 3877SOL    HW212531   0.602   1.497   5.704
 3878SOL     OW12532   4.583   1.107   4.814
 3878SOL    HW112533   4.644   1.184   4.830
 3878SOL    HW212534   4.512   1.106   4.884
 3879SOL     OW12535   5.246   5.800   0.003
 3879SOL    HW112536   5.298   5.763   0.080
 3879SOL    HW212537   5.151   5.772   0.010
 3880SOL     OW12538   5.266   4.707   3.968
 3880SOL    HW112539   5.228   4.798   3.983
 3880SOL    HW212540   5.199   4.637   3.996
 3881SOL     OW12541   1.547   3.079   0.542
 3881SOL    HW112542   1.460   3.093   0.591
 3881SOL    HW212543   1.560   3.152   0.475
 3882SOL     OW12544   0.359   2.280   5.642
 3882SOL    HW112545   0.330   2.239   5.728
 3882SOL    HW212546   0.282   2.281   5.578
 3883SOL     OW12547   4.305   6.153   3.891
 3883SOL    HW112548   4.338   6.060   3.873
 3883SOL    HW212549   4.276   6.195   3.805
 3884SOL     OW12550   0.528   3.707   2.317
 3884SOL    HW112551   0.480   3.654   2.388
 3884SOL    HW212552   0.462   3.762   2.266
 3885SOL     OW12553   4.402   5.499   2.329
 3885SOL    HW112554   4.459   5.565   2.378
 3885SOL    HW212555   4.346   5.548   2.262
 3886SOL     OW12556   2.586   5.617   5.802
 3886SOL    HW112557   2.616   5.523   5.814
 3886SOL    HW212558   2.662   5.679   5.822
 3887SOL     OW12559   1.707   5.633   1.884
 3887SOL    HW112560   1.727   5.722   1.925
 3887SOL    HW212561   1.792   5.590   1.854
 3888SOL     OW12562   5.477   4.877   3.982
 3888SOL    HW112563   5.429   4.948   4.035
 3888SOL    HW212564   5.422   4.794   3.980
 3889SOL     OW12565   5.392   4.157   0.279
 3889SOL    HW112566   5.451   4.113   0.347
 3889SOL    HW212567   5.320   4.208   0.326
 3890SOL     OW12568   5.521   3.590   3.928
 3890SOL    HW112569   5.433   3.601   3.975
 3890SOL    HW212570   5.509   3.608   3.830
 3891SOL     OW12571   5.170   5.252   3.728
 3891SOL    HW112572   5.266   5.237   3.751
 3891SOL    HW212573   5.115   5.245   3.811
 3892SOL     OW12574   6.743   2.031   1.658
 3892SOL    HW112575   6.795   2.037   1.572
 3892SOL    HW212576   6.693   1.944   1.660
 3893SOL     OW12577   4.108   3.299   3.245
 3893SOL    HW112578   4.129   3.325   3.151
 3893SOL    HW212579   4.194   3.284   3.295
 3894SOL     OW12580   4.401   0.761   5.971
 3894SOL    HW112581   4.311   0.734   5.936
 3894SOL    HW212582   4.427   0.701   6.047
 3895SOL     OW12583   0.352   0.026   3.748
 3895SOL    HW112584   0.325   0.119   3.773
 3895SOL    HW212585   0.424   7.024   3.810
 3896SOL     OW12586   2.144   1.406   6.124
 3896SOL    HW112587   2.111   1.312   6.118
 3896SOL    HW212588   2.085   1.459   6.186
 3897SOL     OW12589   3.971   5.596   1.323
 3897SOL    HW112590   4.012   5.667   1.382
 3897SOL    HW212591   3.983   5.622   1.227
 3898SOL     OW12592   3.460   2.958   1.548
 3898SOL    HW112593   3.399   3.029   1.584
 3898SOL    HW212594   3.448   2.874   1.599
 3899SOL     OW12595   2.956   0.329   5.249
 3899SOL    HW112596   3.016   0.277   5.188
 3899SOL    HW212597   2.930   0.271   5.326
 3900SOL     OW12598   4.703   4.841   2.884
 3900SOL    HW112599   4.753   4.808   2.804
 3900SOL    HW212600   4.627   4.781   2.904
 3901SOL     OW12601   2.676   1.079   7.014
 3901SOL    HW112602   2.655   1.160   0.041
 3901SOL    HW212603   2.591   1.038   6.981
 3902SOL     OW12604   5.231   3.029   3.019
 3902SOL    HW112605   5.231   2.964   2.943
 3902SOL    HW212606   5.138   3.063   3.033
 3903SOL     OW12607   2.906   4.511   6.215
 3903SOL    HW112608   2.810   4.528   6.236
 3903SOL    HW212609   2.929   4.416   6.234
 3904SOL     OW12610   1.905   6.997   0.700
 3904SOL    HW112611   1.960   0.051   0.691
 3904SOL    HW212612   1.815   7.019   0.739
 3905SOL     OW12613   0.146   6.491   5.162
 3905SOL    HW112614   0.123   6.585   5.188
 3905SOL    HW212615   0.062   6.439   5.146
 3906SOL     OW12616   6.963   6.315   5.017
 3906SOL    HW112617   6.932   6.333   4.924
 3906SOL    HW212618   7.003   6.224   5.022
 3907SOL     OW12619   5.559   2.041   3.726
 3907SOL    HW112620   5.649   2.066   3.764
 3907SOL    HW212621   5.497   2.119   3.733
 3908SOL     OW12622   2.719   4.230   6.108
 3908SOL    HW112623   2.662   4.159   6.064
 3908SOL    HW212624   2.703   4.317   6.063
 3909SOL     OW12625   6.036   5.741   3.313
 3909SOL    HW112626   6.074   5.823   3.270
 3909SOL    HW212627   6.009   5.675   3.243
 3910SOL     OW12628   3.655   3.293   2.674
 3910SOL    HW112629   3.676   3.203   2.711
 3910SOL    HW212630   3.602   3.283   2.589
 3911SOL     OW12631   5.847   2.537   5.459
 3911SOL    HW112632   5.792   2.530   5.376
 3911SOL    HW212633   5.927   2.595   5.441
 3912SOL     OW12634   5.406   2.698   6.212
 3912SOL    HW112635   5.311   2.675   6.232
 3912SOL    HW212636   5.465   2.621   6.236
 3913SOL     OW12637   1.306   6.957   1.339
 3913SOL    HW112638   1.353   7.020   1.402
 3913SOL    HW212639   1.366   6.880   1.318
 3914SOL     OW12640   3.140   5.875   5.858
 3914SOL    HW112641   3.085   5.903   5.937
 3914SOL    HW212642   3.099   5.794   5.816
 3915SOL     OW12643   0.451   5.973   1.284
 3915SOL    HW112644   0.424   5.986   1.380
 3915SOL    HW212645   0.420   5.883   1.253
 3916SOL     OW12646   0.760   0.135   3.179
 3916SOL    HW112647   0.731   0.042   3.201
 3916SOL    HW212648   0.838   0.131   3.117
 3917SOL     OW12649   2.688   0.027   6.461
 3917SOL    HW112650   2.734   0.002   6.547
 3917SOL    HW212651   2.735   7.012   6.384
 3918SOL     OW12652   5.610   3.291   6.783
 3918SOL    HW112653   5.656   3.210   6.818
 3918SOL    HW212654   5.513   3.288   6.809
 3919SOL     OW12655   3.153   6.691   0.875
 3919SOL    HW112656   3.139   6.711   0.778
 3919SOL    HW212657   3.199   6.769   0.918
 3920SOL     OW12658   2.292   1.183   6.711
 3920SOL    HW112659   2.301   1.089   6.677
 3920SOL    HW212660   2.269   1.244   6.635
 3921SOL     OW12661   0.725   3.768   1.379
 3921SOL    HW112662   0.740   3.820   1.295
 3921SOL    HW212663   0.756   3.821   1.457
 3922SOL     OW12664   1.435   5.146   1.452
 3922SOL    HW112665   1.534   5.131   1.460
 3922SOL    HW212666   1.411   5.233   1.495
 3923SOL     OW12667   6.632   0.494   0.899
 3923SOL    HW112668   6.635   0.577   0.955
 3923SOL    HW212669   6.647   0.519   0.803
 3924SOL     OW12670   6.542   4.852   4.699
 3924SOL    HW112671   6.590   4.879   4.615
 3924SOL    HW212672   6.517   4.755   4.692
 3925SOL     OW12673   1.516   4.721   1.961
 3925SOL    HW112674   1.530   4.811   1.917
 3925SOL    HW212675   1.433   4.723   2.016
 3926SOL     OW12676   3.480   5.658   2.892
 3926SOL    HW112677   3.524   5.698   2.973
 3926SOL    HW212678   3.545   5.598   2.845
 3927SOL     OW12679   1.609   3.180   6.634
 3927SOL    HW112680   1.626   3.260   6.577
 3927SOL    HW212681   1.565   3.208   6.719
 3928SOL     OW12682   6.166   6.365   6.406
 3928SOL    HW112683   6.159   6.268   6.384
 3928SOL    HW212684   6.134   6.380   6.500
 3929SOL     OW12685   0.804   1.649   4.318
 3929SOL    HW112686   0.827   1.590   4.241
 3929SOL    HW212687   0.722   1.702   4.296
 3930SOL     OW12688   2.803   1.912   3.903
 3930SOL    HW112689   2.855   1.902   3.988
 3930SOL    HW212690   2.718   1.860   3.910
 3931SOL     OW12691   4.738   0.285   2.084
 3931SOL    HW112692   4.660   0.262   2.025
 3931SOL    HW212693   4.803   0.210   2.085
 3932SOL     OW12694   1.113   2.056   4.115
 3932SOL    HW112695   1.020   2.043   4.080
 3932SOL    HW212696   1.122   2.149   4.150
 3933SOL     OW12697   1.665   0.246   5.988
 3933SOL    HW112698   1.565   0.245   5.976
 3933SOL    HW212699   1.708   0.267   5.900
 3934SOL     OW12700   5.590   6.814   0.132
 3934SOL    HW112701   5.499   6.788   0.164
 3934SOL    HW212702   5.593   6.912   0.114
 3935SOL     OW12703   5.173   6.329   1.441
 3935SOL    HW112704   5.150   6.400   1.508
 3935SOL    HW212705   5.262   6.350   1.400
 3936SOL     OW12706   0.717   4.324   2.499
 3936SOL    HW112707   0.655   4.381   2.553
 3936SOL    HW212708   0.717   4.355   2.404
 3937SOL     OW12709   0.503   2.158   2.143
 3937SOL    HW112710   0.506   2.060   2.158
 3937SOL    HW212711   0.462   2.203   2.223
 3938SOL     OW12712   7.021   2.568   3.211
 3938SOL    HW112713   6.991   2.632   3.141
 3938SOL    HW212714   6.941   2.526   3.255
 3939SOL     OW12715   2.311   2.011   1.450
 3939SOL    HW112716   2.331   1.917   1.477
 3939SOL    HW212717   2.397   2.061   1.437
 3940SOL     OW12718   4.411   3.991   1.096
 3940SOL    HW112719   4.434   3.900   1.130
 3940SOL    HW212720   4.390   4.051   1.173
 3941SOL     OW12721   4.734   3.144   6.872
 3941SOL    HW112722   4.834   3.146   6.877
 3941SOL    HW212723   4.703   3.207   6.800
 3942SOL     OW12724   6.978   0.397   0.571
 3942SOL    HW112725   6.936   0.400   0.480
 3942SOL    HW212726   0.031   0.455   0.571
 3943SOL     OW12727   6.519   2.992   4.975
 3943SOL    HW112728   6.502   2.965   5.070
 3943SOL    HW212729   6.522   3.092   4.969
 3944SOL     OW12730   5.868   1.089   4.951
 3944SOL    HW112731   5.877   1.049   4.860
 3944SOL    HW212732   5.853   1.187   4.943
 3945SOL     OW12733   6.912   0.480   1.073
 3945SOL    HW112734   6.854   0.433   1.007
 3945SOL    HW212735   6.998   0.506   1.029
 3946SOL     OW12736   3.908   5.270   3.399
 3946SOL    HW112737   3.984   5.247   3.338
 3946SOL    HW212738   3.874   5.362   3.377
 3947SOL     OW12739   6.541   4.248   6.288
 3947SOL    HW112740   6.534   4.160   6.336
 3947SOL    HW212741   6.638   4.270   6.275
 3948SOL     OW12742   5.936   3.904   0.781
 3948SOL    HW112743   5.982   3.992   0.765
 3948SOL    HW212744   5.938   3.882   0.878
 3949SOL     OW12745   5.711   6.306   3.438
 3949SOL    HW112746   5.613   6.325   3.444
 3949SOL    HW212747   5.725   6.212   3.409
 3950SOL     OW12748   1.608   6.207   0.450
 3950SOL    HW112749   1.536   6.157   0.402
 3950SOL    HW212750   1.683   6.145   0.471
 3951SOL     OW12751   5.962   6.145   1.899
 3951SOL    HW112752   5.950   6.046   1.907
 3951SOL    HW212753   5.952   6.187   1.989
 3952SOL     OW12754   5.950   1.784   6.563
 3952SOL    HW112755   6.012   1.798   6.640
 3952SOL    HW212756   5.885   1.860   6.559
 3953SOL     OW12757   3.579   4.190   3.148
 3953SOL    HW112758   3.496   4.159   3.101
 3953SOL    HW212759   3.590   4.289   3.135
 3954SOL     OW12760   3.902   5.271   5.776
 3954SOL    HW112761   3.973   5.202   5.791
 3954SOL    HW212762   3.848   5.246   5.695
 3955SOL     OW12763   3.787   1.375   4.809
 3955SOL    HW112764   3.699   1.355   4.852
 3955SOL    HW212765   3.856   1.388   4.880
 3956SOL     OW12766   2.306   1.232   1.410
 3956SOL    HW112767   2.404   1.216   1.427
 3956SOL    HW212768   2.294   1.326   1.377
 3957SOL     OW12769   3.384   0.948   4.040
 3957SOL    HW112770   3.405   0.979   3.947
 3957SOL    HW212771   3.290   0.975   4.063
 3958SOL     OW12772   5.626   6.666   5.339
 3958SOL    HW112773   5.569   6.665   5.257
 3958SOL    HW212774   5.692   6.742   5.332
 3959SOL     OW12775   5.504   5.016   6.705
 3959SOL    HW112776   5.453   4.966   6.635
 3959SOL    HW212777   5.519   5.110   6.674
 3960SOL     OW12778   6.228   1.950   4.817
 3960SOL    HW112779   6.201   1.876   4.878
 3960SOL    HW212780   6.327   1.959   4.818
 3961SOL     OW12781   5.383   6.574   4.492
 3961SOL    HW112782   5.420   6.608   4.406
 3961SOL    HW212783   5.458   6.545   4.552
 3962SOL     OW12784   6.745   5.412   4.916
 3962SOL    HW112785   6.708   5.321   4.936
 3962SOL    HW212786   6.777   5.454   5.001
 3963SOL     OW12787   4.747   6.901   2.041
 3963SOL    HW112788   4.791   6.897   1.951
 3963SOL    HW212789   4.681   6.977   2.043
 3964SOL     OW12790   5.270   3.001   3.374
 3964SOL    HW112791   5.172   2.980   3.380
 3964SOL    HW212792   5.285   3.098   3.394
 3965SOL     OW12793   4.930   3.861   4.117
 3965SOL    HW112794   5.021   3.826   4.094
 3965SOL    HW212795   4.891   3.807   4.191
 3966SOL     OW12796   2.038   6.900   6.560
 3966SOL    HW112797   2.071   6.806   6.551
 3966SOL    HW212798   2.037   6.925   6.657
 3967SOL     OW12799   2.069   4.399   3.932
 3967SOL    HW112800   1.975   4.410   3.900
 3967SOL    HW212801   2.113   4.489   3.934
 3968SOL     OW12802   3.676   0.120   0.773
 3968SOL    HW112803   3.581   0.094   0.790
 3968SOL    HW212804   3.712   0.066   0.697
 3969SOL     OW12805   0.190   4.768   3.369
 3969SOL    HW112806   0.167   4.758   3.272
 3969SOL    HW212807   0.275   4.720   3.389
 3970SOL     OW12808   4.876   5.724   1.834
 3970SOL    HW112809   4.802   5.792   1.838
 3970SOL    HW212810   4.837   5.633   1.819
 3971SOL     OW12811   1.735   6.396   3.599
 3971SOL    HW112812   1.748   6.324   3.667
 3971SOL    HW212813   1.735   6.485   3.645
 3972SOL     OW12814   1.254   3.424   6.840
 3972SOL    HW112815   1.329   3.484   6.870
 3972SOL    HW212816   1.187   3.477   6.790
 3973SOL     OW12817   2.006   4.782   0.870
 3973SOL    HW112818   1.964   4.825   0.950
 3973SOL    HW212819   1.949   4.705   0.840
 3974SOL     OW12820   2.871   1.540   5.616
 3974SOL    HW112821   2.786   1.540   5.561
 3974SOL    HW212822   2.849   1.518   5.711
 3975SOL     OW12823   6.208   2.922   6.317
 3975SOL    HW112824   6.125   2.976   6.306
 3975SOL    HW212825   6.284   2.981   6.342
 3976SOL     OW12826   2.243   4.592   2.506
 3976SOL    HW112827   2.180   4.670   2.508
 3976SOL    HW212828   2.335   4.624   2.484
 3977SOL     OW12829   0.692   3.075   0.238
 3977SOL    HW112830   0.739   3.013   0.301
 3977SOL    HW212831   0.755   3.106   0.168
 3978SOL     OW12832   5.966   4.529   3.810
 3978SOL    HW112833   5.969   4.448   3.869
 3978SOL    HW212834   6.048   4.584   3.825
 3979SOL     OW12835   4.357   6.133   6.150
 3979SOL    HW112836   4.285   6.131   6.081
 3979SOL    HW212837   4.337   6.204   6.217
 3980SOL     OW12838   5.328   5.177   5.929
 3980SOL    HW112839   5.393   5.103   5.946
 3980SOL    HW212840   5.360   5.233   5.853
 3981SOL     OW12841   4.494   5.506   0.107
 3981SOL    HW112842   4.480   5.429   0.169
 3981SOL    HW212843   4.481   5.476   0.012
 3982SOL     OW12844   2.728   6.096   3.166
 3982SOL    HW112845   2.757   6.007   3.132
 3982SOL    HW212846   2.647   6.085   3.224
 3983SOL     OW12847   3.591   5.923   4.350
 3983SOL    HW112848   3.589   6.023   4.347
 3983SOL    HW212849   3.540   5.886   4.273
 3984SOL     OW12850   6.541   2.726   3.422
 3984SOL    HW112851   6.525   2.822   3.400
 3984SOL    HW212852   6.553   2.674   3.338
 3985SOL     OW12853   4.062   5.053   6.528
 3985SOL    HW112854   3.998   5.130   6.521
 3985SOL    HW212855   4.128   5.072   6.600
 3986SOL     OW12856   5.232   0.631   2.813
 3986SOL    HW112857   5.183   0.714   2.788
 3986SOL    HW212858   5.329   0.652   2.828
 3987SOL     OW12859   4.047   5.870   4.910
 3987SOL    HW112860   4.036   5.899   5.005
 3987SOL    HW212861   3.981   5.917   4.852
 3988SOL     OW12862   4.088   5.675   0.777
 3988SOL    HW112863   4.186   5.656   0.777
 3988SOL    HW212864   4.072   5.769   0.807
 3989SOL     OW12865   5.899   2.825   0.920
 3989SOL    HW112866   5.873   2.740   0.965
 3989SOL    HW212867   5.998   2.838   0.928
 3990SOL     OW12868   6.933   1.552   2.255
 3990SOL    HW112869   6.905   1.636   2.209
 3990SOL    HW212870   6.960   1.485   2.186
 3991SOL     OW12871   5.508   0.630   2.812
 3991SOL    HW112872   5.490   0.601   2.718
 3991SOL    HW212873   5.532   0.551   2.868
 3992SOL     OW12874   3.864   1.957   0.970
 3992SOL    HW112875   3.945   1.913   0.932
 3992SOL    HW212876   3.873   2.056   0.962
 3993SOL     OW12877   1.061   2.933   2.116
 3993SOL    HW112878   0.981   2.979   2.154
 3993SOL    HW212879   1.087   2.976   2.030
 3994SOL     OW12880   2.569   6.273   4.164
 3994SOL    HW112881   2.546   6.180   4.136
 3994SOL    HW212882   2.666   6.290   4.149
 3995SOL     OW12883   1.871   1.666   4.560
 3995SOL    HW112884   1.970   1.677   4.574
 3995SOL    HW212885   1.823   1.692   4.644
 3996SOL     OW12886   6.941   6.248   4.716
 3996SOL    HW112887   6.922   6.227   4.620
 3996SOL    HW212888   0.003   6.289   4.724
 3997SOL     OW12889   3.177   0.772   3.810
 3997SOL    HW112890   3.159   0.798   3.715
 3997SOL    HW212891   3.253   0.826   3.846
 3998SOL     OW12892   4.679   2.164   3.069
 3998SOL    HW112893   4.659   2.067   3.059
 3998SOL    HW212894   4.647   2.214   2.988
 3999SOL     OW12895   4.769   1.866   4.117
 3999SOL    HW112896   4.761   1.854   4.216
 3999SOL    HW212897   4.857   1.830   4.087
 4000SOL     OW12898   3.990   6.323   3.868
 4000SOL    HW112899   4.053   6.304   3.793
 4000SOL    HW212900   3.956   6.236   3.905
 4001SOL     OW12901   0.850   1.495   4.092
 4001SOL    HW112902   0.781   1.530   4.029
 4001SOL    HW212903   0.926   1.455   4.040
 4002SOL     OW12904   2.382   4.581   1.778
 4002SOL    HW112905   2.377   4.678   1.803
 4002SOL    HW212906   2.452   4.536   1.834
 4003SOL     OW12907   4.049   2.166   5.044
 4003SOL    HW112908   4.070   2.261   5.065
 4003SOL    HW212909   4.062   2.110   5.127
 4004SOL     OW12910   6.365   1.971   6.065
 4004SOL    HW112911   6.273   1.961   6.027
 4004SOL    HW212912   6.394   1.886   6.108
 4005SOL     OW12913   5.788   4.212   5.335
 4005SOL    HW112914   5.749   4.124   5.360
 4005SOL    HW212915   5.720   4.266   5.285
 4006SOL     OW12916   3.938   5.940   2.462
 4006SOL    HW112917   4.000   6.006   2.419
 4006SOL    HW212918   3.977   5.911   2.549
 4007SOL     OW12919   0.193   1.543   5.963
 4007SOL    HW112920   0.098   1.514   5.960
 4007SOL    HW212921   0.241   1.495   6.036
 4008SOL     OW12922   3.087   1.723   5.347
 4008SOL    HW112923   3.128   1.770   5.426
 4008SOL    HW212924   3.109   1.774   5.264
 4009SOL     OW12925   3.434   3.534   2.747
 4009SOL    HW112926   3.485   3.620   2.741
 4009SOL    HW212927   3.338   3.553   2.768
 4010SOL     OW12928   1.705   3.306   0.412
 4010SOL    HW112929   1.627   3.364   0.438
 4010SOL    HW212930   1.695   3.279   0.316
 4011SOL     OW12931   0.749   2.972   0.827
 4011SOL    HW112932   0.684   2.898   0.815
 4011SOL    HW212933   0.803   2.957   0.910
 4012SOL     OW12934   5.548   3.296   3.582
 4012SOL    HW112935   5.501   3.226   3.528
 4012SOL    HW212936   5.510   3.386   3.560
 4013SOL     OW12937   5.322   2.523   3.185
 4013SOL    HW112938   5.351   2.584   3.111
 4013SOL    HW212939   5.267   2.449   3.146
 4014SOL     OW12940   5.331   5.903   1.808
 4014SOL    HW112941   5.412   5.910   1.868
 4014SOL    HW212942   5.288   5.814   1.822
 4015SOL     OW12943   4.655   3.874   0.299
 4015SOL    HW112944   4.609   3.787   0.317
 4015SOL    HW212945   4.733   3.884   0.361
 4016SOL     OW12946   3.073   6.300   4.873
 4016SOL    HW112947   3.172   6.290   4.877
 4016SOL    HW212948   3.039   6.329   4.963
 4017SOL     OW12949   6.344   6.687   6.534
 4017SOL    HW112950   6.283   6.681   6.455
 4017SOL    HW212951   6.407   6.763   6.523
 4018SOL     OW12952   2.194   0.318   6.859
 4018SOL    HW112953   2.130   0.277   6.924
 4018SOL    HW212954   2.251   0.246   6.819
 4019SOL     OW12955   5.045   5.775   3.343
 4019SOL    HW112956   5.034   5.685   3.301
 4019SOL    HW212957   4.967   5.833   3.321
 4020SOL     OW12958   5.351   2.027   4.962
 4020SOL    HW112959   5.373   1.990   5.053
 4020SOL    HW212960   5.355   2.127   4.965
 4021SOL     OW12961   4.667   3.846   6.589
 4021SOL    HW112962   4.666   3.883   6.682
 4021SOL    HW212963   4.741   3.779   6.580
 4022SOL     OW12964   5.522   0.196   0.744
 4022SOL    HW112965   5.424   0.201   0.726
 4022SOL    HW212966   5.572   0.249   0.675
 4023SOL     OW12967   6.631   6.854   5.631
 4023SOL    HW112968   6.628   6.892   5.539
 4023SOL    HW212969   6.623   6.928   5.698
 4024SOL     OW12970   4.580   4.522   4.916
 4024SOL    HW112971   4.556   4.543   4.821
 4024SOL    HW212972   4.498   4.525   4.973
 4025SOL     OW12973   0.759   3.824   4.272
 4025SOL    HW112974   0.842   3.769   4.272
 4025SOL    HW212975   0.701   3.797   4.349
 4026SOL     OW12976   5.027   0.072   5.294
 4026SOL    HW112977   4.992   7.015   5.255
 4026SOL    HW212978   4.952   0.137   5.301
 4027SOL     OW12979   3.191   5.237   2.486
 4027SOL    HW112980   3.257   5.299   2.527
 4027SOL    HW212981   3.205   5.234   2.387
 4028SOL     OW12982   2.137   5.709   3.303
 4028SOL    HW112983   2.169   5.615   3.306
 4028SOL    HW212984   2.172   5.759   3.382
 4029SOL     OW12985   1.866   4.056   3.638
 4029SOL    HW112986   1.821   4.066   3.726
 4029SOL    HW212987   1.963   4.080   3.647
 4030SOL     OW12988   1.716   1.762   6.461
 4030SOL    HW112989   1.617   1.747   6.455
 4030SOL    HW212990   1.751   1.790   6.372
 4031SOL     OW12991   6.648   5.917   4.153
 4031SOL    HW112992   6.694   5.879   4.234
 4031SOL    HW212993   6.658   5.853   4.077
 4032SOL     OW12994   3.444   0.138   4.877
 4032SOL    HW112995   3.459   0.104   4.784
 4032SOL    HW212996   3.500   0.220   4.892
 4033SOL     OW12997   4.024   3.871   6.079
 4033SOL    HW112998   4.095   3.813   6.120
 4033SOL    HW212999   3.962   3.815   6.025
 4034SOL     OW13000   5.827   3.209   4.771
 4034SOL    HW113001   5.830   3.113   4.797
 4034SOL    HW213002   5.825   3.266   4.853
 4035SOL     OW13003   0.593   5.725   1.553
 4035SOL    HW113004   0.664   5.721   1.624
 4035SOL    HW213005   0.504   5.701   1.594
 4036SOL     OW13006   6.396   5.940   1.824
 4036SOL    HW113007   6.462   5.963   1.752
 4036SOL    HW213008   6.402   6.007   1.898
 4037SOL     OW13009   0.125   4.189   5.208
 4037SOL    HW113010   0.160   4.208   5.117
 4037SOL    HW213011   0.141   4.093   5.230
 4038SOL     OW13012   6.107   5.125   2.890
 4038SOL    HW113013   6.142   5.219   2.886
 4038SOL    HW213014   6.025   5.117   2.834
 4039SOL     OW13015   2.643   5.741   1.212
 4039SOL    HW113016   2.677   5.830   1.244
 4039SOL    HW213017   2.720   5.683   1.187
 4040SOL     OW13018   3.382   6.556   0.146
 4040SOL    HW113019   3.292   6.599   0.144
 4040SOL    HW213020   3.373   6.462   0.180
 4041SOL     OW13021   0.970   5.837   2.855
 4041SOL    HW113022   0.908   5.912   2.877
 4041SOL    HW213023   1.040   5.830   2.926
 4042SOL     OW13024   6.048   6.229   2.182
 4042SOL    HW113025   6.127   6.282   2.152
 4042SOL    HW213026   6.075   6.133   2.194
 4043SOL     OW13027   6.230   3.812   1.440
 4043SOL    HW113028   6.198   3.725   1.401
 4043SOL    HW213029   6.193   3.823   1.532
 4044SOL     OW13030   5.852   5.147   1.865
 4044SOL    HW113031   5.817   5.063   1.824
 4044SOL    HW213032   5.919   5.123   1.936
 4045SOL     OW13033   2.708   4.449   5.964
 4045SOL    HW113034   2.803   4.479   5.969
 4045SOL    HW213035   2.662   4.498   5.890
 4046SOL     OW13036   0.526   3.358   0.622
 4046SOL    HW113037   0.583   3.306   0.686
 4046SOL    HW213038   0.479   3.432   0.671
 4047SOL     OW13039   2.922   3.763   2.727
 4047SOL    HW113040   2.936   3.831   2.655
 4047SOL    HW213041   2.933   3.806   2.816
 4048SOL     OW13042   4.386   2.650   0.448
 4048SOL    HW113043   4.294   2.660   0.486
 4048SOL    HW213044   4.447   2.612   0.518
 4049SOL     OW13045   6.422   0.314   0.132
 4049SOL    HW113046   6.493   0.248   0.107
 4049SOL    HW213047   6.460   0.406   0.134
 4050SOL     OW13048   2.895   0.600   2.598
 4050SOL    HW113049   2.964   0.624   2.666
 4050SOL    HW213050   2.865   0.683   2.551
 4051SOL     OW13051   1.936   3.810   0.804
 4051SOL    HW113052   1.979   3.881   0.860
 4051SOL    HW213053   1.980   3.722   0.822
 4052SOL     OW13054   1.195   0.115   1.564
 4052SOL    HW113055   1.176   0.150   1.656
 4052SOL    HW213056   1.119   0.058   1.534
 4053SOL     OW13057   3.137   5.175   3.206
 4053SOL    HW113058   3.079   5.166   3.124
 4053SOL    HW213059   3.156   5.084   3.243
 4054SOL     OW13060   5.098   1.790   7.029
 4054SOL    HW113061   5.193   1.799   6.997
 4054SOL    HW213062   5.037   1.789   6.950
 4055SOL     OW13063   4.947   3.465   0.341
 4055SOL    HW113064   5.041   3.430   0.345
 4055SOL    HW213065   4.883   3.389   0.353
 4056SOL     OW13066   4.428   3.188   0.114
 4056SOL    HW113067   4.526   3.172   0.127
 4056SOL    HW213068   4.385   3.208   0.203
 4057SOL     OW13069   6.257   2.970   0.674
 4057SOL    HW113070   6.322   3.041   0.698
 4057SOL    HW213071   6.306   2.887   0.647
 4058SOL     OW13072   0.788   2.244   3.861
 4058SOL    HW113073   0.809   2.307   3.786
 4058SOL    HW213074   0.816   2.286   3.948
 4059SOL     OW13075   6.856   2.233   5.334
 4059SOL    HW113076   6.845   2.321   5.289
 4059SOL    HW213077   6.939   2.188   5.300
 4060SOL     OW13078   2.962   6.631   5.946
 4060SOL    HW113079   3.012   6.685   5.877
 4060SOL    HW213080   2.999   6.538   5.948
 4061SOL     OW13081   2.290   3.141   1.303
 4061SOL    HW113082   2.336   3.191   1.377
 4061SOL    HW213083   2.200   3.112   1.334
 4062SOL     OW13084   3.025   6.801   2.904
 4062SOL    HW113085   2.963   6.733   2.864
 4062SOL    HW213086   2.990   6.829   2.993
 4063SOL     OW13087   3.091   5.644   6.243
 4063SOL    HW113088   3.094   5.561   6.299
 4063SOL    HW213089   3.183   5.668   6.213
 4064SOL     OW13090   6.353   6.846   4.402
 4064SOL    HW113091   6.314   6.912   4.465
 4064SOL    HW213092   6.410   6.780   4.452
 4065SOL     OW13093   1.172   4.353   6.150
 4065SOL    HW113094   1.147   4.440   6.193
 4065SOL    HW213095   1.191   4.368   6.053
 4066SOL     OW13096   4.851   5.408   1.226
 4066SOL    HW113097   4.933   5.350   1.226
 4066SOL    HW213098   4.770   5.350   1.215
 4067SOL     OW13099   5.665   0.842   1.280
 4067SOL    HW113100   5.633   0.901   1.354
 4067SOL    HW213101   5.686   0.898   1.199
 4068SOL     OW13102   5.358   0.815   4.788
 4068SOL    HW113103   5.393   0.877   4.718
 4068SOL    HW213104   5.385   0.721   4.766
 4069SOL     OW13105   6.596   6.088   1.157
 4069SOL    HW113106   6.685   6.133   1.159
 4069SOL    HW213107   6.524   6.156   1.171
 4070SOL     OW13108   6.476   3.751   2.745
 4070SOL    HW113109   6.432   3.663   2.731
 4070SOL    HW213110   6.406   3.823   2.746
 4071SOL     OW13111   2.766   0.454   4.568
 4071SOL    HW113112   2.854   0.484   4.603
 4071SOL    HW213113   2.701   0.529   4.571
 4072SOL     OW13114   0.723   7.014   4.352
 4072SOL    HW113115   0.806   0.002   4.298
 4072SOL    HW213116   0.747   7.011   4.449
 4073SOL     OW13117   2.526   5.207   2.675
 4073SOL    HW113118   2.514   5.163   2.586
 4073SOL    HW213119   2.586   5.287   2.665
 4074SOL     OW13120   0.364   3.164   0.740
 4074SOL    HW113121   0.411   3.207   0.663
 4074SOL    HW213122   0.306   3.090   0.707
 4075SOL     OW13123   6.340   6.836   3.714
 4075SOL    HW113124   6.337   6.921   3.767
 4075SOL    HW213125   6.309   6.854   3.620
 4076SOL     OW13126   1.551   2.816   3.324
 4076SOL    HW113127   1.511   2.881   3.260
 4076SOL    HW213128   1.639   2.784   3.288
 4077SOL     OW13129   3.555   0.871   1.262
 4077SOL    HW113130   3.640   0.921   1.247
 4077SOL    HW213131   3.565   0.811   1.341
 4078SOL     OW13132   4.990   4.533   3.112
 4078SOL    HW113133   4.974   4.565   3.019
 4078SOL    HW213134   4.917   4.565   3.172
 4079SOL     OW13135   4.958   0.909   4.058
 4079SOL    HW113136   4.995   0.860   4.137
 4079SOL    HW213137   4.867   0.874   4.036
 4080SOL     OW13138   3.381   3.918   4.428
 4080SOL    HW113139   3.460   3.978   4.441
 4080SOL    HW213140   3.402   3.851   4.356
 4081SOL     OW13141   2.442   0.909   6.937
 4081SOL    HW113142   2.452   0.828   6.995
 4081SOL    HW213143   2.382   0.975   6.981
 4082SOL     OW13144   1.134   1.311   5.846
 4082SOL    HW113145   1.162   1.401   5.813
 4082SOL    HW213146   1.051   1.282   5.799
 4083SOL     OW13147   6.231   5.018   2.187
 4083SOL    HW113148   6.235   5.028   2.286
 4083SOL    HW213149   6.256   4.924   2.161
 4084SOL     OW13150   4.485   6.709   2.176
 4084SOL    HW113151   4.508   6.615   2.151
 4084SOL    HW213152   4.446   6.756   2.097
 4085SOL     OW13153   2.316   4.255   2.795
 4085SOL    HW113154   2.327   4.178   2.857
 4085SOL    HW213155   2.403   4.302   2.783
 4086SOL     OW13156   5.865   5.285   5.236
 4086SOL    HW113157   5.923   5.270   5.316
 4086SOL    HW213158   5.894   5.225   5.162
 4087SOL     OW13159   1.852   1.222   1.804
 4087SOL    HW113160   1.935   1.262   1.843
 4087SOL    HW213161   1.772   1.259   1.852
 4088SOL     OW13162   6.828   2.005   5.637
 4088SOL    HW113163   6.881   1.932   5.594
 4088SOL    HW213164   6.741   2.016   5.589
 4089SOL     OW13165   0.992   0.623   2.613
 4089SOL    HW113166   1.016   0.696   2.677
 4089SOL    HW213167   0.932   0.557   2.657
 4090SOL     OW13168   3.297   2.428   5.590
 4090SOL    HW113169   3.239   2.445   5.669
 4090SOL    HW213170   3.246   2.376   5.522
 4091SOL     OW13171   3.986   6.295   2.287
 4091SOL    HW113172   3.963   6.389   2.312
 4091SOL    HW213173   3.911   6.234   2.315
 4092SOL     OW13174   5.362   1.792   6.451
 4092SOL    HW113175   5.442   1.769   6.506
 4092SOL    HW213176   5.324   1.708   6.412
 4093SOL     OW13177   5.733   4.153   2.420
 4093SOL    HW113178   5.805   4.176   2.485
 4093SOL    HW213179   5.687   4.069   2.450
 4094SOL     OW13180   6.563   6.886   0.262
 4094SOL    HW113181   6.586   6.952   0.190
 4094SOL    HW213182   6.542   6.797   0.221
 4095SOL     OW13183   1.635   5.090   1.165
 4095SOL    HW113184   1.629   5.090   1.066
 4095SOL    HW213185   1.688   5.170   1.195
 4096SOL     OW13186   0.393   6.983   6.305
 4096SOL    HW113187   0.404   0.014   6.384
 4096SOL    HW213188   0.385   6.888   6.336
 4097SOL     OW13189   1.148   3.898   4.991
 4097SOL    HW113190   1.101   3.915   5.078
 4097SOL    HW213191   1.142   3.801   4.969
 4098SOL     OW13192   1.582   5.891   2.035
 4098SOL    HW113193   1.572   5.917   2.131
 4098SOL    HW213194   1.553   5.797   2.022
 4099SOL     OW13195   6.897   2.792   5.538
 4099SOL    HW113196   6.907   2.693   5.541
 4099SOL    HW213197   6.839   2.822   5.613
 4100SOL     OW13198   2.389   0.414   3.682
 4100SOL    HW113199   2.367   0.512   3.676
 4100SOL    HW213200   2.418   0.381   3.593
 4101SOL     OW13201   6.325   6.141   6.158
 4101SOL    HW113202   6.342   6.051   6.200
 4101SOL    HW213203   6.407   6.197   6.166
 4102SOL     OW13204   2.068   5.327   0.724
 4102SOL    HW113205   2.094   5.240   0.683
 4102SOL    HW213206   2.142   5.362   0.780
 4103SOL     OW13207   2.418   5.086   3.106
 4103SOL    HW113208   2.322   5.073   3.129
 4103SOL    HW213209   2.436   5.183   3.090
 4104SOL     OW13210   1.964   5.584   5.966
 4104SOL    HW113211   1.938   5.548   6.056
 4104SOL    HW213212   1.885   5.629   5.925
 4105SOL     OW13213   3.606   6.925   1.673
 4105SOL    HW113214   3.619   7.020   1.704
 4105SOL    HW213215   3.675   6.867   1.716
 4106SOL     OW13216   1.163   0.019   2.854
 4106SOL    HW113217   1.251   0.059   2.880
 4106SOL    HW213218   1.146   0.037   2.757
 4107SOL     OW13219   1.809   1.976   0.958
 4107SOL    HW113220   1.762   1.993   0.871
 4107SOL    HW213221   1.854   2.059   0.989
 4108SOL     OW13222   0.501   6.134   5.060
 4108SOL    HW113223   0.430   6.203   5.071
 4108SOL    HW213224   0.591   6.176   5.071
 4109SOL     OW13225   4.928   6.891   4.900
 4109SOL    HW113226   4.872   6.939   4.832
 4109SOL    HW213227   5.022   6.924   4.895
 4110SOL     OW13228   4.298   2.989   0.580
 4110SOL    HW113229   4.263   2.989   0.674
 4110SOL    HW213230   4.260   2.911   0.531
 4111SOL     OW13231   5.885   4.996   3.452
 4111SOL    HW113232   5.866   4.900   3.472
 4111SOL    HW213233   5.831   5.026   3.374
 4112SOL     OW13234   4.314   5.800   5.373
 4112SOL    HW113235   4.218   5.776   5.360
 4112SOL    HW213236   4.323   5.899   5.373
 4113SOL     OW13237   4.458   5.634   5.556
 4113SOL    HW113238   4.516   5.566   5.511
 4113SOL    HW213239   4.419   5.696   5.488
 4114SOL     OW13240   6.836   1.687   3.043
 4114SOL    HW113241   6.841   1.588   3.058
 4114SOL    HW213242   6.823   1.705   2.946
 4115SOL     OW13243   4.002   6.392   4.385
 4115SOL    HW113244   4.019   6.472   4.442
 4115SOL    HW213245   4.036   6.409   4.292
 4116SOL     OW13246   6.238   3.693   3.691
 4116SOL    HW113247   6.260   3.755   3.766
 4116SOL    HW213248   6.289   3.608   3.702
 4117SOL     OW13249   0.331   2.045   2.930
 4117SOL    HW113250   0.412   1.986   2.938
 4117SOL    HW213251   0.249   1.988   2.930
 4118SOL     OW13252   1.168   0.221   1.823
 4118SOL    HW113253   1.126   0.233   1.914
 4118SOL    HW213254   1.255   0.270   1.819
 4119SOL     OW13255   6.837   1.084   5.129
 4119SOL    HW113256   6.793   1.010   5.077
 4119SOL    HW213257   6.780   1.166   5.124
 4120SOL     OW13258   1.446   0.623   6.196
 4120SOL    HW113259   1.482   0.548   6.252
 4120SOL    HW213260   1.522   0.677   6.160
 4121SOL     OW13261   6.613   0.973   1.187
 4121SOL    HW113262   6.680   1.033   1.229
 4121SOL    HW213263   6.562   0.924   1.258
 4122SOL     OW13264   0.960   4.725   3.656
 4122SOL    HW113265   0.997   4.729   3.749
 4122SOL    HW213266   0.981   4.636   3.616
 4123SOL     OW13267   5.713   4.282   1.719
 4123SOL    HW113268   5.716   4.219   1.642
 4123SOL    HW213269   5.626   4.331   1.719
 4124SOL     OW13270   6.142   6.640   0.148
 4124SOL    HW113271   6.100   6.604   0.232
 4124SOL    HW213272   6.163   6.737   0.160
 4125SOL     OW13273   6.826   2.860   6.545
 4125SOL    HW113274   6.876   2.774   6.561
 4125SOL    HW213275   6.861   2.903   6.462
 4126SOL     OW13276   1.008   4.105   3.659
 4126SOL    HW113277   1.017   4.184   3.719
 4126SOL    HW213278   0.955   4.130   3.578
 4127SOL     OW13279   4.422   2.277   4.078
 4127SOL    HW113280   4.433   2.216   4.000
 4127SOL    HW213281   4.442   2.371   4.051
 4128SOL     OW13282   6.535   2.163   6.357
 4128SOL    HW113283   6.591   2.245   6.343
 4128SOL    HW213284   6.446   2.189   6.394
 4129SOL     OW13285   3.187   0.213   1.882
 4129SOL    HW113286   3.262   0.222   1.816
 4129SOL    HW213287   3.168   0.302   1.924
 4130SOL     OW13288   5.219   2.489   0.318
 4130SOL    HW113289   5.204   2.442   0.405
 4130SOL    HW213290   5.146   2.555   0.303
 4131SOL     OW13291   5.199   6.382   3.617
 4131SOL    HW113292   5.250   6.447   3.561
 4131SOL    HW213293   5.256   6.352   3.694
 4132SOL     OW13294   6.092   3.689   2.690
 4132SOL    HW113295   6.169   3.705   2.752
 4132SOL    HW213296   6.083   3.767   2.629
 4133SOL     OW13297   5.594   6.607   3.803
 4133SOL    HW113298   5.505   6.640   3.771
 4133SOL    HW213299   5.619   6.525   3.753
 4134SOL     OW13300   1.108   3.278   1.560
 4134SOL    HW113301   1.033   3.238   1.507
 4134SOL    HW213302   1.070   3.337   1.632
 4135SOL     OW13303   6.061   1.251   0.796
 4135SOL    HW113304   6.076   1.332   0.854
 4135SOL    HW213305   5.968   1.218   0.808
 4136SOL     OW13306   0.942   4.851   0.512
 4136SOL    HW113307   0.961   4.861   0.414
 4136SOL    HW213308   0.861   4.795   0.524
 4137SOL     OW13309   0.130   2.693   5.725
 4137SOL    HW113310   0.163   2.598   5.723
 4137SOL    HW213311   0.112   2.723   5.631
 4138SOL     OW13312   5.790   6.882   6.088
 4138SOL    HW113313   5.836   6.971   6.090
 4138SOL    HW213314   5.849   6.814   6.132
 4139SOL     OW13315   1.784   3.989   2.426
 4139SOL    HW113316   1.751   3.897   2.407
 4139SOL    HW213317   1.883   3.992   2.416
 4140SOL     OW13318   2.390   6.683   0.051
 4140SOL    HW113319   2.480   6.666   0.093
 4140SOL    HW213320   2.319   6.641   0.108
 4141SOL     OW13321   5.448   0.300   5.845
 4141SOL    HW113322   5.406   0.368   5.785
 4141SOL    HW213323   5.381   0.270   5.913
 4142SOL     OW13324   0.038   6.599   1.613
 4142SOL    HW113325   0.098   6.620   1.536
 4142SOL    HW213326   0.072   6.645   1.695
 4143SOL     OW13327   6.907   3.682   6.882
 4143SOL    HW113328   6.974   3.743   6.925
 4143SOL    HW213329   6.879   3.720   6.794
 4144SOL     OW13330   3.857   0.456   1.648
 4144SOL    HW113331   3.865   0.403   1.563
 4144SOL    HW213332   3.911   0.540   1.639
 4145SOL     OW13333   5.258   0.805   1.654
 4145SOL    HW113334   5.174   0.751   1.666
 4145SOL    HW213335   5.329   0.768   1.714
 4146SOL     OW13336   3.891   7.001   2.480
 4146SOL    HW113337   3.947   0.051   2.504
 4146SOL    HW213338   3.919   6.922   2.536
 4147SOL     OW13339   4.722   3.968   6.820
 4147SOL    HW113340   4.707   3.932   6.912
 4147SOL    HW213341   4.814   4.006   6.814
 4148SOL     OW13342   3.117   1.139   5.854
 4148SOL    HW113343   3.067   1.175   5.776
 4148SOL    HW213344   3.143   1.044   5.836
 4149SOL     OW13345   1.604   3.271   0.158
 4149SOL    HW113346   1.643   3.264   0.066
 4149SOL    HW213347   1.504   3.275   0.152
 4150SOL     OW13348   6.551   1.486   0.658
 4150SOL    HW113349   6.492   1.537   0.595
 4150SOL    HW213350   6.516   1.496   0.751
 4151SOL     OW13351   2.931   5.763   4.576
 4151SOL    HW113352   2.864   5.781   4.648
 4151SOL    HW213353   2.936   5.664   4.560
 4152SOL     OW13354   2.881   4.031   1.249
 4152SOL    HW113355   2.910   4.065   1.338
 4152SOL    HW213356   2.781   4.019   1.248
 4153SOL     OW13357   6.816   6.069   1.347
 4153SOL    HW113358   6.810   6.114   1.258
 4153SOL    HW213359   6.785   5.975   1.339
 4154SOL     OW13360   0.150   6.379   4.685
 4154SOL    HW113361   0.180   6.374   4.589
 4154SOL    HW213362   0.211   6.325   4.742
 4155SOL     OW13363   5.933   1.494   1.963
 4155SOL    HW113364   5.997   1.461   2.033
 4155SOL    HW213365   5.931   1.594   1.964
 4156SOL     OW13366   0.623   4.857   5.492
 4156SOL    HW113367   0.525   4.877   5.484
 4156SOL    HW213368   0.668   4.878   5.405
 4157SOL     OW13369   5.421   5.964   0.837
 4157SOL    HW113370   5.357   5.938   0.909
 4157SOL    HW213371   5.513   5.974   0.875
 4158SOL     OW13372   6.494   2.095   7.025
 4158SOL    HW113373   6.536   2.078   0.085
 4158SOL    HW213374   6.546   2.165   6.976
 4159SOL     OW13375   3.120   0.322   4.881
 4159SOL    HW113376   3.133   0.309   4.783
 4159SOL    HW213377   3.028   0.292   4.907
 4160SOL     OW13378   1.719   6.960   5.866
 4160SOL    HW113379   1.784   6.884   5.871
 4160SOL    HW213380   1.769   0.016   5.850
 4161SOL     OW13381   3.213   2.993   4.265
 4161SOL    HW113382   3.243   2.982   4.171
 4161SOL    HW213383   3.193   2.903   4.304
 4162SOL     OW13384   4.885   5.792   1.544
 4162SOL    HW113385   4.853   5.885   1.564
 4162SOL    HW213386   4.860   5.731   1.620
 4163SOL     OW13387   3.687   5.555   1.227
 4163SOL    HW113388   3.631   5.565   1.310
 4163SOL    HW213389   3.784   5.561   1.251
 4164SOL     OW13390   5.596   1.990   6.766
 4164SOL    HW113391   5.508   2.032   6.745
 4164SOL    HW213392   5.611   1.992   6.865
 4165SOL     OW13393   3.117   1.947   4.071
 4165SOL    HW113394   3.185   2.018   4.090
 4165SOL    HW213395   3.112   1.931   3.972
 4166SOL     OW13396   6.353   2.451   2.511
 4166SOL    HW113397   6.339   2.408   2.600
 4166SOL    HW213398   6.273   2.432   2.453
 4167SOL     OW13399   3.908   6.405   4.758
 4167SOL    HW113400   3.984   6.459   4.720
 4167SOL    HW213401   3.917   6.310   4.730
 4168SOL     OW13402   4.816   3.799   6.294
 4168SOL    HW113403   4.845   3.826   6.202
 4168SOL    HW213404   4.784   3.705   6.293
 4169SOL     OW13405   5.051   3.819   6.804
 4169SOL    HW113406   5.043   3.918   6.795
 4169SOL    HW213407   5.007   3.789   6.889
 4170SOL     OW13408   1.464   3.174   4.908
 4170SOL    HW113409   1.370   3.140   4.909
 4170SOL    HW213410   1.490   3.201   5.001
 4171SOL     OW13411   0.455   1.039   6.330
 4171SOL    HW113412   0.495   1.045   6.239
 4171SOL    HW213413   0.510   0.976   6.386
 4172SOL     OW13414   2.643   3.101   6.970
 4172SOL    HW113415   2.575   3.044   7.016
 4172SOL    HW213416   2.611   3.124   6.878
 4173SOL     OW13417   5.168   0.968   5.310
 4173SOL    HW113418   5.125   0.929   5.391
 4173SOL    HW213419   5.134   0.920   5.228
 4174SOL     OW13420   2.947   6.891   3.828
 4174SOL    HW113421   3.013   6.823   3.798
 4174SOL    HW213422   2.930   6.956   3.754
 4175SOL     OW13423   1.044   5.106   6.153
 4175SOL    HW113424   1.000   5.082   6.240
 4175SOL    HW213425   0.987   5.172   6.104
 4176SOL     OW13426   4.621   0.039   5.606
 4176SOL    HW113427   4.545   0.105   5.606
 4176SOL    HW213428   4.631   0.001   5.514
 4177SOL     OW13429   4.354   5.948   3.527
 4177SOL    HW113430   4.446   5.985   3.542
 4177SOL    HW213431   4.291   6.022   3.506
 4178SOL     OW13432   4.032   6.670   1.108
 4178SOL    HW113433   3.953   6.633   1.156
 4178SOL    HW213434   4.022   6.769   1.098
 4179SOL     OW13435   4.288   2.371   6.679
 4179SOL    HW113436   4.278   2.367   6.779
 4179SOL    HW213437   4.307   2.465   6.652
 4180SOL     OW13438   3.650   4.213   7.009
 4180SOL    HW113439   3.617   4.121   6.988
 4180SOL    HW213440   3.744   4.222   6.975
 4181SOL     OW13441   5.430   6.345   5.316
 4181SOL    HW113442   5.345   6.319   5.362
 4181SOL    HW213443   5.417   6.341   5.217
 4182SOL     OW13444   6.943   5.268   5.305
 4182SOL    HW113445   6.930   5.177   5.344
 4182SOL    HW213446   6.855   5.304   5.275
 4183SOL     OW13447   4.960   2.624   0.394
 4183SOL    HW113448   4.960   2.704   0.334
 4183SOL    HW213449   4.875   2.622   0.446
 4184SOL     OW13450   3.517   5.440   3.519
 4184SOL    HW113451   3.614   5.429   3.496
 4184SOL    HW213452   3.465   5.363   3.483
 4185SOL     OW13453   4.638   4.402   3.034
 4185SOL    HW113454   4.644   4.365   2.942
 4185SOL    HW213455   4.673   4.336   3.100
 4186SOL     OW13456   1.667   4.874   6.687
 4186SOL    HW113457   1.599   4.850   6.757
 4186SOL    HW213458   1.700   4.967   6.704
 4187SOL     OW13459   2.384   4.113   6.476
 4187SOL    HW113460   2.320   4.175   6.522
 4187SOL    HW213461   2.333   4.040   6.430
 4188SOL     OW13462   5.473   0.460   6.365
 4188SOL    HW113463   5.444   0.452   6.460
 4188SOL    HW213464   5.397   0.498   6.311
 4189SOL     OW13465   4.866   5.401   2.904
 4189SOL    HW113466   4.812   5.397   2.988
 4189SOL    HW213467   4.815   5.451   2.834
 4190SOL     OW13468   6.659   6.324   1.750
 4190SOL    HW113469   6.751   6.339   1.784
 4190SOL    HW213470   6.663   6.292   1.655
 4191SOL     OW13471   4.432   2.572   6.176
 4191SOL    HW113472   4.501   2.503   6.154
 4191SOL    HW213473   4.341   2.533   6.166
 4192SOL     OW13474   1.379   3.696   6.103
 4192SOL    HW113475   1.390   3.622   6.038
 4192SOL    HW213476   1.446   3.687   6.176
 4193SOL     OW13477   6.455   6.948   1.626
 4193SOL    HW113478   6.445   6.862   1.675
 4193SOL    HW213479   6.406   7.021   1.675
 4194SOL     OW13480   5.517   0.664   6.646
 4194SOL    HW113481   5.482   0.693   6.557
 4194SOL    HW213482   5.601   0.612   6.633
 4195SOL     OW13483   2.079   5.992   0.602
 4195SOL    HW113484   2.093   5.940   0.518
 4195SOL    HW213485   2.148   6.064   0.608
 4196SOL     OW13486   6.866   2.978   3.635
 4196SOL    HW113487   6.881   2.882   3.614
 4196SOL    HW213488   6.867   2.991   3.734
 4197SOL     OW13489   4.154   0.731   0.327
 4197SOL    HW113490   4.213   0.678   0.266
 4197SOL    HW213491   4.170   0.703   0.421
 4198SOL     OW13492   0.142   2.323   1.590
 4198SOL    HW113493   0.213   2.367   1.646
 4198SOL    HW213494   0.172   2.231   1.564
 4199SOL     OW13495   1.045   3.933   6.835
 4199SOL    HW113496   1.007   3.977   6.754
 4199SOL    HW213497   0.971   3.908   6.897
 4200SOL     OW13498   5.505   1.812   2.714
 4200SOL    HW113499   5.567   1.890   2.717
 4200SOL    HW213500   5.430   1.826   2.779
 4201SOL     OW13501   5.241   0.207   4.367
 4201SOL    HW113502   5.190   0.293   4.370
 4201SOL    HW213503   5.179   0.131   4.387
 4202SOL     OW13504   4.531   4.046   1.654
 4202SOL    HW113505   4.486   4.112   1.715
 4202SOL    HW213506   4.465   3.976   1.626
 4203SOL     OW13507   6.185   4.040   5.235
 4203SOL    HW113508   6.131   4.035   5.319
 4203SOL    HW213509   6.186   3.951   5.190
 4204SOL     OW13510   2.230   4.259   6.210
 4204SOL    HW113511   2.265   4.165   6.219
 4204SOL    HW213512   2.159   4.261   6.139
 4205SOL     OW13513   5.510   6.209   5.756
 4205SOL    HW113514   5.596   6.258   5.760
 4205SOL    HW213515   5.506   6.155   5.672
 4206SOL     OW13516   2.522   2.527   4.604
 4206SOL    HW113517   2.566   2.462   4.542
 4206SOL    HW213518   2.535   2.620   4.569
 4207SOL     OW13519   2.076   2.678   1.508
 4207SOL    HW113520   2.120   2.652   1.422
 4207SOL    HW213521   1.979   2.653   1.504
 4208SOL     OW13522   2.711   2.328   3.389
 4208SOL    HW113523   2.744   2.318   3.483
 4208SOL    HW213524   2.641   2.399   3.386
 4209SOL     OW13525   6.475   5.652   2.676
 4209SOL    HW113526   6.394   5.692   2.633
 4209SOL    HW213527   6.554   5.711   2.660
 4210SOL     OW13528   2.925   4.754   5.756
 4210SOL    HW113529   2.845   4.814   5.749
 4210SOL    HW213530   2.937   4.704   5.670
 4211SOL     OW13531   4.408   2.735   5.905
 4211SOL    HW113532   4.311   2.721   5.926
 4211SOL    HW213533   4.463   2.667   5.952
 4212SOL     OW13534   0.825   2.839   3.242
 4212SOL    HW113535   0.904   2.783   3.217
 4212SOL    HW213536   0.747   2.815   3.183
 4213SOL     OW13537   3.756   0.628   3.391
 4213SOL    HW113538   3.688   0.581   3.335
 4213SOL    HW213539   3.712   0.670   3.470
 4214SOL     OW13540   6.581   6.735   3.757
 4214SOL    HW113541   6.492   6.781   3.750
 4214SOL    HW213542   6.634   6.753   3.674
 4215SOL     OW13543   5.988   0.103   5.234
 4215SOL    HW113544   6.028   0.194   5.223
 4215SOL    HW213545   6.002   0.050   5.150
 4216SOL     OW13546   2.518   5.471   2.299
 4216SOL    HW113547   2.561   5.503   2.383
 4216SOL    HW213548   2.426   5.511   2.291
 4217SOL     OW13549   0.808   0.437   2.710
 4217SOL    HW113550   0.761   0.394   2.787
 4217SOL    HW213551   0.743   0.455   2.637
 4218SOL     OW13552   3.331   0.747   1.966
 4218SOL    HW113553   3.294   0.762   1.874
 4218SOL    HW213554   3.294   0.817   2.028
 4219SOL     OW13555   3.107   5.526   3.178
 4219SOL    HW113556   3.092   5.468   3.098
 4219SOL    HW213557   3.173   5.481   3.239
 4220SOL     OW13558   6.080   2.225   1.542
 4220SOL    HW113559   6.142   2.253   1.615
 4220SOL    HW213560   5.991   2.269   1.556
 4221SOL     OW13561   0.575   6.960   1.066
 4221SOL    HW113562   0.552   7.027   0.996
 4221SOL    HW213563   0.543   6.870   1.039
 4222SOL     OW13564   4.930   3.268   4.494
 4222SOL    HW113565   4.868   3.347   4.497
 4222SOL    HW213566   4.978   3.267   4.407
 4223SOL     OW13567   3.370   4.075   3.039
 4223SOL    HW113568   3.304   4.052   3.111
 4223SOL    HW213569   3.323   4.078   2.951
 4224SOL     OW13570   4.653   4.323   4.586
 4224SOL    HW113571   4.688   4.281   4.669
 4224SOL    HW213572   4.611   4.412   4.609
 4225SOL     OW13573   0.601   1.914   6.543
 4225SOL    HW113574   0.657   1.831   6.553
 4225SOL    HW213575   0.629   1.964   6.462
 4226SOL     OW13576   5.727   4.548   4.597
 4226SOL    HW113577   5.744   4.605   4.516
 4226SOL    HW213578   5.634   4.564   4.629
 4227SOL     OW13579   5.680   5.389   0.947
 4227SOL    HW113580   5.602   5.414   0.889
 4227SOL    HW213581   5.759   5.446   0.924
 4228SOL     OW13582   1.500   4.393   3.446
 4228SOL    HW113583   1.477   4.432   3.357
 4228SOL    HW213584   1.590   4.350   3.441
 4229SOL     OW13585   6.377   6.161   5.419
 4229SOL    HW113586   6.355   6.075   5.373
 4229SOL    HW213587   6.376   6.235   5.353
 4230SOL     OW13588   0.183   0.993   1.854
 4230SOL    HW113589   0.275   0.960   1.833
 4230SOL    HW213590   0.138   1.022   1.770
 4231SOL     OW13591   0.433   0.379   6.410
 4231SOL    HW113592   0.525   0.412   6.388
 4231SOL    HW213593   0.366   0.423   6.350
 4232SOL     OW13594   1.787   4.699   3.226
 4232SOL    HW113595   1.696   4.718   3.188
 4232SOL    HW213596   1.839   4.644   3.161
 4233SOL     OW13597   4.448   5.027   2.419
 4233SOL    HW113598   4.380   5.099   2.407
 4233SOL    HW213599   4.540   5.066   2.408
 4234SOL     OW13600   3.511   5.238   5.949
 4234SOL    HW113601   3.479   5.144   5.953
 4234SOL    HW213602   3.611   5.240   5.952
 4235SOL     OW13603   6.886   6.115   6.580
 4235SOL    HW113604   6.887   6.126   6.680
 4235SOL    HW213605   6.977   6.088   6.548
 4236SOL     OW13606   0.550   5.363   3.038
 4236SOL    HW113607   0.613   5.336   3.111
 4236SOL    HW213608   0.554   5.462   3.026
 4237SOL     OW13609   6.449   4.443   3.527
 4237SOL    HW113610   6.475   4.455   3.431
 4237SOL    HW213611   6.528   4.464   3.585
 4238SOL     OW13612   2.839   5.714   2.771
 4238SOL    HW113613   2.930   5.756   2.779
 4238SOL    HW213614   2.839   5.626   2.819
 4239SOL     OW13615   3.855   1.035   3.389
 4239SOL    HW113616   3.794   0.960   3.362
 4239SOL    HW213617   3.940   0.998   3.425
 4240SOL     OW13618   5.629   0.059   2.450
 4240SOL    HW113619   5.564   0.135   2.458
 4240SOL    HW213620   5.630   0.026   2.356
 4241SOL     OW13621   6.739   4.879   0.434
 4241SOL    HW113622   6.746   4.852   0.338
 4241SOL    HW213623   6.800   4.956   0.451
 4242SOL     OW13624   3.457   1.851   3.181
 4242SOL    HW113625   3.547   1.816   3.156
 4242SOL    HW213626   3.403   1.868   3.099
 4243SOL     OW13627   3.427   2.058   2.709
 4243SOL    HW113628   3.520   2.092   2.696
 4243SOL    HW213629   3.370   2.089   2.633
 4244SOL     OW13630   3.019   3.535   4.942
 4244SOL    HW113631   3.115   3.565   4.945
 4244SOL    HW213632   3.005   3.477   4.861
 4245SOL     OW13633   6.615   0.667   6.206
 4245SOL    HW113634   6.643   0.747   6.154
 4245SOL    HW213635   6.529   0.632   6.171
 4246SOL     OW13636   0.665   4.583   6.105
 4246SOL    HW113637   0.751   4.627   6.079
 4246SOL    HW213638   0.660   4.492   6.064
 4247SOL     OW13639   0.240   5.341   4.997
 4247SOL    HW113640   0.182   5.375   5.071
 4247SOL    HW213641   0.312   5.407   4.979
 4248SOL     OW13642   2.072   3.664   6.471
 4248SOL    HW113643   2.110   3.597   6.535
 4248SOL    HW213644   1.973   3.669   6.482
 4249SOL     OW13645   5.372   2.958   6.273
 4249SOL    HW113646   5.406   2.872   6.235
 4249SOL    HW213647   5.415   2.974   6.362
 4250SOL     OW13648   6.651   4.105   3.403
 4250SOL    HW113649   6.656   4.118   3.502
 4250SOL    HW213650   6.670   4.009   3.381
 4251SOL     OW13651   6.040   4.875   5.988
 4251SOL    HW113652   5.964   4.870   6.053
 4251SOL    HW213653   6.088   4.787   5.987
 4252SOL     OW13654   6.717   4.899   5.310
 4252SOL    HW113655   6.771   4.858   5.236
 4252SOL    HW213656   6.626   4.921   5.275
 4253SOL     OW13657   3.445   6.401   3.164
 4253SOL    HW113658   3.422   6.493   3.194
 4253SOL    HW213659   3.365   6.358   3.121
 4254SOL     OW13660   2.859   3.462   2.115
 4254SOL    HW113661   2.857   3.507   2.026
 4254SOL    HW213662   2.786   3.395   2.121
 4255SOL     OW13663   0.543   2.072   4.264
 4255SOL    HW113664   0.449   2.066   4.295
 4255SOL    HW213665   0.547   2.119   4.176
 4256SOL     OW13666   1.760   1.349   2.174
 4256SOL    HW113667   1.755   1.258   2.216
 4256SOL    HW213668   1.680   1.361   2.115
 4257SOL     OW13669   4.172   2.209   5.398
 4257SOL    HW113670   4.103   2.142   5.369
 4257SOL    HW213671   4.247   2.161   5.443
 4258SOL     OW13672   5.367   6.285   2.667
 4258SOL    HW113673   5.402   6.362   2.613
 4258SOL    HW213674   5.352   6.314   2.761
 4259SOL     OW13675   2.659   3.692   1.440
 4259SOL    HW113676   2.655   3.692   1.540
 4259SOL    HW213677   2.593   3.626   1.404
 4260SOL     OW13678   3.876   5.811   4.180
 4260SOL    HW113679   3.901   5.826   4.276
 4260SOL    HW213680   3.840   5.895   4.141
 4261SOL     OW13681   0.800   1.304   3.143
 4261SOL    HW113682   0.733   1.239   3.179
 4261SOL    HW213683   0.884   1.298   3.197
 4262SOL     OW13684   0.848   6.222   5.859
 4262SOL    HW113685   0.749   6.226   5.874
 4262SOL    HW213686   0.867   6.175   5.773
 4263SOL     OW13687   4.261   5.110   6.726
 4263SOL    HW113688   4.265   5.062   6.814
 4263SOL    HW213689   4.348   5.096   6.677
 4264SOL     OW13690   0.483   0.282   1.574
 4264SOL    HW113691   0.542   0.362   1.569
 4264SOL    HW213692   0.392   0.305   1.539
 4265SOL     OW13693   1.524   1.493   0.511
 4265SOL    HW113694   1.569   1.537   0.434
 4265SOL    HW213695   1.559   1.401   0.523
 4266SOL     OW13696   3.289   4.566   0.715
 4266SOL    HW113697   3.298   4.512   0.631
 4266SOL    HW213698   3.251   4.656   0.694
 4267SOL     OW13699   1.454   4.113   5.530
 4267SOL    HW113700   1.552   4.097   5.516
 4267SOL    HW213701   1.440   4.205   5.564
 4268SOL     OW13702   1.446   1.249   1.753
 4268SOL    HW113703   1.400   1.296   1.828
 4268SOL    HW213704   1.512   1.311   1.709
 4269SOL     OW13705   2.858   3.914   0.912
 4269SOL    HW113706   2.938   3.907   0.972
 4269SOL    HW213707   2.834   4.011   0.901
 4270SOL     OW13708   4.027   2.975   6.633
 4270SOL    HW113709   3.984   3.055   6.676
 4270SOL    HW213710   3.984   2.892   6.667
 4271SOL     OW13711   1.598   0.706   1.038
 4271SOL    HW113712   1.688   0.675   1.068
 4271SOL    HW213713   1.537   0.627   1.031
 4272SOL     OW13714   0.064   3.806   3.780
 4272SOL    HW113715   7.018   3.825   3.843
 4272SOL    HW213716   0.130   3.881   3.783
 4273SOL     OW13717   6.003   7.005   3.682
 4273SOL    HW113718   5.933   0.042   3.653
 4273SOL    HW213719   6.048   6.967   3.601
 4274SOL     OW13720   2.250   0.672   4.102
 4274SOL    HW113721   2.215   0.608   4.033
 4274SOL    HW213722   2.289   0.620   4.178
 4275SOL     OW13723   0.563   0.499   5.435
 4275SOL    HW113724   0.531   0.421   5.381
 4275SOL    HW213725   0.662   0.494   5.446
 4276SOL     OW13726   2.316   4.284   2.408
 4276SOL    HW113727   2.337   4.231   2.490
 4276SOL    HW213728   2.238   4.344   2.426
 4277SOL     OW13729   0.565   5.478   5.401
 4277SOL    HW113730   0.582   5.458   5.305
 4277SOL    HW213731   0.590   5.398   5.456
 4278SOL     OW13732   1.457   6.220   6.464
 4278SOL    HW113733   1.430   6.189   6.373
 4278SOL    HW213734   1.540   6.172   6.493
 4279SOL     OW13735   3.086   6.003   3.814
 4279SOL    HW113736   3.153   5.929   3.811
 4279SOL    HW213737   2.994   5.965   3.826
 4280SOL     OW13738   5.110   2.140   3.136
 4280SOL    HW113739   5.048   2.168   3.209
 4280SOL    HW213740   5.094   2.196   3.055
 4281SOL     OW13741   1.982   4.024   5.084
 4281SOL    HW113742   2.062   4.068   5.127
 4281SOL    HW213743   1.995   3.925   5.082
 4282SOL     OW13744   0.299   2.187   0.862
 4282SOL    HW113745   0.300   2.087   0.861
 4282SOL    HW213746   0.208   2.220   0.837
 4283SOL     OW13747   2.261   1.187   4.437
 4283SOL    HW113748   2.188   1.243   4.476
 4283SOL    HW213749   2.239   1.164   4.343
 4284SOL     OW13750   6.619   2.130   3.097
 4284SOL    HW113751   6.611   2.084   3.009
 4284SOL    HW213752   6.554   2.206   3.101
 4285SOL     OW13753   0.988   6.171   4.586
 4285SOL    HW113754   0.999   6.217   4.498
 4285SOL    HW213755   1.059   6.201   4.649
 4286SOL     OW13756   4.336   5.254   6.435
 4286SOL    HW113757   4.268   5.327   6.439
 4286SOL    HW213758   4.303   5.182   6.374
 4287SOL     OW13759   4.053   5.775   5.366
 4287SOL    HW113760   4.008   5.828   5.295
 4287SOL    HW213761   4.038   5.677   5.350
 4288SOL     OW13762   1.105   5.918   3.526
 4288SOL    HW113763   1.172   5.991   3.531
 4288SOL    HW213764   1.135   5.840   3.581
 4289SOL     OW13765   0.277   4.055   0.184
 4289SOL    HW113766   0.374   4.052   0.206
 4289SOL    HW213767   0.259   3.998   0.104
 4290SOL     OW13768   2.059   1.572   3.146
 4290SOL    HW113769   2.116   1.628   3.086
 4290SOL    HW213770   2.117   1.527   3.214
 4291SOL     OW13771   0.283   4.143   1.367
 4291SOL    HW113772   0.374   4.131   1.409
 4291SOL    HW213773   0.239   4.223   1.408
 4292SOL     OW13774   5.891   5.530   5.606
 4292SOL    HW113775   5.854   5.438   5.593
 4292SOL    HW213776   5.965   5.527   5.674
 4293SOL     OW13777   0.253   2.310   6.738
 4293SOL    HW113778   0.215   2.322   6.829
 4293SOL    HW213779   0.220   2.225   6.698
 4294SOL     OW13780   5.149   1.590   6.366
 4294SOL    HW113781   5.072   1.637   6.408
 4294SOL    HW213782   5.133   1.580   6.268
 4295SOL     OW13783   3.707   6.005   5.784
 4295SOL    HW113784   3.730   5.933   5.849
 4295SOL    HW213785   3.695   6.091   5.832
 4296SOL     OW13786   2.416   1.180   2.497
 4296SOL    HW113787   2.466   1.240   2.558
 4296SOL    HW213788   2.357   1.234   2.437
 4297SOL     OW13789   5.712   0.324   0.560
 4297SOL    HW113790   5.727   0.248   0.497
 4297SOL    HW213791   5.726   0.410   0.511
 4298SOL     OW13792   1.805   5.027   1.889
 4298SOL    HW113793   1.706   5.018   1.878
 4298SOL    HW213794   1.827   5.029   1.987
 4299SOL     OW13795   1.507   5.232   5.102
 4299SOL    HW113796   1.593   5.187   5.127
 4299SOL    HW213797   1.435   5.163   5.093
 4300SOL     OW13798   6.314   6.683   5.409
 4300SOL    HW113799   6.239   6.626   5.441
 4300SOL    HW213800   6.281   6.774   5.388
 4301SOL     OW13801   3.211   0.901   0.618
 4301SOL    HW113802   3.266   0.906   0.534
 4301SOL    HW213803   3.116   0.925   0.596
 4302SOL     OW13804   0.982   0.247   6.734
 4302SOL    HW113805   1.073   0.220   6.767
 4302SOL    HW213806   0.989   0.279   6.640
 4303SOL     OW13807   7.012   4.222   1.515
 4303SOL    HW113808   0.003   4.316   1.545
 4303SOL    HW213809   0.012   4.158   1.586
 4304SOL     OW13810   3.206   3.625   5.550
 4304SOL    HW113811   3.124   3.567   5.554
 4304SOL    HW213812   3.201   3.682   5.468
 4305SOL     OW13813   6.972   1.163   5.454
 4305SOL    HW113814   6.884   1.185   5.497
 4305SOL    HW213815   6.962   1.164   5.355
 4306SOL     OW13816   6.335   5.497   5.726
 4306SOL    HW113817   6.325   5.582   5.778
 4306SOL    HW213818   6.353   5.519   5.630
 4307SOL     OW13819   5.502   3.367   0.092
 4307SOL    HW113820   5.493   3.465   0.073
 4307SOL    HW213821   5.422   3.334   0.142
 4308SOL     OW13822   3.329   6.534   5.199
 4308SOL    HW113823   3.313   6.608   5.264
 4308SOL    HW213824   3.301   6.447   5.239
 4309SOL     OW13825   1.650   0.623   1.380
 4309SOL    HW113826   1.714   0.554   1.347
 4309SOL    HW213827   1.699   0.709   1.398
 4310SOL     OW13828   1.656   0.226   2.784
 4310SOL    HW113829   1.605   0.312   2.776
 4310SOL    HW213830   1.749   0.245   2.816
 4311SOL     OW13831   1.529   5.430   4.536
 4311SOL    HW113832   1.574   5.379   4.462
 4311SOL    HW213833   1.470   5.368   4.587
 4312SOL     OW13834   1.227   5.683   1.550
 4312SOL    HW113835   1.274   5.677   1.639
 4312SOL    HW213836   1.277   5.746   1.491
 4313SOL     OW13837   4.997   0.675   1.605
 4313SOL    HW113838   4.976   0.735   1.528
 4313SOL    HW213839   4.950   0.708   1.686
 4314SOL     OW13840   5.560   3.247   1.115
 4314SOL    HW113841   5.605   3.193   1.044
 4314SOL    HW213842   5.487   3.301   1.074
 4315SOL     OW13843   2.196   1.384   2.403
 4315SOL    HW113844   2.131   1.308   2.399
 4315SOL    HW213845   2.193   1.435   2.317
 4316SOL     OW13846   0.452   1.304   2.740
 4316SOL    HW113847   0.496   1.226   2.695
 4316SOL    HW213848   0.371   1.332   2.688
 4317SOL     OW13849   3.903   0.398   3.066
 4317SOL    HW113850   3.917   0.365   3.159
 4317SOL    HW213851   3.981   0.455   3.039
 4318SOL     OW13852   6.745   2.624   5.173
 4318SOL    HW113853   6.814   2.686   5.210
 4318SOL    HW213854   6.726   2.649   5.078
 4319SOL     OW13855   3.560   2.325   6.318
 4319SOL    HW113856   3.593   2.264   6.247
 4319SOL    HW213857   3.544   2.416   6.280
 4320SOL     OW13858   0.161   6.086   3.450
 4320SOL    HW113859   0.155   5.999   3.400
 4320SOL    HW213860   0.201   6.155   3.391
 4321SOL     OW13861   0.743   0.525   4.855
 4321SOL    HW113862   0.739   0.625   4.864
 4321SOL    HW213863   0.774   0.502   4.763
 4322SOL     OW13864   5.796   1.461   1.287
 4322SOL    HW113865   5.698   1.466   1.267
 4322SOL    HW213866   5.813   1.390   1.354
 4323SOL     OW13867   0.004   1.948   3.892
 4323SOL    HW113868   7.005   1.917   3.801
 4323SOL    HW213869   7.001   1.883   3.961
 4324SOL     OW13870   5.452   2.758   5.713
 4324SOL    HW113871   5.476   2.705   5.795
 4324SOL    HW213872   5.407   2.698   5.647
 4325SOL     OW13873   1.717   2.338   6.667
 4325SOL    HW113874   1.669   2.423   6.691
 4325SOL    HW213875   1.730   2.284   6.750
 4326SOL     OW13876   6.421   2.519   4.913
 4326SOL    HW113877   6.482   2.440   4.905
 4326SOL    HW213878   6.454   2.593   4.854
 4327SOL     OW13879   4.882   1.134   2.689
 4327SOL    HW113880   4.885   1.234   2.697
 4327SOL    HW213881   4.929   1.093   2.767
 4328SOL     OW13882   5.673   4.885   0.401
 4328SOL    HW113883   5.635   4.857   0.312
 4328SOL    HW213884   5.676   4.985   0.405
 4329SOL     OW13885   5.002   2.185   0.267
 4329SOL    HW113886   4.931   2.256   0.267
 4329SOL    HW213887   4.976   2.112   0.204
 4330SOL     OW13888   0.988   0.995   6.523
 4330SOL    HW113889   0.899   0.994   6.567
 4330SOL    HW213890   1.020   0.901   6.509
 4331SOL     OW13891   5.393   2.194   6.745
 4331SOL    HW113892   5.399   2.173   6.648
 4331SOL    HW213893   5.322   2.263   6.760
 4332SOL     OW13894   5.465   3.695   1.742
 4332SOL    HW113895   5.416   3.748   1.811
 4332SOL    HW213896   5.415   3.611   1.722
 4333SOL     OW13897   6.516   1.493   5.235
 4333SOL    HW113898   6.517   1.562   5.163
 4333SOL    HW213899   6.589   1.512   5.301
 4334SOL     OW13900   3.928   0.187   1.786
 4334SOL    HW113901   3.946   0.196   1.884
 4334SOL    HW213902   3.894   0.274   1.750
 4335SOL     OW13903   3.445   4.640   5.618
 4335SOL    HW113904   3.369   4.673   5.562
 4335SOL    HW213905   3.487   4.561   5.573
 4336SOL     OW13906   0.954   6.833   5.940
 4336SOL    HW113907   0.910   6.753   5.899
 4336SOL    HW213908   1.046   6.843   5.902
 4337SOL     OW13909   0.445   5.865   0.017
 4337SOL    HW113910   0.461   5.941   6.982
 4337SOL    HW213911   0.498   5.880   0.100
 4338SOL     OW13912   5.511   6.736   3.465
 4338SOL    HW113913   5.479   6.756   3.558
 4338SOL    HW213914   5.477   6.646   3.437
 4339SOL     OW13915   6.538   1.315   6.388
 4339SOL    HW113916   6.517   1.220   6.410
 4339SOL    HW213917   6.624   1.319   6.337
 4340SOL     OW13918   4.246   3.579   1.501
 4340SOL    HW113919   4.273   3.520   1.577
 4340SOL    HW213920   4.311   3.568   1.426
 4341SOL     OW13921   1.173   3.462   0.913
 4341SOL    HW113922   1.140   3.380   0.959
 4341SOL    HW213923   1.263   3.444   0.873
 4342SOL     OW13924   0.327   1.997   3.425
 4342SOL    HW113925   0.394   2.004   3.499
 4342SOL    HW213926   0.349   2.063   3.354
 4343SOL     OW13927   2.877   1.975   0.745
 4343SOL    HW113928   2.784   1.939   0.745
 4343SOL    HW213929   2.916   1.969   0.837
 4344SOL     OW13930   1.799   3.761   2.011
 4344SOL    HW113931   1.831   3.732   1.921
 4344SOL    HW213932   1.827   3.694   2.080
 4345SOL     OW13933   2.924   1.185   6.123
 4345SOL    HW113934   2.858   1.253   6.154
 4345SOL    HW213935   3.004   1.232   6.085
 4346SOL     OW13936   6.814   3.586   1.361
 4346SOL    HW113937   6.807   3.509   1.424
 4346SOL    HW213938   6.904   3.586   1.318
 4347SOL     OW13939   4.738   5.543   2.708
 4347SOL    HW113940   4.670   5.612   2.686
 4347SOL    HW213941   4.694   5.454   2.717
 4348SOL     OW13942   1.260   3.573   0.188
 4348SOL    HW113943   1.190   3.524   0.137
 4348SOL    HW213944   1.348   3.526   0.178
 4349SOL     OW13945   6.647   0.872   1.680
 4349SOL    HW113946   6.692   0.842   1.596
 4349SOL    HW213947   6.653   0.800   1.749
 4350SOL     OW13948   4.041   0.807   2.855
 4350SOL    HW113949   4.088   0.881   2.904
 4350SOL    HW213950   4.036   0.726   2.913
 4351SOL     OW13951   2.896   6.824   0.016
 4351SOL    HW113952   2.938   6.846   6.957
 4351SOL    HW213953   2.797   6.835   0.010
 4352SOL     OW13954   6.747   1.891   2.615
 4352SOL    HW113955   6.687   1.832   2.670
 4352SOL    HW213956   6.788   1.961   2.674
 4353SOL     OW13957   3.160   5.726   1.240
 4353SOL    HW113958   3.183   5.644   1.189
 4353SOL    HW213959   3.139   5.800   1.176
 4354SOL     OW13960   2.973   0.637   1.208
 4354SOL    HW113961   2.927   0.715   1.165
 4354SOL    HW213962   2.962   0.643   1.308
 4355SOL     OW13963   5.055   6.893   0.264
 4355SOL    HW113964   5.019   6.896   0.358
 4355SOL    HW213965   5.031   6.977   0.217
 4356SOL     OW13966   3.373   3.660   0.638
 4356SOL    HW113967   3.413   3.720   0.707
 4356SOL    HW213968   3.328   3.716   0.568
 4357SOL     OW13969   5.704   0.933   6.985
 4357SOL    HW113970   5.744   1.008   0.009
 4357SOL    HW213971   5.621   0.965   6.940
 4358SOL     OW13972   6.053   0.722   1.353
 4358SOL    HW113973   6.081   0.676   1.269
 4358SOL    HW213974   6.061   0.821   1.341
 4359SOL     OW13975   6.400   3.911   4.441
 4359SOL    HW113976   6.469   3.885   4.373
 4359SOL    HW213977   6.383   3.834   4.503
 4360SOL     OW13978   2.148   4.065   0.801
 4360SOL    HW113979   2.152   3.993   0.731
 4360SOL    HW213980   2.239   4.081   0.839
 4361SOL     OW13981   6.070   2.429   2.340
 4361SOL    HW113982   6.105   2.504   2.283
 4361SOL    HW213983   5.973   2.445   2.359
 4362SOL     OW13984   5.293   3.983   2.864
 4362SOL    HW113985   5.232   3.915   2.822
 4362SOL    HW213986   5.350   3.939   2.933
 4363SOL     OW13987   5.029   0.505   6.646
 4363SOL    HW113988   4.983   0.450   6.576
 4363SOL    HW213989   5.062   0.590   6.606
 4364SOL     OW13990   3.715   3.820   4.815
 4364SOL    HW113991   3.732   3.829   4.716
 4364SOL    HW213992   3.758   3.897   4.863
 4365SOL     OW13993   4.367   2.246   0.438
 4365SOL    HW113994   4.303   2.168   0.436
 4365SOL    HW213995   4.459   2.213   0.457
 4366SOL     OW13996   5.065   4.959   0.155
 4366SOL    HW113997   5.048   5.050   0.192
 4366SOL    HW213998   5.153   4.926   0.189
 4367SOL     OW13999   6.730   0.118   1.239
 4367SOL    HW114000   6.691   0.187   1.178
 4367SOL    HW214001   6.781   0.164   1.312
 4368SOL     OW14002   4.430   4.755   2.144
 4368SOL    HW114003   4.509   4.813   2.161
 4368SOL    HW214004   4.359   4.773   2.213
 4369SOL     OW14005   3.218   5.208   1.602
 4369SOL    HW114006   3.200   5.302   1.630
 4369SOL    HW214007   3.131   5.159   1.592
 4370SOL     OW14008   5.215   4.652   2.161
 4370SOL    HW114009   5.266   4.572   2.129
 4370SOL    HW214010   5.147   4.678   2.092
 4371SOL     OW14011   1.179   1.757   2.737
 4371SOL    HW114012   1.273   1.773   2.710
 4371SOL    HW214013   1.173   1.752   2.837
 4372SOL     OW14014   4.897   0.205   3.711
 4372SOL    HW114015   4.845   0.145   3.650
 4372SOL    HW214016   4.993   0.206   3.682
 4373SOL     OW14017   6.930   1.520   6.151
 4373SOL    HW114018   7.014   1.474   6.181
 4373SOL    HW214019   6.912   1.597   6.212
 4374SOL     OW14020   3.550   1.389   0.480
 4374SOL    HW114021   3.629   1.364   0.424
 4374SOL    HW214022   3.474   1.328   0.459
 4375SOL     OW14023   3.653   5.659   4.088
 4375SOL    HW114024   3.668   5.563   4.066
 4375SOL    HW214025   3.741   5.703   4.107
 4376SOL     OW14026   0.245   2.149   4.332
 4376SOL    HW114027   0.187   2.223   4.366
 4376SOL    HW214028   0.194   2.096   4.264
 4377SOL     OW14029   6.598   4.663   6.326
 4377SOL    HW114030   6.674   4.671   6.390
 4377SOL    HW214031   6.513   4.648   6.376
 4378SOL     OW14032   3.167   1.738   4.236
 4378SOL    HW114033   3.087   1.699   4.281
 4378SOL    HW214034   3.138   1.807   4.170
 4379SOL     OW14035   3.841   2.294   6.369
 4379SOL    HW114036   3.779   2.346   6.427
 4379SOL    HW214037   3.788   2.244   6.300
 4380SOL     OW14038   0.194   2.334   3.198
 4380SOL    HW114039   0.113   2.278   3.180
 4380SOL    HW214040   0.167   2.417   3.247
 4381SOL     OW14041   1.037   5.669   6.924
 4381SOL    HW114042   1.010   5.756   6.965
 4381SOL    HW214043   1.108   5.684   6.855
 4382SOL     OW14044   1.144   5.602   4.542
 4382SOL    HW114045   1.220   5.599   4.477
 4382SOL    HW214046   1.096   5.689   4.533
 4383SOL     OW14047   6.994   4.264   0.590
 4383SOL    HW114048   6.898   4.253   0.615
 4383SOL    HW214049   7.007   4.240   0.494
 4384SOL     OW14050   4.687   6.828   3.679
 4384SOL    HW114051   4.672   6.730   3.672
 4384SOL    HW214052   4.647   6.863   3.764
 4385SOL     OW14053   4.611   1.206   5.735
 4385SOL    HW114054   4.677   1.270   5.696
 4385SOL    HW214055   4.649   1.113   5.733
 4386SOL     OW14056   2.099   3.682   4.438
 4386SOL    HW114057   2.087   3.713   4.533
 4386SOL    HW214058   2.131   3.587   4.438
 4387SOL     OW14059   5.636   1.834   1.106
 4387SOL    HW114060   5.632   1.845   1.007
 4387SOL    HW214061   5.543   1.837   1.144
 4388SOL     OW14062   5.189   3.517   6.900
 4388SOL    HW114063   5.203   3.573   6.818
 4388SOL    HW214064   5.198   3.574   6.982
 4389SOL     OW14065   2.402   1.304   7.001
 4389SOL    HW114066   2.343   1.384   6.987
 4389SOL    HW214067   2.346   1.223   7.016
 4390SOL     OW14068   0.007   2.043   0.895
 4390SOL    HW114069   6.956   1.997   0.856
 4390SOL    HW214070   0.083   1.979   0.902
 4391SOL     OW14071   0.707   6.048   0.992
 4391SOL    HW114072   0.671   6.117   1.055
 4391SOL    HW214073   0.689   6.077   0.898
 4392SOL     OW14074   1.197   2.708   6.366
 4392SOL    HW114075   1.283   2.752   6.337
 4392SOL    HW214076   1.155   2.664   6.287
 4393SOL     OW14077   6.116   0.211   2.637
 4393SOL    HW114078   6.055   0.208   2.558
 4393SOL    HW214079   6.129   0.306   2.666
 4394SOL     OW14080   0.348   0.105   2.217
 4394SOL    HW114081   0.275   0.173   2.209
 4394SOL    HW214082   0.338   0.055   2.303
 4395SOL     OW14083   1.716   3.745   2.355
 4395SOL    HW114084   1.617   3.743   2.370
 4395SOL    HW214085   1.744   3.663   2.306
 4396SOL     OW14086   2.936   1.379   2.858
 4396SOL    HW114087   2.969   1.474   2.859
 4396SOL    HW214088   3.014   1.317   2.849
 4397SOL     OW14089   3.592   1.382   5.043
 4397SOL    HW114090   3.533   1.437   5.103
 4397SOL    HW214091   3.539   1.306   5.005
 4398SOL     OW14092   2.591   3.461   5.669
 4398SOL    HW114093   2.553   3.412   5.591
 4398SOL    HW214094   2.688   3.481   5.653
 4399SOL     OW14095   2.849   6.565   1.536
 4399SOL    HW114096   2.844   6.501   1.612
 4399SOL    HW214097   2.929   6.624   1.547
 4400SOL     OW14098   1.726   6.138   4.861
 4400SOL    HW114099   1.779   6.222   4.847
 4400SOL    HW214100   1.688   6.138   4.954
 4401SOL     OW14101   2.533   6.635   6.574
 4401SOL    HW114102   2.616   6.620   6.520
 4401SOL    HW214103   2.492   6.723   6.550
 4402SOL     OW14104   1.621   0.732   2.703
 4402SOL    HW114105   1.636   0.689   2.613
 4402SOL    HW214106   1.634   0.663   2.774
 4403SOL     OW14107   0.036   5.622   2.756
 4403SOL    HW114108   6.995   5.584   2.696
 4403SOL    HW214109   0.031   5.722   2.754
 4404SOL     OW14110   0.682   6.899   6.135
 4404SOL    HW114111   0.763   6.865   6.089
 4404SOL    HW214112   0.644   6.828   6.195
 4405SOL     OW14113   1.349   4.999   2.602
 4405SOL    HW114114   1.266   4.944   2.590
 4405SOL    HW214115   1.344   5.079   2.542
 4406SOL     OW14116   6.516   4.754   2.358
 4406SOL    HW114117   6.508   4.824   2.429
 4406SOL    HW214118   6.446   4.769   2.288
 4407SOL     OW14119   6.481   6.715   0.959
 4407SOL    HW114120   6.531   6.709   1.046
 4407SOL    HW214121   6.389   6.749   0.976
 4408SOL     OW14122   4.646   0.741   1.036
 4408SOL    HW114123   4.698   0.685   1.100
 4408SOL    HW214124   4.627   0.831   1.077
 4409SOL     OW14125   2.783   0.776   4.460
 4409SOL    HW114126   2.711   0.734   4.515
 4409SOL    HW214127   2.776   0.743   4.366
 4410SOL     OW14128   0.723   0.392   0.907
 4410SOL    HW114129   0.641   0.424   0.954
 4410SOL    HW214130   0.739   0.449   0.826
 4411SOL     OW14131   4.493   4.671   5.332
 4411SOL    HW114132   4.584   4.670   5.290
 4411SOL    HW214133   4.502   4.682   5.431
 4412SOL     OW14134   4.246   6.029   1.943
 4412SOL    HW114135   4.210   6.101   2.003
 4412SOL    HW214136   4.332   6.059   1.903
 4413SOL     OW14137   4.748   5.941   3.920
 4413SOL    HW114138   4.660   5.899   3.941
 4413SOL    HW214139   4.754   6.031   3.964
 4414SOL     OW14140   5.634   3.675   1.344
 4414SOL    HW114141   5.642   3.674   1.444
 4414SOL    HW214142   5.553   3.728   1.318
 4415SOL     OW14143   1.671   3.919   0.942
 4415SOL    HW114144   1.643   3.825   0.961
 4415SOL    HW214145   1.756   3.919   0.890
 4416SOL     OW14146   5.036   2.936   4.773
 4416SOL    HW114147   5.024   2.837   4.771
 4416SOL    HW214148   5.076   2.967   4.687
 4417SOL     OW14149   0.159   4.264   2.058
 4417SOL    HW114150   0.086   4.200   2.033
 4417SOL    HW214151   0.222   4.274   1.982
 4418SOL     OW14152   5.933   1.517   5.398
 4418SOL    HW114153   5.906   1.503   5.493
 4418SOL    HW214154   5.979   1.606   5.390
 4419SOL     OW14155   6.589   6.243   6.592
 4419SOL    HW114156   6.635   6.326   6.560
 4419SOL    HW214157   6.612   6.227   6.688
 4420SOL     OW14158   4.088   1.461   0.717
 4420SOL    HW114159   4.000   1.413   0.716
 4420SOL    HW214160   4.103   1.503   0.806
 4421SOL     OW14161   2.283   2.693   0.347
 4421SOL    HW114162   2.346   2.672   0.422
 4421SOL    HW214163   2.336   2.723   0.267
 4422SOL     OW14164   0.357   2.989   6.194
 4422SOL    HW114165   0.372   3.042   6.277
 4422SOL    HW214166   0.380   3.044   6.114
 4423SOL     OW14167   5.728   4.281   4.663
 4423SOL    HW114168   5.776   4.200   4.629
 4423SOL    HW214169   5.742   4.357   4.600
 4424SOL     OW14170   4.372   5.898   2.600
 4424SOL    HW114171   4.374   5.839   2.681
 4424SOL    HW214172   4.466   5.914   2.569
 4425SOL     OW14173   0.678   6.359   1.332
 4425SOL    HW114174   0.756   6.301   1.353
 4425SOL    HW214175   0.692   6.451   1.370
 4426SOL     OW14176   0.392   0.315   4.651
 4426SOL    HW114177   0.474   0.289   4.599
 4426SOL    HW214178   0.329   0.237   4.656
 4427SOL     OW14179   2.964   5.653   2.352
 4427SOL    HW114180   2.993   5.566   2.393
 4427SOL    HW214181   2.913   5.707   2.419
 4428SOL     OW14182   6.275   5.654   3.732
 4428SOL    HW114183   6.288   5.618   3.639
 4428SOL    HW214184   6.182   5.690   3.741
 4429SOL     OW14185   2.532   6.408   3.224
 4429SOL    HW114186   2.508   6.503   3.201
 4429SOL    HW214187   2.629   6.393   3.206
 4430SOL     OW14188   6.265   3.543   4.677
 4430SOL    HW114189   6.329   3.467   4.664
 4430SOL    HW214190   6.214   3.529   4.762
 4431SOL     OW14191   4.478   6.818   4.969
 4431SOL    HW114192   4.384   6.789   4.983
 4431SOL    HW214193   4.540   6.744   4.995
 4432SOL     OW14194   1.219   3.204   6.465
 4432SOL    HW114195   1.140   3.233   6.519
 4432SOL    HW214196   1.252   3.282   6.411
 4433SOL     OW14197   0.740   0.637   4.565
 4433SOL    HW114198   0.832   0.603   4.543
 4433SOL    HW214199   0.746   0.702   4.641
 4434SOL     OW14200   6.858   1.211   2.248
 4434SOL    HW114201   6.871   1.269   2.168
 4434SOL    HW214202   6.945   1.201   2.297
 4435SOL     OW14203   2.685   4.514   0.864
 4435SOL    HW114204   2.722   4.603   0.840
 4435SOL    HW214205   2.618   4.486   0.796
 4436SOL     OW14206   4.803   2.146   1.738
 4436SOL    HW114207   4.715   2.184   1.713
 4436SOL    HW214208   4.801   2.115   1.833
 4437SOL     OW14209   6.529   4.645   0.136
 4437SOL    HW114210   6.576   4.733   0.145
 4437SOL    HW214211   6.589   4.580   0.089
 4438SOL     OW14212   4.207   1.406   4.757
 4438SOL    HW114213   4.194   1.505   4.754
 4438SOL    HW214214   4.137   1.361   4.702
 4439SOL     OW14215   2.637   5.224   2.395
 4439SOL    HW114216   2.659   5.205   2.299
 4439SOL    HW214217   2.575   5.303   2.400
 4440SOL     OW14218   1.831   5.140   5.481
 4440SOL    HW114219   1.759   5.070   5.474
 4440SOL    HW214220   1.815   5.197   5.561
 4441SOL     OW14221   6.940   1.816   1.299
 4441SOL    HW114222   6.975   1.836   1.207
 4441SOL    HW214223   6.953   1.896   1.357
 4442SOL     OW14224   2.109   4.872   1.334
 4442SOL    HW114225   2.190   4.850   1.281
 4442SOL    HW214226   2.095   4.801   1.404
 4443SOL     OW14227   0.759   5.812   5.714
 4443SOL    HW114228   0.706   5.767   5.642
 4443SOL    HW214229   0.699   5.875   5.764
 4444SOL     OW14230   5.678   5.503   0.081
 4444SOL    HW114231   5.679   5.533   0.176
 4444SOL    HW214232   5.586   5.474   0.055
 4445SOL     OW14233   2.085   4.024   0.409
 4445SOL    HW114234   2.095   3.977   0.497
 4445SOL    HW214235   2.146   3.982   0.342
 4446SOL     OW14236   4.740   2.171   2.426
 4446SOL    HW114237   4.804   2.132   2.491
 4446SOL    HW214238   4.721   2.266   2.451
 4447SOL     OW14239   4.774   5.647   5.229
 4447SOL    HW114240   4.696   5.615   5.174
 4447SOL    HW214241   4.744   5.661   5.323
 4448SOL     OW14242   3.338   6.446   2.478
 4448SOL    HW114243   3.395   6.520   2.443
 4448SOL    HW214244   3.299   6.394   2.402
 4449SOL     OW14245   3.862   1.724   5.543
 4449SOL    HW114246   3.949   1.678   5.527
 4449SOL    HW214247   3.880   1.817   5.575
 4450SOL     OW14248   2.113   5.852   0.346
 4450SOL    HW114249   2.122   5.785   0.273
 4450SOL    HW214250   2.092   5.941   0.308
 4451SOL     OW14251   4.857   5.864   3.578
 4451SOL    HW114252   4.898   5.832   3.493
 4451SOL    HW214253   4.780   5.926   3.557
 4452SOL     OW14254   5.271   4.620   3.672
 4452SOL    HW114255   5.205   4.557   3.712
 4452SOL    HW214256   5.337   4.648   3.742
 4453SOL     OW14257   0.599   4.983   1.140
 4453SOL    HW114258   0.623   4.888   1.162
 4453SOL    HW214259   0.583   4.991   1.042
 4454SOL     OW14260   0.355   2.122   0.248
 4454SOL    HW114261   0.381   2.036   0.293
 4454SOL    HW214262   0.428   2.151   0.186
 4455SOL     OW14263   1.173   0.449   3.868
 4455SOL    HW114264   1.078   0.479   3.854
 4455SOL    HW214265   1.173   0.360   3.915
 4456SOL     OW14266   1.688   5.853   4.168
 4456SOL    HW114267   1.721   5.947   4.177
 4456SOL    HW214268   1.609   5.840   4.227
 4457SOL     OW14269   1.378   1.587   4.570
 4457SOL    HW114270   1.283   1.610   4.590
 4457SOL    HW214271   1.437   1.624   4.642
 4458SOL     OW14272   1.688   2.569   6.434
 4458SOL    HW114273   1.766   2.509   6.415
 4458SOL    HW214274   1.716   2.642   6.496
 4459SOL     OW14275   0.343   4.125   3.050
 4459SOL    HW114276   0.324   4.090   3.142
 4459SOL    HW214277   0.257   4.135   3.000
 4460SOL     OW14278   6.864   3.145   4.920
 4460SOL    HW114279   6.941   3.208   4.912
 4460SOL    HW214280   6.780   3.191   4.894
 4461SOL     OW14281   1.940   0.519   0.559
 4461SOL    HW114282   1.922   0.604   0.609
 4461SOL    HW214283   1.929   0.537   0.461
 4462SOL     OW14284   6.382   4.102   2.399
 4462SOL    HW114285   6.352   4.072   2.308
 4462SOL    HW214286   6.337   4.189   2.421
 4463SOL     OW14287   5.664   2.051   0.009
 4463SOL    HW114288   5.655   2.151   0.017
 4463SOL    HW214289   5.735   2.019   0.071
 4464SOL     OW14290   0.592   3.567   1.229
 4464SOL    HW114291   0.655   3.622   1.285
 4464SOL    HW214292   0.499   3.579   1.263
 4465SOL     OW14293   4.470   5.068   1.810
 4465SOL    HW114294   4.525   4.988   1.834
 4465SOL    HW214295   4.432   5.109   1.893
 4466SOL     OW14296   0.240   3.002   2.624
 4466SOL    HW114297   0.307   2.994   2.697
 4466SOL    HW214298   0.156   3.043   2.659
 4467SOL     OW14299   5.301   4.535   1.529
 4467SOL    HW114300   5.374   4.466   1.526
 4467SOL    HW214301   5.341   4.625   1.513
 4468SOL     OW14302   1.730   3.416   0.686
 4468SOL    HW114303   1.740   3.364   0.602
 4468SOL    HW214304   1.698   3.355   0.759
 4469SOL     OW14305   1.843   6.189   1.504
 4469SOL    HW114306   1.826   6.092   1.521
 4469SOL    HW214307   1.938   6.211   1.529
 4470SOL     OW14308   0.958   6.815   2.526
 4470SOL    HW114309   1.042   6.837   2.476
 4470SOL    HW214310   0.886   6.791   2.461
 4471SOL     OW14311   1.080   0.905   6.849
 4471SOL    HW114312   1.075   0.838   6.775
 4471SOL    HW214313   0.994   0.904   6.900
 4472SOL     OW14314   1.649   2.425   0.973
 4472SOL    HW114315   1.615   2.499   1.031
 4472SOL    HW214316   1.586   2.348   0.975
 4473SOL     OW14317   0.498   2.693   5.133
 4473SOL    HW114318   0.568   2.721   5.198
 4473SOL    HW214319   0.479   2.769   5.070
 4474SOL     OW14320   2.304   6.221   0.729
 4474SOL    HW114321   2.393   6.179   0.712
 4474SOL    HW214322   2.256   6.169   0.800
 4475SOL     OW14323   0.851   3.635   0.048
 4475SOL    HW114324   0.919   3.563   0.054
 4475SOL    HW214325   0.809   3.650   0.138
 4476SOL     OW14326   5.220   0.357   3.587
 4476SOL    HW114327   5.141   0.397   3.633
 4476SOL    HW214328   5.300   0.415   3.603
 4477SOL     OW14329   6.972   1.247   4.229
 4477SOL    HW114330   6.944   1.190   4.306
 4477SOL    HW214331   7.020   1.192   4.161
 4478SOL     OW14332   1.641   0.647   2.195
 4478SOL    HW114333   1.717   0.708   2.217
 4478SOL    HW214334   1.566   0.699   2.156
 4479SOL     OW14335   2.604   2.575   6.657
 4479SOL    HW114336   2.620   2.627   6.741
 4479SOL    HW214337   2.580   2.637   6.582
 4480SOL     OW14338   6.843   6.430   3.264
 4480SOL    HW114339   6.906   6.446   3.340
 4480SOL    HW214340   6.751   6.459   3.291
 4481SOL     OW14341   2.408   4.042   6.140
 4481SOL    HW114342   2.387   3.947   6.160
 4481SOL    HW214343   2.496   4.048   6.091
 4482SOL     OW14344   2.771   0.117   1.482
 4482SOL    HW114345   2.772   0.047   1.553
 4482SOL    HW214346   2.865   0.136   1.452
 4483SOL     OW14347   0.809   3.364   1.121
 4483SOL    HW114348   0.750   3.440   1.148
 4483SOL    HW214349   0.753   3.283   1.102
 4484SOL     OW14350   3.577   0.597   0.534
 4484SOL    HW114351   3.611   0.579   0.626
 4484SOL    HW214352   3.498   0.538   0.516
 4485SOL     OW14353   0.558   3.197   4.955
 4485SOL    HW114354   0.598   3.192   5.047
 4485SOL    HW214355   0.459   3.188   4.962
 4486SOL     OW14356   5.001   4.540   3.494
 4486SOL    HW114357   4.980   4.616   3.556
 4486SOL    HW214358   5.082   4.564   3.441
 4487SOL     OW14359   0.606   2.690   6.790
 4487SOL    HW114360   0.650   2.605   6.761
 4487SOL    HW214361   0.642   2.766   6.736
 4488SOL     OW14362   6.306   4.695   3.986
 4488SOL    HW114363   6.363   4.776   3.973
 4488SOL    HW214364   6.217   4.710   3.944
 4489SOL     OW14365   3.447   6.222   6.661
 4489SOL    HW114366   3.468   6.124   6.658
 4489SOL    HW214367   3.522   6.270   6.707
 4490SOL     OW14368   5.419   1.493   1.722
 4490SOL    HW114369   5.445   1.557   1.794
 4490SOL    HW214370   5.320   1.478   1.725
 4491SOL     OW14371   0.105   3.975   2.861
 4491SOL    HW114372   0.070   3.889   2.896
 4491SOL    HW214373   0.089   4.048   2.927
 4492SOL     OW14374   6.117   1.312   2.387
 4492SOL    HW114375   6.204   1.318   2.436
 4492SOL    HW214376   6.061   1.392   2.408
 4493SOL     OW14377   5.163   1.557   6.085
 4493SOL    HW114378   5.262   1.563   6.085
 4493SOL    HW214379   5.127   1.603   6.004
 4494SOL     OW14380   1.636   1.157   2.574
 4494SOL    HW114381   1.635   1.164   2.674
 4494SOL    HW214382   1.694   1.229   2.536
 4495SOL     OW14383   4.465   6.098   0.752
 4495SOL    HW114384   4.516   6.045   0.820
 4495SOL    HW214385   4.501   6.079   0.661
 4496SOL     OW14386   2.414   5.653   6.082
 4496SOL    HW114387   2.489   5.608   6.034
 4496SOL    HW214388   2.332   5.650   6.026
 4497SOL     OW14389   4.245   0.130   5.901
 4497SOL    HW114390   4.153   0.109   5.867
 4497SOL    HW214391   4.287   0.199   5.841
 4498SOL     OW14392   1.566   4.813   4.263
 4498SOL    HW114393   1.656   4.856   4.268
 4498SOL    HW214394   1.506   4.870   4.206
 4499SOL     OW14395   5.728   1.858   2.078
 4499SOL    HW114396   5.768   1.869   2.169
 4499SOL    HW214397   5.685   1.768   2.071
 4500SOL     OW14398   3.522   6.556   6.947
 4500SOL    HW114399   3.498   6.565   0.015
 4500SOL    HW214400   3.447   6.590   6.891
 4501SOL     OW14401   6.514   0.267   2.809
 4501SOL    HW114402   6.433   0.325   2.809
 4501SOL    HW214403   6.571   0.290   2.730
 4502SOL     OW14404   1.321   3.911   6.882
 4502SOL    HW114405   1.221   3.913   6.882
 4502SOL    HW214406   1.355   3.954   6.799
 4503SOL     OW14407   3.770   1.362   2.563
 4503SOL    HW114408   3.756   1.399   2.471
 4503SOL    HW214409   3.682   1.330   2.599
 4504SOL     OW14410   1.473   2.363   3.976
 4504SOL    HW114411   1.525   2.430   3.924
 4504SOL    HW214412   1.387   2.344   3.929
 4505SOL     OW14413   6.476   3.003   3.325
 4505SOL    HW114414   6.520   3.083   3.285
 4505SOL    HW214415   6.406   3.031   3.391
 4506SOL     OW14416   4.033   4.036   0.251
 4506SOL    HW114417   3.974   3.961   0.219
 4506SOL    HW214418   4.062   4.090   0.172
 4507SOL     OW14419   6.060   2.422   3.107
 4507SOL    HW114420   5.977   2.406   3.160
 4507SOL    HW214421   6.129   2.466   3.165
 4508SOL     OW14422   6.284   5.222   0.671
 4508SOL    HW114423   6.365   5.165   0.659
 4508SOL    HW214424   6.272   5.280   0.590
 4509SOL     OW14425   5.078   2.405   2.412
 4509SOL    HW114426   5.013   2.472   2.377
 4509SOL    HW214427   5.044   2.313   2.392
 4510SOL     OW14428   4.444   1.513   4.132
 4510SOL    HW114429   4.481   1.583   4.194
 4510SOL    HW214430   4.413   1.434   4.186
 4511SOL     OW14431   0.435   4.385   7.025
 4511SOL    HW114432   0.404   4.480   7.016
 4511SOL    HW214433   0.386   4.327   6.959
 4512SOL     OW14434   3.152   3.320   5.782
 4512SOL    HW114435   3.071   3.376   5.797
 4512SOL    HW214436   3.231   3.380   5.768
 4513SOL     OW14437   0.425   0.740   0.939
 4513SOL    HW114438   0.481   0.695   1.009
 4513SOL    HW214439   0.483   0.771   0.864
 4514SOL     OW14440   4.479   4.630   6.268
 4514SOL    HW114441   4.429   4.666   6.190
 4514SOL    HW214442   4.415   4.602   6.340
 4515SOL     OW14443   4.471   0.151   6.066
 4515SOL    HW114444   4.448   0.164   6.163
 4515SOL    HW214445   4.387   0.149   6.012
 4516SOL     OW14446   3.421   1.793   5.133
 4516SOL    HW114447   3.377   1.850   5.202
 4516SOL    HW214448   3.473   1.851   5.070
 4517SOL     OW14449   3.561   0.907   4.268
 4517SOL    HW114450   3.531   0.940   4.357
 4517SOL    HW214451   3.487   0.920   4.201
 4518SOL     OW14452   6.853   0.322   0.847
 4518SOL    HW114453   6.899   0.343   0.761
 4518SOL    HW214454   6.762   0.363   0.847
 4519SOL     OW14455   5.124   0.007   6.285
 4519SOL    HW114456   5.187   0.029   6.211
 4519SOL    HW214457   5.032   7.026   6.249
 4520SOL     OW14458   4.436   5.175   5.429
 4520SOL    HW114459   4.401   5.159   5.337
 4520SOL    HW214460   4.443   5.088   5.479
 4521SOL     OW14461   4.555   2.511   4.040
 4521SOL    HW114462   4.581   2.607   4.055
 4521SOL    HW214463   4.543   2.496   3.942
 4522SOL     OW14464   5.477   3.902   3.413
 4522SOL    HW114465   5.563   3.864   3.449
 4522SOL    HW214466   5.407   3.831   3.410
 4523SOL     OW14467   0.347   2.885   6.676
 4523SOL    HW114468   0.353   2.814   6.747
 4523SOL    HW214469   0.368   2.844   6.587
 4524SOL     OW14470   2.218   3.791   1.948
 4524SOL    HW114471   2.159   3.871   1.949
 4524SOL    HW214472   2.212   3.743   2.035
 4525SOL     OW14473   3.841   1.670   5.967
 4525SOL    HW114474   3.875   1.579   5.945
 4525SOL    HW214475   3.741   1.671   5.962
 4526SOL     OW14476   1.693   0.164   5.106
 4526SOL    HW114477   1.764   0.231   5.083
 4526SOL    HW214478   1.736   0.076   5.125
 4527SOL     OW14479   0.942   2.413   2.639
 4527SOL    HW114480   1.028   2.427   2.686
 4527SOL    HW214481   0.899   2.328   2.671
 4528SOL     OW14482   5.363   1.357   4.664
 4528SOL    HW114483   5.321   1.266   4.667
 4528SOL    HW214484   5.446   1.357   4.721
 4529SOL     OW14485   1.908   1.969   3.802
 4529SOL    HW114486   1.827   1.912   3.798
 4529SOL    HW214487   1.888   2.060   3.764
 4530SOL     OW14488   3.936   4.740   6.009
 4530SOL    HW114489   3.878   4.681   6.065
 4530SOL    HW214490   4.030   4.733   6.040
 4531SOL     OW14491   1.547   6.934   5.023
 4531SOL    HW114492   1.607   7.014   5.026
 4531SOL    HW214493   1.538   6.903   4.929
 4532SOL     OW14494   5.488   1.308   2.203
 4532SOL    HW114495   5.431   1.357   2.137
 4532SOL    HW214496   5.579   1.294   2.164
 4533SOL     OW14497   2.968   6.462   1.317
 4533SOL    HW114498   2.976   6.513   1.231
 4533SOL    HW214499   2.924   6.520   1.386
 4534SOL     OW14500   5.705   0.797   4.661
 4534SOL    HW114501   5.617   0.768   4.623
 4534SOL    HW214502   5.767   0.718   4.663
 4535SOL     OW14503   1.292   0.906   0.030
 4535SOL    HW114504   1.262   0.877   6.968
 4535SOL    HW214505   1.224   0.879   0.097
 4536SOL     OW14506   3.834   0.773   5.752
 4536SOL    HW114507   3.839   0.852   5.814
 4536SOL    HW214508   3.788   0.801   5.668
 4537SOL     OW14509   3.243   3.345   3.217
 4537SOL    HW114510   3.250   3.250   3.246
 4537SOL    HW214511   3.211   3.402   3.293
 4538SOL     OW14512   1.495   2.826   0.362
 4538SOL    HW114513   1.457   2.918   0.353
 4538SOL    HW214514   1.554   2.822   0.443
 4539SOL     OW14515   1.244   4.913   4.288
 4539SOL    HW114516   1.317   4.978   4.307
 4539SOL    HW214517   1.178   4.954   4.224
 4540SOL     OW14518   1.809   2.061   0.615
 4540SOL    HW114519   1.893   2.087   0.662
 4540SOL    HW214520   1.790   1.964   0.631
 4541SOL     OW14521   3.924   3.160   0.102
 4541SOL    HW114522   3.969   3.219   0.170
 4541SOL    HW214523   3.895   3.076   0.147
 4542SOL     OW14524   6.945   1.504   0.925
 4542SOL    HW114525   6.862   1.510   0.980
 4542SOL    HW214526   6.941   1.422   0.868
 4543SOL     OW14527   4.506   1.357   1.261
 4543SOL    HW114528   4.467   1.359   1.353
 4543SOL    HW214529   4.584   1.420   1.257
 4544SOL     OW14530   4.962   6.041   0.054
 4544SOL    HW114531   5.027   5.987   0.107
 4544SOL    HW214532   4.893   6.079   0.115
 4545SOL     OW14533   3.132   2.946   5.332
 4545SOL    HW114534   3.036   2.969   5.350
 4545SOL    HW214535   3.190   3.000   5.392
 4546SOL     OW14536   4.825   6.839   6.411
 4546SOL    HW114537   4.870   6.892   6.482
 4546SOL    HW214538   4.892   6.782   6.364
 4547SOL     OW14539   6.629   1.212   0.093
 4547SOL    HW114540   6.719   1.248   0.067
 4547SOL    HW214541   6.574   1.197   0.011
 4548SOL     OW14542   3.048   1.196   2.060
 4548SOL    HW114543   3.145   1.214   2.078
 4548SOL    HW214544   3.020   1.242   1.976
 4549SOL     OW14545   6.228   4.844   3.591
 4549SOL    HW114546   6.194   4.751   3.578
 4549SOL    HW214547   6.192   4.902   3.518
 4550SOL     OW14548   2.419   5.311   6.492
 4550SOL    HW114549   2.345   5.261   6.447
 4550SOL    HW214550   2.396   5.326   6.588
 4551SOL     OW14551   3.474   2.986   6.170
 4551SOL    HW114552   3.517   2.970   6.259
 4551SOL    HW214553   3.375   2.991   6.181
 4552SOL     OW14554   4.978   0.622   0.068
 4552SOL    HW114555   5.032   0.554   0.118
 4552SOL    HW214556   4.951   0.585   7.008
 4553SOL     OW14557   0.136   6.830   0.211
 4553SOL    HW114558   0.118   6.873   0.122
 4553SOL    HW214559   0.050   6.803   0.253
 4554SOL     OW14560   5.636   6.558   2.912
 4554SOL    HW114561   5.654   6.470   2.870
 4554SOL    HW214562   5.593   6.544   3.002
 4555SOL     OW14563   0.484   0.038   2.710
 4555SOL    HW114564   0.579   0.066   2.717
 4555SOL    HW214565   0.473   6.975   2.748
 4556SOL     OW14566   5.299   4.737   4.619
 4556SOL    HW114567   5.252   4.706   4.702
 4556SOL    HW214568   5.231   4.763   4.551
 4557SOL     OW14569   0.019   5.451   4.844
 4557SOL    HW114570   6.953   5.423   4.859
 4557SOL    HW214571   0.075   5.421   4.922
 4558SOL     OW14572   0.990   4.579   4.178
 4558SOL    HW114573   1.090   4.576   4.173
 4558SOL    HW214574   0.960   4.671   4.203
 4559SOL     OW14575   0.120   3.064   4.361
 4559SOL    HW114576   0.204   3.010   4.355
 4559SOL    HW214577   0.042   3.008   4.332
 4560SOL     OW14578   6.322   4.558   3.160
 4560SOL    HW114579   6.367   4.606   3.085
 4560SOL    HW214580   6.379   4.481   3.189
 4561SOL     OW14581   4.917   2.896   4.311
 4561SOL    HW114582   4.995   2.949   4.279
 4561SOL    HW214583   4.886   2.932   4.399
 4562SOL     OW14584   4.588   0.907   1.286
 4562SOL    HW114585   4.502   0.928   1.238
 4562SOL    HW214586   4.658   0.973   1.257
 4563SOL     OW14587   1.086   4.122   1.662
 4563SOL    HW114588   1.108   4.126   1.760
 4563SOL    HW214589   0.995   4.083   1.650
 4564SOL     OW14590   2.129   3.659   2.256
 4564SOL    HW114591   2.166   3.607   2.179
 4564SOL    HW214592   2.178   3.634   2.339
 4565SOL     OW14593   2.182   0.046   5.522
 4565SOL    HW114594   2.264   7.024   5.495
 4565SOL    HW214595   2.208   0.127   5.574
 4566SOL     OW14596   6.725   4.858   3.246
 4566SOL    HW114597   6.802   4.871   3.184
 4566SOL    HW214598   6.746   4.784   3.311
 4567SOL     OW14599   0.484   6.950   0.393
 4567SOL    HW114600   0.385   6.946   0.408
 4567SOL    HW214601   0.509   6.887   0.319
 4568SOL     OW14602   0.593   4.071   3.650
 4568SOL    HW114603   0.648   4.109   3.576
 4568SOL    HW214604   0.511   4.127   3.663
 4569SOL     OW14605   0.861   2.898   3.505
 4569SOL    HW114606   0.821   2.988   3.524
 4569SOL    HW214607   0.853   2.878   3.408
 4570SOL     OW14608   5.061   5.872   0.889
 4570SOL    HW114609   5.004   5.953   0.882
 4570SOL    HW214610   5.134   5.888   0.956
 4571SOL     OW14611   1.960   3.029   5.654
 4571SOL    HW114612   1.929   3.116   5.615
 4571SOL    HW214613   1.923   2.953   5.601
 4572SOL     OW14614   4.430   3.127   1.711
 4572SOL    HW114615   4.455   3.083   1.625
 4572SOL    HW214616   4.477   3.082   1.787
 4573SOL     OW14617   2.144   5.063   0.776
 4573SOL    HW114618   2.048   5.042   0.760
 4573SOL    HW214619   2.195   4.977   0.784
 4574SOL     OW14620   5.265   0.345   1.763
 4574SOL    HW114621   5.250   0.396   1.848
 4574SOL    HW214622   5.214   0.389   1.689
 4575SOL     OW14623   6.979   1.515   5.375
 4575SOL    HW114624   0.017   1.465   5.320
 4575SOL    HW214625   7.009   1.519   5.470
 4576SOL     OW14626   3.088   3.534   0.004
 4576SOL    HW114627   3.049   3.617   6.993
 4576SOL    HW214628   3.082   3.459   6.967
 4577SOL     OW14629   0.513   1.519   1.595
 4577SOL    HW114630   0.531   1.614   1.619
 4577SOL    HW214631   0.430   1.488   1.641
 4578SOL     OW14632   1.226   0.775   2.957
 4578SOL    HW114633   1.141   0.807   2.999
 4578SOL    HW214634   1.294   0.759   3.029
 4579SOL     OW14635   4.403   1.157   3.042
 4579SOL    HW114636   4.453   1.150   2.956
 4579SOL    HW214637   4.467   1.169   3.117
 4580SOL     OW14638   0.652   0.427   1.932
 4580SOL    HW114639   0.665   0.418   1.833
 4580SOL    HW214640   0.713   0.363   1.980
 4581SOL     OW14641   2.840   0.318   1.741
 4581SOL    HW114642   2.922   0.339   1.689
 4581SOL    HW214643   2.764   0.373   1.708
 4582SOL     OW14644   5.870   0.634   4.019
 4582SOL    HW114645   5.872   0.696   4.097
 4582SOL    HW214646   5.838   0.544   4.048
 4583SOL     OW14647   1.851   6.951   0.157
 4583SOL    HW114648   1.810   7.003   0.232
 4583SOL    HW214649   1.900   6.872   0.193
 4584SOL     OW14650   0.161   1.251   4.465
 4584SOL    HW114651   0.191   1.347   4.468
 4584SOL    HW214652   0.161   1.213   4.558
 4585SOL     OW14653   0.988   3.082   3.192
 4585SOL    HW114654   0.995   3.130   3.279
 4585SOL    HW214655   0.937   2.997   3.205
 4586SOL     OW14656   6.993   5.190   5.693
 4586SOL    HW114657   6.903   5.213   5.731
 4586SOL    HW214658   6.983   5.117   5.626
 4587SOL     OW14659   4.404   3.304   6.258
 4587SOL    HW114660   4.323   3.246   6.247
 4587SOL    HW214661   4.411   3.365   6.179
 4588SOL     OW14662   2.910   4.243   6.276
 4588SOL    HW114663   2.833   4.213   6.219
 4588SOL    HW214664   2.883   4.243   6.372
 4589SOL     OW14665   5.385   6.234   2.051
 4589SOL    HW114666   5.346   6.274   2.134
 4589SOL    HW214667   5.441   6.155   2.076
 4590SOL     OW14668   2.577   5.126   1.685
 4590SOL    HW114669   2.531   5.198   1.736
 4590SOL    HW214670   2.674   5.124   1.709
 4591SOL     OW14671   1.961   1.099   4.807
 4591SOL    HW114672   1.888   1.145   4.858
 4591SOL    HW214673   2.004   1.163   4.744
 4592SOL     OW14674   2.749   2.262   3.683
 4592SOL    HW114675   2.676   2.198   3.708
 4592SOL    HW214676   2.837   2.214   3.687
 4593SOL     OW14677   1.569   5.899   4.420
 4593SOL    HW114678   1.629   5.943   4.487
 4593SOL    HW214679   1.514   5.829   4.466
 4594SOL     OW14680   1.248   6.100   3.860
 4594SOL    HW114681   1.299   6.031   3.809
 4594SOL    HW214682   1.271   6.093   3.957
 4595SOL     OW14683   6.014   2.128   6.665
 4595SOL    HW114684   5.927   2.113   6.712
 4595SOL    HW214685   6.022   2.063   6.589
 4596SOL     OW14686   0.729   1.546   2.488
 4596SOL    HW114687   0.643   1.503   2.461
 4596SOL    HW214688   0.712   1.609   2.564
 4597SOL     OW14689   1.996   5.754   0.771
 4597SOL    HW114690   2.034   5.844   0.750
 4597SOL    HW214691   1.970   5.708   0.686
 4598SOL     OW14692   0.661   2.728   0.088
 4598SOL    HW114693   0.580   2.671   0.102
 4598SOL    HW214694   0.656   2.808   0.147
 4599SOL     OW14695   3.084   6.372   3.160
 4599SOL    HW114696   3.145   6.446   3.130
 4599SOL    HW214697   3.131   6.316   3.229
 4600SOL     OW14698   1.054   6.391   5.954
 4600SOL    HW114699   0.981   6.333   5.920
 4600SOL    HW214700   1.043   6.406   6.052
 4601SOL     OW14701   1.320   0.906   5.439
 4601SOL    HW114702   1.315   0.965   5.358
 4601SOL    HW214703   1.323   0.810   5.410
 4602SOL     OW14704   4.243   0.569   6.466
 4602SOL    HW114705   4.318   0.512   6.432
 4602SOL    HW214706   4.277   0.660   6.487
 4603SOL     OW14707   4.141   6.845   0.902
 4603SOL    HW114708   4.145   6.746   0.893
 4603SOL    HW214709   4.076   6.881   0.835
 4604SOL     OW14710   0.700   6.678   3.162
 4604SOL    HW114711   0.790   6.669   3.119
 4604SOL    HW214712   0.679   6.593   3.211
 4605SOL     OW14713   4.431   1.291   1.855
 4605SOL    HW114714   4.453   1.281   1.952
 4605SOL    HW214715   4.332   1.294   1.844
 4606SOL     OW14716   6.793   6.906   4.459
 4606SOL    HW114717   6.876   6.947   4.499
 4606SOL    HW214718   6.717   6.916   4.523
 4607SOL     OW14719   3.112   2.012   1.167
 4607SOL    HW114720   3.078   2.083   1.228
 4607SOL    HW214721   3.150   2.055   1.084
 4608SOL     OW14722   0.559   2.584   5.466
 4608SOL    HW114723   0.598   2.587   5.558
 4608SOL    HW214724   0.615   2.523   5.408
 4609SOL     OW14725   6.164   5.109   6.111
 4609SOL    HW114726   6.115   5.031   6.072
 4609SOL    HW214727   6.145   5.115   6.209
 4610SOL     OW14728   5.261   4.746   6.360
 4610SOL    HW114729   5.166   4.732   6.335
 4610SOL    HW214730   5.294   4.666   6.412
 4611SOL     OW14731   6.966   0.542   6.722
 4611SOL    HW114732   6.951   0.624   6.666
 4611SOL    HW214733   0.029   0.546   6.762
 4612SOL     OW14734   2.265   1.193   3.019
 4612SOL    HW114735   2.216   1.265   2.970
 4612SOL    HW214736   2.311   1.232   3.099
 4613SOL     OW14737   1.406   5.200   3.368
 4613SOL    HW114738   1.418   5.276   3.304
 4613SOL    HW214739   1.309   5.185   3.384
 4614SOL     OW14740   0.213   4.448   3.172
 4614SOL    HW114741   0.312   4.432   3.175
 4614SOL    HW214742   0.177   4.452   3.265
 4615SOL     OW14743   1.477   4.604   0.191
 4615SOL    HW114744   1.400   4.543   0.173
 4615SOL    HW214745   1.562   4.563   0.156
 4616SOL     OW14746   1.254   3.963   6.349
 4616SOL    HW114747   1.311   3.954   6.267
 4616SOL    HW214748   1.240   4.060   6.369
 4617SOL     OW14749   0.224   4.108   4.023
 4617SOL    HW114750   0.228   4.181   3.955
 4617SOL    HW214751   0.129   4.092   4.049
 4618SOL     OW14752   2.344   3.961   5.668
 4618SOL    HW114753   2.394   3.885   5.708
 4618SOL    HW214754   2.377   3.977   5.575
 4619SOL     OW14755   4.318   5.590   6.832
 4619SOL    HW114756   4.309   5.623   6.739
 4619SOL    HW214757   4.391   5.640   6.879
 4620SOL     OW14758   1.266   4.453   1.399
 4620SOL    HW114759   1.193   4.521   1.391
 4620SOL    HW214760   1.228   4.362   1.383
 4621SOL     OW14761   2.633   0.287   2.736
 4621SOL    HW114762   2.684   0.298   2.651
 4621SOL    HW214763   2.565   0.214   2.724
 4622SOL     OW14764   5.922   0.340   0.341
 4622SOL    HW114765   5.860   0.416   0.362
 4622SOL    HW214766   6.012   0.376   0.318
 4623SOL     OW14767   3.108   4.863   2.985
 4623SOL    HW114768   3.064   4.952   2.973
 4623SOL    HW214769   3.038   4.791   2.982
 4624SOL     OW14770   5.185   1.810   0.979
 4624SOL    HW114771   5.183   1.765   0.890
 4624SOL    HW214772   5.097   1.796   1.025
 4625SOL     OW14773   0.991   6.150   1.968
 4625SOL    HW114774   0.994   6.051   1.959
 4625SOL    HW214775   1.079   6.189   1.940
 4626SOL     OW14776   4.089   3.708   2.034
 4626SOL    HW114777   4.136   3.740   2.117
 4626SOL    HW214778   4.045   3.786   1.990
 4627SOL     OW14779   5.947   6.203   4.519
 4627SOL    HW114780   5.981   6.109   4.530
 4627SOL    HW214781   5.995   6.247   4.443
 4628SOL     OW14782   6.816   4.844   2.841
 4628SOL    HW114783   6.726   4.880   2.866
 4628SOL    HW214784   6.883   4.870   2.910
 4629SOL     OW14785   1.184   4.967   1.036
 4629SOL    HW114786   1.128   4.931   0.961
 4629SOL    HW214787   1.245   5.038   1.001
 4630SOL     OW14788   2.007   3.772   1.456
 4630SOL    HW114789   1.920   3.820   1.441
 4630SOL    HW214790   1.995   3.675   1.437
 4631SOL     OW14791   6.533   1.757   2.800
 4631SOL    HW114792   6.516   1.700   2.880
 4631SOL    HW214793   6.474   1.727   2.725
 4632SOL     OW14794   3.158   5.015   3.928
 4632SOL    HW114795   3.241   5.029   3.982
 4632SOL    HW214796   3.120   4.924   3.947
 4633SOL     OW14797   5.526   2.856   3.997
 4633SOL    HW114798   5.588   2.886   3.924
 4633SOL    HW214799   5.443   2.817   3.955
 4634SOL     OW14800   3.598   3.201   5.436
 4634SOL    HW114801   3.653   3.117   5.433
 4634SOL    HW214802   3.508   3.181   5.474
 4635SOL     OW14803   4.064   6.690   2.214
 4635SOL    HW114804   4.037   6.785   2.200
 4635SOL    HW214805   4.140   6.685   2.278
 4636SOL     OW14806   1.737   5.246   6.443
 4636SOL    HW114807   1.662   5.313   6.440
 4636SOL    HW214808   1.824   5.295   6.449
 4637SOL     OW14809   2.069   2.525   3.296
 4637SOL    HW114810   2.118   2.444   3.328
 4637SOL    HW214811   2.072   2.596   3.367
 4638SOL     OW14812   3.940   4.703   0.101
 4638SOL    HW114813   3.885   4.643   0.160
 4638SOL    HW214814   4.032   4.711   0.139
 4639SOL     OW14815   4.204   2.139   1.925
 4639SOL    HW114816   4.174   2.133   1.830
 4639SOL    HW214817   4.229   2.047   1.957
 4640SOL     OW14818   6.780   2.816   1.106
 4640SOL    HW114819   6.780   2.740   1.040
 4640SOL    HW214820   6.874   2.841   1.127
 4641SOL     OW14821   0.991   6.115   4.880
 4641SOL    HW114822   0.938   6.164   4.811
 4641SOL    HW214823   0.958   6.021   4.887
 4642SOL     OW14824   6.108   1.572   5.798
 4642SOL    HW114825   6.136   1.513   5.722
 4642SOL    HW214826   6.040   1.638   5.765
 4643SOL     OW14827   0.848   1.858   6.944
 4643SOL    HW114828   0.802   1.834   0.001
 4643SOL    HW214829   0.887   1.776   6.903
 4644SOL     OW14830   1.186   1.361   1.308
 4644SOL    HW114831   1.201   1.303   1.388
 4644SOL    HW214832   1.104   1.417   1.323
 4645SOL     OW14833   5.697   2.409   5.217
 4645SOL    HW114834   5.688   2.397   5.118
 4645SOL    HW214835   5.608   2.432   5.256
 4646SOL     OW14836   1.474   4.158   2.568
 4646SOL    HW114837   1.446   4.094   2.496
 4646SOL    HW214838   1.558   4.203   2.540
 4647SOL     OW14839   2.128   6.354   2.581
 4647SOL    HW114840   2.188   6.330   2.506
 4647SOL    HW214841   2.099   6.271   2.630
 4648SOL     OW14842   2.455   1.074   4.570
 4648SOL    HW114843   2.384   1.129   4.525
 4648SOL    HW214844   2.534   1.067   4.509
 4649SOL     OW14845   4.898   2.459   0.744
 4649SOL    HW114846   4.890   2.544   0.796
 4649SOL    HW214847   4.963   2.398   0.789
 4650SOL     OW14848   3.754   5.344   0.759
 4650SOL    HW114849   3.712   5.419   0.708
 4650SOL    HW214850   3.851   5.363   0.773
 4651SOL     OW14851   1.268   3.846   0.151
 4651SOL    HW114852   1.263   3.747   0.163
 4651SOL    HW214853   1.303   3.867   0.060
 4652SOL     OW14854   0.122   0.203   5.526
 4652SOL    HW114855   0.189   0.185   5.598
 4652SOL    HW214856   0.030   0.192   5.561
 4653SOL     OW14857   0.103   6.257   0.667
 4653SOL    HW114858   0.089   6.182   0.732
 4653SOL    HW214859   0.159   6.328   0.709
 4654SOL     OW14860   0.293   0.998   5.314
 4654SOL    HW114861   0.304   1.049   5.229
 4654SOL    HW214862   0.372   1.015   5.373
 4655SOL     OW14863   5.505   4.877   3.010
 4655SOL    HW114864   5.512   4.793   3.064
 4655SOL    HW214865   5.471   4.951   3.068
 4656SOL     OW14866   5.884   0.491   1.560
 4656SOL    HW114867   5.854   0.522   1.470
 4656SOL    HW214868   5.837   0.405   1.582
 4657SOL     OW14869   3.666   1.820   2.653
 4657SOL    HW114870   3.584   1.813   2.596
 4657SOL    HW214871   3.727   1.890   2.616
 4658SOL     OW14872   1.002   1.935   0.223
 4658SOL    HW114873   1.077   1.911   0.161
 4658SOL    HW214874   1.017   1.893   0.312
 4659SOL     OW14875   2.270   4.962   0.459
 4659SOL    HW114876   2.271   5.060   0.478
 4659SOL    HW214877   2.184   4.922   0.492
 4660SOL     OW14878   0.408   4.869   4.079
 4660SOL    HW114879   0.406   4.969   4.072
 4660SOL    HW214880   0.325   4.838   4.126
 4661SOL     OW14881   1.172   0.917   5.948
 4661SOL    HW114882   1.181   0.827   5.991
 4661SOL    HW214883   1.243   0.978   5.983
 4662SOL     OW14884   2.931   0.430   5.882
 4662SOL    HW114885   3.025   0.411   5.912
 4662SOL    HW214886   2.926   0.523   5.846
 4663SOL     OW14887   0.801   0.595   1.385
 4663SOL    HW114888   0.827   0.692   1.389
 4663SOL    HW214889   0.874   0.544   1.338
 4664SOL     OW14890   5.585   5.748   4.975
 4664SOL    HW114891   5.568   5.812   5.050
 4664SOL    HW214892   5.684   5.736   4.963
 4665SOL     OW14893   6.751   0.987   2.595
 4665SOL    HW114894   6.819   1.052   2.629
 4665SOL    HW214895   6.794   0.921   2.534
 4666SOL     OW14896   1.685   2.434   6.002
 4666SOL    HW114897   1.783   2.453   6.013
 4666SOL    HW214898   1.653   2.471   5.915
 4667SOL     OW14899   5.986   3.205   1.271
 4667SOL    HW114900   6.082   3.210   1.243
 4667SOL    HW214901   5.949   3.298   1.277
 4668SOL     OW14902   4.760   1.453   5.958
 4668SOL    HW114903   4.752   1.552   5.973
 4668SOL    HW214904   4.669   1.412   5.959
 4669SOL     OW14905   5.880   0.120   6.133
 4669SOL    HW114906   5.784   0.147   6.143
 4669SOL    HW214907   5.931   0.193   6.089
 4670SOL     OW14908   0.517   3.394   6.949
 4670SOL    HW114909   0.549   3.410   0.013
 4670SOL    HW214910   0.444   3.459   6.927
 4671SOL     OW14911   0.005   2.493   2.278
 4671SOL    HW114912   0.030   2.493   2.374
 4671SOL    HW214913   6.953   2.436   2.264
 4672SOL     OW14914   3.191   3.195   0.550
 4672SOL    HW114915   3.196   3.126   0.622
 4672SOL    HW214916   3.214   3.153   0.462
 4673SOL     OW14917   5.511   1.112   0.814
 4673SOL    HW114918   5.522   1.060   0.729
 4673SOL    HW214919   5.587   1.092   0.876
 4674SOL     OW14920   1.329   3.100   0.748
 4674SOL    HW114921   1.301   3.176   0.806
 4674SOL    HW214922   1.301   3.014   0.791
 4675SOL     OW14923   1.727   6.031   0.102
 4675SOL    HW114924   1.634   6.036   0.065
 4675SOL    HW214925   1.793   6.046   0.029
 4676SOL     OW14926   1.021   5.899   4.646
 4676SOL    HW114927   1.095   5.921   4.710
 4676SOL    HW214928   1.006   5.977   4.585
 4677SOL     OW14929   4.264   6.855   6.820
 4677SOL    HW114930   4.252   6.886   6.914
 4677SOL    HW214931   4.245   6.757   6.815
 4678SOL     OW14932   2.552   5.051   0.212
 4678SOL    HW114933   2.519   4.958   0.199
 4678SOL    HW214934   2.639   5.064   0.164
 4679SOL     OW14935   2.241   6.761   5.026
 4679SOL    HW114936   2.312   6.757   5.096
 4679SOL    HW214937   2.284   6.758   4.935
 4680SOL     OW14938   0.699   4.874   6.554
 4680SOL    HW114939   0.670   4.944   6.488
 4680SOL    HW214940   0.722   4.790   6.505
 4681SOL     OW14941   6.650   5.700   5.073
 4681SOL    HW114942   6.596   5.723   5.154
 4681SOL    HW214943   6.741   5.670   5.101
 4682SOL     OW14944   3.241   0.531   1.105
 4682SOL    HW114945   3.163   0.581   1.142
 4682SOL    HW214946   3.318   0.594   1.092
 4683SOL     OW14947   0.126   4.582   3.805
 4683SOL    HW114948   0.048   4.631   3.766
 4683SOL    HW214949   0.206   4.643   3.805
 4684SOL     OW14950   1.917   1.570   4.822
 4684SOL    HW114951   1.824   1.546   4.795
 4684SOL    HW214952   1.931   1.545   4.918
 4685SOL     OW14953   5.019   4.210   4.627
 4685SOL    HW114954   4.934   4.260   4.615
 4685SOL    HW214955   5.028   4.142   4.554
 4686SOL     OW14956   4.967   5.403   6.695
 4686SOL    HW114957   4.946   5.484   6.750
 4686SOL    HW214958   4.991   5.431   6.602
 4687SOL     OW14959   4.611   0.262   4.393
 4687SOL    HW114960   4.632   0.357   4.412
 4687SOL    HW214961   4.555   0.224   4.467
 4688SOL     OW14962   6.709   1.262   0.715
 4688SOL    HW114963   6.675   1.173   0.687
 4688SOL    HW214964   6.640   1.332   0.697
 4689SOL     OW14965   2.110   5.792   4.341
 4689SOL    HW114966   2.069   5.706   4.312
 4689SOL    HW214967   2.071   5.819   4.429
 4690SOL     OW14968   2.284   1.655   0.985
 4690SOL    HW114969   2.271   1.556   0.991
 4690SOL    HW214970   2.197   1.699   0.962
 4691SOL     OW14971   3.609   4.481   0.064
 4691SOL    HW114972   3.621   4.529   7.006
 4691SOL    HW214973   3.612   4.382   0.049
 4692SOL     OW14974   1.177   5.267   3.791
 4692SOL    HW114975   1.212   5.355   3.757
 4692SOL    HW214976   1.226   5.193   3.746
 4693SOL     OW14977   0.860   1.281   2.194
 4693SOL    HW114978   0.856   1.199   2.137
 4693SOL    HW214979   0.955   1.296   2.223
 4694SOL     OW14980   1.242   1.166   5.227
 4694SOL    HW114981   1.154   1.213   5.234
 4694SOL    HW214982   1.316   1.229   5.250
 4695SOL     OW14983   3.113   3.558   2.766
 4695SOL    HW114984   3.052   3.518   2.697
 4695SOL    HW214985   3.069   3.636   2.808
 4696SOL     OW14986   6.763   3.717   0.744
 4696SOL    HW114987   6.700   3.707   0.821
 4696SOL    HW214988   6.794   3.627   0.713
 4697SOL     OW14989   1.068   5.834   6.549
 4697SOL    HW114990   0.973   5.842   6.580
 4697SOL    HW214991   1.119   5.775   6.612
 4698SOL     OW14992   6.389   3.230   1.768
 4698SOL    HW114993   6.370   3.207   1.672
 4698SOL    HW214994   6.401   3.146   1.820
 4699SOL     OW14995   6.801   6.732   3.375
 4699SOL    HW114996   6.895   6.701   3.390
 4699SOL    HW214997   6.800   6.831   3.361
 4700SOL     OW14998   5.066   6.645   6.595
 4700SOL    HW114999   5.124   6.577   6.549
 4700SOL    HW215000   5.118   6.730   6.607
 4701SOL     OW15001   1.919   0.710   6.827
 4701SOL    HW115002   1.989   0.650   6.790
 4701SOL    HW215003   1.863   0.659   6.893
 4702SOL     OW15004   2.707   3.027   1.011
 4702SOL    HW115005   2.698   2.942   1.063
 4702SOL    HW215006   2.796   3.028   0.965
 4703SOL     OW15007   1.040   6.759   2.113
 4703SOL    HW115008   0.954   6.716   2.084
 4703SOL    HW215009   1.072   6.821   2.043
 4704SOL     OW15010   4.656   6.410   6.386
 4704SOL    HW115011   4.711   6.339   6.343
 4704SOL    HW215012   4.654   6.397   6.485
 4705SOL     OW15013   3.833   2.899   4.902
 4705SOL    HW115014   3.897   2.829   4.933
 4705SOL    HW215015   3.874   2.950   4.826
 4706SOL     OW15016   5.471   3.712   6.739
 4706SOL    HW115017   5.463   3.800   6.787
 4706SOL    HW215018   5.381   3.682   6.708
 4707SOL     OW15019   2.578   5.411   0.803
 4707SOL    HW115020   2.639   5.461   0.742
 4707SOL    HW215021   2.628   5.388   0.887
 4708SOL     OW15022   1.606   3.045   2.504
 4708SOL    HW115023   1.575   3.009   2.416
 4708SOL    HW215024   1.706   3.041   2.507
 4709SOL     OW15025   2.855   4.375   0.543
 4709SOL    HW115026   2.803   4.291   0.523
 4709SOL    HW215027   2.953   4.353   0.546
 4710SOL     OW15028   4.722   3.234   1.103
 4710SOL    HW115029   4.707   3.206   1.008
 4710SOL    HW215030   4.760   3.327   1.104
 4711SOL     OW15031   2.694   0.211   3.620
 4711SOL    HW115032   2.767   0.144   3.609
 4711SOL    HW215033   2.638   0.187   3.699
 4712SOL     OW15034   1.411   3.633   6.922
 4712SOL    HW115035   1.373   3.725   6.921
 4712SOL    HW215036   1.500   3.635   6.968
 4713SOL     OW15037   0.822   5.103   0.822
 4713SOL    HW115038   0.889   5.046   0.774
 4713SOL    HW215039   0.777   5.049   0.893
 4714SOL     OW15040   4.091   2.528   1.421
 4714SOL    HW115041   3.998   2.564   1.426
 4714SOL    HW215042   4.155   2.595   1.459
 4715SOL     OW15043   4.934   3.923   4.940
 4715SOL    HW115044   4.867   3.979   4.989
 4715SOL    HW215045   4.930   3.829   4.975
 4716SOL     OW15046   2.551   5.533   6.620
 4716SOL    HW115047   2.650   5.542   6.610
 4716SOL    HW215048   2.511   5.514   6.530
 4717SOL     OW15049   2.175   5.435   4.552
 4717SOL    HW115050   2.260   5.488   4.544
 4717SOL    HW215051   2.132   5.454   4.640
 4718SOL     OW15052   4.719   0.324   0.128
 4718SOL    HW115053   4.621   0.337   0.114
 4718SOL    HW215054   4.754   0.395   0.189
 4719SOL     OW15055   4.305   3.360   1.653
 4719SOL    HW115056   4.230   3.344   1.718
 4719SOL    HW215057   4.369   3.283   1.656
 4720SOL     OW15058   2.474   1.424   2.974
 4720SOL    HW115059   2.477   1.521   2.998
 4720SOL    HW215060   2.434   1.372   3.051
 4721SOL     OW15061   1.607   1.410   1.596
 4721SOL    HW115062   1.652   1.470   1.662
 4721SOL    HW215063   1.676   1.354   1.549
 4722SOL     OW15064   2.965   0.395   2.431
 4722SOL    HW115065   2.948   0.488   2.464
 4722SOL    HW215066   3.031   0.350   2.491
 4723SOL     OW15067   3.044   6.825   4.940
 4723SOL    HW115068   2.968   6.837   5.004
 4723SOL    HW215069   3.102   6.907   4.942
 4724SOL     OW15070   4.441   5.169   0.847
 4724SOL    HW115071   4.487   5.107   0.911
 4724SOL    HW215072   4.369   5.219   0.895
 4725SOL     OW15073   5.911   5.484   2.663
 4725SOL    HW115074   5.869   5.411   2.717
 4725SOL    HW215075   5.867   5.571   2.685
 4726SOL     OW15076   0.508   6.454   4.565
 4726SOL    HW115077   0.489   6.551   4.577
 4726SOL    HW215078   0.425   6.407   4.538
 4727SOL     OW15079   5.672   6.589   1.801
 4727SOL    HW115080   5.586   6.559   1.758
 4727SOL    HW215081   5.656   6.674   1.852
 4728SOL     OW15082   6.348   0.533   6.855
 4728SOL    HW115083   6.307   0.590   6.783
 4728SOL    HW215084   6.420   0.477   6.815
 4729SOL     OW15085   3.438   0.712   1.046
 4729SOL    HW115086   3.416   0.758   0.960
 4729SOL    HW215087   3.454   0.780   1.117
 4730SOL     OW15088   1.930   0.446   6.013
 4730SOL    HW115089   1.986   0.471   5.934
 4730SOL    HW215090   1.838   0.422   5.984
 4731SOL     OW15091   4.615   1.614   6.406
 4731SOL    HW115092   4.679   1.654   6.340
 4731SOL    HW215093   4.666   1.567   6.478
 4732SOL     OW15094   0.471   0.192   0.205
 4732SOL    HW115095   0.465   0.093   0.195
 4732SOL    HW215096   0.564   0.218   0.230
 4733SOL     OW15097   6.104   3.399   3.379
 4733SOL    HW115098   6.027   3.337   3.363
 4733SOL    HW215099   6.106   3.426   3.475
 4734SOL     OW15100   6.346   4.252   5.677
 4734SOL    HW115101   6.388   4.217   5.593
 4734SOL    HW215102   6.262   4.301   5.654
 4735SOL     OW15103   0.312   3.964   3.799
 4735SOL    HW115104   0.359   3.878   3.815
 4735SOL    HW215105   0.297   4.011   3.886
 4736SOL     OW15106   1.772   0.214   2.265
 4736SOL    HW115107   1.691   0.158   2.249
 4736SOL    HW215108   1.854   0.162   2.242
 4737SOL     OW15109   3.658   4.994   2.097
 4737SOL    HW115110   3.645   4.911   2.044
 4737SOL    HW215111   3.649   5.074   2.037
 4738SOL     OW15112   0.907   0.046   2.401
 4738SOL    HW115113   0.836   7.021   2.446
 4738SOL    HW215114   0.867   0.131   2.367
 4739SOL     OW15115   3.669   0.110   1.854
 4739SOL    HW115116   3.765   0.086   1.841
 4739SOL    HW215117   3.661   0.179   1.927
 4740SOL     OW15118   0.629   1.816   4.177
 4740SOL    HW115119   0.566   1.881   4.218
 4740SOL    HW215120   0.649   1.844   4.083
 4741SOL     OW15121   4.118   3.697   2.793
 4741SOL    HW115122   4.196   3.673   2.735
 4741SOL    HW215123   4.082   3.786   2.765
 4742SOL     OW15124   4.981   0.854   1.830
 4742SOL    HW115125   4.922   0.928   1.864
 4742SOL    HW215126   5.072   0.865   1.869
 4743SOL     OW15127   1.384   5.263   1.183
 4743SOL    HW115128   1.404   5.217   1.270
 4743SOL    HW215129   1.402   5.200   1.108
 4744SOL     OW15130   1.629   5.670   1.375
 4744SOL    HW115131   1.656   5.574   1.370
 4744SOL    HW215132   1.538   5.681   1.336
 4745SOL     OW15133   1.676   2.828   0.566
 4745SOL    HW115134   1.770   2.807   0.592
 4745SOL    HW215135   1.660   2.927   0.571
 4746SOL     OW15136   5.258   5.506   4.217
 4746SOL    HW115137   5.253   5.406   4.220
 4746SOL    HW215138   5.250   5.537   4.122
 4747SOL     OW15139   3.725   0.530   0.297
 4747SOL    HW115140   3.718   0.589   0.217
 4747SOL    HW215141   3.725   0.586   0.380
 4748SOL     OW15142   1.976   0.076   2.786
 4748SOL    HW115143   1.951   0.170   2.762
 4748SOL    HW215144   1.956   0.059   2.882
 4749SOL     OW15145   2.758   1.491   0.844
 4749SOL    HW115146   2.680   1.488   0.907
 4749SOL    HW215147   2.756   1.577   0.792
 4750SOL     OW15148   5.043   3.056   6.346
 4750SOL    HW115149   4.958   3.036   6.296
 4750SOL    HW215150   5.106   3.105   6.286
 4751SOL     OW15151   4.892   1.357   2.323
 4751SOL    HW115152   4.991   1.357   2.334
 4751SOL    HW215153   4.858   1.451   2.321
 4752SOL     OW15154   5.541   1.136   6.653
 4752SOL    HW115155   5.605   1.196   6.700
 4752SOL    HW215156   5.521   1.057   6.712
 4753SOL     OW15157   2.629   6.150   5.557
 4753SOL    HW115158   2.551   6.211   5.541
 4753SOL    HW215159   2.705   6.203   5.595
 4754SOL     OW15160   5.066   4.437   6.758
 4754SOL    HW115161   5.105   4.528   6.776
 4754SOL    HW215162   5.040   4.430   6.662
 4755SOL     OW15163   0.851   0.883   1.397
 4755SOL    HW115164   0.951   0.876   1.398
 4755SOL    HW215165   0.818   0.907   1.489
 4756SOL     OW15166   0.079   3.442   5.819
 4756SOL    HW115167   0.104   3.515   5.756
 4756SOL    HW215168   0.153   3.375   5.824
 4757SOL     OW15169   2.005   2.952   0.626
 4757SOL    HW115170   1.969   2.861   0.649
 4757SOL    HW215171   2.072   2.942   0.552
 4758SOL     OW15172   2.008   5.240   2.797
 4758SOL    HW115173   2.034   5.336   2.806
 4758SOL    HW215174   2.090   5.185   2.785
 4759SOL     OW15175   0.745   6.763   2.316
 4759SOL    HW115176   0.646   6.752   2.322
 4759SOL    HW215177   0.777   6.731   2.227
 4760SOL     OW15178   1.699   6.530   1.906
 4760SOL    HW115179   1.665   6.521   2.000
 4760SOL    HW215180   1.761   6.454   1.886
 4761SOL     OW15181   4.930   6.301   1.859
 4761SOL    HW115182   4.989   6.234   1.813
 4761SOL    HW215183   4.960   6.393   1.834
 4762SOL     OW15184   0.904   1.174   2.656
 4762SOL    HW115185   0.991   1.141   2.693
 4762SOL    HW215186   0.846   1.208   2.731
 4763SOL     OW15187   5.649   5.007   1.475
 4763SOL    HW115188   5.549   4.995   1.469
 4763SOL    HW215189   5.678   5.075   1.408
 4764SOL     OW15190   4.599   2.905   6.953
 4764SOL    HW115191   4.650   2.949   6.879
 4764SOL    HW215192   4.642   2.925   0.012
 4765SOL     OW15193   4.090   1.290   5.928
 4765SOL    HW115194   4.124   1.321   5.839
 4765SOL    HW215195   4.157   1.309   5.999
 4766SOL     OW15196   0.662   1.040   4.535
 4766SOL    HW115197   0.737   1.102   4.559
 4766SOL    HW215198   0.600   1.085   4.472
 4767SOL     OW15199   2.353   4.674   3.747
 4767SOL    HW115200   2.364   4.755   3.690
 4767SOL    HW215201   2.293   4.695   3.824
 4768SOL     OW15202   4.398   1.451   6.327
 4768SOL    HW115203   4.480   1.487   6.372
 4768SOL    HW215204   4.319   1.505   6.355
 4769SOL     OW15205   2.450   3.196   0.955
 4769SOL    HW115206   2.394   3.117   0.982
 4769SOL    HW215207   2.514   3.168   0.884
 4770SOL     OW15208   6.549   1.613   3.579
 4770SOL    HW115209   6.576   1.644   3.488
 4770SOL    HW215210   6.592   1.670   3.649
 4771SOL     OW15211   2.874   0.506   4.152
 4771SOL    HW115212   2.884   0.445   4.231
 4771SOL    HW215213   2.964   0.542   4.126
 4772SOL     OW15214   2.812   4.728   2.983
 4772SOL    HW115215   2.734   4.671   3.010
 4772SOL    HW215216   2.812   4.740   2.884
 4773SOL     OW15217   3.163   5.333   4.359
 4773SOL    HW115218   3.116   5.268   4.300
 4773SOL    HW215219   3.191   5.288   4.444
 4774SOL     OW15220   0.950   4.616   0.877
 4774SOL    HW115221   0.872   4.630   0.939
 4774SOL    HW215222   0.992   4.527   0.896
 4775SOL     OW15223   6.099   5.163   4.724
 4775SOL    HW115224   6.024   5.224   4.751
 4775SOL    HW215225   6.186   5.210   4.736
 4776SOL     OW15226   6.573   1.843   5.303
 4776SOL    HW115227   6.663   1.806   5.326
 4776SOL    HW215228   6.583   1.933   5.261
 4777SOL     OW15229   1.271   6.941   3.430
 4777SOL    HW115230   1.274   0.010   3.409
 4777SOL    HW215231   1.363   6.909   3.455
 4778SOL     OW15232   1.711   0.261   0.176
 4778SOL    HW115233   1.656   0.339   0.204
 4778SOL    HW215234   1.672   0.221   0.093
 4779SOL     OW15235   4.925   1.084   4.670
 4779SOL    HW115236   4.913   0.998   4.620
 4779SOL    HW215237   4.869   1.155   4.627
 4780SOL     OW15238   5.206   2.889   4.992
 4780SOL    HW115239   5.145   2.932   4.926
 4780SOL    HW215240   5.236   2.957   5.059
 4781SOL     OW15241   2.033   5.232   2.082
 4781SOL    HW115242   1.937   5.255   2.098
 4781SOL    HW215243   2.045   5.200   1.988
 4782SOL     OW15244   1.319   6.019   3.156
 4782SOL    HW115245   1.264   6.102   3.159
 4782SOL    HW215246   1.352   6.004   3.063
 4783SOL     OW15247   0.885   3.534   6.604
 4783SOL    HW115248   0.819   3.503   6.673
 4783SOL    HW215249   0.846   3.521   6.513
 4784SOL     OW15250   5.651   3.120   0.154
 4784SOL    HW115251   5.596   3.203   0.141
 4784SOL    HW215252   5.690   3.091   0.067
 4785SOL     OW15253   6.974   0.364   4.068
 4785SOL    HW115254   7.002   0.459   4.085
 4785SOL    HW215255   6.947   0.321   4.154
 4786SOL     OW15256   1.059   5.487   0.473
 4786SOL    HW115257   0.975   5.444   0.508
 4786SOL    HW215258   1.083   5.565   0.530
 4787SOL     OW15259   4.770   1.215   5.101
 4787SOL    HW115260   4.846   1.183   5.158
 4787SOL    HW215261   4.806   1.252   5.015
 4788SOL     OW15262   0.020   5.743   0.986
 4788SOL    HW115263   0.107   5.788   1.004
 4788SOL    HW215264   0.011   5.725   0.888
 4789SOL     OW15265   5.844   0.918   2.738
 4789SOL    HW115266   5.769   0.899   2.801
 4789SOL    HW215267   5.926   0.941   2.790
 4790SOL     OW15268   7.009   2.527   5.160
 4790SOL    HW115269   0.006   2.567   5.072
 4790SOL    HW215270   6.920   2.565   5.188
 4791SOL     OW15271   0.742   0.665   6.635
 4791SOL    HW115272   0.670   0.601   6.663
 4791SOL    HW215273   0.822   0.652   6.693
 4792SOL     OW15274   0.325   3.671   1.558
 4792SOL    HW115275   0.330   3.667   1.459
 4792SOL    HW215276   0.367   3.756   1.591
 4793SOL     OW15277   1.302   3.602   5.151
 4793SOL    HW115278   1.291   3.636   5.058
 4793SOL    HW215279   1.305   3.502   5.150
 4794SOL     OW15280   5.218   1.447   6.590
 4794SOL    HW115281   5.162   1.488   6.662
 4794SOL    HW215282   5.196   1.491   6.502
 4795SOL     OW15283   0.168   0.512   6.850
 4795SOL    HW115284   0.127   0.512   6.941
 4795SOL    HW215285   0.240   0.582   6.846
 4796SOL     OW15286   6.032   0.636   5.570
 4796SOL    HW115287   6.003   0.723   5.531
 4796SOL    HW215288   5.952   0.575   5.579
 4797SOL     OW15289   2.414   4.620   5.528
 4797SOL    HW115290   2.417   4.606   5.429
 4797SOL    HW215291   2.322   4.647   5.555
 4798SOL     OW15292   3.103   5.985   0.365
 4798SOL    HW115293   3.058   5.929   0.295
 4798SOL    HW215294   3.180   6.034   0.324
 4799SOL     OW15295   3.947   3.195   1.095
 4799SOL    HW115296   3.970   3.105   1.132
 4799SOL    HW215297   3.918   3.186   1.000
 4800SOL     OW15298   0.976   4.707   0.196
 4800SOL    HW115299   1.058   4.668   0.238
 4800SOL    HW215300   0.983   4.807   0.196
 4801SOL     OW15301   4.757   2.838   3.451
 4801SOL    HW115302   4.695   2.760   3.443
 4801SOL    HW215303   4.705   2.921   3.472
 4802SOL     OW15304   6.804   0.832   5.234
 4802SOL    HW115305   6.875   0.761   5.238
 4802SOL    HW215306   6.847   0.922   5.223
 4803SOL     OW15307   5.268   3.289   5.726
 4803SOL    HW115308   5.323   3.372   5.731
 4803SOL    HW215309   5.323   3.210   5.753
 4804SOL     OW15310   5.341   2.659   0.683
 4804SOL    HW115311   5.342   2.561   0.700
 4804SOL    HW215312   5.413   2.683   0.619
 4805SOL     OW15313   5.552   0.859   6.456
 4805SOL    HW115314   5.546   0.952   6.494
 4805SOL    HW215315   5.644   0.823   6.470
 4806SOL     OW15316   1.120   2.466   3.582
 4806SOL    HW115317   1.096   2.551   3.536
 4806SOL    HW215318   1.096   2.388   3.524
 4807SOL     OW15319   0.990   3.846   0.150
 4807SOL    HW115320   0.959   3.767   0.096
 4807SOL    HW215321   1.088   3.838   0.166
 4808SOL     OW15322   3.549   6.273   2.547
 4808SOL    HW115323   3.513   6.200   2.604
 4808SOL    HW215324   3.474   6.321   2.502
 4809SOL     OW15325   2.909   3.500   0.204
 4809SOL    HW115326   2.836   3.539   0.148
 4809SOL    HW215327   2.996   3.509   0.155
 4810SOL     OW15328   1.849   5.253   4.887
 4810SOL    HW115329   1.933   5.222   4.931
 4810SOL    HW215330   1.808   5.327   4.942
 4811SOL     OW15331   3.417   3.460   4.171
 4811SOL    HW115332   3.422   3.393   4.245
 4811SOL    HW215333   3.322   3.485   4.155
 4812SOL     OW15334   2.776   6.614   1.951
 4812SOL    HW115335   2.715   6.657   2.018
 4812SOL    HW215336   2.868   6.652   1.960
 4813SOL     OW15337   1.173   2.563   4.756
 4813SOL    HW115338   1.134   2.592   4.843
 4813SOL    HW215339   1.143   2.470   4.735
 4814SOL     OW15340   6.023   1.785   0.633
 4814SOL    HW115341   5.961   1.741   0.698
 4814SOL    HW215342   6.096   1.832   0.683
 4815SOL     OW15343   6.515   4.431   2.877
 4815SOL    HW115344   6.569   4.357   2.915
 4815SOL    HW215345   6.556   4.519   2.902
 4816SOL     OW15346   2.290   0.401   2.635
 4816SOL    HW115347   2.316   0.472   2.701
 4816SOL    HW215348   2.271   0.316   2.684
 4817SOL     OW15349   3.383   2.382   0.030
 4817SOL    HW115350   3.438   2.415   6.983
 4817SOL    HW215351   3.441   2.371   0.111
 4818SOL     OW15352   4.902   6.590   4.876
 4818SOL    HW115353   4.890   6.587   4.777
 4818SOL    HW215354   4.934   6.681   4.904
 4819SOL     OW15355   3.620   0.975   0.022
 4819SOL    HW115356   3.640   1.024   0.107
 4819SOL    HW215357   3.599   1.041   6.979
 4820SOL     OW15358   6.902   4.969   1.888
 4820SOL    HW115359   6.902   4.897   1.819
 4820SOL    HW215360   6.808   4.994   1.909
 4821SOL     OW15361   0.119   6.540   1.309
 4821SOL    HW115362   0.172   6.475   1.254
 4821SOL    HW215363   0.025   6.541   1.276
 4822SOL     OW15364   0.448   3.896   1.643
 4822SOL    HW115365   0.541   3.914   1.675
 4822SOL    HW215366   0.431   3.946   1.558
 4823SOL     OW15367   0.086   2.016   3.300
 4823SOL    HW115368   0.083   1.925   3.259
 4823SOL    HW215369   0.136   2.011   3.387
 4824SOL     OW15370   5.836   2.405   2.074
 4824SOL    HW115371   5.849   2.395   2.173
 4824SOL    HW215372   5.793   2.493   2.054
 4825SOL     OW15373   1.541   3.514   4.420
 4825SOL    HW115374   1.621   3.507   4.360
 4825SOL    HW215375   1.486   3.593   4.394
 4826SOL     OW15376   7.025   6.906   0.665
 4826SOL    HW115377   6.962   6.830   0.681
 4826SOL    HW215378   6.976   6.993   0.676
 4827SOL     OW15379   4.926   1.988   0.107
 4827SOL    HW115380   4.837   1.944   0.123
 4827SOL    HW215381   4.989   1.921   0.067
 4828SOL     OW15382   5.647   3.557   6.610
 4828SOL    HW115383   5.591   3.638   6.628
 4828SOL    HW215384   5.645   3.496   6.690
 4829SOL     OW15385   3.010   0.493   5.593
 4829SOL    HW115386   3.026   0.398   5.565
 4829SOL    HW215387   2.913   0.506   5.611
 4830SOL     OW15388   4.766   4.785   5.175
 4830SOL    HW115389   4.775   4.821   5.268
 4830SOL    HW215390   4.806   4.850   5.110
 4831SOL     OW15391   6.373   2.123   6.619
 4831SOL    HW115392   6.470   2.101   6.630
 4831SOL    HW215393   6.318   2.040   6.630
 4832SOL     OW15394   1.226   2.995   6.674
 4832SOL    HW115395   1.229   3.045   6.588
 4832SOL    HW215396   1.186   3.052   6.745
 4833SOL     OW15397   6.297   2.446   3.322
 4833SOL    HW115398   6.381   2.414   3.279
 4833SOL    HW215399   6.282   2.542   3.297
 4834SOL     OW15400   5.734   0.417   3.411
 4834SOL    HW115401   5.788   0.334   3.397
 4834SOL    HW215402   5.637   0.397   3.395
 4835SOL     OW15403   1.960   1.215   6.487
 4835SOL    HW115404   1.992   1.126   6.521
 4835SOL    HW215405   1.881   1.245   6.540
 4836SOL     OW15406   5.851   3.588   2.781
 4836SOL    HW115407   5.935   3.635   2.753
 4836SOL    HW215408   5.795   3.651   2.837
 4837SOL     OW15409   0.884   5.178   1.119
 4837SOL    HW115410   0.870   5.226   1.032
 4837SOL    HW215411   0.974   5.201   1.155
 4838SOL     OW15412   2.734   5.890   2.386
 4838SOL    HW115413   2.647   5.843   2.402
 4838SOL    HW215414   2.751   5.896   2.288
 4839SOL     OW15415   1.241   0.143   6.302
 4839SOL    HW115416   1.232   0.231   6.256
 4839SOL    HW215417   1.268   0.073   6.236
 4840SOL     OW15418   6.551   5.903   6.078
 4840SOL    HW115419   6.486   5.873   6.148
 4840SOL    HW215420   6.633   5.941   6.122
 4841SOL     OW15421   1.728   5.920   1.185
 4841SOL    HW115422   1.753   5.841   1.129
 4841SOL    HW215423   1.761   5.907   1.278
 4842SOL     OW15424   3.127   6.394   0.804
 4842SOL    HW115425   3.115   6.492   0.824
 4842SOL    HW215426   3.142   6.344   0.889
 4843SOL     OW15427   1.550   3.768   0.248
 4843SOL    HW115428   1.588   3.802   0.335
 4843SOL    HW215429   1.451   3.779   0.249
 4844SOL     OW15430   0.661   1.676   5.411
 4844SOL    HW115431   0.564   1.700   5.401
 4844SOL    HW215432   0.668   1.589   5.460
 4845SOL     OW15433   5.338   6.618   3.305
 4845SOL    HW115434   5.284   6.534   3.314
 4845SOL    HW215435   5.277   6.697   3.309
 4846SOL     OW15436   6.817   5.032   6.444
 4846SOL    HW115437   6.790   4.982   6.527
 4846SOL    HW215438   6.775   4.988   6.365
 4847SOL     OW15439   4.696   2.452   4.330
 4847SOL    HW115440   4.653   2.518   4.269
 4847SOL    HW215441   4.690   2.360   4.291
 4848SOL     OW15442   2.731   3.183   1.781
 4848SOL    HW115443   2.788   3.135   1.713
 4848SOL    HW215444   2.777   3.182   1.870
 4849SOL     OW15445   1.981   6.196   6.235
 4849SOL    HW115446   2.036   6.169   6.156
 4849SOL    HW215447   2.040   6.238   6.303
 4850SOL     OW15448   3.381   6.624   2.856
 4850SOL    HW115449   3.463   6.575   2.887
 4850SOL    HW215450   3.367   6.705   2.913
 4851SOL     OW15451   5.049   1.132   5.968
 4851SOL    HW115452   5.084   1.047   6.008
 4851SOL    HW215453   4.987   1.110   5.894
 4852SOL     OW15454   1.876   2.231   1.524
 4852SOL    HW115455   1.975   2.218   1.522
 4852SOL    HW215456   1.844   2.228   1.618
 4853SOL     OW15457   3.652   1.191   1.957
 4853SOL    HW115458   3.611   1.136   2.029
 4853SOL    HW215459   3.734   1.145   1.923
 4854SOL     OW15460   3.980   0.096   5.840
 4854SOL    HW115461   3.943   0.030   5.906
 4854SOL    HW215462   3.975   0.188   5.878
 4855SOL     OW15463   0.183   2.670   2.556
 4855SOL    HW115464   0.144   2.695   2.644
 4855SOL    HW215465   0.224   2.751   2.513
 4856SOL     OW15466   0.345   4.361   2.347
 4856SOL    HW115467   0.377   4.305   2.270
 4856SOL    HW215468   0.291   4.305   2.409
 4857SOL     OW15469   0.286   0.967   5.711
 4857SOL    HW115470   0.311   1.057   5.675
 4857SOL    HW215471   0.238   0.915   5.640
 4858SOL     OW15472   1.762   0.793   3.883
 4858SOL    HW115473   1.679   0.739   3.870
 4858SOL    HW215474   1.745   0.888   3.855
 4859SOL     OW15475   3.859   6.440   6.129
 4859SOL    HW115476   3.853   6.533   6.167
 4859SOL    HW215477   3.819   6.375   6.194
 4860SOL     OW15478   3.418   4.909   0.517
 4860SOL    HW115479   3.433   4.850   0.437
 4860SOL    HW215480   3.489   4.979   0.520
 4861SOL     OW15481   4.076   4.244   6.654
 4861SOL    HW115482   4.040   4.290   6.573
 4861SOL    HW215483   4.001   4.205   6.707
 4862SOL     OW15484   1.819   0.125   0.384
 4862SOL    HW115485   1.753   0.114   0.458
 4862SOL    HW215486   1.775   0.173   0.308
 4863SOL     OW15487   5.228   3.782   6.162
 4863SOL    HW115488   5.133   3.778   6.131
 4863SOL    HW215489   5.289   3.764   6.084
 4864SOL     OW15490   3.248   1.356   4.370
 4864SOL    HW115491   3.320   1.424   4.358
 4864SOL    HW215492   3.160   1.401   4.377
 4865SOL     OW15493   1.429   6.437   5.466
 4865SOL    HW115494   1.528   6.448   5.459
 4865SOL    HW215495   1.384   6.525   5.452
 4866SOL     OW15496   0.208   4.322   5.873
 4866SOL    HW115497   0.200   4.397   5.807
 4866SOL    HW215498   0.294   4.332   5.924
 4867SOL     OW15499   4.051   1.196   3.201
 4867SOL    HW115500   3.990   1.120   3.226
 4867SOL    HW215501   3.997   1.271   3.165
 4868SOL     OW15502   0.023   4.960   0.481
 4868SOL    HW115503   0.115   4.921   0.480
 4868SOL    HW215504   0.022   5.047   0.430
 4869SOL     OW15505   0.131   1.622   0.765
 4869SOL    HW115506   0.207   1.583   0.817
 4869SOL    HW215507   0.045   1.582   0.795
 4870SOL     OW15508   0.269   0.235   1.182
 4870SOL    HW115509   0.324   0.172   1.235
 4870SOL    HW215510   0.175   0.236   1.216
 4871SOL     OW15511   0.492   1.734   3.234
 4871SOL    HW115512   0.482   1.732   3.333
 4871SOL    HW215513   0.585   1.706   3.209
 4872SOL     OW15514   5.444   0.145   3.151
 4872SOL    HW115515   5.422   0.130   3.055
 4872SOL    HW215516   5.468   0.058   3.194
 4873SOL     OW15517   0.168   5.574   3.930
 4873SOL    HW115518   0.193   5.639   4.002
 4873SOL    HW215519   0.232   5.582   3.854
 4874SOL     OW15520   5.433   4.072   2.127
 4874SOL    HW115521   5.494   3.998   2.153
 4874SOL    HW215522   5.419   4.133   2.205
 4875SOL     OW15523   6.054   6.071   4.820
 4875SOL    HW115524   6.099   5.994   4.776
 4875SOL    HW215525   5.962   6.045   4.848
 4876SOL     OW15526   6.681   1.448   2.321
 4876SOL    HW115527   6.764   1.461   2.268
 4876SOL    HW215528   6.702   1.398   2.405
 4877SOL     OW15529   0.187   1.361   6.925
 4877SOL    HW115530   0.112   1.349   6.860
 4877SOL    HW215531   0.190   1.456   6.955
 4878SOL     OW15532   6.039   4.587   3.244
 4878SOL    HW115533   6.128   4.625   3.218
 4878SOL    HW215534   6.053   4.504   3.300
 4879SOL     OW15535   5.291   0.455   3.037
 4879SOL    HW115536   5.327   0.509   3.113
 4879SOL    HW215537   5.243   0.516   2.973
 4880SOL     OW15538   0.086   3.048   6.105
 4880SOL    HW115539   0.102   3.010   6.014
 4880SOL    HW215540   0.172   3.046   6.157
 4881SOL     OW15541   0.362   3.832   1.903
 4881SOL    HW115542   0.388   3.868   1.813
 4881SOL    HW215543   0.262   3.830   1.910
 4882SOL     OW15544   5.023   1.751   4.072
 4882SOL    HW115545   5.025   1.651   4.063
 4882SOL    HW215546   5.113   1.788   4.050
 4883SOL     OW15547   6.251   4.438   6.997
 4883SOL    HW115548   6.269   4.461   6.901
 4883SOL    HW215549   6.305   4.358   7.023
 4884SOL     OW15550   2.297   1.909   1.880
 4884SOL    HW115551   2.353   1.904   1.797
 4884SOL    HW215552   2.355   1.899   1.961
 4885SOL     OW15553   0.860   5.057   6.685
 4885SOL    HW115554   0.862   5.059   6.785
 4885SOL    HW215555   0.786   4.998   6.654
 4886SOL     OW15556   2.798   0.842   2.498
 4886SOL    HW115557   2.823   0.891   2.415
 4886SOL    HW215558   2.801   0.905   2.576
 4887SOL     OW15559   4.628   5.338   0.699
 4887SOL    HW115560   4.562   5.273   0.737
 4887SOL    HW215561   4.581   5.405   0.642
 4888SOL     OW15562   4.522   0.767   2.736
 4888SOL    HW115563   4.588   0.697   2.707
 4888SOL    HW215564   4.567   0.829   2.801
 4889SOL     OW15565   5.742   3.406   3.888
 4889SOL    HW115566   5.794   3.354   3.956
 4889SOL    HW215567   5.650   3.423   3.923
 4890SOL     OW15568   6.487   1.927   4.820
 4890SOL    HW115569   6.550   1.974   4.882
 4890SOL    HW215570   6.535   1.905   4.735
 4891SOL     OW15571   2.575   6.276   0.450
 4891SOL    HW115572   2.526   6.322   0.376
 4891SOL    HW215573   2.674   6.278   0.432
 4892SOL     OW15574   5.560   5.051   1.998
 4892SOL    HW115575   5.534   5.012   2.087
 4892SOL    HW215576   5.659   5.043   1.985
 4893SOL     OW15577   1.413   2.868   1.609
 4893SOL    HW115578   1.499   2.863   1.660
 4893SOL    HW215579   1.355   2.791   1.634
 4894SOL     OW15580   4.989   5.891   0.476
 4894SOL    HW115581   4.908   5.835   0.493
 4894SOL    HW215582   4.993   5.965   0.543
 4895SOL     OW15583   6.677   3.601   5.117
 4895SOL    HW115584   6.611   3.581   5.189
 4895SOL    HW215585   6.697   3.699   5.117
 4896SOL     OW15586   2.847   5.433   4.574
 4896SOL    HW115587   2.798   5.433   4.661
 4896SOL    HW215588   2.914   5.359   4.574
 4897SOL     OW15589   2.241   1.522   5.330
 4897SOL    HW115590   2.316   1.583   5.355
 4897SOL    HW215591   2.254   1.490   5.236
 4898SOL     OW15592   4.153   1.973   4.033
 4898SOL    HW115593   4.129   2.066   4.007
 4898SOL    HW215594   4.082   1.936   4.094
 4899SOL     OW15595   6.517   6.427   1.372
 4899SOL    HW115596   6.467   6.398   1.290
 4899SOL    HW215597   6.594   6.364   1.387
 4900SOL     OW15598   3.651   6.125   6.165
 4900SOL    HW115599   3.683   6.203   6.112
 4900SOL    HW215600   3.724   6.092   6.223
 4901SOL     OW15601   2.233   1.094   6.977
 4901SOL    HW115602   2.255   1.136   6.889
 4901SOL    HW215603   2.160   1.026   6.964
 4902SOL     OW15604   2.843   0.139   5.423
 4902SOL    HW115605   2.785   0.106   5.497
 4902SOL    HW215606   2.857   0.066   5.356
 4903SOL     OW15607   4.903   3.839   2.585
 4903SOL    HW115608   4.888   3.789   2.671
 4903SOL    HW215609   4.951   3.924   2.605
 4904SOL     OW15610   1.935   0.939   1.957
 4904SOL    HW115611   1.913   0.995   2.037
 4904SOL    HW215612   1.902   0.846   1.970
 4905SOL     OW15613   2.726   1.243   2.351
 4905SOL    HW115614   2.711   1.231   2.449
 4905SOL    HW215615   2.674   1.322   2.319
 4906SOL     OW15616   5.217   3.317   5.066
 4906SOL    HW115617   5.287   3.280   5.004
 4906SOL    HW215618   5.129   3.321   5.018
 4907SOL     OW15619   3.193   1.959   0.503
 4907SOL    HW115620   3.161   1.909   0.584
 4907SOL    HW215621   3.142   2.045   0.495
 4908SOL     OW15622   3.273   6.669   6.139
 4908SOL    HW115623   3.275   6.692   6.042
 4908SOL    HW215624   3.367   6.656   6.172
 4909SOL     OW15625   5.031   5.196   4.348
 4909SOL    HW115626   5.070   5.261   4.413
 4909SOL    HW215627   4.942   5.165   4.380
 4910SOL     OW15628   4.201   1.755   0.022
 4910SOL    HW115629   4.153   1.792   6.971
 4910SOL    HW215630   4.157   1.787   0.105
 4911SOL     OW15631   6.491   4.365   3.257
 4911SOL    HW115632   6.570   4.412   3.217
 4911SOL    HW215633   6.510   4.268   3.265
 4912SOL     OW15634   5.840   2.662   3.706
 4912SOL    HW115635   5.837   2.562   3.703
 4912SOL    HW215636   5.893   2.692   3.785
 4913SOL     OW15637   1.065   3.565   5.292
 4913SOL    HW115638   0.994   3.618   5.247
 4913SOL    HW215639   1.138   3.544   5.227
 4914SOL     OW15640   3.663   6.880   3.617
 4914SOL    HW115641   3.716   6.795   3.621
 4914SOL    HW215642   3.566   6.858   3.606
 4915SOL     OW15643   4.044   6.097   5.566
 4915SOL    HW115644   3.972   6.064   5.505
 4915SOL    HW215645   4.057   6.033   5.641
 4916SOL     OW15646   5.497   2.460   3.654
 4916SOL    HW115647   5.490   2.366   3.686
 4916SOL    HW215648   5.439   2.519   3.711
 4917SOL     OW15649   4.118   6.652   6.505
 4917SOL    HW115650   4.112   6.751   6.503
 4917SOL    HW215651   4.212   6.624   6.486
 4918SOL     OW15652   5.391   6.069   3.662
 4918SOL    HW115653   5.465   6.118   3.616
 4918SOL    HW215654   5.415   5.973   3.672
 4919SOL     OW15655   3.972   3.920   1.916
 4919SOL    HW115656   4.052   3.978   1.900
 4919SOL    HW215657   3.910   3.967   1.979
 4920SOL     OW15658   6.365   0.684   6.058
 4920SOL    HW115659   6.375   0.588   6.029
 4920SOL    HW215660   6.341   0.740   5.978
 4921SOL     OW15661   6.918   0.289   2.444
 4921SOL    HW115662   6.971   0.293   2.529
 4921SOL    HW215663   6.888   0.381   2.420
 4922SOL     OW15664   4.091   0.654   6.130
 4922SOL    HW115665   4.153   0.578   6.112
 4922SOL    HW215666   4.097   0.681   6.226
 4923SOL     OW15667   3.971   1.544   1.771
 4923SOL    HW115668   3.874   1.542   1.795
 4923SOL    HW215669   3.979   1.554   1.671
 4924SOL     OW15670   2.604   1.296   5.193
 4924SOL    HW115671   2.531   1.257   5.249
 4924SOL    HW215672   2.683   1.316   5.251
 4925SOL     OW15673   4.607   6.653   3.902
 4925SOL    HW115674   4.517   6.626   3.870
 4925SOL    HW215675   4.676   6.588   3.868
 4926SOL     OW15676   5.056   2.489   1.800
 4926SOL    HW115677   4.962   2.497   1.766
 4926SOL    HW215678   5.055   2.441   1.888
 4927SOL     OW15679   2.480   1.194   0.381
 4927SOL    HW115680   2.468   1.280   0.431
 4927SOL    HW215681   2.392   1.148   0.372
 4928SOL     OW15682   0.427   1.086   1.078
 4928SOL    HW115683   0.457   0.991   1.076
 4928SOL    HW215684   0.352   1.100   1.013
 4929SOL     OW15685   6.740   6.742   4.847
 4929SOL    HW115686   6.834   6.776   4.843
 4929SOL    HW215687   6.725   6.676   4.774
 4930SOL     OW15688   4.126   5.716   2.792
 4930SOL    HW115689   4.223   5.692   2.786
 4930SOL    HW215690   4.116   5.802   2.842
 4931SOL     OW15691   6.032   0.103   1.326
 4931SOL    HW115692   6.114   0.122   1.272
 4931SOL    HW215693   5.963   0.173   1.306
 4932SOL     OW15694   3.553   3.797   3.134
 4932SOL    HW115695   3.468   3.756   3.167
 4932SOL    HW215696   3.550   3.804   3.034
 4933SOL     OW15697   1.797   6.757   4.830
 4933SOL    HW115698   1.802   6.684   4.898
 4933SOL    HW215699   1.740   6.727   4.754
 4934SOL     OW15700   2.803   6.984   2.719
 4934SOL    HW115701   2.805   7.026   2.810
 4934SOL    HW215702   2.748   6.901   2.722
 4935SOL     OW15703   5.929   6.944   4.684
 4935SOL    HW115704   5.952   6.856   4.725
 4935SOL    HW215705   5.874   6.997   4.748
 4936SOL     OW15706   4.123   2.951   0.290
 4936SOL    HW115707   4.183   2.900   0.227
 4936SOL    HW215708   4.152   3.046   0.294
 4937SOL     OW15709   3.798   2.595   5.351
 4937SOL    HW115710   3.705   2.614   5.322
 4937SOL    HW215711   3.858   2.671   5.325
 4938SOL     OW15712   3.330   4.223   6.941
 4938SOL    HW115713   3.429   4.234   6.930
 4938SOL    HW215714   3.305   4.239   0.007
 4939SOL     OW15715   4.460   3.711   6.279
 4939SOL    HW115716   4.478   3.631   6.336
 4939SOL    HW215717   4.472   3.794   6.333
 4940SOL     OW15718   1.767   5.889   3.869
 4940SOL    HW115719   1.678   5.858   3.835
 4940SOL    HW215720   1.770   5.879   3.968
 4941SOL     OW15721   6.019   1.157   1.688
 4941SOL    HW115722   6.087   1.093   1.722
 4941SOL    HW215723   6.050   1.251   1.704
 4942SOL     OW15724   5.660   2.273   5.570
 4942SOL    HW115725   5.740   2.291   5.627
 4942SOL    HW215726   5.637   2.357   5.520
 4943SOL     OW15727   5.760   2.758   1.382
 4943SOL    HW115728   5.700   2.789   1.308
 4943SOL    HW215729   5.705   2.721   1.457
 4944SOL     OW15730   1.855   3.525   2.199
 4944SOL    HW115731   1.950   3.524   2.167
 4944SOL    HW215732   1.796   3.485   2.130
 4945SOL     OW15733   0.108   5.966   4.528
 4945SOL    HW115734   0.131   6.040   4.465
 4945SOL    HW215735   0.188   5.908   4.541
 4946SOL     OW15736   6.871   4.508   1.875
 4946SOL    HW115737   6.879   4.438   1.945
 4946SOL    HW215738   6.818   4.585   1.910
 4947SOL     OW15739   6.073   0.705   0.794
 4947SOL    HW115740   6.056   0.765   0.716
 4947SOL    HW215741   5.987   0.664   0.824
 4948SOL     OW15742   2.350   1.560   2.549
 4948SOL    HW115743   2.305   1.648   2.564
 4948SOL    HW215744   2.294   1.504   2.488
 4949SOL     OW15745   5.332   2.191   5.261
 4949SOL    HW115746   5.376   2.280   5.250
 4949SOL    HW215747   5.237   2.203   5.289
 4950SOL     OW15748   3.416   5.808   4.100
 4950SOL    HW115749   3.484   5.736   4.095
 4950SOL    HW215750   3.363   5.811   4.015
 4951SOL     OW15751   4.346   2.290   3.643
 4951SOL    HW115752   4.306   2.322   3.557
 4951SOL    HW215753   4.320   2.194   3.658
 4952SOL     OW15754   6.702   4.336   3.887
 4952SOL    HW115755   6.646   4.404   3.934
 4952SOL    HW215756   6.798   4.352   3.907
 4953SOL     OW15757   1.050   4.584   1.966
 4953SOL    HW115758   1.132   4.545   2.009
 4953SOL    HW215759   1.051   4.564   1.868
 4954SOL     OW15760   6.799   6.123   6.318
 4954SOL    HW115761   6.836   6.146   6.408
 4954SOL    HW215762   6.873   6.114   6.252
 4955SOL     OW15763   1.661   0.208   1.839
 4955SOL    HW115764   1.653   0.280   1.907
 4955SOL    HW215765   1.702   0.244   1.755
 4956SOL     OW15766   5.694   6.375   3.708
 4956SOL    HW115767   5.747   6.309   3.761
 4956SOL    HW215768   5.704   6.356   3.610
 4957SOL     OW15769   1.317   6.062   4.108
 4957SOL    HW115770   1.378   6.014   4.171
 4957SOL    HW215771   1.289   6.149   4.148
 4958SOL     OW15772   6.676   6.680   6.930
 4958SOL    HW115773   6.703   6.774   6.911
 4958SOL    HW215774   6.641   6.674   7.024
 4959SOL     OW15775   0.568   2.177   0.096
 4959SOL    HW115776   0.588   2.259   0.042
 4959SOL    HW215777   0.653   2.139   0.131
 4960SOL     OW15778   3.271   0.149   5.546
 4960SOL    HW115779   3.177   0.184   5.554
 4960SOL    HW215780   3.282   0.104   5.457
 4961SOL     OW15781   5.151   0.265   5.136
 4961SOL    HW115782   5.123   0.350   5.181
 4961SOL    HW215783   5.135   0.188   5.197
 4962SOL     OW15784   6.696   2.492   2.143
 4962SOL    HW115785   6.636   2.555   2.092
 4962SOL    HW215786   6.643   2.444   2.212
 4963SOL     OW15787   0.577   4.185   1.233
 4963SOL    HW115788   0.587   4.102   1.179
 4963SOL    HW215789   0.491   4.230   1.208
 4964SOL     OW15790   2.886   6.579   2.801
 4964SOL    HW115791   2.942   6.504   2.767
 4964SOL    HW215792   2.855   6.558   2.893
 4965SOL     OW15793   7.027   6.055   5.058
 4965SOL    HW115794   0.005   5.992   5.136
 4965SOL    HW215795   0.062   6.027   4.987
 4966SOL     OW15796   5.009   5.507   5.150
 4966SOL    HW115797   4.915   5.543   5.148
 4966SOL    HW215798   5.069   5.570   5.100
 4967SOL     OW15799   5.447   1.442   6.386
 4967SOL    HW115800   5.369   1.410   6.440
 4967SOL    HW215801   5.530   1.439   6.442
 4968SOL     OW15802   5.236   3.948   6.367
 4968SOL    HW115803   5.314   3.928   6.427
 4968SOL    HW215804   5.243   3.895   6.283
 4969SOL     OW15805   1.609   1.446   1.304
 4969SOL    HW115806   1.595   1.425   1.401
 4969SOL    HW215807   1.666   1.374   1.263
 4970SOL     OW15808   1.972   1.863   5.991
 4970SOL    HW115809   2.056   1.918   5.993
 4970SOL    HW215810   1.916   1.893   5.914
 4971SOL     OW15811   6.199   5.510   3.931
 4971SOL    HW115812   6.245   5.573   3.868
 4971SOL    HW215813   6.167   5.430   3.881
 4972SOL     OW15814   1.791   2.087   4.696
 4972SOL    HW115815   1.719   2.136   4.745
 4972SOL    HW215816   1.873   2.145   4.690
 4973SOL     OW15817   5.167   5.977   3.003
 4973SOL    HW115818   5.203   6.064   2.968
 4973SOL    HW215819   5.128   5.924   2.928
 4974SOL     OW15820   3.734   6.572   6.424
 4974SOL    HW115821   3.778   6.611   6.343
 4974SOL    HW215822   3.784   6.599   6.506
 4975SOL     OW15823   4.013   6.018   0.473
 4975SOL    HW115824   4.027   6.115   0.492
 4975SOL    HW215825   4.102   5.972   0.469
 4976SOL     OW15826   2.248   0.761   4.852
 4976SOL    HW115827   2.220   0.839   4.908
 4976SOL    HW215828   2.252   0.788   4.756
 4977SOL     OW15829   3.500   3.034   1.076
 4977SOL    HW115830   3.521   3.123   1.035
 4977SOL    HW215831   3.542   2.962   1.021
 4978SOL     OW15832   6.760   4.200   6.547
 4978SOL    HW115833   6.674   4.149   6.543
 4978SOL    HW215834   6.817   4.163   6.621
 4979SOL     OW15835   2.352   2.614   3.841
 4979SOL    HW115836   2.413   2.612   3.920
 4979SOL    HW215837   2.289   2.536   3.847
 4980SOL     OW15838   2.240   4.730   3.355
 4980SOL    HW115839   2.318   4.760   3.300
 4980SOL    HW215840   2.172   4.687   3.295
 4981SOL     OW15841   5.645   5.858   5.425
 4981SOL    HW115842   5.584   5.812   5.490
 4981SOL    HW215843   5.730   5.807   5.418
 4982SOL     OW15844   2.188   1.356   6.503
 4982SOL    HW115845   2.097   1.319   6.525
 4982SOL    HW215846   2.188   1.454   6.518
 4983SOL     OW15847   7.011   2.364   4.224
 4983SOL    HW115848   0.062   2.402   4.270
 4983SOL    HW215849   7.010   2.392   4.128
 4984SOL     OW15850   5.207   5.142   3.436
 4984SOL    HW115851   5.136   5.072   3.426
 4984SOL    HW215852   5.196   5.188   3.524
 4985SOL     OW15853   5.735   3.597   2.138
 4985SOL    HW115854   5.717   3.576   2.234
 4985SOL    HW215855   5.665   3.555   2.081
 4986SOL     OW15856   4.441   5.516   3.299
 4986SOL    HW115857   4.469   5.572   3.377
 4986SOL    HW215858   4.450   5.570   3.215
 4987SOL     OW15859   1.227   2.936   0.452
 4987SOL    HW115860   1.162   2.962   0.524
 4987SOL    HW215861   1.177   2.926   0.365
 4988SOL     OW15862   2.197   2.580   5.381
 4988SOL    HW115863   2.244   2.660   5.345
 4988SOL    HW215864   2.216   2.501   5.323
 4989SOL     OW15865   0.240   1.172   0.893
 4989SOL    HW115866   0.204   1.264   0.906
 4989SOL    HW215867   0.192   1.127   0.817
 4990SOL     OW15868   1.520   1.989   0.053
 4990SOL    HW115869   1.482   1.969   6.991
 4990SOL    HW215870   1.587   2.063   0.045
 4991SOL     OW15871   2.858   1.844   5.471
 4991SOL    HW115872   2.916   1.772   5.433
 4991SOL    HW215873   2.856   1.836   5.571
 4992SOL     OW15874   4.200   6.861   4.992
 4992SOL    HW115875   4.227   6.878   5.087
 4992SOL    HW215876   4.167   6.946   4.951
 4993SOL     OW15877   1.627   6.648   4.539
 4993SOL    HW115878   1.615   6.549   4.537
 4993SOL    HW215879   1.537   6.692   4.540
 4994SOL     OW15880   6.747   6.198   3.128
 4994SOL    HW115881   6.660   6.176   3.085
 4994SOL    HW215882   6.749   6.295   3.151
 4995SOL     OW15883   5.621   3.201   5.564
 4995SOL    HW115884   5.566   3.121   5.587
 4995SOL    HW215885   5.679   3.179   5.486
 4996SOL     OW15886   0.660   1.612   3.930
 4996SOL    HW115887   0.680   1.707   3.906
 4996SOL    HW215888   0.595   1.611   4.007
 4997SOL     OW15889   0.181   2.678   4.035
 4997SOL    HW115890   0.260   2.736   4.058
 4997SOL    HW215891   0.208   2.613   3.964
 4998SOL     OW15892   1.257   5.807   5.960
 4998SOL    HW115893   1.168   5.773   5.929
 4998SOL    HW215894   1.309   5.732   6.000
 4999SOL     OW15895   5.872   4.767   1.125
 4999SOL    HW115896   5.806   4.795   1.055
 4999SOL    HW215897   5.840   4.797   1.215
 5000SOL     OW15898   6.270   5.418   4.430
 5000SOL    HW115899   6.178   5.381   4.417
 5000SOL    HW215900   6.322   5.408   4.344
 5001SOL     OW15901   4.966   3.435   5.398
 5001SOL    HW115902   4.913   3.372   5.454
 5001SOL    HW215903   4.971   3.401   5.305
 5002SOL     OW15904   1.476   2.234   1.959
 5002SOL    HW115905   1.469   2.331   1.982
 5002SOL    HW215906   1.454   2.221   1.862
 5003SOL     OW15907   6.691   5.439   4.335
 5003SOL    HW115908   6.713   5.534   4.357
 5003SOL    HW215909   6.676   5.388   4.420
 5004SOL     OW15910   1.696   4.019   6.227
 5004SOL    HW115911   1.767   4.087   6.208
 5004SOL    HW215912   1.733   3.927   6.217
 5005SOL     OW15913   4.752   2.592   0.541
 5005SOL    HW115914   4.791   2.549   0.623
 5005SOL    HW215915   4.653   2.578   0.541
 5006SOL     OW15916   5.271   5.159   2.216
 5006SOL    HW115917   5.334   5.225   2.256
 5006SOL    HW215918   5.303   5.066   2.235
 5007SOL     OW15919   4.330   0.760   5.016
 5007SOL    HW115920   4.393   0.684   5.035
 5007SOL    HW215921   4.237   0.731   5.035
 5008SOL     OW15922   6.347   1.867   4.057
 5008SOL    HW115923   6.389   1.917   3.981
 5008SOL    HW215924   6.390   1.777   4.065
 5009SOL     OW15925   2.822   6.395   1.775
 5009SOL    HW115926   2.793   6.450   1.853
 5009SOL    HW215927   2.920   6.377   1.782
 5010SOL     OW15928   3.357   3.588   6.014
 5010SOL    HW115929   3.419   3.593   6.093
 5010SOL    HW215930   3.288   3.517   6.030
 5011SOL     OW15931   1.350   1.480   4.079
 5011SOL    HW115932   1.435   1.434   4.054
 5011SOL    HW215933   1.340   1.563   4.025
 5012SOL     OW15934   6.345   2.882   0.152
 5012SOL    HW115935   6.426   2.835   0.117
 5012SOL    HW215936   6.322   2.958   0.091
 5013SOL     OW15937   4.818   1.718   5.348
 5013SOL    HW115938   4.808   1.620   5.329
 5013SOL    HW215939   4.885   1.757   5.284
 5014SOL     OW15940   6.970   4.842   6.877
 5014SOL    HW115941   6.903   4.769   6.886
 5014SOL    HW215942   6.985   4.885   6.966
 5015SOL     OW15943   4.932   1.818   3.815
 5015SOL    HW115944   4.925   1.726   3.778
 5015SOL    HW215945   4.969   1.815   3.908
 5016SOL     OW15946   2.871   6.066   1.783
 5016SOL    HW115947   2.778   6.081   1.749
 5016SOL    HW215948   2.893   5.969   1.776
 5017SOL     OW15949   0.894   1.960   1.853
 5017SOL    HW115950   0.908   1.968   1.755
 5017SOL    HW215951   0.856   2.046   1.888
 5018SOL     OW15952   6.419   5.061   4.216
 5018SOL    HW115953   6.392   5.026   4.306
 5018SOL    HW215954   6.388   5.155   4.206
 5019SOL     OW15955   3.065   5.800   5.196
 5019SOL    HW115956   3.089   5.703   5.189
 5019SOL    HW215957   3.070   5.842   5.105
 5020SOL     OW15958   4.680   4.609   0.134
 5020SOL    HW115959   4.693   4.690   0.191
 5020SOL    HW215960   4.762   4.593   0.079
 5021SOL     OW15961   1.826   4.805   5.847
 5021SOL    HW115962   1.740   4.835   5.807
 5021SOL    HW215963   1.836   4.706   5.835
 5022SOL     OW15964   1.884   4.072   6.993
 5022SOL    HW115965   1.923   4.157   6.959
 5022SOL    HW215966   1.897   4.066   0.063
 5023SOL     OW15967   0.025   2.769   4.671
 5023SOL    HW115968   0.099   2.756   4.605
 5023SOL    HW215969   6.973   2.802   4.624
 5024SOL     OW15970   4.691   3.754   5.417
 5024SOL    HW115971   4.674   3.738   5.514
 5024SOL    HW215972   4.658   3.845   5.392
 5025SOL     OW15973   5.950   0.653   4.595
 5025SOL    HW115974   6.008   0.721   4.641
 5025SOL    HW215975   5.980   0.644   4.500
 5026SOL     OW15976   0.843   5.571   2.874
 5026SOL    HW115977   0.878   5.663   2.858
 5026SOL    HW215978   0.763   5.576   2.934
 5027SOL     OW15979   1.211   5.500   3.534
 5027SOL    HW115980   1.307   5.491   3.560
 5027SOL    HW215981   1.197   5.460   3.443
 5028SOL     OW15982   1.177   6.251   3.189
 5028SOL    HW115983   1.209   6.314   3.260
 5028SOL    HW215984   1.119   6.300   3.125
 5029SOL     OW15985   5.650   0.633   4.238
 5029SOL    HW115986   5.733   0.576   4.236
 5029SOL    HW215987   5.572   0.576   4.264
 5030SOL     OW15988   1.432   6.040   0.320
 5030SOL    HW115989   1.335   6.041   0.342
 5030SOL    HW215990   1.445   6.067   0.225
 5031SOL     OW15991   5.456   0.500   6.862
 5031SOL    HW115992   5.537   0.455   6.898
 5031SOL    HW215993   5.479   0.551   6.779
 5032SOL     OW15994   1.577   5.439   2.338
 5032SOL    HW115995   1.645   5.393   2.281
 5032SOL    HW215996   1.624   5.500   2.402
 5033SOL     OW15997   0.476   4.686   4.682
 5033SOL    HW115998   0.378   4.672   4.670
 5033SOL    HW215999   0.492   4.762   4.745
 5034SOL     OW16000   0.553   3.242   6.251
 5034SOL    HW116001   0.469   3.249   6.305
 5034SOL    HW216002   0.533   3.264   6.156
 5035SOL     OW16003   6.684   4.005   1.528
 5035SOL    HW116004   6.674   3.921   1.476
 5035SOL    HW216005   6.721   4.077   1.470
 5036SOL     OW16006   1.199   1.778   2.991
 5036SOL    HW116007   1.215   1.877   2.989
 5036SOL    HW216008   1.279   1.731   3.029
 5037SOL     OW16009   5.030   4.507   1.927
 5037SOL    HW116010   4.947   4.488   1.875
 5037SOL    HW216011   5.104   4.532   1.865
 5038SOL     OW16012   3.107   5.653   5.724
 5038SOL    HW116013   3.181   5.679   5.662
 5038SOL    HW216014   3.036   5.605   5.673
 5039SOL     OW16015   1.271   2.510   3.817
 5039SOL    HW116016   1.219   2.504   3.732
 5039SOL    HW216017   1.291   2.606   3.838
 5040SOL     OW16018   2.925   3.447   5.825
 5040SOL    HW116019   2.925   3.491   5.735
 5040SOL    HW216020   2.839   3.399   5.839
 5041SOL     OW16021   7.014   5.686   0.449
 5041SOL    HW116022   6.933   5.660   0.396
 5041SOL    HW216023   0.015   5.778   0.421
 5042SOL     OW16024   5.651   1.738   6.086
 5042SOL    HW116025   5.706   1.737   6.169
 5042SOL    HW216026   5.579   1.669   6.093
 5043SOL     OW16027   5.540   5.824   3.358
 5043SOL    HW116028   5.532   5.824   3.458
 5043SOL    HW216029   5.455   5.856   3.318
 5044SOL     OW16030   6.302   3.904   1.917
 5044SOL    HW116031   6.253   3.820   1.894
 5044SOL    HW216032   6.343   3.942   1.834
 5045SOL     OW16033   5.119   2.821   5.589
 5045SOL    HW116034   5.041   2.767   5.559
 5045SOL    HW216035   5.105   2.917   5.565
 5046SOL     OW16036   4.493   2.985   5.990
 5046SOL    HW116037   4.476   2.889   5.967
 5046SOL    HW216038   4.480   3.041   5.909
 5047SOL     OW16039   0.540   1.961   2.504
 5047SOL    HW116040   0.558   2.057   2.522
 5047SOL    HW216041   0.442   1.947   2.491
 5048SOL     OW16042   6.037   3.482   0.912
 5048SOL    HW116043   6.072   3.480   0.818
 5048SOL    HW216044   5.980   3.401   0.928
 5049SOL     OW16045   0.646   1.042   1.674
 5049SOL    HW116046   0.664   0.995   1.760
 5049SOL    HW216047   0.554   1.020   1.642
 5050SOL     OW16048   1.811   4.704   0.505
 5050SOL    HW116049   1.834   4.608   0.493
 5050SOL    HW216050   1.715   4.718   0.482
 5051SOL     OW16051   2.435   3.753   6.244
 5051SOL    HW116052   2.404   3.722   6.154
 5051SOL    HW216053   2.535   3.755   6.245
 5052SOL     OW16054   6.166   2.588   0.910
 5052SOL    HW116055   6.260   2.599   0.877
 5052SOL    HW216056   6.145   2.661   0.975
 5053SOL     OW16057   1.459   3.989   1.309
 5053SOL    HW116058   1.410   4.026   1.388
 5053SOL    HW216059   1.516   3.913   1.338
 5054SOL     OW16060   4.181   6.106   5.209
 5054SOL    HW116061   4.232   6.123   5.293
 5054SOL    HW216062   4.165   6.193   5.162
 5055SOL     OW16063   0.332   0.394   3.356
 5055SOL    HW116064   0.420   0.387   3.309
 5055SOL    HW216065   0.340   0.461   3.430
 5056SOL     OW16066   3.301   1.853   6.043
 5056SOL    HW116067   3.280   1.951   6.054
 5056SOL    HW216068   3.274   1.805   6.126
 5057SOL     OW16069   0.205   4.200   2.490
 5057SOL    HW116070   0.141   4.148   2.433
 5057SOL    HW216071   0.169   4.208   2.583
 5058SOL     OW16072   4.094   1.862   0.266
 5058SOL    HW116073   4.080   1.789   0.333
 5058SOL    HW216074   4.043   1.943   0.294
 5059SOL     OW16075   5.814   2.536   2.359
 5059SOL    HW116076   5.838   2.629   2.332
 5059SOL    HW216077   5.739   2.539   2.425
 5060SOL     OW16078   6.236   2.916   5.420
 5060SOL    HW116079   6.195   3.007   5.416
 5060SOL    HW216080   6.321   2.920   5.474
 5061SOL     OW16081   3.990   2.524   5.520
 5061SOL    HW116082   3.912   2.566   5.473
 5061SOL    HW216083   3.959   2.445   5.572
 5062SOL     OW16084   5.536   0.939   3.192
 5062SOL    HW116085   5.606   0.897   3.251
 5062SOL    HW216086   5.466   0.983   3.249
 5063SOL     OW16087   0.575   1.656   1.178
 5063SOL    HW116088   0.631   1.649   1.095
 5063SOL    HW216089   0.589   1.575   1.234
 5064SOL     OW16090   6.283   4.773   1.098
 5064SOL    HW116091   6.305   4.749   1.003
 5064SOL    HW216092   6.250   4.868   1.101
 5065SOL     OW16093   2.001   2.039   2.986
 5065SOL    HW116094   1.975   1.956   3.035
 5065SOL    HW216095   2.100   2.039   2.970
 5066SOL     OW16096   1.369   4.947   4.026
 5066SOL    HW116097   1.402   4.883   3.956
 5066SOL    HW216098   1.285   4.990   3.994
 5067SOL     OW16099   4.885   2.702   0.821
 5067SOL    HW116100   4.979   2.733   0.806
 5067SOL    HW216101   4.830   2.779   0.854
 5068SOL     OW16102   1.654   0.017   1.330
 5068SOL    HW116103   1.613   0.064   1.408
 5068SOL    HW216104   1.753   0.014   1.341
 5069SOL     OW16105   4.057   4.363   5.968
 5069SOL    HW116106   4.077   4.430   6.039
 5069SOL    HW216107   4.040   4.273   6.010
 5070SOL     OW16108   0.029   3.715   6.197
 5070SOL    HW116109   0.059   3.697   6.291
 5070SOL    HW216110   0.012   3.813   6.186
 5071SOL     OW16111   2.134   6.785   2.467
 5071SOL    HW116112   2.189   6.713   2.509
 5071SOL    HW216113   2.194   6.862   2.441
 5072SOL     OW16114   0.808   1.883   2.417
 5072SOL    HW116115   0.725   1.880   2.472
 5072SOL    HW216116   0.862   1.800   2.433
 5073SOL     OW16117   1.631   1.303   3.501
 5073SOL    HW116118   1.641   1.402   3.503
 5073SOL    HW216119   1.656   1.269   3.411
 5074SOL     OW16120   3.731   1.660   0.941
 5074SOL    HW116121   3.787   1.656   0.858
 5074SOL    HW216122   3.696   1.753   0.954
 5075SOL     OW16123   6.197   2.261   0.277
 5075SOL    HW116124   6.181   2.359   0.261
 5075SOL    HW216125   6.290   2.248   0.311
 5076SOL     OW16126   6.969   1.150   5.900
 5076SOL    HW116127   6.962   1.098   5.815
 5076SOL    HW216128   6.927   1.240   5.888
 5077SOL     OW16129   0.216   4.530   4.106
 5077SOL    HW116130   0.208   4.437   4.142
 5077SOL    HW216131   0.171   4.535   4.017
 5078SOL     OW16132   5.991   2.197   2.951
 5078SOL    HW116133   6.002   2.122   3.015
 5078SOL    HW216134   6.044   2.276   2.983
 5079SOL     OW16135   1.740   4.033   5.207
 5079SOL    HW116136   1.825   4.062   5.163
 5079SOL    HW216137   1.698   3.960   5.153
 5080SOL     OW16138   6.390   5.499   0.021
 5080SOL    HW116139   6.304   5.513   0.069
 5080SOL    HW216140   6.399   5.403   7.025
 5081SOL     OW16141   3.034   4.617   5.509
 5081SOL    HW116142   3.113   4.557   5.501
 5081SOL    HW216143   3.031   4.679   5.430
 5082SOL     OW16144   6.103   6.961   2.715
 5082SOL    HW116145   6.094   0.029   2.694
 5082SOL    HW216146   6.189   6.944   2.763
 5083SOL     OW16147   0.683   0.123   3.589
 5083SOL    HW116148   0.686   0.036   3.539
 5083SOL    HW216149   0.727   0.194   3.535
 5084SOL     OW16150   3.352   5.298   5.445
 5084SOL    HW116151   3.405   5.271   5.525
 5084SOL    HW216152   3.366   5.395   5.427
 5085SOL     OW16153   6.880   4.225   5.228
 5085SOL    HW116154   6.978   4.211   5.214
 5085SOL    HW216155   6.843   4.151   5.284
 5086SOL     OW16156   1.297   4.516   2.108
 5086SOL    HW116157   1.301   4.449   2.182
 5086SOL    HW216158   1.318   4.471   2.022
 5087SOL     OW16159   6.964   5.786   1.512
 5087SOL    HW116160   6.892   5.734   1.466
 5087SOL    HW216161   6.987   5.866   1.457
 5088SOL     OW16162   4.708   4.898   2.131
 5088SOL    HW116163   4.688   4.995   2.115
 5088SOL    HW216164   4.775   4.890   2.205
 5089SOL     OW16165   5.052   6.576   5.583
 5089SOL    HW116166   5.124   6.549   5.648
 5089SOL    HW216167   5.037   6.675   5.590
 5090SOL     OW16168   2.180   6.892   4.235
 5090SOL    HW116169   2.164   6.981   4.191
 5090SOL    HW216170   2.128   6.887   4.320
 5091SOL     OW16171   6.038   5.978   6.011
 5091SOL    HW116172   6.008   5.999   5.918
 5091SOL    HW216173   6.138   5.982   6.015
 5092SOL     OW16174   3.684   2.946   4.496
 5092SOL    HW116175   3.612   2.965   4.430
 5092SOL    HW216176   3.648   2.887   4.569
 5093SOL     OW16177   3.407   2.073   3.343
 5093SOL    HW116178   3.496   2.118   3.336
 5093SOL    HW216179   3.406   1.991   3.287
 5094SOL     OW16180   2.003   5.830   5.079
 5094SOL    HW116181   2.008   5.819   5.178
 5094SOL    HW216182   1.938   5.764   5.041
 5095SOL     OW16183   5.973   1.778   3.478
 5095SOL    HW116184   5.936   1.870   3.467
 5095SOL    HW216185   5.899   1.711   3.474
 5096SOL     OW16186   5.962   3.014   5.819
 5096SOL    HW116187   6.044   2.993   5.873
 5096SOL    HW216188   5.976   2.983   5.725
 5097SOL     OW16189   0.902   1.222   5.647
 5097SOL    HW116190   0.821   1.224   5.706
 5097SOL    HW216191   0.957   1.142   5.668
 5098SOL     OW16192   2.968   2.274   1.062
 5098SOL    HW116193   2.981   2.278   1.161
 5098SOL    HW216194   2.875   2.243   1.041
 5099SOL     OW16195   2.290   5.625   2.304
 5099SOL    HW116196   2.292   5.630   2.404
 5099SOL    HW216197   2.318   5.713   2.266
 5100SOL     OW16198   6.022   3.638   1.563
 5100SOL    HW116199   5.997   3.735   1.567
 5100SOL    HW216200   6.041   3.605   1.656
 5101SOL     OW16201   3.141   1.437   5.326
 5101SOL    HW116202   3.148   1.434   5.426
 5101SOL    HW216203   3.134   1.532   5.296
 5102SOL     OW16204   5.464   4.192   5.568
 5102SOL    HW116205   5.454   4.163   5.473
 5102SOL    HW216206   5.500   4.285   5.570
 5103SOL     OW16207   0.740   0.501   6.026
 5103SOL    HW116208   0.646   0.485   6.053
 5103SOL    HW216209   0.796   0.421   6.048
 5104SOL     OW16210   4.089   3.576   3.725
 5104SOL    HW116211   4.016   3.524   3.681
 5104SOL    HW216212   4.133   3.635   3.657
 5105SOL     OW16213   4.439   3.284   6.897
 5105SOL    HW116214   4.488   3.365   6.864
 5105SOL    HW216215   4.457   3.271   6.994
 5106SOL     OW16216   3.890   1.328   1.493
 5106SOL    HW116217   3.891   1.426   1.516
 5106SOL    HW216218   3.905   1.317   1.395
 5107SOL     OW16219   6.401   4.935   6.946
 5107SOL    HW116220   6.413   4.847   6.901
 5107SOL    HW216221   6.354   4.922   0.005
 5108SOL     OW16222   3.987   4.179   0.954
 5108SOL    HW116223   3.990   4.079   0.959
 5108SOL    HW216224   3.996   4.217   1.046
 5109SOL     OW16225   2.125   2.505   2.411
 5109SOL    HW116226   2.059   2.435   2.386
 5109SOL    HW216227   2.192   2.516   2.338
 5110SOL     OW16228   3.753   6.551   4.519
 5110SOL    HW116229   3.801   6.477   4.471
 5110SOL    HW216230   3.658   6.553   4.490
 5111SOL     OW16231   2.114   5.240   5.543
 5111SOL    HW116232   2.027   5.226   5.497
 5111SOL    HW216233   2.185   5.188   5.496
 5112SOL     OW16234   1.073   4.560   2.493
 5112SOL    HW116235   1.102   4.474   2.534
 5112SOL    HW216236   1.012   4.542   2.416
 5113SOL     OW16237   2.762   4.184   0.881
 5113SOL    HW116238   2.698   4.242   0.933
 5113SOL    HW216239   2.711   4.135   0.809
 5114SOL     OW16240   4.757   4.654   1.642
 5114SOL    HW116241   4.743   4.609   1.731
 5114SOL    HW216242   4.675   4.708   1.619
 5115SOL     OW16243   1.303   4.696   0.598
 5115SOL    HW116244   1.332   4.716   0.692
 5115SOL    HW216245   1.380   4.707   0.536
 5116SOL     OW16246   0.251   6.594   5.723
 5116SOL    HW116247   0.224   6.668   5.660
 5116SOL    HW216248   0.290   6.634   5.806
 5117SOL     OW16249   6.959   3.459   3.638
 5117SOL    HW116250   6.913   3.547   3.648
 5117SOL    HW216251   6.972   3.439   3.541
 5118SOL     OW16252   3.994   5.020   0.042
 5118SOL    HW116253   4.057   5.068   0.102
 5118SOL    HW216254   4.006   4.921   0.052
 5119SOL     OW16255   5.223   1.610   0.769
 5119SOL    HW116256   5.269   1.553   0.837
 5119SOL    HW216257   5.213   1.558   0.684
 5120SOL     OW16258   5.882   6.579   6.037
 5120SOL    HW116259   5.843   6.538   6.119
 5120SOL    HW216260   5.833   6.547   5.956
 5121SOL     OW16261   1.477   3.435   0.460
 5121SOL    HW116262   1.441   3.529   0.454
 5121SOL    HW216263   1.401   3.370   0.449
 5122SOL     OW16264   4.809   5.103   3.548
 5122SOL    HW116265   4.831   5.193   3.510
 5122SOL    HW216266   4.710   5.090   3.548
 5123SOL     OW16267   5.116   2.434   1.335
 5123SOL    HW116268   5.207   2.471   1.313
 5123SOL    HW216269   5.103   2.348   1.287
 5124SOL     OW16270   0.319   5.812   4.554
 5124SOL    HW116271   0.328   5.766   4.643
 5124SOL    HW216272   0.321   5.744   4.481
 5125SOL     OW16273   5.711   2.264   3.829
 5125SOL    HW116274   5.640   2.275   3.898
 5125SOL    HW216275   5.800   2.260   3.874
 5126SOL     OW16276   1.840   1.331   1.481
 5126SOL    HW116277   1.920   1.350   1.538
 5126SOL    HW216278   1.865   1.266   1.409
 5127SOL     OW16279   1.742   6.879   6.930
 5127SOL    HW116280   1.644   6.879   6.950
 5127SOL    HW216281   1.791   6.921   7.006
 5128SOL     OW16282   4.484   6.665   1.293
 5128SOL    HW116283   4.480   6.755   1.336
 5128SOL    HW216284   4.402   6.651   1.237
 5129SOL     OW16285   6.135   5.586   0.184
 5129SOL    HW116286   6.074   5.511   0.159
 5129SOL    HW216287   6.176   5.567   0.273
 5130SOL     OW16288   6.378   5.418   1.940
 5130SOL    HW116289   6.396   5.487   1.870
 5130SOL    HW216290   6.344   5.463   2.023
 5131SOL     OW16291   2.688   2.374   2.281
 5131SOL    HW116292   2.717   2.398   2.188
 5131SOL    HW216293   2.613   2.434   2.309
 5132SOL     OW16294   1.897   6.027   5.654
 5132SOL    HW116295   1.810   6.074   5.642
 5132SOL    HW216296   1.948   6.027   5.567
 5133SOL     OW16297   3.717   6.649   4.753
 5133SOL    HW116298   3.793   6.673   4.814
 5133SOL    HW216299   3.753   6.611   4.668
 5134SOL     OW16300   0.358   3.206   6.433
 5134SOL    HW116301   0.273   3.174   6.475
 5134SOL    HW216302   0.435   3.183   6.493
 5135SOL     OW16303   6.887   1.887   4.128
 5135SOL    HW116304   6.867   1.834   4.211
 5135SOL    HW216305   6.874   1.984   4.147
 5136SOL     OW16306   3.427   1.821   6.460
 5136SOL    HW116307   3.453   1.729   6.491
 5136SOL    HW216308   3.508   1.868   6.425
 5137SOL     OW16309   3.735   3.349   6.913
 5137SOL    HW116310   3.662   3.389   6.968
 5137SOL    HW216311   3.737   3.394   6.823
 5138SOL     OW16312   2.360   3.081   6.001
 5138SOL    HW116313   2.353   3.130   5.914
 5138SOL    HW216314   2.436   3.119   6.054
 5139SOL     OW16315   0.674   6.547   3.952
 5139SOL    HW116316   0.577   6.530   3.972
 5139SOL    HW216317   0.692   6.530   3.855
 5140SOL     OW16318   3.157   3.116   1.946
 5140SOL    HW116319   3.168   3.148   1.852
 5140SOL    HW216320   3.191   3.022   1.953
 5141SOL     OW16321   1.079   3.704   5.542
 5141SOL    HW116322   1.127   3.787   5.514
 5141SOL    HW216323   1.056   3.650   5.461
 5142SOL     OW16324   5.583   3.450   1.967
 5142SOL    HW116325   5.644   3.373   1.986
 5142SOL    HW216326   5.489   3.416   1.956
 5143SOL     OW16327   6.620   4.964   5.773
 5143SOL    HW116328   6.538   4.936   5.822
 5143SOL    HW216329   6.671   5.029   5.830
 5144SOL     OW16330   1.670   1.740   5.120
 5144SOL    HW116331   1.763   1.760   5.089
 5144SOL    HW216332   1.673   1.662   5.183
 5145SOL     OW16333   3.854   5.776   5.904
 5145SOL    HW116334   3.893   5.689   5.875
 5145SOL    HW216335   3.799   5.761   5.986
 5146SOL     OW16336   3.240   4.804   1.108
 5146SOL    HW116337   3.213   4.854   1.026
 5146SOL    HW216338   3.159   4.782   1.162
 5147SOL     OW16339   0.086   5.275   6.552
 5147SOL    HW116340   0.175   5.305   6.518
 5147SOL    HW216341   0.088   5.176   6.567
 5148SOL     OW16342   0.282   0.644   1.579
 5148SOL    HW116343   0.271   0.548   1.552
 5148SOL    HW216344   0.319   0.649   1.672
 5149SOL     OW16345   6.699   0.372   5.809
 5149SOL    HW116346   6.761   0.445   5.838
 5149SOL    HW216347   6.732   0.285   5.846
 5150SOL     OW16348   2.390   5.739   5.390
 5150SOL    HW116349   2.445   5.809   5.435
 5150SOL    HW216350   2.389   5.656   5.447
 5151SOL     OW16351   4.168   0.471   5.437
 5151SOL    HW116352   4.102   0.507   5.503
 5151SOL    HW216353   4.141   0.378   5.411
 5152SOL     OW16354   0.069   5.002   6.640
 5152SOL    HW116355   0.018   4.957   6.567
 5152SOL    HW216356   0.058   4.950   6.725
 5153SOL     OW16357   2.321   2.674   0.946
 5153SOL    HW116358   2.322   2.727   0.861
 5153SOL    HW216359   2.362   2.728   1.019
 5154SOL     OW16360   1.440   4.566   4.911
 5154SOL    HW116361   1.412   4.504   4.984
 5154SOL    HW216362   1.361   4.616   4.876
 5155SOL     OW16363   4.180   0.563   2.488
 5155SOL    HW116364   4.114   0.496   2.521
 5155SOL    HW216365   4.251   0.517   2.435
 5156SOL     OW16366   5.375   3.398   6.116
 5156SOL    HW116367   5.358   3.303   6.093
 5156SOL    HW216368   5.342   3.457   6.043
 5157SOL     OW16369   5.945   1.950   3.863
 5157SOL    HW116370   5.996   1.929   3.946
 5157SOL    HW216371   5.856   1.903   3.866
 5158SOL     OW16372   3.623   0.697   1.454
 5158SOL    HW116373   3.566   0.616   1.442
 5158SOL    HW216374   3.655   0.702   1.548
 5159SOL     OW16375   2.173   3.430   4.979
 5159SOL    HW116376   2.079   3.465   4.982
 5159SOL    HW216377   2.217   3.444   5.068
 5160SOL     OW16378   2.533   2.545   4.032
 5160SOL    HW116379   2.585   2.506   3.956
 5160SOL    HW216380   2.544   2.487   4.113
 5161SOL     OW16381   1.799   3.496   6.838
 5161SOL    HW116382   1.745   3.476   6.920
 5161SOL    HW216383   1.844   3.585   6.849
 5162SOL     OW16384   6.567   5.458   4.741
 5162SOL    HW116385   6.587   5.408   4.657
 5162SOL    HW216386   6.633   5.430   4.812
 5163SOL     OW16387   5.505   4.181   0.826
 5163SOL    HW116388   5.421   4.216   0.868
 5163SOL    HW216389   5.528   4.092   0.865
 5164SOL     OW16390   6.428   6.022   4.768
 5164SOL    HW116391   6.344   5.969   4.773
 5164SOL    HW216392   6.406   6.119   4.759
 5165SOL     OW16393   5.835   3.656   5.011
 5165SOL    HW116394   5.854   3.750   5.040
 5165SOL    HW216395   5.809   3.655   4.915
 5166SOL     OW16396   0.870   6.877   2.761
 5166SOL    HW116397   0.943   6.862   2.827
 5166SOL    HW216398   0.907   6.872   2.668
 5167SOL     OW16399   1.875   0.301   5.360
 5167SOL    HW116400   1.948   0.235   5.376
 5167SOL    HW216401   1.792   0.271   5.407
 5168SOL     OW16402   3.341   2.153   2.482
 5168SOL    HW116403   3.320   2.102   2.398
 5168SOL    HW216404   3.309   2.248   2.471
 5169SOL     OW16405   3.856   5.198   6.479
 5169SOL    HW116406   3.807   5.284   6.468
 5169SOL    HW216407   3.801   5.122   6.442
 5170SOL     OW16408   4.284   5.196   4.138
 5170SOL    HW116409   4.257   5.206   4.234
 5170SOL    HW216410   4.381   5.174   4.133
 5171SOL     OW16411   2.724   4.709   5.276
 5171SOL    HW116412   2.723   4.625   5.330
 5171SOL    HW216413   2.773   4.693   5.190
 5172SOL     OW16414   1.990   4.092   6.632
 5172SOL    HW116415   1.904   4.141   6.622
 5172SOL    HW216416   2.066   4.155   6.617
 5173SOL     OW16417   0.245   2.722   4.517
 5173SOL    HW116418   0.275   2.787   4.448
 5173SOL    HW216419   0.321   2.702   4.580
 5174SOL     OW16420   2.617   4.851   7.019
 5174SOL    HW116421   2.520   4.873   7.012
 5174SOL    HW216422   2.660   4.862   6.930
 5175SOL     OW16423   0.052   5.554   6.625
 5175SOL    HW116424   0.068   5.580   6.720
 5175SOL    HW216425   0.029   5.457   6.620
 5176SOL     OW16426   5.691   3.638   6.201
 5176SOL    HW116427   5.605   3.672   6.239
 5176SOL    HW216428   5.728   3.706   6.137
 5177SOL     OW16429   5.181   5.136   5.658
 5177SOL    HW116430   5.086   5.106   5.656
 5177SOL    HW216431   5.216   5.130   5.752
 5178SOL     OW16432   3.084   4.210   0.468
 5178SOL    HW116433   3.169   4.250   0.501
 5178SOL    HW216434   3.103   4.150   0.391
 5179SOL     OW16435   3.279   6.271   5.204
 5179SOL    HW116436   3.222   6.268   5.122
 5179SOL    HW216437   3.279   6.182   5.248
 5180SOL     OW16438   4.713   1.627   0.058
 5180SOL    HW116439   4.645   1.568   0.102
 5180SOL    HW216440   4.804   1.586   0.069
 5181SOL     OW16441   3.163   6.185   2.501
 5181SOL    HW116442   3.110   6.163   2.419
 5181SOL    HW216443   3.195   6.100   2.544
 5182SOL     OW16444   4.641   4.214   1.227
 5182SOL    HW116445   4.628   4.277   1.303
 5182SOL    HW216446   4.611   4.258   1.142
 5183SOL     OW16447   3.481   0.305   3.816
 5183SOL    HW116448   3.515   0.335   3.727
 5183SOL    HW216449   3.412   0.369   3.849
 5184SOL     OW16450   0.703   2.637   3.398
 5184SOL    HW116451   0.773   2.702   3.368
 5184SOL    HW216452   0.688   2.570   3.325
 5185SOL     OW16453   4.151   6.803   1.603
 5185SOL    HW116454   4.074   6.763   1.553
 5185SOL    HW216455   4.148   6.903   1.593
 5186SOL     OW16456   5.529   4.365   6.722
 5186SOL    HW116457   5.490   4.395   6.635
 5186SOL    HW216458   5.588   4.287   6.708
 5187SOL     OW16459   4.859   3.012   4.544
 5187SOL    HW116460   4.854   2.984   4.640
 5187SOL    HW216461   4.889   3.107   4.539
 5188SOL     OW16462   0.261   1.038   3.742
 5188SOL    HW116463   0.334   1.029   3.674
 5188SOL    HW216464   0.302   1.046   3.833
 5189SOL     OW16465   4.704   5.602   5.698
 5189SOL    HW116466   4.622   5.633   5.651
 5189SOL    HW216467   4.731   5.670   5.766
 5190SOL     OW16468   2.425   2.474   2.061
 5190SOL    HW116469   2.413   2.466   2.160
 5190SOL    HW216470   2.404   2.568   2.033
 5191SOL     OW16471   4.763   0.457   2.319
 5191SOL    HW116472   4.731   0.552   2.313
 5191SOL    HW216473   4.737   0.408   2.236
 5192SOL     OW16474   6.316   4.040   1.359
 5192SOL    HW116475   6.296   3.945   1.382
 5192SOL    HW216476   6.235   4.097   1.379
 5193SOL     OW16477   3.833   4.819   2.402
 5193SOL    HW116478   3.767   4.761   2.354
 5193SOL    HW216479   3.786   4.895   2.445
 5194SOL     OW16480   5.064   0.811   0.643
 5194SOL    HW116481   5.067   0.775   0.550
 5194SOL    HW216482   5.070   0.735   0.708
 5195SOL     OW16483   0.728   5.975   5.113
 5195SOL    HW116484   0.762   5.947   5.023
 5195SOL    HW216485   0.635   6.011   5.104
 5196SOL     OW16486   0.367   3.813   3.519
 5196SOL    HW116487   0.346   3.864   3.602
 5196SOL    HW216488   0.402   3.876   3.449
 5197SOL     OW16489   3.945   5.954   5.208
 5197SOL    HW116490   4.030   6.000   5.235
 5197SOL    HW216491   3.891   6.014   5.149
 5198SOL     OW16492   4.374   0.987   5.509
 5198SOL    HW116493   4.294   1.010   5.565
 5198SOL    HW216494   4.343   0.959   5.418
 5199SOL     OW16495   0.767   5.730   1.813
 5199SOL    HW116496   0.840   5.762   1.753
 5199SOL    HW216497   0.784   5.635   1.838
 5200SOL     OW16498   5.983   6.675   5.206
 5200SOL    HW116499   5.911   6.737   5.236
 5200SOL    HW216500   5.972   6.587   5.252
 5201SOL     OW16501   6.735   4.013   5.408
 5201SOL    HW116502   6.653   4.064   5.436
 5201SOL    HW216503   6.812   4.041   5.465
 5202SOL     OW16504   3.668   2.184   5.870
 5202SOL    HW116505   3.669   2.090   5.836
 5202SOL    HW216506   3.574   2.211   5.891
 5203SOL     OW16507   0.950   0.486   6.333
 5203SOL    HW116508   0.998   0.571   6.313
 5203SOL    HW216509   1.006   0.431   6.395
 5204SOL     OW16510   1.926   0.611   1.641
 5204SOL    HW116511   1.874   0.672   1.582
 5204SOL    HW216512   2.019   0.602   1.606
 5205SOL     OW16513   6.738   0.092   2.380
 5205SOL    HW116514   6.819   0.148   2.399
 5205SOL    HW216515   6.749   0.002   2.422
 5206SOL     OW16516   1.069   5.045   4.978
 5206SOL    HW116517   0.983   5.094   4.993
 5206SOL    HW216518   1.050   4.947   4.974
 5207SOL     OW16519   4.570   0.572   4.994
 5207SOL    HW116520   4.591   0.663   4.957
 5207SOL    HW216521   4.638   0.507   4.961
 5208SOL     OW16522   6.692   1.510   0.279
 5208SOL    HW116523   6.642   1.439   0.229
 5208SOL    HW216524   6.643   1.597   0.270
 5209SOL     OW16525   5.026   6.304   2.361
 5209SOL    HW116526   5.002   6.382   2.419
 5209SOL    HW216527   4.990   6.319   2.269
 5210SOL     OW16528   6.136   4.216   1.427
 5210SOL    HW116529   6.113   4.313   1.414
 5210SOL    HW216530   6.140   4.196   1.525
 5211SOL     OW16531   5.534   3.058   4.975
 5211SOL    HW116532   5.596   2.986   4.946
 5211SOL    HW216533   5.490   3.099   4.895
 5212SOL     OW16534   6.668   3.542   6.683
 5212SOL    HW116535   6.678   3.448   6.649
 5212SOL    HW216536   6.590   3.547   6.745
 5213SOL     OW16537   3.706   3.309   3.447
 5213SOL    HW116538   3.740   3.365   3.371
 5213SOL    HW216539   3.750   3.219   3.443
 5214SOL     OW16540   5.202   3.072   6.102
 5214SOL    HW116541   5.217   3.035   6.011
 5214SOL    HW216542   5.266   3.031   6.166
 5215SOL     OW16543   0.129   5.216   4.713
 5215SOL    HW116544   0.220   5.179   4.695
 5215SOL    HW216545   0.138   5.300   4.767
 5216SOL     OW16546   6.454   4.270   0.875
 5216SOL    HW116547   6.491   4.329   0.947
 5216SOL    HW216548   6.485   4.303   0.786
 5217SOL     OW16549   3.317   0.015   2.558
 5217SOL    HW116550   3.414   0.023   2.579
 5217SOL    HW216551   3.274   6.981   2.622
 5218SOL     OW16552   6.426   0.344   0.508
 5218SOL    HW116553   6.349   0.385   0.557
 5218SOL    HW216554   6.433   0.385   0.417
 5219SOL     OW16555   4.381   1.848   4.895
 5219SOL    HW116556   4.466   1.808   4.864
 5219SOL    HW216557   4.304   1.808   4.845
 5220SOL     OW16558   1.839   4.844   4.645
 5220SOL    HW116559   1.784   4.761   4.637
 5220SOL    HW216560   1.786   4.923   4.613
 5221SOL     OW16561   4.611   5.960   0.942
 5221SOL    HW116562   4.562   5.972   1.028
 5221SOL    HW216563   4.598   5.867   0.908
 5222SOL     OW16564   6.565   3.309   2.236
 5222SOL    HW116565   6.659   3.277   2.230
 5222SOL    HW216566   6.518   3.294   2.149
 5223SOL     OW16567   0.137   2.552   0.927
 5223SOL    HW116568   0.102   2.474   0.875
 5223SOL    HW216569   0.158   2.523   1.021
 5224SOL     OW16570   1.569   1.210   4.618
 5224SOL    HW116571   1.654   1.262   4.627
 5224SOL    HW216572   1.532   1.223   4.525
 5225SOL     OW16573   6.907   2.230   6.286
 5225SOL    HW116574   7.005   2.233   6.266
 5225SOL    HW216575   6.867   2.151   6.241
 5226SOL     OW16576   0.079   6.745   4.009
 5226SOL    HW116577   7.023   6.719   3.963
 5226SOL    HW216578   0.088   6.844   4.010
 5227SOL     OW16579   1.588   2.603   6.195
 5227SOL    HW116580   1.613   2.529   6.132
 5227SOL    HW216581   1.601   2.571   6.289
 5228SOL     OW16582   1.079   2.214   5.308
 5228SOL    HW116583   1.032   2.151   5.247
 5228SOL    HW216584   1.170   2.235   5.271
 5229SOL     OW16585   3.923   1.401   0.058
 5229SOL    HW116586   3.944   1.305   0.080
 5229SOL    HW216587   3.824   1.413   0.051
 5230SOL     OW16588   6.763   0.503   2.139
 5230SOL    HW116589   6.766   0.403   2.129
 5230SOL    HW216590   6.843   0.543   2.095
 5231SOL     OW16591   5.984   3.348   1.931
 5231SOL    HW116592   6.070   3.399   1.935
 5231SOL    HW216593   5.934   3.376   1.849
 5232SOL     OW16594   1.915   1.609   5.916
 5232SOL    HW116595   1.841   1.567   5.970
 5232SOL    HW216596   1.946   1.693   5.961
 5233SOL     OW16597   2.576   0.137   3.244
 5233SOL    HW116598   2.551   0.216   3.300
 5233SOL    HW216599   2.590   0.058   3.304
 5234SOL     OW16600   3.070   2.545   6.622
 5234SOL    HW116601   3.018   2.556   6.537
 5234SOL    HW216602   3.073   2.448   6.647
 5235SOL     OW16603   2.220   2.890   1.579
 5235SOL    HW116604   2.173   2.806   1.552
 5235SOL    HW216605   2.166   2.969   1.552
 5236SOL     OW16606   3.091   4.888   2.281
 5236SOL    HW116607   3.090   4.865   2.184
 5236SOL    HW216608   3.010   4.851   2.326
 5237SOL     OW16609   1.571   1.732   1.924
 5237SOL    HW116610   1.574   1.826   1.958
 5237SOL    HW216611   1.490   1.721   1.866
 5238SOL     OW16612   5.989   0.726   3.198
 5238SOL    HW116613   6.025   0.640   3.235
 5238SOL    HW216614   6.014   0.734   3.102
 5239SOL     OW16615   2.802   4.177   0.092
 5239SOL    HW116616   2.889   4.182   0.043
 5239SOL    HW216617   2.729   4.211   0.034
 5240SOL     OW16618   1.836   4.151   5.694
 5240SOL    HW116619   1.933   4.142   5.670
 5240SOL    HW216620   1.781   4.108   5.622
 5241SOL     OW16621   2.227   5.812   3.540
 5241SOL    HW116622   2.147   5.767   3.581
 5241SOL    HW216623   2.204   5.907   3.520
 5242SOL     OW16624   4.301   6.056   5.471
 5242SOL    HW116625   4.360   6.051   5.551
 5242SOL    HW216626   4.207   6.075   5.500
 5243SOL     OW16627   2.034   5.985   3.847
 5243SOL    HW116628   2.056   5.988   3.944
 5243SOL    HW216629   1.950   5.932   3.833
 5244SOL     OW16630   5.274   1.298   6.220
 5244SOL    HW116631   5.224   1.364   6.163
 5244SOL    HW216632   5.341   1.346   6.276
 5245SOL     OW16633   3.211   4.093   2.279
 5245SOL    HW116634   3.146   4.017   2.268
 5245SOL    HW216635   3.164   4.179   2.260
 5246SOL     OW16636   6.262   3.200   5.722
 5246SOL    HW116637   6.244   3.116   5.774
 5246SOL    HW216638   6.331   3.255   5.770
 5247SOL     OW16639   4.763   1.085   6.054
 5247SOL    HW116640   4.668   1.098   6.027
 5247SOL    HW216641   4.798   1.170   6.093
 5248SOL     OW16642   4.499   1.223   2.714
 5248SOL    HW116643   4.406   1.189   2.724
 5248SOL    HW216644   4.509   1.270   2.626
 5249SOL     OW16645   0.358   5.674   1.671
 5249SOL    HW116646   0.359   5.581   1.634
 5249SOL    HW216647   0.270   5.692   1.715
 5250SOL     OW16648   1.639   5.138   0.609
 5250SOL    HW116649   1.589   5.090   0.537
 5250SOL    HW216650   1.729   5.165   0.576
 5251SOL     OW16651   0.985   4.673   6.538
 5251SOL    HW116652   1.035   4.689   6.623
 5251SOL    HW216653   0.921   4.748   6.521
 5252SOL     OW16654   3.625   5.766   3.100
 5252SOL    HW116655   3.718   5.745   3.069
 5252SOL    HW216656   3.616   5.865   3.111
 5253SOL     OW16657   0.160   5.878   4.908
 5253SOL    HW116658   0.225   5.803   4.898
 5253SOL    HW216659   0.068   5.845   4.884
 5254SOL     OW16660   4.697   6.205   2.132
 5254SOL    HW116661   4.607   6.164   2.145
 5254SOL    HW216662   4.766   6.134   2.125
 5255SOL     OW16663   0.461   1.522   6.368
 5255SOL    HW116664   0.555   1.554   6.351
 5255SOL    HW216665   0.455   1.483   6.459
 5256SOL     OW16666   4.209   2.257   2.910
 5256SOL    HW116667   4.246   2.311   2.985
 5256SOL    HW216668   4.193   2.163   2.941
 5257SOL     OW16669   5.374   1.674   6.971
 5257SOL    HW116670   5.397   1.609   6.898
 5257SOL    HW216671   5.458   1.711   7.010
 5258SOL     OW16672   5.514   1.574   5.193
 5258SOL    HW116673   5.535   1.632   5.115
 5258SOL    HW216674   5.571   1.492   5.190
 5259SOL     OW16675   4.927   5.814   4.098
 5259SOL    HW116676   4.871   5.861   4.030
 5259SOL    HW216677   4.872   5.743   4.143
 5260SOL     OW16678   1.597   6.446   1.476
 5260SOL    HW116679   1.549   6.453   1.388
 5260SOL    HW216680   1.535   6.475   1.549
 5261SOL     OW16681   5.984   4.959   0.236
 5261SOL    HW116682   5.985   4.860   0.250
 5261SOL    HW216683   5.989   5.005   0.325
 5262SOL     OW16684   2.346   2.339   1.343
 5262SOL    HW116685   2.301   2.377   1.424
 5262SOL    HW216686   2.409   2.267   1.371
 5263SOL     OW16687   0.874   6.159   3.166
 5263SOL    HW116688   0.956   6.206   3.136
 5263SOL    HW216689   0.837   6.205   3.247
 5264SOL     OW16690   6.762   2.346   2.406
 5264SOL    HW116691   6.772   2.339   2.505
 5264SOL    HW216692   6.666   2.335   2.381
 5265SOL     OW16693   0.568   5.367   5.990
 5265SOL    HW116694   0.627   5.297   5.950
 5265SOL    HW216695   0.613   5.406   6.070
 5266SOL     OW16696   1.738   0.025   6.416
 5266SOL    HW116697   1.725   6.955   6.407
 5266SOL    HW216698   1.760   0.064   6.327
 5267SOL     OW16699   6.244   1.002   4.892
 5267SOL    HW116700   6.335   0.993   4.932
 5267SOL    HW216701   6.194   0.917   4.905
 5268SOL     OW16702   6.051   6.813   5.999
 5268SOL    HW116703   6.022   6.738   6.060
 5268SOL    HW216704   5.973   6.843   5.944
 5269SOL     OW16705   1.028   0.544   4.392
 5269SOL    HW116706   1.091   0.469   4.411
 5269SOL    HW216707   1.056   0.625   4.444
 5270SOL     OW16708   1.246   1.487   0.356
 5270SOL    HW116709   1.305   1.439   0.421
 5270SOL    HW216710   1.302   1.550   0.301
 5271SOL     OW16711   1.568   5.794   6.138
 5271SOL    HW116712   1.504   5.719   6.122
 5271SOL    HW216713   1.635   5.767   6.207
 5272SOL     OW16714   4.284   0.312   6.285
 5272SOL    HW116715   4.372   0.321   6.331
 5272SOL    HW216716   4.221   0.260   6.343
 5273SOL     OW16717   2.191   1.496   3.389
 5273SOL    HW116718   2.230   1.565   3.451
 5273SOL    HW216719   2.143   1.427   3.443
 5274SOL     OW16720   5.638   4.221   1.281
 5274SOL    HW116721   5.728   4.195   1.248
 5274SOL    HW216722   5.608   4.304   1.233
 5275SOL     OW16723   5.889   0.770   6.241
 5275SOL    HW116724   5.811   0.794   6.184
 5275SOL    HW216725   5.859   0.712   6.317
 5276SOL     OW16726   3.615   6.574   1.476
 5276SOL    HW116727   3.620   6.479   1.445
 5276SOL    HW216728   3.595   6.634   1.399
 5277SOL     OW16729   1.920   3.694   1.761
 5277SOL    HW116730   1.933   3.777   1.707
 5277SOL    HW216731   1.877   3.624   1.704
 5278SOL     OW16732   3.952   3.624   3.019
 5278SOL    HW116733   4.022   3.637   2.949
 5278SOL    HW216734   3.870   3.676   2.995
 5279SOL     OW16735   1.318   6.563   3.111
 5279SOL    HW116736   1.372   6.500   3.055
 5279SOL    HW216737   1.253   6.611   3.053
 5280SOL     OW16738   3.798   0.452   3.917
 5280SOL    HW116739   3.778   0.395   3.997
 5280SOL    HW216740   3.865   0.406   3.859
 5281SOL     OW16741   6.220   2.869   3.969
 5281SOL    HW116742   6.297   2.821   4.010
 5281SOL    HW216743   6.215   2.961   4.006
 5282SOL     OW16744   4.870   2.531   1.252
 5282SOL    HW116745   4.830   2.441   1.239
 5282SOL    HW216746   4.966   2.522   1.277
 5283SOL     OW16747   4.739   5.152   5.488
 5283SOL    HW116748   4.642   5.153   5.466
 5283SOL    HW216749   4.757   5.216   5.563
 5284SOL     OW16750   5.035   2.675   4.425
 5284SOL    HW116751   5.112   2.732   4.454
 5284SOL    HW216752   4.953   2.731   4.418
 5285SOL     OW16753   4.435   6.122   2.172
 5285SOL    HW116754   4.399   6.051   2.232
 5285SOL    HW216755   4.360   6.161   2.118
 5286SOL     OW16756   1.922   4.936   2.469
 5286SOL    HW116757   2.020   4.946   2.490
 5286SOL    HW216758   1.869   4.990   2.535
 5287SOL     OW16759   1.208   0.517   2.461
 5287SOL    HW116760   1.137   0.565   2.513
 5287SOL    HW216761   1.285   0.497   2.521
 5288SOL     OW16762   3.938   0.570   1.070
 5288SOL    HW116763   3.995   0.649   1.048
 5288SOL    HW216764   3.966   0.492   1.014
 5289SOL     OW16765   2.148   6.705   1.385
 5289SOL    HW116766   2.185   6.762   1.459
 5289SOL    HW216767   2.129   6.613   1.421
 5290SOL     OW16768   5.959   6.386   6.592
 5290SOL    HW116769   5.899   6.330   6.650
 5290SOL    HW216770   5.903   6.441   6.529
 5291SOL     OW16771   0.822   5.852   0.144
 5291SOL    HW116772   0.768   5.862   0.227
 5291SOL    HW216773   0.781   5.782   0.085
 5292SOL     OW16774   5.921   1.669   1.439
 5292SOL    HW116775   5.894   1.573   1.429
 5292SOL    HW216776   5.985   1.678   1.515
 5293SOL     OW16777   1.632   1.179   4.248
 5293SOL    HW116778   1.621   1.270   4.288
 5293SOL    HW216779   1.696   1.126   4.303
 5294SOL     OW16780   3.576   1.738   6.706
 5294SOL    HW116781   3.631   1.753   6.788
 5294SOL    HW216782   3.555   1.825   6.663
 5295SOL     OW16783   6.995   1.864   3.631
 5295SOL    HW116784   0.049   1.828   3.589
 5295SOL    HW216785   6.933   1.897   3.560
 5296SOL     OW16786   0.354   2.697   6.869
 5296SOL    HW116787   0.355   2.760   6.947
 5296SOL    HW216788   0.446   2.661   6.854
 5297SOL     OW16789   1.169   1.966   1.890
 5297SOL    HW116790   1.071   1.976   1.875
 5297SOL    HW216791   1.192   1.993   1.983
 5298SOL     OW16792   1.350   4.226   1.956
 5298SOL    HW116793   1.397   4.144   1.988
 5298SOL    HW216794   1.417   4.296   1.931
 5299SOL     OW16795   4.034   0.007   6.928
 5299SOL    HW116796   4.114   0.034   6.981
 5299SOL    HW216797   4.024   6.936   6.931
 5300SOL     OW16798   6.636   4.681   4.331
 5300SOL    HW116799   6.651   4.773   4.296
 5300SOL    HW216800   6.706   4.659   4.399
 5301SOL     OW16801   5.597   0.175   6.775
 5301SOL    HW116802   5.642   0.085   6.781
 5301SOL    HW216803   5.601   0.220   6.864
 5302SOL     OW16804   6.887   4.099   3.182
 5302SOL    HW116805   6.873   4.016   3.129
 5302SOL    HW216806   6.805   4.119   3.236
 5303SOL     OW16807   2.078   4.549   3.209
 5303SOL    HW116808   2.063   4.548   3.110
 5303SOL    HW216809   2.039   4.466   3.249
 5304SOL     OW16810   4.352   1.932   5.741
 5304SOL    HW116811   4.254   1.932   5.761
 5304SOL    HW216812   4.396   1.857   5.791
 5305SOL     OW16813   3.710   2.110   5.045
 5305SOL    HW116814   3.787   2.168   5.069
 5305SOL    HW216815   3.632   2.131   5.104
 5306SOL     OW16816   2.325   6.873   2.660
 5306SOL    HW116817   2.331   6.791   2.603
 5306SOL    HW216818   2.256   6.859   2.731
 5307SOL     OW16819   5.002   6.341   6.693
 5307SOL    HW116820   5.004   6.326   6.594
 5307SOL    HW216821   5.046   6.428   6.714
 5308SOL     OW16822   7.008   1.477   1.583
 5308SOL    HW116823   6.956   1.516   1.507
 5308SOL    HW216824   0.069   1.448   1.549
 5309SOL     OW16825   3.803   3.497   5.208
 5309SOL    HW116826   3.752   3.513   5.292
 5309SOL    HW216827   3.740   3.469   5.135
 5310SOL     OW16828   4.742   2.903   0.700
 5310SOL    HW116829   4.755   2.930   0.795
 5310SOL    HW216830   4.777   2.810   0.687
 5311SOL     OW16831   6.872   6.185   0.573
 5311SOL    HW116832   6.967   6.204   0.599
 5311SOL    HW216833   6.841   6.101   0.618
 5312SOL     OW16834   0.099   3.852   2.033
 5312SOL    HW116835   0.052   3.831   2.118
 5312SOL    HW216836   0.039   3.831   1.956
 5313SOL     OW16837   0.300   6.663   6.757
 5313SOL    HW116838   0.230   6.668   6.686
 5313SOL    HW216839   0.380   6.715   6.727
 5314SOL     OW16840   4.048   4.781   0.875
 5314SOL    HW116841   4.058   4.870   0.832
 5314SOL    HW216842   3.960   4.741   0.849
 5315SOL     OW16843   5.387   1.397   2.428
 5315SOL    HW116844   5.435   1.454   2.495
 5315SOL    HW216845   5.451   1.367   2.357
 5316SOL     OW16846   5.270   5.318   4.834
 5316SOL    HW116847   5.352   5.281   4.877
 5316SOL    HW216848   5.202   5.341   4.904
 5317SOL     OW16849   6.532   5.167   1.754
 5317SOL    HW116850   6.584   5.164   1.669
 5317SOL    HW216851   6.487   5.079   1.770
 5318SOL     OW16852   6.903   2.690   3.795
 5318SOL    HW116853   6.934   2.692   3.700
 5318SOL    HW216854   6.803   2.699   3.798
 5319SOL     OW16855   3.254   6.365   2.858
 5319SOL    HW116856   3.156   6.383   2.848
 5319SOL    HW216857   3.306   6.443   2.822
 5320SOL     OW16858   6.249   2.202   6.997
 5320SOL    HW116859   6.341   2.163   6.991
 5320SOL    HW216860   6.214   2.191   0.061
 5321SOL     OW16861   3.007   4.541   0.363
 5321SOL    HW116862   2.934   4.491   0.411
 5321SOL    HW216863   2.975   4.633   0.342
 5322SOL     OW16864   2.587   6.882   0.277
 5322SOL    HW116865   2.597   6.799   0.333
 5322SOL    HW216866   2.494   6.917   0.286
 5323SOL     OW16867   6.436   3.482   0.483
 5323SOL    HW116868   6.344   3.444   0.478
 5323SOL    HW216869   6.495   3.432   0.419
 5324SOL     OW16870   4.015   3.544   1.844
 5324SOL    HW116871   4.049   3.602   1.918
 5324SOL    HW216872   4.041   3.449   1.861
 5325SOL     OW16873   3.305   6.510   5.595
 5325SOL    HW116874   3.276   6.425   5.551
 5325SOL    HW216875   3.235   6.539   5.661
 5326SOL     OW16876   5.834   0.889   3.387
 5326SOL    HW116877   5.897   0.863   3.314
 5326SOL    HW216878   5.777   0.810   3.411
 5327SOL     OW16879   5.982   0.151   4.114
 5327SOL    HW116880   5.950   0.059   4.135
 5327SOL    HW216881   5.984   0.206   4.198
 5328SOL     OW16882   2.444   4.785   6.258
 5328SOL    HW116883   2.351   4.779   6.222
 5328SOL    HW216884   2.441   4.825   6.349
 5329SOL     OW16885   0.055   6.861   6.457
 5329SOL    HW116886   0.038   6.893   6.363
 5329SOL    HW216887   0.146   6.821   6.463
 5330SOL     OW16888   4.607   4.601   1.162
 5330SOL    HW116889   4.671   4.526   1.172
 5330SOL    HW216890   4.519   4.576   1.204
 5331SOL     OW16891   5.710   1.442   6.520
 5331SOL    HW116892   5.749   1.483   6.603
 5331SOL    HW216893   5.766   1.465   6.441
 5332SOL     OW16894   6.556   2.865   6.890
 5332SOL    HW116895   6.618   2.906   6.957
 5332SOL    HW216896   6.585   2.771   6.871
 5333SOL     OW16897   0.666   6.747   4.159
 5333SOL    HW116898   0.643   6.674   4.094
 5333SOL    HW216899   0.589   6.810   4.167
 5334SOL     OW16900   3.466   5.941   1.261
 5334SOL    HW116901   3.438   5.852   1.297
 5334SOL    HW216902   3.565   5.951   1.270
 5335SOL     OW16903   0.273   5.101   1.516
 5335SOL    HW116904   0.192   5.128   1.568
 5335SOL    HW216905   0.355   5.130   1.565
 5336SOL     OW16906   1.131   3.351   5.675
 5336SOL    HW116907   1.175   3.432   5.713
 5336SOL    HW216908   1.187   3.314   5.601
 5337SOL     OW16909   6.492   1.830   0.943
 5337SOL    HW116910   6.531   1.903   0.999
 5337SOL    HW216911   6.492   1.745   0.996
 5338SOL     OW16912   0.281   3.236   1.602
 5338SOL    HW116913   0.326   3.312   1.649
 5338SOL    HW216914   0.266   3.161   1.666
 5339SOL     OW16915   4.946   3.681   3.128
 5339SOL    HW116916   5.034   3.665   3.084
 5339SOL    HW216917   4.934   3.618   3.204
 5340SOL     OW16918   4.844   3.489   1.124
 5340SOL    HW116919   4.894   3.547   1.188
 5340SOL    HW216920   4.886   3.495   1.033
 5341SOL     OW16921   4.850   5.366   3.446
 5341SOL    HW116922   4.754   5.339   3.439
 5341SOL    HW216923   4.868   5.444   3.386
 5342SOL     OW16924   6.398   5.183   5.163
 5342SOL    HW116925   6.301   5.207   5.151
 5342SOL    HW216926   6.408   5.084   5.166
 5343SOL     OW16927   3.357   3.594   6.872
 5343SOL    HW116928   3.273   3.621   6.825
 5343SOL    HW216929   3.385   3.667   6.934
 5344SOL     OW16930   6.032   1.477   0.073
 5344SOL    HW116931   5.948   1.449   0.026
 5344SOL    HW216932   6.033   1.576   0.085
 5345SOL     OW16933   3.619   1.271   0.081
 5345SOL    HW116934   3.588   1.264   7.015
 5345SOL    HW216935   3.598   1.362   0.117
 5346SOL     OW16936   2.088   6.143   2.757
 5346SOL    HW116937   2.102   6.046   2.778
 5346SOL    HW216938   2.125   6.199   2.831
 5347SOL     OW16939   5.931   1.961   5.001
 5347SOL    HW116940   5.863   2.034   5.009
 5347SOL    HW216941   5.970   1.962   4.909
 5348SOL     OW16942   4.853   2.304   5.112
 5348SOL    HW116943   4.791   2.301   5.191
 5348SOL    HW216944   4.887   2.212   5.094
 5349SOL     OW16945   1.061   4.258   0.295
 5349SOL    HW116946   1.103   4.348   0.290
 5349SOL    HW216947   1.131   4.188   0.287
 5350SOL     OW16948   0.833   6.764   6.359
 5350SOL    HW116949   0.892   6.817   6.298
 5350SOL    HW216950   0.782   6.827   6.419
 5351SOL     OW16951   0.833   5.758   3.796
 5351SOL    HW116952   0.898   5.828   3.824
 5351SOL    HW216953   0.881   5.683   3.750
 5352SOL     OW16954   0.371   2.513   5.846
 5352SOL    HW116955   0.320   2.444   5.795
 5352SOL    HW216956   0.324   2.531   5.933
 5353SOL     OW16957   2.266   0.233   2.832
 5353SOL    HW116958   2.315   0.153   2.799
 5353SOL    HW216959   2.168   0.214   2.834
 5354SOL     OW16960   3.341   6.086   2.284
 5354SOL    HW116961   3.257   6.126   2.322
 5354SOL    HW216962   3.324   6.057   2.190
 5355SOL     OW16963   5.437   4.495   5.436
 5355SOL    HW116964   5.503   4.481   5.509
 5355SOL    HW216965   5.397   4.586   5.443
 5356SOL     OW16966   0.111   6.881   1.398
 5356SOL    HW116967   0.205   6.859   1.426
 5356SOL    HW216968   0.093   6.841   1.308
 5357SOL     OW16969   6.407   3.176   2.447
 5357SOL    HW116970   6.317   3.181   2.403
 5357SOL    HW216971   6.478   3.177   2.377
 5358SOL     OW16972   6.036   0.481   6.715
 5358SOL    HW116973   6.044   0.407   6.649
 5358SOL    HW216974   6.071   0.451   6.803
 5359SOL     OW16975   3.159   2.202   0.318
 5359SOL    HW116976   3.077   2.146   0.334
 5359SOL    HW216977   3.174   2.212   0.220
 5360SOL     OW16978   5.201   5.764   2.754
 5360SOL    HW116979   5.105   5.792   2.749
 5360SOL    HW216980   5.211   5.673   2.715
 5361SOL     OW16981   1.559   4.023   2.840
 5361SOL    HW116982   1.598   4.114   2.853
 5361SOL    HW216983   1.560   3.999   2.743
 5362SOL     OW16984   5.667   1.375   3.992
 5362SOL    HW116985   5.682   1.294   4.049
 5362SOL    HW216986   5.667   1.348   3.895
 5363SOL     OW16987   6.193   4.676   5.497
 5363SOL    HW116988   6.285   4.644   5.473
 5363SOL    HW216989   6.198   4.734   5.578
 5364SOL     OW16990   4.618   2.374   1.497
 5364SOL    HW116991   4.605   2.334   1.588
 5364SOL    HW216992   4.553   2.332   1.433
 5365SOL     OW16993   3.413   3.272   6.062
 5365SOL    HW116994   3.407   3.247   5.965
 5365SOL    HW216995   3.438   3.191   6.115
 5366SOL     OW16996   0.354   4.178   3.606
 5366SOL    HW116997   0.313   4.106   3.663
 5366SOL    HW216998   0.301   4.262   3.616
 5367SOL     OW16999   6.417   6.288   1.178
 5367SOL    HW117000   6.369   6.225   1.239
 5367SOL    HW217001   6.357   6.314   1.103
 5368SOL     OW17002   6.923   5.897   5.298
 5368SOL    HW117003   6.829   5.930   5.288
 5368SOL    HW217004   6.929   5.805   5.259
 5369SOL     OW17005   3.622   0.042   2.505
 5369SOL    HW117006   3.568   0.010   2.427
 5369SOL    HW217007   3.709   7.023   2.508
 5370SOL     OW17008   2.731   2.148   0.441
 5370SOL    HW117009   2.712   2.189   0.530
 5370SOL    HW217010   2.723   2.218   0.370
 5371SOL     OW17011   6.470   5.312   3.648
 5371SOL    HW117012   6.468   5.213   3.638
 5371SOL    HW217013   6.505   5.336   3.739
 5372SOL     OW17014   0.564   0.173   4.217
 5372SOL    HW117015   0.606   0.140   4.301
 5372SOL    HW217016   0.634   0.185   4.147
 5373SOL     OW17017   4.164   6.965   0.495
 5373SOL    HW117018   4.090   6.924   0.549
 5373SOL    HW217019   4.201   6.896   0.433
 5374SOL     OW17020   1.481   3.665   1.209
 5374SOL    HW117021   1.386   3.673   1.178
 5374SOL    HW217022   1.536   3.624   1.137
 5375SOL     OW17023   2.966   5.390   5.034
 5375SOL    HW117024   2.949   5.294   5.013
 5375SOL    HW217025   3.064   5.406   5.041
 5376SOL     OW17026   0.415   6.807   2.239
 5376SOL    HW117027   0.410   6.866   2.159
 5376SOL    HW217028   0.424   6.862   2.321
 5377SOL     OW17029   0.920   2.573   2.339
 5377SOL    HW117030   0.893   2.611   2.250
 5377SOL    HW217031   0.878   2.627   2.412
 5378SOL     OW17032   5.084   0.068   3.482
 5378SOL    HW117033   5.037   0.015   3.412
 5378SOL    HW217034   5.104   0.160   3.447
 5379SOL     OW17035   3.057   2.222   4.236
 5379SOL    HW117036   3.133   2.157   4.230
 5379SOL    HW217037   3.028   2.231   4.331
 5380SOL     OW17038   4.817   6.564   1.497
 5380SOL    HW117039   4.818   6.474   1.452
 5380SOL    HW217040   4.911   6.596   1.506
 5381SOL     OW17041   2.791   1.895   2.632
 5381SOL    HW117042   2.869   1.849   2.589
 5381SOL    HW217043   2.825   1.971   2.688
 5382SOL     OW17044   4.632   0.723   2.388
 5382SOL    HW117045   4.650   0.752   2.294
 5382SOL    HW217046   4.585   0.796   2.437
 5383SOL     OW17047   2.413   4.034   5.429
 5383SOL    HW117048   2.432   3.982   5.346
 5383SOL    HW217049   2.481   4.106   5.440
 5384SOL     OW17050   5.038   6.428   6.160
 5384SOL    HW117051   5.133   6.398   6.171
 5384SOL    HW217052   5.036   6.525   6.136
 5385SOL     OW17053   3.595   3.957   0.634
 5385SOL    HW117054   3.562   4.052   0.629
 5385SOL    HW217055   3.666   3.943   0.565
 5386SOL     OW17056   4.585   4.906   3.496
 5386SOL    HW117057   4.605   4.823   3.443
 5386SOL    HW217058   4.637   4.905   3.581
 5387SOL     OW17059   0.958   2.690   5.219
 5387SOL    HW117060   0.897   2.621   5.259
 5387SOL    HW217061   1.032   2.711   5.283
 5388SOL     OW17062   6.277   6.632   3.111
 5388SOL    HW117063   6.260   6.548   3.060
 5388SOL    HW217064   6.211   6.640   3.186
 5389SOL     OW17065   6.085   1.493   5.031
 5389SOL    HW117066   6.110   1.427   5.102
 5389SOL    HW217067   6.034   1.569   5.073
 5390SOL     OW17068   5.653   3.327   3.267
 5390SOL    HW117069   5.627   3.298   3.174
 5390SOL    HW217070   5.628   3.256   3.332
 5391SOL     OW17071   4.603   3.238   0.843
 5391SOL    HW117072   4.678   3.292   0.804
 5391SOL    HW217073   4.536   3.217   0.772
 5392SOL     OW17074   5.213   1.018   4.110
 5392SOL    HW117075   5.264   1.030   4.025
 5392SOL    HW217076   5.131   0.965   4.092
 5393SOL     OW17077   4.825   2.921   2.764
 5393SOL    HW117078   4.814   3.016   2.796
 5393SOL    HW217079   4.819   2.919   2.664
 5394SOL     OW17080   0.122   3.077   2.975
 5394SOL    HW117081   0.158   3.165   2.944
 5394SOL    HW217082   0.197   3.017   3.000
 5395SOL     OW17083   7.006   0.768   1.692
 5395SOL    HW117084   6.984   0.814   1.779
 5395SOL    HW217085   0.072   0.790   1.667
 5396SOL     OW17086   3.920   2.516   0.502
 5396SOL    HW117087   3.902   2.603   0.547
 5396SOL    HW217088   3.872   2.513   0.414
 5397SOL     OW17089   0.656   6.686   2.835
 5397SOL    HW117090   0.584   6.751   2.857
 5397SOL    HW217091   0.732   6.734   2.790
 5398SOL     OW17092   5.888   2.388   3.294
 5398SOL    HW117093   5.932   2.302   3.319
 5398SOL    HW217094   5.900   2.454   3.369
 5399SOL     OW17095   2.739   2.992   0.556
 5399SOL    HW117096   2.791   3.066   0.598
 5399SOL    HW217097   2.772   2.978   0.462
 5400SOL     OW17098   5.124   2.818   0.770
 5400SOL    HW117099   5.202   2.761   0.741
 5400SOL    HW217100   5.133   2.909   0.731
 5401SOL     OW17101   5.032   4.312   0.821
 5401SOL    HW117102   4.975   4.370   0.880
 5401SOL    HW217103   5.124   4.305   0.861
 5402SOL     OW17104   2.265   5.996   1.637
 5402SOL    HW117105   2.295   5.954   1.551
 5402SOL    HW217106   2.335   6.059   1.669
 5403SOL     OW17107   6.058   2.722   5.174
 5403SOL    HW117108   6.066   2.662   5.254
 5403SOL    HW217109   6.149   2.740   5.137
 5404SOL     OW17110   5.077   6.608   0.569
 5404SOL    HW117111   5.127   6.532   0.610
 5404SOL    HW217112   5.061   6.589   0.472
 5405SOL     OW17113   6.426   4.857   5.949
 5405SOL    HW117114   6.394   4.770   5.913
 5405SOL    HW217115   6.414   4.859   6.048
 5406SOL     OW17116   2.047   1.121   5.484
 5406SOL    HW117117   1.992   1.062   5.543
 5406SOL    HW217118   2.033   1.095   5.388
 5407SOL     OW17119   2.015   1.669   2.738
 5407SOL    HW117120   2.033   1.697   2.644
 5407SOL    HW217121   1.946   1.597   2.739
 5408SOL     OW17122   2.088   2.419   4.475
 5408SOL    HW117123   2.115   2.426   4.378
 5408SOL    HW217124   2.051   2.507   4.505
 5409SOL     OW17125   6.716   4.667   3.433
 5409SOL    HW117126   6.726   4.590   3.496
 5409SOL    HW217127   6.625   4.667   3.393
 5410SOL     OW17128   5.929   2.186   0.317
 5410SOL    HW117129   6.028   2.193   0.310
 5410SOL    HW217130   5.902   2.197   0.413
 5411SOL     OW17131   3.194   5.925   1.714
 5411SOL    HW117132   3.174   5.993   1.785
 5411SOL    HW217133   3.253   5.854   1.752
 5412SOL     OW17134   2.083   1.808   6.370
 5412SOL    HW117135   2.065   1.716   6.405
 5412SOL    HW217136   2.006   1.837   6.312
 5413SOL     OW17137   7.018   5.579   5.597
 5413SOL    HW117138   0.031   5.492   5.568
 5413SOL    HW217139   6.940   5.560   5.656
 5414SOL     OW17140   5.716   5.645   5.985
 5414SOL    HW117141   5.671   5.711   6.045
 5414SOL    HW217142   5.749   5.692   5.903
 5415SOL     OW17143   1.830   0.993   0.125
 5415SOL    HW117144   1.733   0.971   0.136
 5415SOL    HW217145   1.840   1.090   0.104
 5416SOL     OW17146   3.631   5.482   6.164
 5416SOL    HW117147   3.576   5.434   6.095
 5416SOL    HW217148   3.586   5.475   6.253
 5417SOL     OW17149   5.636   7.023   2.189
 5417SOL    HW117150   5.543   6.987   2.180
 5417SOL    HW217151   5.663   0.038   2.104
 5418SOL     OW17152   0.513   3.021   5.525
 5418SOL    HW117153   0.544   2.987   5.614
 5418SOL    HW217154   0.440   2.963   5.490
 5419SOL     OW17155   3.542   2.020   6.639
 5419SOL    HW117156   3.492   2.009   6.553
 5419SOL    HW217157   3.506   2.099   6.689
 5420SOL     OW17158   2.251   1.383   1.087
 5420SOL    HW117159   2.317   1.412   1.156
 5420SOL    HW217160   2.277   1.293   1.052
 5421SOL     OW17161   3.796   5.205   1.109
 5421SOL    HW117162   3.775   5.108   1.111
 5421SOL    HW217163   3.721   5.255   1.065
 5422SOL     OW17164   2.344   6.719   3.098
 5422SOL    HW117165   2.425   6.750   3.048
 5422SOL    HW217166   2.290   6.659   3.041
 5423SOL     OW17167   4.291   6.650   2.366
 5423SOL    HW117168   4.293   6.556   2.401
 5423SOL    HW217169   4.370   6.664   2.306
 5424SOL     OW17170   3.558   3.375   5.205
 5424SOL    HW117171   3.572   3.306   5.277
 5424SOL    HW217172   3.466   3.413   5.212
 5425SOL     OW17173   1.389   5.455   5.218
 5425SOL    HW117174   1.430   5.364   5.211
 5425SOL    HW217175   1.361   5.472   5.312
 5426SOL     OW17176   1.830   4.289   0.215
 5426SOL    HW117177   1.805   4.195   0.240
 5426SOL    HW217178   1.875   4.288   0.126
 5427SOL     OW17179   5.034   2.307   0.934
 5427SOL    HW117180   4.991   2.284   1.021
 5427SOL    HW217181   5.115   2.364   0.950
 5428SOL     OW17182   4.437   5.679   2.841
 5428SOL    HW117183   4.459   5.586   2.811
 5428SOL    HW217184   4.442   5.684   2.940
 5429SOL     OW17185   2.721   6.768   3.249
 5429SOL    HW117186   2.676   6.747   3.162
 5429SOL    HW217187   2.721   6.687   3.308
 5430SOL     OW17188   0.961   4.784   5.175
 5430SOL    HW117189   1.008   4.755   5.091
 5430SOL    HW217190   0.903   4.709   5.208
 5431SOL     OW17191   5.395   4.076   1.172
 5431SOL    HW117192   5.370   4.165   1.211
 5431SOL    HW217193   5.493   4.073   1.156
 5432SOL     OW17194   1.412   5.153   5.553
 5432SOL    HW117195   1.512   5.151   5.558
 5432SOL    HW217196   1.378   5.064   5.523
 5433SOL     OW17197   2.447   6.745   1.261
 5433SOL    HW117198   2.494   6.686   1.327
 5433SOL    HW217199   2.379   6.692   1.211
 5434SOL     OW17200   5.011   5.548   4.333
 5434SOL    HW117201   5.098   5.548   4.283
 5434SOL    HW217202   5.022   5.600   4.418
 5435SOL     OW17203   6.703   3.621   0.032
 5435SOL    HW117204   6.775   3.645   6.995
 5435SOL    HW217205   6.635   3.563   7.016
 5436SOL     OW17206   1.291   4.551   1.101
 5436SOL    HW117207   1.279   4.638   1.148
 5436SOL    HW217208   1.239   4.551   1.016
 5437SOL     OW17209   3.513   6.518   6.275
 5437SOL    HW117210   3.592   6.539   6.333
 5437SOL    HW217211   3.454   6.453   6.323
 5438SOL     OW17212   5.211   6.674   2.643
 5438SOL    HW117213   5.298   6.721   2.623
 5438SOL    HW217214   5.143   6.701   2.575
 5439SOL     OW17215   1.090   3.814   1.599
 5439SOL    HW117216   1.173   3.869   1.599
 5439SOL    HW217217   1.075   3.776   1.691
 5440SOL     OW17218   6.232   6.218   3.368
 5440SOL    HW117219   6.162   6.180   3.428
 5440SOL    HW217220   6.288   6.283   3.420
 5441SOL     OW17221   5.301   0.382   4.948
 5441SOL    HW117222   5.257   0.321   5.014
 5441SOL    HW217223   5.364   0.443   4.996
 5442SOL     OW17224   2.889   0.182   6.996
 5442SOL    HW117225   2.848   0.101   0.009
 5442SOL    HW217226   2.888   0.173   6.897
 5443SOL     OW17227   5.811   1.172   3.209
 5443SOL    HW117228   5.712   1.172   3.197
 5443SOL    HW217229   5.847   1.082   3.189
 5444SOL     OW17230   1.491   1.609   6.450
 5444SOL    HW117231   1.474   1.601   6.352
 5444SOL    HW217232   1.467   1.523   6.496
 5445SOL     OW17233   5.817   6.346   5.075
 5445SOL    HW117234   5.823   6.285   5.154
 5445SOL    HW217235   5.875   6.311   5.001
 5446SOL     OW17236   2.347   4.128   0.099
 5446SOL    HW117237   2.259   4.099   0.061
 5446SOL    HW217238   2.376   4.063   0.169
 5447SOL     OW17239   6.204   2.231   1.811
 5447SOL    HW117240   6.298   2.227   1.776
 5447SOL    HW217241   6.197   2.173   1.892
 5448SOL     OW17242   6.128   5.024   1.745
 5448SOL    HW117243   6.158   5.099   1.804
 5448SOL    HW217244   6.124   5.055   1.650
 5449SOL     OW17245   2.353   0.097   2.223
 5449SOL    HW117246   2.275   0.145   2.261
 5449SOL    HW217247   2.412   0.066   2.297
 5450SOL     OW17248   4.222   4.815   1.582
 5450SOL    HW117249   4.235   4.784   1.676
 5450SOL    HW217250   4.273   4.899   1.567
 5451SOL     OW17251   0.560   5.409   3.589
 5451SOL    HW117252   0.639   5.362   3.627
 5451SOL    HW217253   0.580   5.436   3.495
 5452SOL     OW17254   2.123   4.021   2.885
 5452SOL    HW117255   2.168   3.976   2.808
 5452SOL    HW217256   2.063   4.094   2.850
 5453SOL     OW17257   5.379   5.048   4.283
 5453SOL    HW117258   5.396   5.096   4.369
 5453SOL    HW217259   5.453   5.067   4.219
 5454SOL     OW17260   6.329   3.308   2.034
 5454SOL    HW117261   6.334   3.402   2.068
 5454SOL    HW217262   6.385   3.300   1.952
 5455SOL     OW17263   2.214   2.792   3.195
 5455SOL    HW117264   2.296   2.735   3.192
 5455SOL    HW217265   2.152   2.757   3.266
 5456SOL     OW17266   5.193   3.006   0.565
 5456SOL    HW117267   5.172   2.968   0.475
 5456SOL    HW217268   5.292   3.020   0.574
 5457SOL     OW17269   6.399   1.605   0.481
 5457SOL    HW117270   6.437   1.549   0.408
 5457SOL    HW217271   6.303   1.627   0.460
 5458SOL     OW17272   6.168   4.603   5.939
 5458SOL    HW117273   6.244   4.563   5.888
 5458SOL    HW217274   6.163   4.563   6.030
 5459SOL     OW17275   2.459   3.532   5.409
 5459SOL    HW117276   2.415   3.616   5.377
 5459SOL    HW217277   2.410   3.495   5.488
 5460SOL     OW17278   0.176   0.867   1.505
 5460SOL    HW117279   0.214   0.775   1.516
 5460SOL    HW217280   0.138   0.877   1.413
 5461SOL     OW17281   5.651   0.659   6.085
 5461SOL    HW117282   5.555   0.688   6.082
 5461SOL    HW217283   5.671   0.617   6.174
 5462SOL     OW17284   4.929   4.955   6.601
 5462SOL    HW117285   4.854   5.013   6.569
 5462SOL    HW217286   4.894   4.890   6.668
 5463SOL     OW17287   2.443   5.012   6.770
 5463SOL    HW117288   2.391   5.092   6.741
 5463SOL    HW217289   2.536   5.040   6.794
 5464SOL     OW17290   2.112   5.990   4.123
 5464SOL    HW117291   2.109   5.929   4.203
 5464SOL    HW217292   2.193   6.048   4.130
 5465SOL     OW17293   1.005   0.907   4.764
 5465SOL    HW117294   1.015   0.999   4.727
 5465SOL    HW217295   1.076   0.892   4.833
 5466SOL     OW17296   5.345   2.302   4.948
 5466SOL    HW117297   5.281   2.335   5.018
 5466SOL    HW217298   5.313   2.330   4.858
 5467SOL     OW17299   5.355   3.802   3.793
 5467SOL    HW117300   5.344   3.745   3.711
 5467SOL    HW217301   5.367   3.897   3.766
 5468SOL     OW17302   0.500   2.928   1.343
 5468SOL    HW117303   0.538   2.844   1.381
 5468SOL    HW217304   0.561   3.005   1.365
 5469SOL     OW17305   4.492   1.157   3.359
 5469SOL    HW117306   4.584   1.132   3.327
 5469SOL    HW217307   4.500   1.214   3.440
 5470SOL     OW17308   2.971   4.827   3.896
 5470SOL    HW117309   2.887   4.799   3.943
 5470SOL    HW217310   2.959   4.814   3.797
 5471SOL     OW17311   5.091   0.543   3.980
 5471SOL    HW117312   5.048   0.453   3.970
 5471SOL    HW217313   5.188   0.537   3.956
 5472SOL     OW17314   2.797   3.993   6.835
 5472SOL    HW117315   2.710   4.042   6.829
 5472SOL    HW217316   2.782   3.905   6.880
 5473SOL     OW17317   2.715   4.666   2.248
 5473SOL    HW117318   2.755   4.671   2.156
 5473SOL    HW217319   2.694   4.570   2.269
 5474SOL     OW17320   0.908   4.900   1.798
 5474SOL    HW117321   0.933   4.996   1.787
 5474SOL    HW217322   0.947   4.864   1.882
 5475SOL     OW17323   0.546   1.035   5.425
 5475SOL    HW117324   0.600   0.953   5.405
 5475SOL    HW217325   0.600   1.116   5.405
 5476SOL     OW17326   2.435   0.930   5.181
 5476SOL    HW117327   2.390   1.019   5.167
 5476SOL    HW217328   2.446   0.914   5.279
 5477SOL     OW17329   2.090   3.757   3.117
 5477SOL    HW117330   2.120   3.814   3.194
 5477SOL    HW217331   2.105   3.806   3.032
 5478SOL     OW17332   6.763   3.408   5.464
 5478SOL    HW117333   6.802   3.377   5.550
 5478SOL    HW217334   6.811   3.364   5.388
 5479SOL     OW17335   5.294   3.908   4.488
 5479SOL    HW117336   5.305   3.929   4.391
 5479SOL    HW217337   5.284   3.994   4.539
 5480SOL     OW17338   1.637   3.394   5.886
 5480SOL    HW117339   1.706   3.335   5.928
 5480SOL    HW217340   1.675   3.486   5.874
 5481SOL     OW17341   4.534   1.446   0.416
 5481SOL    HW117342   4.627   1.469   0.444
 5481SOL    HW217343   4.514   1.487   0.327
 5482SOL     OW17344   5.199   4.650   2.511
 5482SOL    HW117345   5.144   4.734   2.506
 5482SOL    HW217346   5.139   4.570   2.508
 5483SOL     OW17347   5.582   2.427   0.499
 5483SOL    HW117348   5.662   2.462   0.450
 5483SOL    HW217349   5.501   2.477   0.470
 5484SOL     OW17350   6.271   0.746   5.792
 5484SOL    HW117351   6.271   0.705   5.701
 5484SOL    HW217352   6.248   0.843   5.784
 5485SOL     OW17353   2.697   0.730   4.206
 5485SOL    HW117354   2.716   0.800   4.137
 5485SOL    HW217355   2.737   0.643   4.178
 5486SOL     OW17356   0.011   0.219   3.833
 5486SOL    HW117357   7.019   0.254   3.742
 5486SOL    HW217358   6.990   0.273   3.901
 5487SOL     OW17359   4.392   5.298   1.178
 5487SOL    HW117360   4.411   5.352   1.260
 5487SOL    HW217361   4.370   5.359   1.102
 5488SOL     OW17362   5.282   0.555   6.157
 5488SOL    HW117363   5.263   0.569   6.060
 5488SOL    HW217364   5.198   0.566   6.210
 5489SOL     OW17365   6.648   3.998   2.457
 5489SOL    HW117366   6.650   3.929   2.529
 5489SOL    HW217367   6.555   4.003   2.419
 5490SOL     OW17368   3.102   1.526   6.366
 5490SOL    HW117369   3.025   1.474   6.402
 5490SOL    HW217370   3.176   1.527   6.433
 5491SOL     OW17371   6.694   6.468   1.992
 5491SOL    HW117372   6.781   6.426   1.970
 5491SOL    HW217373   6.624   6.437   1.927
 5492SOL     OW17374   0.823   1.273   4.544
 5492SOL    HW117375   0.894   1.240   4.482
 5492SOL    HW217376   0.856   1.353   4.594
 5493SOL     OW17377   4.452   1.560   0.184
 5493SOL    HW117378   4.376   1.511   0.139
 5493SOL    HW217379   4.416   1.641   0.229
 5494SOL     OW17380   5.183   3.316   2.574
 5494SOL    HW117381   5.178   3.413   2.599
 5494SOL    HW217382   5.261   3.274   2.620
 5495SOL     OW17383   3.343   2.983   4.011
 5495SOL    HW117384   3.410   2.909   4.016
 5495SOL    HW217385   3.389   3.071   4.013
 5496SOL     OW17386   4.636   5.176   2.164
 5496SOL    HW117387   4.554   5.209   2.117
 5496SOL    HW217388   4.637   5.210   2.258
 5497SOL     OW17389   5.165   0.434   0.113
 5497SOL    HW117390   5.234   0.498   0.079
 5497SOL    HW217391   5.197   0.340   0.100
 5498SOL     OW17392   4.131   1.846   4.568
 5498SOL    HW117393   4.132   1.927   4.626
 5498SOL    HW217394   4.223   1.827   4.534
 5499SOL     OW17395   0.332   0.695   5.127
 5499SOL    HW117396   0.335   0.603   5.089
 5499SOL    HW217397   0.287   0.692   5.217
 5500SOL     OW17398   1.748   6.154   0.785
 5500SOL    HW117399   1.814   6.228   0.790
 5500SOL    HW217400   1.756   6.107   0.698
 5501SOL     OW17401   2.634   0.761   1.998
 5501SOL    HW117402   2.611   0.820   2.076
 5501SOL    HW217403   2.549   0.730   1.953
 5502SOL     OW17404   4.865   3.893   0.457
 5502SOL    HW117405   4.901   3.821   0.515
 5502SOL    HW217406   4.913   3.979   0.475
 5503SOL     OW17407   6.647   0.309   3.649
 5503SOL    HW117408   6.697   0.298   3.735
 5503SOL    HW217409   6.624   0.219   3.613
 5504SOL     OW17410   2.735   2.217   4.726
 5504SOL    HW117411   2.823   2.177   4.752
 5504SOL    HW217412   2.680   2.231   4.807
 5505SOL     OW17413   3.212   4.909   0.879
 5505SOL    HW117414   3.282   4.969   0.840
 5505SOL    HW217415   3.169   4.857   0.805
 5506SOL     OW17416   0.561   0.222   5.823
 5506SOL    HW117417   0.599   0.307   5.788
 5506SOL    HW217418   0.555   0.228   5.923
 5507SOL     OW17419   2.747   5.786   5.248
 5507SOL    HW117420   2.687   5.842   5.190
 5507SOL    HW217421   2.835   5.831   5.260
 5508SOL     OW17422   1.595   0.998   5.068
 5508SOL    HW117423   1.508   1.039   5.039
 5508SOL    HW217424   1.591   0.899   5.054
 5509SOL     OW17425   6.642   0.307   6.124
 5509SOL    HW117426   6.699   0.375   6.078
 5509SOL    HW217427   6.696   0.260   6.193
 5510SOL     OW17428   0.318   0.149   5.722
 5510SOL    HW117429   0.287   0.068   5.772
 5510SOL    HW217430   0.406   0.180   5.759
 5511SOL     OW17431   0.421   2.630   1.267
 5511SOL    HW117432   0.450   2.596   1.356
 5511SOL    HW217433   0.334   2.587   1.241
 5512SOL     OW17434   6.159   1.036   0.152
 5512SOL    HW117435   6.255   1.052   0.126
 5512SOL    HW217436   6.103   1.025   0.070
 5513SOL     OW17437   3.134   5.934   4.646
 5513SOL    HW117438   3.057   5.871   4.629
 5513SOL    HW217439   3.163   5.975   4.560
 5514SOL     OW17440   6.071   6.044   3.543
 5514SOL    HW117441   6.062   6.102   3.624
 5514SOL    HW217442   5.986   5.996   3.526
 5515SOL     OW17443   0.025   3.706   2.953
 5515SOL    HW117444   0.125   3.704   2.953
 5515SOL    HW217445   7.020   3.665   2.868
 5516SOL     OW17446   1.580   2.515   0.456
 5516SOL    HW117447   1.591   2.507   0.556
 5516SOL    HW217448   1.631   2.441   0.411
 5517SOL     OW17449   2.990   1.159   1.772
 5517SOL    HW117450   2.991   1.202   1.682
 5517SOL    HW217451   2.897   1.131   1.795
 5518SOL     OW17452   5.535   3.753   5.444
 5518SOL    HW117453   5.440   3.781   5.454
 5518SOL    HW217454   5.541   3.653   5.448
 5519SOL     OW17455   5.848   4.770   2.500
 5519SOL    HW117456   5.848   4.862   2.540
 5519SOL    HW217457   5.927   4.720   2.533
 5520SOL     OW17458   1.526   2.589   1.162
 5520SOL    HW117459   1.452   2.538   1.119
 5520SOL    HW217460   1.503   2.608   1.258
 5521SOL     OW17461   5.343   4.675   6.082
 5521SOL    HW117462   5.331   4.576   6.073
 5521SOL    HW217463   5.299   4.707   6.165
 5522SOL     OW17464   1.584   1.971   2.044
 5522SOL    HW117465   1.579   1.933   2.137
 5522SOL    HW217466   1.540   2.060   2.043
 5523SOL     OW17467   3.256   6.645   1.369
 5523SOL    HW117468   3.241   6.551   1.400
 5523SOL    HW217469   3.316   6.693   1.434
 5524SOL     OW17470   6.260   6.688   5.777
 5524SOL    HW117471   6.248   6.783   5.749
 5524SOL    HW217472   6.199   6.630   5.724
 5525SOL     OW17473   6.621   6.107   3.442
 5525SOL    HW117474   6.719   6.121   3.453
 5525SOL    HW217475   6.575   6.131   3.527
 5526SOL     OW17476   5.370   2.916   4.718
 5526SOL    HW117477   5.327   2.935   4.806
 5526SOL    HW217478   5.447   2.853   4.732
 5527SOL     OW17479   2.210   3.024   0.162
 5527SOL    HW117480   2.141   2.991   0.226
 5527SOL    HW217481   2.259   3.101   0.204
 5528SOL     OW17482   6.805   2.727   2.300
 5528SOL    HW117483   6.737   2.793   2.331
 5528SOL    HW217484   6.761   2.656   2.244
 5529SOL     OW17485   1.027   0.704   3.636
 5529SOL    HW117486   1.116   0.676   3.601
 5529SOL    HW217487   0.987   0.630   3.690
 5530SOL     OW17488   6.547   2.879   6.608
 5530SOL    HW117489   6.636   2.852   6.572
 5530SOL    HW217490   6.549   2.876   6.708
 5531SOL     OW17491   2.085   2.877   0.358
 5531SOL    HW117492   2.011   2.818   0.390
 5531SOL    HW217493   2.167   2.822   0.342
 5532SOL     OW17494   2.730   2.767   1.487
 5532SOL    HW117495   2.792   2.752   1.409
 5532SOL    HW217496   2.671   2.845   1.467
 5533SOL     OW17497   3.467   0.435   1.265
 5533SOL    HW117498   3.383   0.466   1.221
 5533SOL    HW217499   3.475   0.336   1.256
 5534SOL     OW17500   0.882   3.395   4.992
 5534SOL    HW117501   0.840   3.485   4.983
 5534SOL    HW217502   0.885   3.369   5.089
 5535SOL     OW17503   4.979   4.250   3.500
 5535SOL    HW117504   4.945   4.335   3.459
 5535SOL    HW217505   5.078   4.247   3.494
 5536SOL     OW17506   2.493   1.091   4.206
 5536SOL    HW117507   2.512   1.047   4.118
 5536SOL    HW217508   2.400   1.128   4.204
 5537SOL     OW17509   3.697   0.706   3.893
 5537SOL    HW117510   3.730   0.623   3.938
 5537SOL    HW217511   3.682   0.777   3.962
 5538SOL     OW17512   5.333   2.464   2.209
 5538SOL    HW117513   5.301   2.526   2.136
 5538SOL    HW217514   5.259   2.449   2.274
 5539SOL     OW17515   2.098   0.506   6.712
 5539SOL    HW117516   2.093   0.463   6.622
 5539SOL    HW217517   2.147   0.446   6.776
 5540SOL     OW17518   5.301   6.996   5.389
 5540SOL    HW117519   5.205   7.004   5.363
 5540SOL    HW217520   5.329   6.900   5.386
 5541SOL     OW17521   4.710   2.595   6.429
 5541SOL    HW117522   4.620   2.555   6.447
 5541SOL    HW217523   4.722   2.677   6.486
 5542SOL     OW17524   4.815   4.561   6.570
 5542SOL    HW117525   4.720   4.548   6.599
 5542SOL    HW217526   4.845   4.479   6.521
 5543SOL     OW17527   0.744   0.325   6.398
 5543SOL    HW117528   0.802   0.401   6.366
 5543SOL    HW217529   0.767   0.243   6.346
 5544SOL     OW17530   3.427   5.254   0.087
 5544SOL    HW117531   3.459   5.183   0.024
 5544SOL    HW217532   3.498   5.324   0.097
 5545SOL     OW17533   6.001   1.555   2.437
 5545SOL    HW117534   6.026   1.608   2.356
 5545SOL    HW217535   5.903   1.564   2.453
 5546SOL     OW17536   0.321   5.629   4.324
 5546SOL    HW117537   0.276   5.680   4.251
 5546SOL    HW217538   0.335   5.534   4.295
 5547SOL     OW17539   5.414   1.443   4.951
 5547SOL    HW117540   5.379   1.536   4.963
 5547SOL    HW217541   5.369   1.382   5.017
 5548SOL     OW17542   0.623   3.517   5.062
 5548SOL    HW117543   0.551   3.493   4.998
 5548SOL    HW217544   0.637   3.442   5.126
 5549SOL     OW17545   3.829   2.709   0.852
 5549SOL    HW117546   3.908   2.716   0.913
 5549SOL    HW217547   3.844   2.766   0.771
 5550SOL     OW17548   2.404   3.955   1.533
 5550SOL    HW117549   2.322   4.012   1.529
 5550SOL    HW217550   2.449   3.957   1.444
 5551SOL     OW17551   1.832   4.696   2.366
 5551SOL    HW117552   1.890   4.763   2.411
 5551SOL    HW217553   1.752   4.742   2.327
 5552SOL     OW17554   0.763   0.215   0.265
 5552SOL    HW117555   0.855   0.179   0.248
 5552SOL    HW217556   0.740   0.203   0.361
 5553SOL     OW17557   5.359   6.983   7.013
 5553SOL    HW117558   5.289   0.022   6.992
 5553SOL    HW217559   5.449   7.017   6.983
 5554SOL     OW17560   6.796   2.470   1.222
 5554SOL    HW117561   6.747   2.511   1.299
 5554SOL    HW217562   6.782   2.526   1.141
 5555SOL     OW17563   1.842   5.269   2.444
 5555SOL    HW117564   1.827   5.223   2.532
 5555SOL    HW217565   1.939   5.291   2.435
 5556SOL     OW17566   6.983   1.310   4.821
 5556SOL    HW117567   6.962   1.367   4.741
 5556SOL    HW217568   7.005   1.217   4.791
 5557SOL     OW17569   3.726   6.352   2.738
 5557SOL    HW117570   3.756   6.447   2.739
 5557SOL    HW217571   3.664   6.338   2.661
 5558SOL     OW17572   4.574   3.161   6.408
 5558SOL    HW117573   4.523   3.199   6.331
 5558SOL    HW217574   4.601   3.067   6.386
 5559SOL     OW17575   3.727   0.575   2.591
 5559SOL    HW117576   3.823   0.549   2.589
 5559SOL    HW217577   3.670   0.494   2.589
 5560SOL     OW17578   0.130   5.659   3.607
 5560SOL    HW117579   0.187   5.726   3.560
 5560SOL    HW217580   0.105   5.585   3.544
 5561SOL     OW17581   3.406   0.279   3.350
 5561SOL    HW117582   3.344   0.318   3.418
 5561SOL    HW217583   3.500   0.304   3.373
 5562SOL     OW17584   4.206   3.371   0.683
 5562SOL    HW117585   4.235   3.458   0.724
 5562SOL    HW217586   4.111   3.378   0.653
 5563SOL     OW17587   2.414   5.026   2.421
 5563SOL    HW117588   2.432   5.121   2.397
 5563SOL    HW217589   2.485   4.968   2.381
 5564SOL     OW17590   4.913   0.402   6.387
 5564SOL    HW117591   4.958   0.429   6.302
 5564SOL    HW217592   4.863   0.316   6.373
 5565SOL     OW17593   3.922   1.001   5.879
 5565SOL    HW117594   3.999   0.992   5.942
 5565SOL    HW217595   3.850   1.055   5.921
 5566SOL     OW17596   1.373   5.442   5.548
 5566SOL    HW117597   1.349   5.476   5.639
 5566SOL    HW217598   1.392   5.344   5.553
 5567SOL     OW17599   0.520   4.811   6.800
 5567SOL    HW117600   0.578   4.882   6.841
 5567SOL    HW217601   0.576   4.753   6.741
 5568SOL     OW17602   5.011   5.046   1.635
 5568SOL    HW117603   5.013   5.127   1.694
 5568SOL    HW217604   4.948   5.061   1.560
 5569SOL     OW17605   2.288   2.219   2.712
 5569SOL    HW117606   2.272   2.262   2.801
 5569SOL    HW217607   2.373   2.166   2.716
 5570SOL     OW17608   6.615   3.751   1.403
 5570SOL    HW117609   6.530   3.708   1.434
 5570SOL    HW217610   6.674   3.681   1.362
 5571SOL     OW17611   6.544   4.488   1.015
 5571SOL    HW117612   6.606   4.525   0.946
 5571SOL    HW217613   6.548   4.545   1.097
 5572SOL     OW17614   1.375   4.237   4.978
 5572SOL    HW117615   1.401   4.290   5.059
 5572SOL    HW217616   1.278   4.210   4.986
 5573SOL     OW17617   3.576   5.241   3.867
 5573SOL    HW117618   3.597   5.144   3.879
 5573SOL    HW217619   3.643   5.296   3.918
 5574SOL     OW17620   0.902   1.893   6.087
 5574SOL    HW117621   0.952   1.878   6.172
 5574SOL    HW217622   0.875   1.805   6.048
 5575SOL     OW17623   6.735   0.738   1.892
 5575SOL    HW117624   6.828   0.772   1.907
 5575SOL    HW217625   6.689   0.725   1.981
 5576SOL     OW17626   1.636   4.988   3.707
 5576SOL    HW117627   1.605   4.893   3.711
 5576SOL    HW217628   1.733   4.991   3.683
 5577SOL     OW17629   2.347   2.537   6.117
 5577SOL    HW117630   2.405   2.520   6.197
 5577SOL    HW217631   2.357   2.632   6.088
 5578SOL     OW17632   3.844   4.086   4.176
 5578SOL    HW117633   3.904   4.053   4.104
 5578SOL    HW217634   3.858   4.030   4.259
 5579SOL     OW17635   6.223   2.902   1.705
 5579SOL    HW117636   6.178   2.926   1.618
 5579SOL    HW217637   6.199   2.970   1.774
 5580SOL     OW17638   5.126   1.858   5.454
 5580SOL    HW117639   5.190   1.784   5.477
 5580SOL    HW217640   5.168   1.946   5.474
 5581SOL     OW17641   1.235   1.882   6.537
 5581SOL    HW117642   1.254   1.977   6.511
 5581SOL    HW217643   1.290   1.857   6.616
 5582SOL     OW17644   3.027   2.319   6.232
 5582SOL    HW117645   3.031   2.263   6.149
 5582SOL    HW217646   3.107   2.300   6.288
 5583SOL     OW17647   6.131   0.250   0.547
 5583SOL    HW117648   6.222   0.211   0.558
 5583SOL    HW217649   6.125   0.298   0.460
 5584SOL     OW17650   2.027   3.195   4.589
 5584SOL    HW117651   1.939   3.243   4.588
 5584SOL    HW217652   2.063   3.196   4.682
 5585SOL     OW17653   5.804   4.783   1.397
 5585SOL    HW117654   5.856   4.752   1.477
 5585SOL    HW217655   5.735   4.849   1.426
 5586SOL     OW17656   1.086   5.341   1.223
 5586SOL    HW117657   1.163   5.306   1.170
 5586SOL    HW217658   1.037   5.410   1.170
 5587SOL     OW17659   6.396   0.664   5.542
 5587SOL    HW117660   6.328   0.603   5.499
 5587SOL    HW217661   6.430   0.621   5.626
 5588SOL     OW17662   3.531   6.860   0.733
 5588SOL    HW117663   3.473   6.907   0.666
 5588SOL    HW217664   3.509   6.762   0.734
 5589SOL     OW17665   6.597   4.520   6.061
 5589SOL    HW117666   6.674   4.582   6.048
 5589SOL    HW217667   6.568   4.522   6.157
 5590SOL     OW17668   6.306   5.501   3.178
 5590SOL    HW117669   6.352   5.427   3.128
 5590SOL    HW217670   6.207   5.492   3.167
 5591SOL     OW17671   4.996   1.402   1.955
 5591SOL    HW117672   5.037   1.400   1.864
 5591SOL    HW217673   5.068   1.404   2.024
 5592SOL     OW17674   0.024   4.748   3.609
 5592SOL    HW117675   0.103   4.781   3.558
 5592SOL    HW217676   6.986   4.822   3.618
 5593SOL     OW17677   1.001   4.205   0.758
 5593SOL    HW117678   0.948   4.230   0.678
 5593SOL    HW217679   0.998   4.106   0.771
 5594SOL     OW17680   5.821   1.513   5.932
 5594SOL    HW117681   5.727   1.483   5.949
 5594SOL    HW217682   5.875   1.505   6.016
 5595SOL     OW17683   0.418   2.395   0.702
 5595SOL    HW117684   0.377   2.323   0.758
 5595SOL    HW217685   0.442   2.358   0.612
 5596SOL     OW17686   3.474   6.072   3.438
 5596SOL    HW117687   3.404   6.005   3.415
 5596SOL    HW217688   3.436   6.164   3.432
 5597SOL     OW17689   5.181   3.244   1.683
 5597SOL    HW117690   5.112   3.240   1.611
 5597SOL    HW217691   5.141   3.214   1.769
 5598SOL     OW17692   4.354   0.777   4.704
 5598SOL    HW117693   4.411   0.802   4.782
 5598SOL    HW217694   4.392   0.819   4.621
 5599SOL     OW17695   0.718   1.309   3.735
 5599SOL    HW117696   0.634   1.298   3.788
 5599SOL    HW217697   0.706   1.381   3.667
 5600SOL     OW17698   2.590   2.709   5.505
 5600SOL    HW117699   2.639   2.738   5.423
 5600SOL    HW217700   2.652   2.710   5.584
 5601SOL     OW17701   2.595   0.645   6.408
 5601SOL    HW117702   2.647   0.626   6.325
 5601SOL    HW217703   2.548   0.732   6.399
 5602SOL     OW17704   1.711   0.790   6.670
 5602SOL    HW117705   1.785   0.750   6.724
 5602SOL    HW217706   1.682   0.876   6.712
 5603SOL     OW17707   6.485   4.116   5.447
 5603SOL    HW117708   6.456   4.158   5.361
 5603SOL    HW217709   6.438   4.028   5.458
 5604SOL     OW17710   5.551   1.057   6.254
 5604SOL    HW117711   5.558   0.973   6.309
 5604SOL    HW217712   5.465   1.103   6.275
 5605SOL     OW17713   0.345   1.891   6.659
 5605SOL    HW117714   0.438   1.909   6.627
 5605SOL    HW217715   0.347   1.818   6.727
 5606SOL     OW17716   5.445   0.135   2.882
 5606SOL    HW117717   5.488   0.049   2.852
 5606SOL    HW217718   5.516   0.200   2.907
 5607SOL     OW17719   5.403   0.479   1.143
 5607SOL    HW117720   5.440   0.562   1.100
 5607SOL    HW217721   5.416   0.401   1.082
 5608SOL     OW17722   4.108   6.346   5.070
 5608SOL    HW117723   4.015   6.382   5.078
 5608SOL    HW217724   4.173   6.416   5.100
 5609SOL     OW17725   1.314   5.546   5.788
 5609SOL    HW117726   1.241   5.531   5.854
 5609SOL    HW217727   1.291   5.625   5.730
 5610SOL     OW17728   4.479   0.183   6.529
 5610SOL    HW117729   4.481   0.093   6.573
 5610SOL    HW217730   4.405   0.238   6.568
 5611SOL     OW17731   1.968   4.359   4.211
 5611SOL    HW117732   1.980   4.421   4.288
 5611SOL    HW217733   1.994   4.405   4.126
 5612SOL     OW17734   3.168   6.544   4.705
 5612SOL    HW117735   3.190   6.584   4.794
 5612SOL    HW217736   3.240   6.480   4.679
 5613SOL     OW17737   3.271   5.494   1.709
 5613SOL    HW117738   3.233   5.544   1.631
 5613SOL    HW217739   3.211   5.504   1.788
 5614SOL     OW17740   5.410   1.552   4.462
 5614SOL    HW117741   5.437   1.481   4.527
 5614SOL    HW217742   5.317   1.583   4.484
 5615SOL     OW17743   1.239   1.713   1.814
 5615SOL    HW117744   1.200   1.802   1.838
 5615SOL    HW217745   1.330   1.726   1.774
 5616SOL     OW17746   1.873   6.365   4.745
 5616SOL    HW117747   1.863   6.420   4.829
 5616SOL    HW217748   1.921   6.419   4.676
 5617SOL     OW17749   0.754   1.036   5.828
 5617SOL    HW117750   0.843   0.994   5.815
 5617SOL    HW217751   0.709   0.996   5.908
 5618SOL     OW17752   6.171   5.434   2.544
 5618SOL    HW117753   6.091   5.468   2.593
 5618SOL    HW217754   6.184   5.488   2.460
 5619SOL     OW17755   2.301   3.738   5.332
 5619SOL    HW117756   2.336   3.792   5.255
 5619SOL    HW217757   2.233   3.792   5.382
 5620SOL     OW17758   5.053   2.193   6.976
 5620SOL    HW117759   5.146   2.179   7.011
 5620SOL    HW217760   5.005   2.106   6.972
 5621SOL     OW17761   2.431   1.841   6.552
 5621SOL    HW117762   2.502   1.834   6.481
 5621SOL    HW217763   2.364   1.909   6.524
 5622SOL     OW17764   5.539   0.272   5.206
 5622SOL    HW117765   5.610   0.245   5.271
 5622SOL    HW217766   5.500   0.359   5.234
 5623SOL     OW17767   0.190   6.205   6.972
 5623SOL    HW117768   0.193   6.111   6.938
 5623SOL    HW217769   0.106   6.218   7.026
 5624SOL     OW17770   0.370   4.225   1.842
 5624SOL    HW117771   0.376   4.299   1.775
 5624SOL    HW217772   0.456   4.174   1.842
 5625SOL     OW17773   6.320   2.130   5.408
 5625SOL    HW117774   6.250   2.085   5.463
 5625SOL    HW217775   6.295   2.124   5.311
 5626SOL     OW17776   5.229   6.692   5.207
 5626SOL    HW117777   5.243   6.728   5.114
 5626SOL    HW217778   5.317   6.663   5.245
 5627SOL     OW17779   0.985   0.357   0.801
 5627SOL    HW117780   0.897   0.348   0.849
 5627SOL    HW217781   1.039   0.429   0.844
 5628SOL     OW17782   1.511   1.420   4.404
 5628SOL    HW117783   1.435   1.466   4.450
 5628SOL    HW217784   1.596   1.468   4.424
 5629SOL     OW17785   3.432   2.881   3.464
 5629SOL    HW117786   3.433   2.866   3.365
 5629SOL    HW217787   3.514   2.842   3.504
 5630SOL     OW17788   6.449   4.052   1.098
 5630SOL    HW117789   6.391   4.019   1.173
 5630SOL    HW217790   6.514   4.119   1.133
 5631SOL     OW17791   5.786   1.197   6.245
 5631SOL    HW117792   5.706   1.138   6.254
 5631SOL    HW217793   5.862   1.145   6.205
 5632SOL     OW17794   3.041   2.197   0.705
 5632SOL    HW117795   3.015   2.294   0.697
 5632SOL    HW217796   2.959   2.140   0.709
 5633SOL     OW17797   6.594   2.703   5.535
 5633SOL    HW117798   6.677   2.652   5.514
 5633SOL    HW217799   6.608   2.755   5.620
 5634SOL     OW17800   4.899   6.679   4.630
 5634SOL    HW117801   4.987   6.709   4.593
 5634SOL    HW217802   4.844   6.637   4.557
 5635SOL     OW17803   3.540   1.368   5.974
 5635SOL    HW117804   3.487   1.406   5.898
 5635SOL    HW217805   3.522   1.422   6.057
 5636SOL     OW17806   4.353   6.714   4.227
 5636SOL    HW117807   4.408   6.785   4.271
 5636SOL    HW217808   4.356   6.631   4.283
 5637SOL     OW17809   5.991   0.202   3.447
 5637SOL    HW117810   5.933   0.149   3.385
 5637SOL    HW217811   6.087   0.179   3.430
 5638SOL     OW17812   6.989   3.700   0.455
 5638SOL    HW117813   6.961   3.710   0.360
 5638SOL    HW217814   6.940   3.766   0.512
 5639SOL     OW17815   4.254   6.982   0.072
 5639SOL    HW117816   4.303   0.018   0.129
 5639SOL    HW217817   4.171   6.952   0.120
 5640SOL     OW17818   1.243   0.313   3.071
 5640SOL    HW117819   1.178   0.379   3.034
 5640SOL    HW217820   1.335   0.352   3.068
 5641SOL     OW17821   6.646   5.238   4.547
 5641SOL    HW117822   6.723   5.179   4.571
 5641SOL    HW217823   6.568   5.217   4.606
 5642SOL     OW17824   1.626   1.307   0.018
 5642SOL    HW117825   1.562   1.320   6.971
 5642SOL    HW217826   1.625   1.212   0.047
 5643SOL     OW17827   5.366   2.057   6.076
 5643SOL    HW117828   5.352   1.983   6.010
 5643SOL    HW217829   5.405   2.019   6.160
 5644SOL     OW17830   2.589   0.788   5.889
 5644SOL    HW117831   2.605   0.689   5.890
 5644SOL    HW217832   2.671   0.835   5.921
 5645SOL     OW17833   5.815   3.647   4.481
 5645SOL    HW117834   5.718   3.632   4.464
 5645SOL    HW217835   5.855   3.695   4.404
 5646SOL     OW17836   0.675   4.158   2.767
 5646SOL    HW117837   0.712   4.250   2.750
 5646SOL    HW217838   0.608   4.135   2.697
 5647SOL     OW17839   5.338   5.836   2.536
 5647SOL    HW117840   5.291   5.809   2.620
 5647SOL    HW217841   5.383   5.925   2.549
 5648SOL     OW17842   5.457   6.240   3.196
 5648SOL    HW117843   5.364   6.208   3.217
 5648SOL    HW217844   5.508   6.167   3.151
 5649SOL     OW17845   0.616   0.239   4.548
 5649SOL    HW117846   0.685   0.297   4.505
 5649SOL    HW217847   0.660   0.159   4.589
 5650SOL     OW17848   0.196   4.037   6.103
 5650SOL    HW117849   0.097   4.034   6.088
 5650SOL    HW217850   0.241   3.987   6.029
 5651SOL     OW17851   2.832   1.232   0.794
 5651SOL    HW117852   2.790   1.320   0.816
 5651SOL    HW217853   2.784   1.190   0.717
 5652SOL     OW17854   0.658   5.611   3.090
 5652SOL    HW117855   0.651   5.568   3.180
 5652SOL    HW217856   0.612   5.700   3.092
 5653SOL     OW17857   6.906   0.394   2.962
 5653SOL    HW117858   7.000   0.363   2.975
 5653SOL    HW217859   6.844   0.333   3.012
 5654SOL     OW17860   3.575   5.896   5.568
 5654SOL    HW117861   3.574   5.967   5.498
 5654SOL    HW217862   3.618   5.931   5.651
 5655SOL     OW17863   5.552   3.023   4.494
 5655SOL    HW117864   5.521   2.970   4.573
 5655SOL    HW217865   5.552   2.964   4.413
 5656SOL     OW17866   0.252   3.926   0.535
 5656SOL    HW117867   0.239   3.987   0.613
 5656SOL    HW217868   0.167   3.917   0.485
 5657SOL     OW17869   5.456   6.072   4.912
 5657SOL    HW117870   5.543   6.025   4.924
 5657SOL    HW217871   5.401   6.024   4.843
 5658SOL     OW17872   2.562   2.671   6.408
 5658SOL    HW117873   2.615   2.734   6.352
 5658SOL    HW217874   2.549   2.585   6.358
 5659SOL     OW17875   2.696   4.385   6.911
 5659SOL    HW117876   2.741   4.453   6.852
 5659SOL    HW217877   2.632   4.432   6.972
 5660SOL     OW17878   3.808   0.260   4.745
 5660SOL    HW117879   3.822   0.340   4.688
 5660SOL    HW217880   3.809   0.178   4.687
 5661SOL     OW17881   1.020   5.721   6.300
 5661SOL    HW117882   0.996   5.759   6.390
 5661SOL    HW217883   0.950   5.747   6.234
 5662SOL     OW17884   2.845   6.420   0.694
 5662SOL    HW117885   2.766   6.361   0.709
 5662SOL    HW217886   2.929   6.367   0.707
 5663SOL     OW17887   2.323   2.741   6.542
 5663SOL    HW117888   2.307   2.837   6.521
 5663SOL    HW217889   2.407   2.710   6.498
 5664SOL     OW17890   5.011   4.707   4.248
 5664SOL    HW117891   4.953   4.659   4.313
 5664SOL    HW217892   5.065   4.776   4.296
 5665SOL     OW17893   1.763   1.567   0.997
 5665SOL    HW117894   1.822   1.523   1.065
 5665SOL    HW217895   1.733   1.499   0.930
 5666SOL     OW17896   5.801   2.936   4.830
 5666SOL    HW117897   5.793   2.892   4.741
 5666SOL    HW217898   5.803   2.866   4.902
 5667SOL     OW17899   3.127   4.854   4.175
 5667SOL    HW117900   3.083   4.777   4.128
 5667SOL    HW217901   3.088   4.864   4.266
 5668SOL     OW17902   4.516   4.477   3.898
 5668SOL    HW117903   4.607   4.488   3.938
 5668SOL    HW217904   4.473   4.395   3.936
 5669SOL     OW17905   5.671   4.110   5.727
 5669SOL    HW117906   5.636   4.156   5.809
 5669SOL    HW217907   5.603   4.115   5.654
 5670SOL     OW17908   1.199   2.893   4.399
 5670SOL    HW117909   1.224   2.809   4.351
 5670SOL    HW217910   1.282   2.941   4.428
 5671SOL     OW17911   6.783   5.805   2.956
 5671SOL    HW117912   6.696   5.846   2.929
 5671SOL    HW217913   6.773   5.705   2.960
 5672SOL     OW17914   5.179   3.252   4.644
 5672SOL    HW117915   5.107   3.304   4.598
 5672SOL    HW217916   5.236   3.207   4.575
 5673SOL     OW17917   0.415   2.567   0.326
 5673SOL    HW117918   0.389   2.564   0.230
 5673SOL    HW217919   0.435   2.475   0.359
 5674SOL     OW17920   2.731   5.531   5.149
 5674SOL    HW117921   2.826   5.501   5.146
 5674SOL    HW217922   2.724   5.610   5.210
 5675SOL     OW17923   3.205   2.082   0.913
 5675SOL    HW117924   3.262   2.007   0.878
 5675SOL    HW217925   3.187   2.148   0.840
 5676SOL     OW17926   3.706   1.580   1.840
 5676SOL    HW117927   3.638   1.507   1.849
 5676SOL    HW217928   3.665   1.660   1.797
 5677SOL     OW17929   0.848   1.691   5.902
 5677SOL    HW117930   0.801   1.735   5.826
 5677SOL    HW217931   0.943   1.675   5.878
 5678SOL     OW17932   3.759   1.992   2.379
 5678SOL    HW117933   3.661   1.990   2.356
 5678SOL    HW217934   3.808   2.046   2.312
 5679SOL     OW17935   0.101   3.607   5.602
 5679SOL    HW117936   0.173   3.675   5.616
 5679SOL    HW217937   0.059   3.621   5.512
 5680SOL     OW17938   0.635   5.602   4.767
 5680SOL    HW117939   0.610   5.696   4.743
 5680SOL    HW217940   0.656   5.551   4.684
 5681SOL     OW17941   1.429   3.463   3.180
 5681SOL    HW117942   1.495   3.402   3.136
 5681SOL    HW217943   1.445   3.557   3.152
 5682SOL     OW17944   1.921   4.851   1.108
 5682SOL    HW117945   1.827   4.860   1.141
 5682SOL    HW217946   1.983   4.850   1.186
 5683SOL     OW17947   6.980   0.130   5.789
 5683SOL    HW117948   7.004   0.034   5.803
 5683SOL    HW217949   6.940   0.142   5.698
 5684SOL     OW17950   2.083   2.673   5.097
 5684SOL    HW117951   2.015   2.615   5.142
 5684SOL    HW217952   2.098   2.641   5.004
 5685SOL     OW17953   2.207   1.628   1.874
 5685SOL    HW117954   2.287   1.661   1.824
 5685SOL    HW217955   2.228   1.621   1.971
 5686SOL     OW17956   5.236   6.162   5.800
 5686SOL    HW117957   5.209   6.170   5.704
 5686SOL    HW217958   5.335   6.171   5.808
 5687SOL     OW17959   1.731   6.780   6.335
 5687SOL    HW117960   1.794   6.805   6.262
 5687SOL    HW217961   1.744   6.684   6.359
 5688SOL     OW17962   1.658   2.028   3.052
 5688SOL    HW117963   1.691   2.110   3.098
 5688SOL    HW217964   1.727   1.956   3.058
 5689SOL     OW17965   0.220   2.442   1.174
 5689SOL    HW117966   0.146   2.495   1.216
 5689SOL    HW217967   0.182   2.357   1.138
 5690SOL     OW17968   3.018   5.351   7.025
 5690SOL    HW117969   3.107   5.389   0.021
 5690SOL    HW217970   2.946   5.414   0.024
 5691SOL     OW17971   4.508   2.486   3.767
 5691SOL    HW117972   4.588   2.442   3.726
 5691SOL    HW217973   4.425   2.451   3.725
 5692SOL     OW17974   6.416   5.087   1.420
 5692SOL    HW117975   6.395   5.105   1.324
 5692SOL    HW217976   6.348   5.132   1.478
 5693SOL     OW17977   3.513   0.406   2.405
 5693SOL    HW117978   3.416   0.406   2.379
 5693SOL    HW217979   3.524   0.359   2.493
 5694SOL     OW17980   0.518   0.319   1.090
 5694SOL    HW117981   0.421   0.308   1.112
 5694SOL    HW217982   0.573   0.307   1.172
 5695SOL     OW17983   2.059   1.347   1.947
 5695SOL    HW117984   2.141   1.295   1.970
 5695SOL    HW217985   2.039   1.411   2.022
 5696SOL     OW17986   0.283   6.692   3.838
 5696SOL    HW117987   0.231   6.751   3.899
 5696SOL    HW217988   0.326   6.619   3.890
 5697SOL     OW17989   6.249   1.724   0.232
 5697SOL    HW117990   6.321   1.703   0.166
 5697SOL    HW217991   6.162   1.732   0.185
 5698SOL     OW17992   3.286   2.145   3.817
 5698SOL    HW117993   3.384   2.158   3.833
 5698SOL    HW217994   3.269   2.140   3.719
 5699SOL     OW17995   2.252   2.904   2.715
 5699SOL    HW117996   2.217   2.927   2.624
 5699SOL    HW217997   2.276   2.807   2.717
 5700SOL     OW17998   5.835   0.109   2.815
 5700SOL    HW117999   5.919   0.110   2.869
 5700SOL    HW218000   5.833   0.188   2.754
 5701SOL     OW18001   1.568   0.554   0.622
 5701SOL    HW118002   1.514   0.638   0.616
 5701SOL    HW218003   1.639   0.566   0.692
 5702SOL     OW18004   1.410   6.208   4.983
 5702SOL    HW118005   1.429   6.124   4.933
 5702SOL    HW218006   1.325   6.196   5.035
 5703SOL     OW18007   0.428   2.735   6.137
 5703SOL    HW118008   0.528   2.731   6.143
 5703SOL    HW218009   0.396   2.822   6.173
 5704SOL     OW18010   4.211   5.471   4.131
 5704SOL    HW118011   4.191   5.447   4.226
 5704SOL    HW218012   4.243   5.390   4.082
 5705SOL     OW18013   5.804   0.708   5.200
 5705SOL    HW118014   5.852   0.620   5.203
 5705SOL    HW218015   5.871   0.782   5.191
 5706SOL     OW18016   5.377   1.837   1.183
 5706SOL    HW118017   5.311   1.812   1.111
 5706SOL    HW218018   5.349   1.797   1.270
 5707SOL     OW18019   6.010   5.359   1.070
 5707SOL    HW118020   5.924   5.311   1.052
 5707SOL    HW218021   6.046   5.330   1.159
 5708SOL     OW18022   5.323   6.233   1.752
 5708SOL    HW118023   5.234   6.194   1.726
 5708SOL    HW218024   5.337   6.219   1.850
 5709SOL     OW18025   0.352   2.889   2.417
 5709SOL    HW118026   0.347   2.939   2.331
 5709SOL    HW218027   0.315   2.945   2.491
 5710SOL     OW18028   4.972   1.416   1.024
 5710SOL    HW118029   5.029   1.464   1.091
 5710SOL    HW218030   4.881   1.457   1.024
 5711SOL     OW18031   4.597   1.848   2.106
 5711SOL    HW118032   4.599   1.749   2.087
 5711SOL    HW218033   4.514   1.869   2.159
 5712SOL     OW18034   6.143   6.108   6.698
 5712SOL    HW118035   6.160   6.049   6.777
 5712SOL    HW218036   6.135   6.203   6.728
 5713SOL     OW18037   1.190   1.372   0.839
 5713SOL    HW118038   1.114   1.436   0.855
 5713SOL    HW218039   1.205   1.317   0.921
 5714SOL     OW18040   5.669   0.514   0.935
 5714SOL    HW118041   5.756   0.486   0.894
 5714SOL    HW218042   5.616   0.566   0.868
 5715SOL     OW18043   7.024   6.845   1.148
 5715SOL    HW118044   6.938   6.794   1.148
 5715SOL    HW218045   7.008   6.937   1.112
 5716SOL     OW18046   0.660   4.983   5.110
 5716SOL    HW118047   0.716   5.062   5.084
 5716SOL    HW218048   0.644   4.926   5.029
 5717SOL     OW18049   0.224   5.249   3.436
 5717SOL    HW118050   0.315   5.206   3.443
 5717SOL    HW218051   0.161   5.186   3.393
 5718SOL     OW18052   1.263   4.090   0.273
 5718SOL    HW118053   1.334   4.157   0.250
 5718SOL    HW218054   1.269   4.012   0.212
 5719SOL     OW18055   2.832   3.245   0.630
 5719SOL    HW118056   2.748   3.292   0.658
 5719SOL    HW218057   2.911   3.303   0.649
 5720SOL     OW18058   2.946   5.153   6.545
 5720SOL    HW118059   2.925   5.209   6.625
 5720SOL    HW218060   2.953   5.211   6.465
 5721SOL     OW18061   1.153   2.885   0.853
 5721SOL    HW118062   1.138   2.804   0.795
 5721SOL    HW218063   1.136   2.861   0.948
 5722SOL     OW18064   1.429   0.426   5.756
 5722SOL    HW118065   1.426   0.406   5.658
 5722SOL    HW218066   1.478   0.512   5.771
 5723SOL     OW18067   4.317   3.186   0.351
 5723SOL    HW118068   4.230   3.231   0.367
 5723SOL    HW218069   4.327   3.109   0.415
 5724SOL     OW18070   5.843   2.171   5.800
 5724SOL    HW118071   5.803   2.253   5.840
 5724SOL    HW218072   5.783   2.092   5.820
 5725SOL     OW18073   6.904   4.512   4.840
 5725SOL    HW118074   6.822   4.481   4.888
 5725SOL    HW218075   6.949   4.435   4.796
 5726SOL     OW18076   4.562   4.514   2.190
 5726SOL    HW118077   4.540   4.435   2.133
 5726SOL    HW218078   4.512   4.594   2.157
 5727SOL     OW18079   1.279   2.693   5.943
 5727SOL    HW118080   1.221   2.755   5.997
 5727SOL    HW218081   1.246   2.599   5.954
 5728SOL     OW18082   2.788   6.777   5.021
 5728SOL    HW118083   2.826   6.713   4.955
 5728SOL    HW218084   2.709   6.735   5.067
 5729SOL     OW18085   2.669   1.831   4.681
 5729SOL    HW118086   2.696   1.824   4.585
 5729SOL    HW218087   2.745   1.868   4.735
 5730SOL     OW18088   6.474   4.585   4.975
 5730SOL    HW118089   6.427   4.609   5.060
 5730SOL    HW218090   6.568   4.617   4.979
 5731SOL     OW18091   1.010   6.365   2.657
 5731SOL    HW118092   0.928   6.389   2.605
 5731SOL    HW218093   1.065   6.301   2.604
 5732SOL     OW18094   5.563   0.223   3.586
 5732SOL    HW118095   5.538   0.126   3.582
 5732SOL    HW218096   5.533   0.269   3.502
 5733SOL     OW18097   2.708   0.977   5.002
 5733SOL    HW118098   2.682   0.886   5.034
 5733SOL    HW218099   2.751   1.028   5.077
 5734SOL     OW18100   1.621   6.844   3.761
 5734SOL    HW118101   1.532   6.848   3.806
 5734SOL    HW218102   1.673   6.927   3.782
 5735SOL     OW18103   3.028   1.044   1.354
 5735SOL    HW118104   3.124   1.044   1.328
 5735SOL    HW218105   2.979   0.973   1.304
 5736SOL     OW18106   1.947   5.448   0.955
 5736SOL    HW118107   1.972   5.383   0.884
 5736SOL    HW218108   1.857   5.487   0.934
 5737SOL     OW18109   5.879   3.967   7.025
 5737SOL    HW118110   5.949   4.030   0.030
 5737SOL    HW218111   5.920   3.904   6.960
 5738SOL     OW18112   0.477   5.046   4.431
 5738SOL    HW118113   0.576   5.056   4.431
 5738SOL    HW218114   0.435   5.117   4.374
 5739SOL     OW18115   0.787   3.066   1.145
 5739SOL    HW118116   0.690   3.090   1.136
 5739SOL    HW218117   0.803   2.976   1.104
 5740SOL     OW18118   4.551   4.907   0.031
 5740SOL    HW118119   4.621   4.945   7.000
 5740SOL    HW218120   4.590   4.891   0.122
 5741SOL     OW18121   0.354   3.034   2.166
 5741SOL    HW118122   0.297   2.970   2.114
 5741SOL    HW218123   0.310   3.124   2.168
 5742SOL     OW18124   0.489   5.191   3.790
 5742SOL    HW118125   0.581   5.152   3.792
 5742SOL    HW218126   0.490   5.276   3.736
 5743SOL     OW18127   1.110   6.494   5.725
 5743SOL    HW118128   1.102   6.447   5.813
 5743SOL    HW218129   1.133   6.428   5.654
 5744SOL     OW18130   6.340   0.515   2.079
 5744SOL    HW118131   6.353   0.424   2.120
 5744SOL    HW218132   6.260   0.559   2.121
 5745SOL     OW18133   6.973   3.326   2.841
 5745SOL    HW118134   0.040   3.332   2.817
 5745SOL    HW218135   6.934   3.418   2.843
 5746SOL     OW18136   6.579   4.373   6.697
 5746SOL    HW118137   6.651   4.310   6.670
 5746SOL    HW218138   6.521   4.394   6.619
 5747SOL     OW18139   0.296   5.853   3.872
 5747SOL    HW118140   0.365   5.819   3.808
 5747SOL    HW218141   0.207   5.855   3.826
 5748SOL     OW18142   1.492   0.617   3.876
 5748SOL    HW118143   1.493   0.520   3.851
 5748SOL    HW218144   1.398   0.651   3.874
 5749SOL     OW18145   0.662   1.024   3.187
 5749SOL    HW118146   0.689   0.995   3.095
 5749SOL    HW218147   0.661   0.944   3.248
 5750SOL     OW18148   5.760   6.718   2.305
 5750SOL    HW118149   5.819   6.637   2.309
 5750SOL    HW218150   5.787   6.783   2.376
 5751SOL     OW18151   0.508   2.386   6.282
 5751SOL    HW118152   0.415   2.421   6.268
 5751SOL    HW218153   0.573   2.461   6.271
 5752SOL     OW18154   1.405   1.372   6.899
 5752SOL    HW118155   1.352   1.314   6.961
 5752SOL    HW218156   1.414   1.463   6.938
 5753SOL     OW18157   4.993   1.503   0.085
 5753SOL    HW118158   5.027   1.425   0.031
 5753SOL    HW218159   5.067   1.569   0.098
 5754SOL     OW18160   6.241   5.839   0.851
 5754SOL    HW118161   6.253   5.913   0.785
 5754SOL    HW218162   6.236   5.877   0.944
 5755SOL     OW18163   3.480   3.737   1.558
 5755SOL    HW118164   3.471   3.649   1.511
 5755SOL    HW218165   3.541   3.726   1.637
 5756SOL     OW18166   6.527   0.006   4.265
 5756SOL    HW118167   6.578   7.013   4.182
 5756SOL    HW218168   6.483   6.952   4.300
 5757SOL     OW18169   6.446   6.157   1.968
 5757SOL    HW118170   6.517   6.186   1.904
 5757SOL    HW218171   6.393   6.236   1.998
 5758SOL     OW18172   2.779   1.163   5.743
 5758SOL    HW118173   2.775   1.245   5.800
 5758SOL    HW218174   2.857   1.170   5.681
 5759SOL     OW18175   0.785   1.160   6.142
 5759SOL    HW118176   0.689   1.187   6.146
 5759SOL    HW218177   0.793   1.061   6.154
 5760SOL     OW18178   6.880   5.817   1.216
 5760SOL    HW118179   6.932   5.897   1.186
 5760SOL    HW218180   6.884   5.747   1.144
 5761SOL     OW18181   4.138   0.921   4.235
 5761SOL    HW118182   4.097   1.009   4.209
 5761SOL    HW218183   4.191   0.885   4.158
 5762SOL     OW18184   4.753   6.061   1.598
 5762SOL    HW118185   4.779   6.156   1.579
 5762SOL    HW218186   4.750   6.047   1.697
 5763SOL     OW18187   3.456   0.855   0.793
 5763SOL    HW118188   3.371   0.872   0.744
 5763SOL    HW218189   3.524   0.923   0.767
 5764SOL     OW18190   3.878   2.952   6.400
 5764SOL    HW118191   3.927   2.989   6.479
 5764SOL    HW218192   3.903   3.004   6.318
 5765SOL     OW18193   6.499   5.814   6.678
 5765SOL    HW118194   6.488   5.811   6.579
 5765SOL    HW218195   6.534   5.904   6.705
 5766SOL     OW18196   2.395   1.323   3.210
 5766SOL    HW118197   2.342   1.359   3.287
 5766SOL    HW218198   2.469   1.265   3.244
 5767SOL     OW18199   5.461   6.522   0.116
 5767SOL    HW118200   5.441   6.433   0.157
 5767SOL    HW218201   5.397   6.590   0.151
 5768SOL     OW18202   6.667   6.675   2.161
 5768SOL    HW118203   6.653   6.609   2.086
 5768SOL    HW218204   6.582   6.726   2.176
 5769SOL     OW18205   0.601   4.140   3.162
 5769SOL    HW118206   0.547   4.177   3.086
 5769SOL    HW218207   0.586   4.196   3.244
 5770SOL     OW18208   5.120   2.059   1.874
 5770SOL    HW118209   5.084   2.135   1.928
 5770SOL    HW218210   5.142   2.090   1.782
 5771SOL     OW18211   0.960   0.836   1.787
 5771SOL    HW118212   1.038   0.833   1.724
 5771SOL    HW218213   0.941   0.744   1.821
 5772SOL     OW18214   6.463   5.275   5.727
 5772SOL    HW118215   6.401   5.214   5.776
 5772SOL    HW218216   6.419   5.364   5.715
 5773SOL     OW18217   5.076   5.967   4.499
 5773SOL    HW118218   5.067   6.066   4.498
 5773SOL    HW218219   5.168   5.941   4.470
 5774SOL     OW18220   1.782   5.282   2.178
 5774SOL    HW118221   1.699   5.227   2.186
 5774SOL    HW218222   1.834   5.277   2.263
 5775SOL     OW18223   1.155   0.798   0.630
 5775SOL    HW118224   1.131   0.871   0.694
 5775SOL    HW218225   1.100   0.808   0.547
 5776SOL     OW18226   5.130   0.852   6.127
 5776SOL    HW118227   5.150   0.933   6.182
 5776SOL    HW218228   5.083   0.784   6.183
 5777SOL     OW18229   5.703   6.181   4.647
 5777SOL    HW118230   5.709   6.116   4.723
 5777SOL    HW218231   5.795   6.206   4.618
 5778SOL     OW18232   2.836   6.940   4.056
 5778SOL    HW118233   2.858   0.002   4.090
 5778SOL    HW218234   2.891   6.921   3.975
 5779SOL     OW18235   3.995   0.226   2.035
 5779SOL    HW118236   3.979   0.154   2.103
 5779SOL    HW218237   4.016   0.312   2.083
 5780SOL     OW18238   6.190   4.507   0.756
 5780SOL    HW118239   6.164   4.428   0.811
 5780SOL    HW218240   6.240   4.476   0.675
 5781SOL     OW18241   4.103   4.058   5.411
 5781SOL    HW118242   4.091   4.145   5.365
 5781SOL    HW218243   4.104   3.984   5.343
 5782SOL     OW18244   4.922   2.117   2.617
 5782SOL    HW118245   4.884   2.110   2.709
 5782SOL    HW218246   4.998   2.182   2.617
 5783SOL     OW18247   3.635   6.074   3.011
 5783SOL    HW118248   3.659   6.096   3.106
 5783SOL    HW218249   3.546   6.114   2.989
 5784SOL     OW18250   1.256   6.243   1.177
 5784SOL    HW118251   1.189   6.261   1.105
 5784SOL    HW218252   1.277   6.328   1.225
 5785SOL     OW18253   2.297   1.625   6.561
 5785SOL    HW118254   2.351   1.709   6.558
 5785SOL    HW218255   2.304   1.584   6.652
 5786SOL     OW18256   1.848   1.549   6.535
 5786SOL    HW118257   1.796   1.632   6.516
 5786SOL    HW218258   1.789   1.483   6.582
 5787SOL     OW18259   0.924   2.113   5.565
 5787SOL    HW118260   0.889   2.030   5.522
 5787SOL    HW218261   0.981   2.163   5.500
 5788SOL     OW18262   0.496   2.452   2.056
 5788SOL    HW118263   0.593   2.457   2.033
 5788SOL    HW218264   0.472   2.359   2.083
 5789SOL     OW18265   2.789   0.029   0.167
 5789SOL    HW118266   2.869   7.025   0.218
 5789SOL    HW218267   2.706   7.016   0.204
 5790SOL     OW18268   6.956   6.316   2.289
 5790SOL    HW118269   6.916   6.307   2.380
 5790SOL    HW218270   6.883   6.329   2.222
 5791SOL     OW18271   4.353   0.680   1.169
 5791SOL    HW118272   4.430   0.725   1.215
 5791SOL    HW218273   4.273   0.682   1.229
 5792SOL     OW18274   4.509   2.492   2.630
 5792SOL    HW118275   4.504   2.564   2.699
 5792SOL    HW218276   4.457   2.413   2.660
 5793SOL     OW18277   4.158   2.313   0.242
 5793SOL    HW118278   4.245   2.331   0.287
 5793SOL    HW218279   4.148   2.374   0.163
 5794SOL     OW18280   2.913   6.284   0.117
 5794SOL    HW118281   2.900   6.367   0.064
 5794SOL    HW218282   2.991   6.233   0.081
 5795SOL     OW18283   1.403   1.062   1.397
 5795SOL    HW118284   1.348   1.133   1.441
 5795SOL    HW218285   1.493   1.100   1.374
 5796SOL     OW18286   4.754   0.491   5.717
 5796SOL    HW118287   4.680   0.440   5.674
 5796SOL    HW218288   4.805   0.541   5.648
 5797SOL     OW18289   6.034   1.775   0.068
 5797SOL    HW118290   5.939   1.751   0.049
 5797SOL    HW218291   6.069   1.835   7.026
 5798SOL     OW18292   2.160   2.613   4.817
 5798SOL    HW118293   2.208   2.531   4.786
 5798SOL    HW218294   2.112   2.654   4.739
 5799SOL     OW18295   3.027   0.124   3.946
 5799SOL    HW118296   2.996   0.160   3.858
 5799SOL    HW218297   3.101   0.059   3.930
 5800SOL     OW18298   1.472   6.252   1.725
 5800SOL    HW118299   1.482   6.212   1.634
 5800SOL    HW218300   1.522   6.338   1.730
 5801SOL     OW18301   1.692   2.292   3.178
 5801SOL    HW118302   1.734   2.351   3.110
 5801SOL    HW218303   1.644   2.349   3.245
 5802SOL     OW18304   0.058   0.007   3.181
 5802SOL    HW118305   0.026   0.028   3.089
 5802SOL    HW218306   0.102   6.946   3.182
 5803SOL     OW18307   0.638   6.494   4.309
 5803SOL    HW118308   0.610   6.474   4.403
 5803SOL    HW218309   0.665   6.590   4.301
 5804SOL     OW18310   6.178   2.213   3.374
 5804SOL    HW118311   6.190   2.311   3.357
 5804SOL    HW218312   6.086   2.196   3.410
 5805SOL     OW18313   1.029   2.490   1.343
 5805SOL    HW118314   0.958   2.459   1.279
 5805SOL    HW218315   0.986   2.540   1.418
 5806SOL     OW18316   6.745   4.367   1.521
 5806SOL    HW118317   6.831   4.317   1.521
 5806SOL    HW218318   6.746   4.435   1.594
 5807SOL     OW18319   0.903   0.918   2.514
 5807SOL    HW118320   0.893   1.008   2.556
 5807SOL    HW218321   0.974   0.920   2.444
 5808SOL     OW18322   6.620   6.394   5.944
 5808SOL    HW118323   6.550   6.463   5.927
 5808SOL    HW218324   6.639   6.343   5.860
 5809SOL     OW18325   7.024   3.644   4.442
 5809SOL    HW118326   7.011   3.558   4.392
 5809SOL    HW218327   0.090   3.651   4.472
 5810SOL     OW18328   0.864   6.814   5.581
 5810SOL    HW118329   0.853   6.748   5.655
 5810SOL    HW218330   0.788   6.804   5.517
 5811SOL     OW18331   3.324   4.861   6.972
 5811SOL    HW118332   3.246   4.816   7.015
 5811SOL    HW218333   3.327   4.837   6.875
 5812SOL     OW18334   6.727   2.926   6.174
 5812SOL    HW118335   6.659   2.987   6.133
 5812SOL    HW218336   6.723   2.837   6.129
 5813SOL     OW18337   6.427   5.471   1.059
 5813SOL    HW118338   6.359   5.401   1.038
 5813SOL    HW218339   6.449   5.468   1.157
 5814SOL     OW18340   5.320   2.020   2.581
 5814SOL    HW118341   5.412   2.002   2.545
 5814SOL    HW218342   5.328   2.062   2.671
 5815SOL     OW18343   6.556   3.922   4.811
 5815SOL    HW118344   6.500   3.855   4.760
 5815SOL    HW218345   6.548   4.011   4.766
 5816SOL     OW18346   0.207   4.601   1.039
 5816SOL    HW118347   0.196   4.645   0.950
 5816SOL    HW218348   0.182   4.504   1.031
 5817SOL     OW18349   6.067   2.670   4.374
 5817SOL    HW118350   6.068   2.744   4.441
 5817SOL    HW218351   6.140   2.605   4.395
 5818SOL     OW18352   2.648   0.480   3.973
 5818SOL    HW118353   2.572   0.477   4.038
 5818SOL    HW218354   2.735   0.470   4.022
 5819SOL     OW18355   4.312   4.131   0.895
 5819SOL    HW118356   4.341   4.075   0.972
 5819SOL    HW218357   4.318   4.228   0.920
 5820SOL     OW18358   0.899   6.426   2.181
 5820SOL    HW118359   0.951   6.373   2.114
 5820SOL    HW218360   0.813   6.456   2.140
 5821SOL     OW18361   5.773   6.460   2.637
 5821SOL    HW118362   5.813   6.382   2.590
 5821SOL    HW218363   5.699   6.498   2.581
 5822SOL     OW18364   0.845   4.254   3.126
 5822SOL    HW118365   0.773   4.186   3.141
 5822SOL    HW218366   0.928   4.208   3.096
 5823SOL     OW18367   2.702   6.419   5.462
 5823SOL    HW118368   2.602   6.421   5.456
 5823SOL    HW218369   2.733   6.481   5.533
 5824SOL     OW18370   2.795   5.460   2.894
 5824SOL    HW118371   2.884   5.428   2.926
 5824SOL    HW218372   2.774   5.419   2.805
 5825SOL     OW18373   3.924   2.031   4.411
 5825SOL    HW118374   3.872   1.976   4.475
 5825SOL    HW218375   3.957   2.114   4.457
 5826SOL     OW18376   1.158   6.155   5.076
 5826SOL    HW118377   1.157   6.249   5.110
 5826SOL    HW218378   1.091   6.146   5.003
 5827SOL     OW18379   2.199   4.126   3.877
 5827SOL    HW118380   2.152   4.213   3.894
 5827SOL    HW218381   2.199   4.071   3.960
 5828SOL     OW18382   4.599   0.194   4.853
 5828SOL    HW118383   4.524   0.234   4.800
 5828SOL    HW218384   4.568   0.175   4.946
 5829SOL     OW18385   1.947   1.271   3.114
 5829SOL    HW118386   1.980   1.363   3.136
 5829SOL    HW218387   1.932   1.221   3.199
 5830SOL     OW18388   4.997   4.960   4.723
 5830SOL    HW118389   5.000   4.867   4.686
 5830SOL    HW218390   4.959   5.022   4.654
 5831SOL     OW18391   2.436   1.976   4.797
 5831SOL    HW118392   2.345   1.967   4.756
 5831SOL    HW218393   2.505   1.944   4.733
 5832SOL     OW18394   2.389   4.899   3.565
 5832SOL    HW118395   2.461   4.863   3.506
 5832SOL    HW218396   2.332   4.964   3.514
 5833SOL     OW18397   2.668   4.775   1.224
 5833SOL    HW118398   2.600   4.771   1.297
 5833SOL    HW218399   2.703   4.683   1.204
 5834SOL     OW18400   5.654   1.918   5.894
 5834SOL    HW118401   5.572   1.914   5.837
 5834SOL    HW218402   5.650   1.847   5.964
 5835SOL     OW18403   3.621   1.183   3.914
 5835SOL    HW118404   3.711   1.227   3.907
 5835SOL    HW218405   3.594   1.178   4.010
 5836SOL     OW18406   5.151   4.740   1.094
 5836SOL    HW118407   5.141   4.838   1.077
 5836SOL    HW218408   5.065   4.703   1.128
 5837SOL     OW18409   2.215   4.410   0.097
 5837SOL    HW118410   2.302   4.371   0.126
 5837SOL    HW218411   2.227   4.459   0.011
 5838SOL     OW18412   2.924   3.545   0.498
 5838SOL    HW118413   2.920   3.505   0.407
 5838SOL    HW218414   3.012   3.526   0.540
 5839SOL     OW18415   2.939   1.480   1.123
 5839SOL    HW118416   2.971   1.543   1.053
 5839SOL    HW218417   2.987   1.392   1.113
 5840SOL     OW18418   6.239   3.630   2.348
 5840SOL    HW118419   6.150   3.669   2.323
 5840SOL    HW218420   6.226   3.557   2.414
 5841SOL     OW18421   5.558   2.642   1.014
 5841SOL    HW118422   5.594   2.658   1.106
 5841SOL    HW218423   5.465   2.679   1.007
 5842SOL     OW18424   3.995   2.172   2.764
 5842SOL    HW118425   4.026   2.172   2.669
 5842SOL    HW218426   4.065   2.212   2.823
 5843SOL     OW18427   3.136   2.453   0.969
 5843SOL    HW118428   3.079   2.381   1.008
 5843SOL    HW218429   3.104   2.475   0.877
 5844SOL     OW18430   6.723   5.425   5.208
 5844SOL    HW118431   6.725   5.516   5.248
 5844SOL    HW218432   6.661   5.367   5.260
 5845SOL     OW18433   2.113   6.305   2.990
 5845SOL    HW118434   2.206   6.270   3.002
 5845SOL    HW218435   2.049   6.245   3.038
 5846SOL     OW18436   0.465   4.350   4.716
 5846SOL    HW118437   0.397   4.406   4.763
 5846SOL    HW218438   0.514   4.406   4.649
 5847SOL     OW18439   1.925   4.137   6.107
 5847SOL    HW118440   1.997   4.175   6.048
 5847SOL    HW218441   1.968   4.096   6.188
 5848SOL     OW18442   3.199   6.385   1.461
 5848SOL    HW118443   3.239   6.311   1.407
 5848SOL    HW218444   3.112   6.412   1.420
 5849SOL     OW18445   3.277   5.622   6.818
 5849SOL    HW118446   3.363   5.571   6.819
 5849SOL    HW218447   3.262   5.666   6.907
 5850SOL     OW18448   5.092   2.022   1.378
 5850SOL    HW118449   5.014   2.074   1.415
 5850SOL    HW218450   5.170   2.031   1.441
 5851SOL     OW18451   1.295   3.249   5.450
 5851SOL    HW118452   1.236   3.172   5.426
 5851SOL    HW218453   1.381   3.214   5.488
 5852SOL     OW18454   4.452   4.902   3.078
 5852SOL    HW118455   4.470   4.804   3.090
 5852SOL    HW218456   4.432   4.944   3.167
 5853SOL     OW18457   4.521   4.418   0.327
 5853SOL    HW118458   4.549   4.328   0.296
 5853SOL    HW218459   4.602   4.471   0.353
 5854SOL     OW18460   2.790   4.448   5.396
 5854SOL    HW118461   2.828   4.462   5.487
 5854SOL    HW218462   2.859   4.472   5.327
 5855SOL     OW18463   1.538   1.770   4.748
 5855SOL    HW118464   1.494   1.830   4.681
 5855SOL    HW218465   1.622   1.812   4.782
 5856SOL     OW18466   0.539   0.385   2.464
 5856SOL    HW118467   0.441   0.369   2.475
 5856SOL    HW218468   0.558   0.483   2.476
 5857SOL     OW18469   6.315   5.383   6.679
 5857SOL    HW118470   6.380   5.398   6.604
 5857SOL    HW218471   6.235   5.442   6.666
 5858SOL     OW18472   3.093   1.684   2.181
 5858SOL    HW118473   3.055   1.592   2.171
 5858SOL    HW218474   3.060   1.743   2.108
 5859SOL     OW18475   5.970   4.715   1.622
 5859SOL    HW118476   5.970   4.707   1.721
 5859SOL    HW218477   6.057   4.681   1.585
 5860SOL     OW18478   1.636   3.408   2.034
 5860SOL    HW118479   1.608   3.439   1.943
 5860SOL    HW218480   1.555   3.396   2.092
 5861SOL     OW18481   5.489   6.964   4.884
 5861SOL    HW118482   5.511   0.032   4.888
 5861SOL    HW218483   5.504   6.930   4.791
 5862SOL     OW18484   7.007   4.470   1.615
 5862SOL    HW118485   6.965   4.473   1.706
 5862SOL    HW218486   0.039   4.549   1.605
 5863SOL     OW18487   4.116   6.783   6.162
 5863SOL    HW118488   4.189   6.717   6.148
 5863SOL    HW218489   4.154   6.867   6.202
 5864SOL     OW18490   3.786   2.910   3.600
 5864SOL    HW118491   3.747   2.857   3.525
 5864SOL    HW218492   3.722   2.910   3.677
 5865SOL     OW18493   6.865   6.486   1.485
 5865SOL    HW118494   6.871   6.492   1.385
 5865SOL    HW218495   6.930   6.549   1.526
 5866SOL     OW18496   3.479   3.215   4.018
 5866SOL    HW118497   3.531   3.210   3.932
 5866SOL    HW218498   3.438   3.305   4.027
 5867SOL     OW18499   5.017   1.176   0.932
 5867SOL    HW118500   5.048   1.193   0.839
 5867SOL    HW218501   5.012   1.262   0.983
 5868SOL     OW18502   1.493   1.157   1.028
 5868SOL    HW118503   1.471   1.072   0.980
 5868SOL    HW218504   1.408   1.206   1.049
 5869SOL     OW18505   1.995   5.251   3.660
 5869SOL    HW118506   2.005   5.156   3.633
 5869SOL    HW218507   2.007   5.310   3.580
 5870SOL     OW18508   4.147   6.538   3.539
 5870SOL    HW118509   4.201   6.621   3.520
 5870SOL    HW218510   4.051   6.563   3.547
 5871SOL     OW18511   3.970   3.095   3.507
 5871SOL    HW118512   3.893   3.038   3.536
 5871SOL    HW218513   3.959   3.119   3.410
 5872SOL     OW18514   3.295   5.478   1.195
 5872SOL    HW118515   3.294   5.441   1.102
 5872SOL    HW218516   3.211   5.452   1.242
 5873SOL     OW18517   4.401   6.885   1.977
 5873SOL    HW118518   4.439   6.974   2.001
 5873SOL    HW218519   4.438   6.855   1.889
 5874SOL     OW18520   0.053   4.096   4.856
 5874SOL    HW118521   0.031   4.022   4.919
 5874SOL    HW218522   0.118   4.063   4.787
 5875SOL     OW18523   4.310   2.446   0.832
 5875SOL    HW118524   4.393   2.440   0.777
 5875SOL    HW218525   4.230   2.439   0.771
 5876SOL     OW18526   2.997   3.130   2.902
 5876SOL    HW118527   2.991   3.230   2.902
 5876SOL    HW218528   2.933   3.093   2.835
 5877SOL     OW18529   4.969   4.078   1.818
 5877SOL    HW118530   4.953   4.060   1.915
 5877SOL    HW218531   5.011   3.997   1.776
 5878SOL     OW18532   0.706   3.797   1.733
 5878SOL    HW118533   0.632   3.743   1.694
 5878SOL    HW218534   0.736   3.755   1.819
 5879SOL     OW18535   1.726   4.609   4.855
 5879SOL    HW118536   1.722   4.606   4.756
 5879SOL    HW218537   1.638   4.580   4.893
 5880SOL     OW18538   2.776   4.930   6.796
 5880SOL    HW118539   2.802   5.014   6.843
 5880SOL    HW218540   2.726   4.952   6.712
 5881SOL     OW18541   1.764   6.612   3.753
 5881SOL    HW118542   1.754   6.563   3.840
 5881SOL    HW218543   1.708   6.695   3.755
 5882SOL     OW18544   4.563   0.587   2.967
 5882SOL    HW118545   4.565   0.588   2.867
 5882SOL    HW218546   4.515   0.669   2.999
 5883SOL     OW18547   1.513   3.195   5.610
 5883SOL    HW118548   1.565   3.113   5.632
 5883SOL    HW218549   1.500   3.250   5.693
 5884SOL     OW18550   0.113   0.581   3.145
 5884SOL    HW118551   0.062   0.495   3.135
 5884SOL    HW218552   0.132   0.598   3.241
 5885SOL     OW18553   5.463   6.499   0.415
 5885SOL    HW118554   5.424   6.409   0.437
 5885SOL    HW218555   5.561   6.491   0.401
 5886SOL     OW18556   5.597   1.346   6.054
 5886SOL    HW118557   5.605   1.297   5.967
 5886SOL    HW218558   5.645   1.295   6.125
 5887SOL     OW18559   3.510   6.812   2.641
 5887SOL    HW118560   3.458   6.739   2.684
 5887SOL    HW218561   3.534   6.785   2.548
 5888SOL     OW18562   6.606   6.001   1.604
 5888SOL    HW118563   6.618   6.097   1.576
 5888SOL    HW218564   6.584   5.946   1.524
 5889SOL     OW18565   3.118   6.737   0.619
 5889SOL    HW118566   3.089   6.830   0.638
 5889SOL    HW218567   3.213   6.738   0.587
 5890SOL     OW18568   4.053   5.347   6.230
 5890SOL    HW118569   4.012   5.256   6.232
 5890SOL    HW218570   4.112   5.356   6.150
 5891SOL     OW18571   1.698   2.990   6.456
 5891SOL    HW118572   1.679   3.060   6.524
 5891SOL    HW218573   1.636   2.913   6.469
 5892SOL     OW18574   2.763   5.935   2.117
 5892SOL    HW118575   2.744   5.851   2.066
 5892SOL    HW218576   2.719   6.012   2.070
 5893SOL     OW18577   1.341   2.954   2.654
 5893SOL    HW118578   1.418   2.904   2.692
 5893SOL    HW218579   1.326   3.038   2.706
 5894SOL     OW18580   1.163   3.742   3.719
 5894SOL    HW118581   1.189   3.646   3.711
 5894SOL    HW218582   1.100   3.765   3.645
 5895SOL     OW18583   5.437   4.990   2.714
 5895SOL    HW118584   5.499   5.043   2.772
 5895SOL    HW218585   5.455   4.893   2.726
 5896SOL     OW18586   4.827   1.677   5.621
 5896SOL    HW118587   4.760   1.733   5.671
 5896SOL    HW218588   4.826   1.703   5.525
 5897SOL     OW18589   4.586   4.370   0.998
 5897SOL    HW118590   4.490   4.391   1.015
 5897SOL    HW218591   4.608   4.390   0.903
 5898SOL     OW18592   1.812   6.381   3.145
 5898SOL    HW118593   1.726   6.332   3.130
 5898SOL    HW218594   1.805   6.435   3.229
 5899SOL     OW18595   5.145   0.291   3.344
 5899SOL    HW118596   5.174   0.317   3.436
 5899SOL    HW218597   5.218   0.313   3.279
 5900SOL     OW18598   3.902   4.895   1.923
 5900SOL    HW118599   3.824   4.949   1.955
 5900SOL    HW218600   3.946   4.850   2.001
 5901SOL     OW18601   2.807   6.075   4.073
 5901SOL    HW118602   2.708   6.058   4.068
 5901SOL    HW218603   2.826   6.168   4.041
 5902SOL     OW18604   5.943   2.778   0.317
 5902SOL    HW118605   5.915   2.867   0.352
 5902SOL    HW218606   6.038   2.761   0.340
 5903SOL     OW18607   0.718   2.058   6.749
 5903SOL    HW118608   0.683   1.989   6.686
 5903SOL    HW218609   0.763   2.013   6.826
 5904SOL     OW18610   1.441   3.385   2.207
 5904SOL    HW118611   1.494   3.361   2.289
 5904SOL    HW218612   1.387   3.306   2.178
 5905SOL     OW18613   0.121   3.523   1.941
 5905SOL    HW118614   0.137   3.604   1.884
 5905SOL    HW218615   0.022   3.511   1.956
 5906SOL     OW18616   6.647   0.958   3.538
 5906SOL    HW118617   6.701   1.038   3.512
 5906SOL    HW218618   6.582   0.983   3.609
 5907SOL     OW18619   1.935   1.164   2.856
 5907SOL    HW118620   2.017   1.143   2.804
 5907SOL    HW218621   1.959   1.187   2.950
 5908SOL     OW18622   0.905   2.990   5.637
 5908SOL    HW118623   0.865   3.011   5.726
 5908SOL    HW218624   0.931   2.893   5.634
 5909SOL     OW18625   6.784   4.641   6.825
 5909SOL    HW118626   6.715   4.594   6.879
 5909SOL    HW218627   6.821   4.579   6.756
 5910SOL     OW18628   1.226   1.459   3.374
 5910SOL    HW118629   1.262   1.552   3.365
 5910SOL    HW218630   1.268   1.415   3.453
 5911SOL     OW18631   6.590   5.614   6.876
 5911SOL    HW118632   6.534   5.571   6.948
 5911SOL    HW218633   6.530   5.651   6.805
 5912SOL     OW18634   0.496   1.255   3.261
 5912SOL    HW118635   0.555   1.175   3.256
 5912SOL    HW218636   0.499   1.305   3.175
 5913SOL     OW18637   6.629   2.785   1.336
 5913SOL    HW118638   6.543   2.797   1.285
 5913SOL    HW218639   6.706   2.808   1.277
 5914SOL     OW18640   1.573   0.079   0.559
 5914SOL    HW118641   1.535   0.151   0.617
 5914SOL    HW218642   1.629   0.017   0.615
 5915SOL     OW18643   3.730   0.138   5.487
 5915SOL    HW118644   3.664   0.132   5.413
 5915SOL    HW218645   3.754   0.234   5.503
 5916SOL     OW18646   1.282   0.283   2.270
 5916SOL    HW118647   1.205   0.268   2.209
 5916SOL    HW218648   1.260   0.357   2.334
 5917SOL     OW18649   3.170   3.019   0.802
 5917SOL    HW118650   3.153   2.939   0.860
 5917SOL    HW218651   3.176   3.101   0.859
 5918SOL     OW18652   3.704   6.878   4.221
 5918SOL    HW118653   3.618   6.928   4.234
 5918SOL    HW218654   3.744   6.859   4.311
 5919SOL     OW18655   3.252   4.106   4.881
 5919SOL    HW118656   3.257   4.192   4.830
 5919SOL    HW218657   3.342   4.086   4.921
 5920SOL     OW18658   1.071   0.623   5.744
 5920SOL    HW118659   1.080   0.568   5.827
 5920SOL    HW218660   1.146   0.689   5.740
 5921SOL     OW18661   2.422   5.182   0.692
 5921SOL    HW118662   2.454   5.254   0.754
 5921SOL    HW218663   2.354   5.219   0.629
 5922SOL     OW18664   4.995   2.671   2.705
 5922SOL    HW118665   4.953   2.728   2.635
 5922SOL    HW218666   4.929   2.602   2.736
 5923SOL     OW18667   5.636   0.841   2.912
 5923SOL    HW118668   5.612   0.864   3.006
 5923SOL    HW218669   5.604   0.749   2.890
 5924SOL     OW18670   0.036   6.493   3.573
 5924SOL    HW118671   0.034   6.589   3.544
 5924SOL    HW218672   0.130   6.467   3.596
 5925SOL     OW18673   4.955   0.939   1.073
 5925SOL    HW118674   5.027   0.870   1.066
 5925SOL    HW218675   4.978   1.018   1.017
 5926SOL     OW18676   5.334   3.257   3.190
 5926SOL    HW118677   5.291   3.237   3.278
 5926SOL    HW218678   5.316   3.182   3.126
 5927SOL     OW18679   0.658   6.682   1.364
 5927SOL    HW118680   0.703   6.731   1.289
 5927SOL    HW218681   0.565   6.657   1.335
 5928SOL     OW18682   3.059   0.179   0.194
 5928SOL    HW118683   3.029   0.112   0.261
 5928SOL    HW218684   3.032   0.151   0.102
 5929SOL     OW18685   1.193   0.833   1.645
 5929SOL    HW118686   1.250   0.752   1.631
 5929SOL    HW218687   1.247   0.904   1.691
 5930SOL     OW18688   0.819   4.417   1.843
 5930SOL    HW118689   0.908   4.440   1.802
 5930SOL    HW218690   0.825   4.426   1.942
 5931SOL     OW18691   4.759   6.196   4.075
 5931SOL    HW118692   4.857   6.216   4.083
 5931SOL    HW218693   4.715   6.212   4.164
 5932SOL     OW18694   3.671   5.747   0.339
 5932SOL    HW118695   3.590   5.789   0.298
 5932SOL    HW218696   3.753   5.798   0.312
 5933SOL     OW18697   6.744   5.709   4.392
 5933SOL    HW118698   6.800   5.717   4.310
 5933SOL    HW218699   6.794   5.747   4.470
 5934SOL     OW18700   3.158   4.042   0.216
 5934SOL    HW118701   3.226   4.048   0.288
 5934SOL    HW218702   3.072   4.006   0.253
 5935SOL     OW18703   1.412   0.427   5.459
 5935SOL    HW118704   1.377   0.516   5.428
 5935SOL    HW218705   1.441   0.373   5.379
 5936SOL     OW18706   3.679   2.877   2.183
 5936SOL    HW118707   3.719   2.800   2.233
 5936SOL    HW218708   3.750   2.945   2.165
 5937SOL     OW18709   0.845   2.943   0.452
 5937SOL    HW118710   0.881   2.855   0.420
 5937SOL    HW218711   0.896   2.972   0.534
 5938SOL     OW18712   1.346   3.279   4.496
 5938SOL    HW118713   1.413   3.353   4.488
 5938SOL    HW218714   1.276   3.304   4.563
 5939SOL     OW18715   4.855   0.867   5.909
 5939SOL    HW118716   4.779   0.835   5.852
 5939SOL    HW218717   4.832   0.955   5.950
 5940SOL     OW18718   5.197   5.007   0.952
 5940SOL    HW118719   5.274   4.947   0.930
 5940SOL    HW218720   5.134   5.011   0.875
 5941SOL     OW18721   0.698   1.587   3.634
 5941SOL    HW118722   0.759   1.659   3.600
 5941SOL    HW218723   0.681   1.602   3.731
 5942SOL     OW18724   5.113   2.122   6.154
 5942SOL    HW118725   5.112   2.111   6.253
 5942SOL    HW218726   5.205   2.107   6.119
 5943SOL     OW18727   2.182   4.419   2.000
 5943SOL    HW118728   2.139   4.336   2.035
 5943SOL    HW218729   2.159   4.496   2.059
 5944SOL     OW18730   6.594   3.792   6.077
 5944SOL    HW118731   6.525   3.791   6.004
 5944SOL    HW218732   6.674   3.843   6.047
 5945SOL     OW18733   0.050   6.502   4.283
 5945SOL    HW118734   0.100   6.567   4.227
 5945SOL    HW218735   7.001   6.547   4.326
 5946SOL     OW18736   3.077   2.871   6.631
 5946SOL    HW118737   3.142   2.938   6.666
 5946SOL    HW218738   3.072   2.878   6.531
 5947SOL     OW18739   3.338   3.258   4.960
 5947SOL    HW118740   3.377   3.168   4.938
 5947SOL    HW218741   3.267   3.280   4.893
 5948SOL     OW18742   4.767   4.202   1.694
 5948SOL    HW118743   4.836   4.151   1.746
 5948SOL    HW218744   4.696   4.139   1.663
 5949SOL     OW18745   1.000   4.317   3.865
 5949SOL    HW118746   0.947   4.388   3.911
 5949SOL    HW218747   1.064   4.276   3.930
 5950SOL     OW18748   2.294   6.772   4.731
 5950SOL    HW118749   2.381   6.761   4.780
 5950SOL    HW218750   2.313   6.802   4.637
 5951SOL     OW18751   0.021   2.756   6.207
 5951SOL    HW118752   7.012   2.758   6.115
 5951SOL    HW218753   0.010   2.846   6.250
 5952SOL     OW18754   3.817   4.223   1.617
 5952SOL    HW118755   3.786   4.141   1.666
 5952SOL    HW218756   3.750   4.297   1.629
 5953SOL     OW18757   6.788   2.749   0.104
 5953SOL    HW118758   6.741   2.836   0.088
 5953SOL    HW218759   6.883   2.758   0.076
 5954SOL     OW18760   1.926   4.781   3.800
 5954SOL    HW118761   1.891   4.689   3.812
 5954SOL    HW218762   1.997   4.781   3.730
 5955SOL     OW18763   3.890   3.016   0.380
 5955SOL    HW118764   3.817   2.991   0.316
 5955SOL    HW218765   3.978   2.986   0.344
 5956SOL     OW18766   4.511   2.634   6.878
 5956SOL    HW118767   4.483   2.595   6.966
 5956SOL    HW218768   4.570   2.714   6.894
 5957SOL     OW18769   6.653   2.249   3.757
 5957SOL    HW118770   6.737   2.209   3.793
 5957SOL    HW218771   6.602   2.293   3.831
 5958SOL     OW18772   2.778   6.037   2.603
 5958SOL    HW118773   2.753   5.992   2.518
 5958SOL    HW218774   2.872   6.011   2.628
 5959SOL     OW18775   5.055   4.252   3.101
 5959SOL    HW118776   5.036   4.350   3.101
 5959SOL    HW218777   5.147   4.235   3.067
 5960SOL     OW18778   6.014   0.288   6.536
 5960SOL    HW118779   6.011   0.357   6.464
 5960SOL    HW218780   5.924   0.248   6.548
 5961SOL     OW18781   2.691   2.127   4.023
 5961SOL    HW118782   2.712   2.054   3.958
 5961SOL    HW218783   2.700   2.216   3.977
 5962SOL     OW18784   5.219   4.680   0.189
 5962SOL    HW118785   5.125   4.673   0.155
 5962SOL    HW218786   5.271   4.600   0.159
 5963SOL     OW18787   1.654   4.087   0.408
 5963SOL    HW118788   1.609   4.008   0.451
 5963SOL    HW218789   1.714   4.055   0.335
 5964SOL     OW18790   1.674   7.000   3.086
 5964SOL    HW118791   1.685   6.901   3.094
 5964SOL    HW218792   1.677   7.026   2.989
 5965SOL     OW18793   2.496   0.659   1.219
 5965SOL    HW118794   2.405   0.617   1.224
 5965SOL    HW218795   2.529   0.657   1.125
 5966SOL     OW18796   3.288   1.694   4.882
 5966SOL    HW118797   3.205   1.710   4.935
 5966SOL    HW218798   3.341   1.778   4.875
 5967SOL     OW18799   4.616   2.436   5.228
 5967SOL    HW118800   4.557   2.385   5.165
 5967SOL    HW218801   4.575   2.524   5.249
 5968SOL     OW18802   6.201   2.060   3.148
 5968SOL    HW118803   6.209   2.123   3.226
 5968SOL    HW218804   6.221   1.967   3.179
 5969SOL     OW18805   5.281   6.649   1.181
 5969SOL    HW118806   5.328   6.721   1.129
 5969SOL    HW218807   5.247   6.687   1.267
 5970SOL     OW18808   6.185   2.538   0.250
 5970SOL    HW118809   6.268   2.595   0.254
 5970SOL    HW218810   6.143   2.548   0.160
 5971SOL     OW18811   6.675   5.366   3.855
 5971SOL    HW118812   6.648   5.414   3.938
 5971SOL    HW218813   6.770   5.387   3.833
 5972SOL     OW18814   5.842   5.160   0.707
 5972SOL    HW118815   5.883   5.114   0.786
 5972SOL    HW218816   5.746   5.132   0.698
 5973SOL     OW18817   3.566   0.764   2.493
 5973SOL    HW118818   3.543   0.741   2.398
 5973SOL    HW218819   3.649   0.716   2.520
 5974SOL     OW18820   5.692   1.215   4.583
 5974SOL    HW118821   5.754   1.150   4.627
 5974SOL    HW218822   5.643   1.267   4.653
 5975SOL     OW18823   3.738   4.938   0.588
 5975SOL    HW118824   3.762   4.841   0.595
 5975SOL    HW218825   3.735   4.977   0.680
 5976SOL     OW18826   1.622   3.164   6.264
 5976SOL    HW118827   1.704   3.205   6.224
 5976SOL    HW218828   1.649   3.098   6.335
 5977SOL     OW18829   0.746   5.407   1.459
 5977SOL    HW118830   0.804   5.467   1.404
 5977SOL    HW218831   0.747   5.438   1.554
 5978SOL     OW18832   3.013   3.623   6.050
 5978SOL    HW118833   2.984   3.567   5.972
 5978SOL    HW218834   3.063   3.566   6.115
 5979SOL     OW18835   5.769   0.347   1.195
 5979SOL    HW118836   5.777   0.423   1.260
 5979SOL    HW218837   5.761   0.383   1.102
 5980SOL     OW18838   3.384   2.657   1.033
 5980SOL    HW118839   3.334   2.584   0.987
 5980SOL    HW218840   3.427   2.621   1.116
 5981SOL     OW18841   3.148   2.541   0.712
 5981SOL    HW118842   3.153   2.621   0.652
 5981SOL    HW218843   3.240   2.504   0.726
 5982SOL     OW18844   5.578   2.488   1.379
 5982SOL    HW118845   5.593   2.549   1.457
 5982SOL    HW218846   5.666   2.468   1.336
 5983SOL     OW18847   6.641   1.335   3.672
 5983SOL    HW118848   6.709   1.274   3.631
 5983SOL    HW218849   6.616   1.406   3.607
 5984SOL     OW18850   5.945   6.435   2.309
 5984SOL    HW118851   5.956   6.396   2.217
 5984SOL    HW218852   5.948   6.361   2.376
 5985SOL     OW18853   6.382   5.065   2.808
 5985SOL    HW118854   6.290   5.064   2.848
 5985SOL    HW218855   6.392   5.146   2.750
 5986SOL     OW18856   3.800   3.108   2.924
 5986SOL    HW118857   3.766   3.196   2.957
 5986SOL    HW218858   3.877   3.124   2.862
 5987SOL     OW18859   6.890   6.238   4.397
 5987SOL    HW118860   6.986   6.216   4.383
 5987SOL    HW218861   6.852   6.277   4.313
 5988SOL     OW18862   1.484   2.009   0.333
 5988SOL    HW118863   1.519   2.035   0.243
 5988SOL    HW218864   1.535   1.929   0.367
 5989SOL     OW18865   2.156   6.333   5.597
 5989SOL    HW118866   2.059   6.353   5.612
 5989SOL    HW218867   2.193   6.288   5.678
 5990SOL     OW18868   2.448   3.860   1.801
 5990SOL    HW118869   2.366   3.833   1.853
 5990SOL    HW218870   2.421   3.911   1.720
 5991SOL     OW18871   5.499   1.463   0.597
 5991SOL    HW118872   5.592   1.468   0.560
 5991SOL    HW218873   5.503   1.454   0.696
 5992SOL     OW18874   2.664   4.675   3.585
 5992SOL    HW118875   2.645   4.585   3.547
 5992SOL    HW218876   2.650   4.673   3.684
 5993SOL     OW18877   5.812   2.371   0.146
 5993SOL    HW118878   5.866   2.397   0.066
 5993SOL    HW218879   5.860   2.300   0.197
 5994SOL     OW18880   0.182   4.497   0.494
 5994SOL    HW118881   0.218   4.436   0.565
 5994SOL    HW218882   0.155   4.443   0.414
 5995SOL     OW18883   5.191   3.566   0.793
 5995SOL    HW118884   5.184   3.580   0.695
 5995SOL    HW218885   5.287   3.561   0.820
 5996SOL     OW18886   2.023   0.427   2.107
 5996SOL    HW118887   2.086   0.366   2.059
 5996SOL    HW218888   1.943   0.375   2.138
 5997SOL     OW18889   6.474   0.204   4.670
 5997SOL    HW118890   6.493   0.224   4.574
 5997SOL    HW218891   6.472   0.290   4.722
 5998SOL     OW18892   5.885   6.214   6.083
 5998SOL    HW118893   5.903   6.203   5.985
 5998SOL    HW218894   5.932   6.142   6.133
 5999SOL     OW18895   5.144   3.686   1.045
 5999SOL    HW118896   5.192   3.774   1.042
 5999SOL    HW218897   5.142   3.645   0.954
 6000SOL     OW18898   1.040   4.472   1.694
 6000SOL    HW118899   1.075   4.384   1.662
 6000SOL    HW218900   1.043   4.538   1.619
 6001SOL     OW18901   7.019   5.988   5.508
 6001SOL    HW118902   6.991   5.960   5.416
 6001SOL    HW218903   0.023   5.909   5.559
 6002SOL     OW18904   5.588   4.408   5.242
 6002SOL    HW118905   5.668   4.466   5.228
 6002SOL    HW218906   5.533   4.445   5.317
 6003SOL     OW18907   2.692   1.496   5.416
 6003SOL    HW118908   2.726   1.567   5.354
 6003SOL    HW218909   2.629   1.536   5.482
 6004SOL     OW18910   5.635   3.236   5.154
 6004SOL    HW118911   5.609   3.164   5.089
 6004SOL    HW218912   5.671   3.195   5.238
 6005SOL     OW18913   3.767   4.272   0.412
 6005SOL    HW118914   3.739   4.200   0.349
 6005SOL    HW218915   3.854   4.248   0.455
 6006SOL     OW18916   3.070   6.018   6.273
 6006SOL    HW118917   3.019   5.959   6.336
 6006SOL    HW218918   3.168   6.000   6.283
 6007SOL     OW18919   2.653   6.633   4.630
 6007SOL    HW118920   2.737   6.626   4.683
 6007SOL    HW218921   2.576   6.603   4.686
 6008SOL     OW18922   2.510   3.977   6.812
 6008SOL    HW118923   2.439   4.047   6.816
 6008SOL    HW218924   2.490   3.905   6.878
 6009SOL     OW18925   2.669   5.460   3.134
 6009SOL    HW118926   2.740   5.433   3.199
 6009SOL    HW218927   2.708   5.465   3.042
 6010SOL     OW18928   0.224   5.244   5.721
 6010SOL    HW118929   0.278   5.278   5.644
 6010SOL    HW218930   0.127   5.249   5.698
 6011SOL     OW18931   5.746   1.671   2.810
 6011SOL    HW118932   5.659   1.715   2.789
 6011SOL    HW218933   5.811   1.691   2.737
 6012SOL     OW18934   6.748   0.919   6.300
 6012SOL    HW118935   6.832   0.972   6.312
 6012SOL    HW218936   6.759   0.856   6.224
 6013SOL     OW18937   5.734   1.487   2.430
 6013SOL    HW118938   5.683   1.509   2.513
 6013SOL    HW218939   5.785   1.402   2.444
 6014SOL     OW18940   3.745   3.295   4.171
 6014SOL    HW118941   3.820   3.229   4.179
 6014SOL    HW218942   3.678   3.261   4.105
 6015SOL     OW18943   6.372   0.275   3.652
 6015SOL    HW118944   6.293   0.321   3.692
 6015SOL    HW218945   6.447   0.340   3.642
 6016SOL     OW18946   4.421   2.325   4.722
 6016SOL    HW118947   4.500   2.384   4.711
 6016SOL    HW218948   4.420   2.288   4.815
 6017SOL     OW18949   1.632   1.830   5.565
 6017SOL    HW118950   1.594   1.862   5.478
 6017SOL    HW218951   1.732   1.831   5.560
 6018SOL     OW18952   2.364   1.339   3.707
 6018SOL    HW118953   2.346   1.304   3.799
 6018SOL    HW218954   2.362   1.439   3.709
 6019SOL     OW18955   6.968   3.974   6.135
 6019SOL    HW118956   6.916   4.053   6.168
 6019SOL    HW218957   6.918   3.931   6.060
 6020SOL     OW18958   0.800   5.547   4.996
 6020SOL    HW118959   0.796   5.618   5.067
 6020SOL    HW218960   0.733   5.568   4.924
 6021SOL     OW18961   4.832   0.230   3.253
 6021SOL    HW118962   4.811   0.312   3.199
 6021SOL    HW218963   4.930   0.212   3.248
 6022SOL     OW18964   6.929   2.920   1.646
 6022SOL    HW118965   6.993   2.975   1.593
 6022SOL    HW218966   6.957   2.824   1.642
 6023SOL     OW18967   4.534   6.696   2.716
 6023SOL    HW118968   4.619   6.643   2.715
 6023SOL    HW218969   4.464   6.649   2.663
 6024SOL     OW18970   0.635   6.534   0.165
 6024SOL    HW118971   0.720   6.551   0.215
 6024SOL    HW218972   0.558   6.537   0.229
 6025SOL     OW18973   3.385   0.326   5.748
 6025SOL    HW118974   3.331   0.268   5.687
 6025SOL    HW218975   3.480   0.296   5.748
 6026SOL     OW18976   5.807   5.916   3.615
 6026SOL    HW118977   5.797   6.007   3.654
 6026SOL    HW218978   5.779   5.917   3.519
 6027SOL     OW18979   6.127   4.401   5.643
 6027SOL    HW118980   6.048   4.342   5.628
 6027SOL    HW218981   6.097   4.493   5.667
 6028SOL     OW18982   6.039   5.651   6.314
 6028SOL    HW118983   6.066   5.587   6.241
 6028SOL    HW218984   5.972   5.716   6.278
 6029SOL     OW18985   2.604   1.887   2.900
 6029SOL    HW118986   2.681   1.846   2.851
 6029SOL    HW218987   2.556   1.817   2.952
 6030SOL     OW18988   5.988   3.131   4.276
 6030SOL    HW118989   5.995   3.138   4.376
 6030SOL    HW218990   5.910   3.073   4.252
 6031SOL     OW18991   0.004   0.019   3.522
 6031SOL    HW118992   0.043   0.025   3.430
 6031SOL    HW218993   0.029   0.099   3.575
 6032SOL     OW18994   2.915   0.032   3.577
 6032SOL    HW118995   2.958   0.119   3.556
 6032SOL    HW218996   2.936   6.994   3.506
 6033SOL     OW18997   0.887   1.559   2.857
 6033SOL    HW118998   0.878   1.597   2.949
 6033SOL    HW218999   0.920   1.631   2.795
 6034SOL     OW19000   0.752   0.976   0.614
 6034SOL    HW119001   0.721   1.045   0.549
 6034SOL    HW219002   0.830   1.010   0.665
 6035SOL     OW19003   1.806   1.079   2.190
 6035SOL    HW119004   1.809   0.987   2.228
 6035SOL    HW219005   1.719   1.093   2.143
 6036SOL     OW19006   6.937   3.442   0.256
 6036SOL    HW119007   6.986   3.433   0.343
 6036SOL    HW219008   6.942   3.536   0.224
 6037SOL     OW19009   4.756   0.619   6.433
 6037SOL    HW119010   4.822   0.694   6.433
 6037SOL    HW219011   4.804   0.533   6.420
 6038SOL     OW19012   1.696   1.354   6.661
 6038SOL    HW119013   1.723   1.280   6.723
 6038SOL    HW219014   1.601   1.342   6.634
 6039SOL     OW19015   3.494   3.048   4.314
 6039SOL    HW119016   3.494   3.145   4.340
 6039SOL    HW219017   3.402   3.022   4.283
 6040SOL     OW19018   0.168   1.712   0.255
 6040SOL    HW119019   0.187   1.695   0.352
 6040SOL    HW219020   0.158   1.811   0.241
 6041SOL     OW19021   0.975   3.119   5.065
 6041SOL    HW119022   0.916   3.140   4.987
 6041SOL    HW219023   0.973   3.194   5.130
 6042SOL     OW19024   2.352   6.210   3.913
 6042SOL    HW119025   2.399   6.203   3.825
 6042SOL    HW219026   2.360   6.124   3.963
 6043SOL     OW19027   2.393   5.894   2.270
 6043SOL    HW119028   2.365   5.944   2.188
 6043SOL    HW219029   2.351   5.936   2.350
 6044SOL     OW19030   6.893   3.488   0.678
 6044SOL    HW119031   6.963   3.470   0.608
 6044SOL    HW219032   6.918   3.442   0.763
 6045SOL     OW19033   5.090   1.369   4.400
 6045SOL    HW119034   5.005   1.355   4.350
 6045SOL    HW219035   5.090   1.460   4.442
 6046SOL     OW19036   3.820   3.990   3.072
 6046SOL    HW119037   3.871   3.956   3.151
 6046SOL    HW219038   3.725   4.008   3.100
 6047SOL     OW19039   0.013   1.126   0.115
 6047SOL    HW119040   0.085   1.183   0.155
 6047SOL    HW219041   0.052   1.066   0.046
 6048SOL     OW19042   5.956   5.438   3.090
 6048SOL    HW119043   5.882   5.371   3.082
 6048SOL    HW219044   6.010   5.437   3.005
 6049SOL     OW19045   5.033   4.913   6.113
 6049SOL    HW119046   5.014   4.896   6.016
 6049SOL    HW219047   5.062   5.008   6.125
 6050SOL     OW19048   2.421   5.343   3.087
 6050SOL    HW119049   2.504   5.395   3.108
 6050SOL    HW219050   2.356   5.353   3.162
 6051SOL     OW19051   0.712   0.851   2.281
 6051SOL    HW119052   0.754   0.891   2.200
 6051SOL    HW219053   0.751   0.895   2.363
 6052SOL     OW19054   5.716   5.918   6.683
 6052SOL    HW119055   5.616   5.915   6.673
 6052SOL    HW219056   5.746   5.838   6.734
 6053SOL     OW19057   3.828   2.268   5.607
 6053SOL    HW119058   3.794   2.274   5.701
 6053SOL    HW219059   3.753   2.287   5.544
 6054SOL     OW19060   4.096   3.560   0.140
 6054SOL    HW119061   4.160   3.636   0.127
 6054SOL    HW219062   4.068   3.555   0.236
 6055SOL     OW19063   3.128   4.739   1.815
 6055SOL    HW119064   3.219   4.748   1.855
 6055SOL    HW219065   3.087   4.652   1.844
 6056SOL     OW19066   5.033   6.307   3.036
 6056SOL    HW119067   4.962   6.281   3.101
 6056SOL    HW219068   5.050   6.405   3.042
 6057SOL     OW19069   5.871   1.266   4.155
 6057SOL    HW119070   5.823   1.191   4.200
 6057SOL    HW219071   5.833   1.353   4.185
 6058SOL     OW19072   0.126   2.395   5.769
 6058SOL    HW119073   0.093   2.416   5.861
 6058SOL    HW219074   0.072   2.321   5.729
 6059SOL     OW19075   4.077   1.911   6.850
 6059SOL    HW119076   3.992   1.954   6.818
 6059SOL    HW219077   4.155   1.955   6.806
 6060SOL     OW19078   1.826   2.496   1.180
 6060SOL    HW119079   1.919   2.517   1.150
 6060SOL    HW219080   1.770   2.473   1.100
 6061SOL     OW19081   2.576   4.573   6.568
 6061SOL    HW119082   2.548   4.526   6.484
 6061SOL    HW219083   2.657   4.529   6.606
 6062SOL     OW19084   2.313   1.884   6.196
 6062SOL    HW119085   2.232   1.864   6.252
 6062SOL    HW219086   2.359   1.799   6.173
 6063SOL     OW19087   4.725   4.113   6.105
 6063SOL    HW119088   4.649   4.159   6.059
 6063SOL    HW219089   4.796   4.089   6.039
 6064SOL     OW19090   5.781   6.309   0.639
 6064SOL    HW119091   5.797   6.376   0.712
 6064SOL    HW219092   5.779   6.356   0.551
 6065SOL     OW19093   2.167   5.774   1.393
 6065SOL    HW119094   2.260   5.793   1.425
 6065SOL    HW219095   2.110   5.746   1.470
 6066SOL     OW19096   5.981   5.846   1.880
 6066SOL    HW119097   5.967   5.794   1.795
 6066SOL    HW219098   6.063   5.813   1.926
 6067SOL     OW19099   0.159   4.984   5.356
 6067SOL    HW119100   0.222   4.946   5.423
 6067SOL    HW219101   0.211   5.017   5.276
 6068SOL     OW19102   4.142   1.706   3.883
 6068SOL    HW119103   4.057   1.657   3.899
 6068SOL    HW219104   4.151   1.781   3.949
 6069SOL     OW19105   0.407   5.095   5.164
 6069SOL    HW119106   0.436   5.185   5.135
 6069SOL    HW219107   0.483   5.031   5.157
 6070SOL     OW19108   2.861   0.834   0.821
 6070SOL    HW119109   2.870   0.863   0.726
 6070SOL    HW219110   2.859   0.734   0.825
 6071SOL     OW19111   5.724   0.569   6.319
 6071SOL    HW119112   5.639   0.517   6.325
 6071SOL    HW219113   5.800   0.511   6.348
 6072SOL     OW19114   0.010   2.941   0.533
 6072SOL    HW119115   0.026   3.006   0.459
 6072SOL    HW219116   0.028   2.986   0.621
 6073SOL     OW19117   5.002   4.082   0.614
 6073SOL    HW119118   5.040   4.161   0.567
 6073SOL    HW219119   4.972   4.109   0.706
 6074SOL     OW19120   1.350   6.251   2.708
 6074SOL    HW119121   1.284   6.223   2.638
 6074SOL    HW219122   1.368   6.349   2.699
 6075SOL     OW19123   6.319   6.668   6.833
 6075SOL    HW119124   6.366   6.750   6.866
 6075SOL    HW219125   6.320   6.666   6.733
 6076SOL     OW19126   0.284   6.368   3.647
 6076SOL    HW119127   0.282   6.297   3.577
 6076SOL    HW219128   0.276   6.325   3.737
 6077SOL     OW19129   5.208   6.073   2.697
 6077SOL    HW119130   5.163   6.054   2.609
 6077SOL    HW219131   5.268   6.153   2.687
 6078SOL     OW19132   5.314   4.380   6.917
 6078SOL    HW119133   5.244   4.391   6.846
 6078SOL    HW219134   5.403   4.367   6.875
 6079SOL     OW19135   3.474   2.004   0.476
 6079SOL    HW119136   3.375   2.007   0.464
 6079SOL    HW219137   3.519   2.022   0.388
 6080SOL     OW19138   0.180   3.032   5.471
 6080SOL    HW119139   0.214   2.942   5.444
 6080SOL    HW219140   0.155   3.084   5.389
 6081SOL     OW19141   2.156   4.173   4.324
 6081SOL    HW119142   2.232   4.233   4.348
 6081SOL    HW219143   2.076   4.228   4.301
 6082SOL     OW19144   5.108   1.083   1.682
 6082SOL    HW119145   5.138   0.989   1.697
 6082SOL    HW219146   5.034   1.085   1.616
 6083SOL     OW19147   5.280   6.793   6.416
 6083SOL    HW119148   5.355   6.795   6.482
 6083SOL    HW219149   5.231   6.880   6.420
 6084SOL     OW19150   6.347   5.256   3.370
 6084SOL    HW119151   6.352   5.329   3.439
 6084SOL    HW219152   6.435   5.210   3.365
 6085SOL     OW19153   0.484   6.683   1.018
 6085SOL    HW119154   0.388   6.656   1.024
 6085SOL    HW219155   0.510   6.693   0.921
 6086SOL     OW19156   3.759   3.566   0.668
 6086SOL    HW119157   3.679   3.509   0.652
 6086SOL    HW219158   3.751   3.610   0.758
 6087SOL     OW19159   4.060   0.461   0.767
 6087SOL    HW119160   4.095   0.450   0.674
 6087SOL    HW219161   4.032   0.371   0.803
 6088SOL     OW19162   3.972   5.921   1.990
 6088SOL    HW119163   4.020   5.860   1.927
 6088SOL    HW219164   3.939   5.869   2.068
 6089SOL     OW19165   6.204   5.012   3.379
 6089SOL    HW119166   6.248   5.102   3.383
 6089SOL    HW219167   6.129   5.014   3.314
 6090SOL     OW19168   3.748   6.139   5.088
 6090SOL    HW119169   3.758   6.229   5.130
 6090SOL    HW219170   3.772   6.145   4.991
 6091SOL     OW19171   1.133   2.682   2.902
 6091SOL    HW119172   1.203   2.716   2.965
 6091SOL    HW219173   1.167   2.600   2.855
 6092SOL     OW19174   2.000   6.795   1.167
 6092SOL    HW119175   1.909   6.753   1.166
 6092SOL    HW219176   2.056   6.750   1.236
 6093SOL     OW19177   3.023   2.910   1.773
 6093SOL    HW119178   2.942   2.965   1.753
 6093SOL    HW219179   3.008   2.816   1.742
 6094SOL     OW19180   1.135   0.378   5.571
 6094SOL    HW119181   1.127   0.460   5.628
 6094SOL    HW219182   1.218   0.384   5.516
 6095SOL     OW19183   5.269   5.122   1.925
 6095SOL    HW119184   5.363   5.090   1.913
 6095SOL    HW219185   5.249   5.131   2.023
 6096SOL     OW19186   4.620   5.959   2.489
 6096SOL    HW119187   4.655   5.906   2.412
 6096SOL    HW219188   4.672   6.044   2.498
 6097SOL     OW19189   2.430   5.155   2.020
 6097SOL    HW119190   2.346   5.140   2.073
 6097SOL    HW219191   2.406   5.193   1.930
 6098SOL     OW19192   6.107   1.274   5.369
 6098SOL    HW119193   6.078   1.258   5.275
 6098SOL    HW219194   6.076   1.364   5.399
 6099SOL     OW19195   3.646   6.682   5.339
 6099SOL    HW119196   3.712   6.749   5.372
 6099SOL    HW219197   3.695   6.602   5.304
 6100SOL     OW19198   0.390   5.702   5.666
 6100SOL    HW119199   0.293   5.724   5.657
 6100SOL    HW219200   0.403   5.644   5.746
 6101SOL     OW19201   0.615   2.723   1.485
 6101SOL    HW119202   0.607   2.772   1.572
 6101SOL    HW219203   0.572   2.633   1.494
 6102SOL     OW19204   3.008   0.166   2.746
 6102SOL    HW119205   2.957   0.125   2.671
 6102SOL    HW219206   3.054   0.093   2.798
 6103SOL     OW19207   5.336   1.080   2.326
 6103SOL    HW119208   5.374   1.167   2.294
 6103SOL    HW219209   5.239   1.093   2.348
 6104SOL     OW19210   6.689   0.610   5.124
 6104SOL    HW119211   6.725   0.554   5.199
 6104SOL    HW219212   6.716   0.705   5.138
 6105SOL     OW19213   3.805   4.670   5.752
 6105SOL    HW119214   3.816   4.720   5.838
 6105SOL    HW219215   3.882   4.607   5.740
 6106SOL     OW19216   6.402   3.870   5.057
 6106SOL    HW119217   6.445   3.884   4.968
 6106SOL    HW219218   6.310   3.832   5.044
 6107SOL     OW19219   5.767   4.586   5.159
 6107SOL    HW119220   5.835   4.637   5.211
 6107SOL    HW219221   5.784   4.597   5.061
 6108SOL     OW19222   3.315   0.948   6.170
 6108SOL    HW119223   3.371   0.886   6.225
 6108SOL    HW219224   3.353   0.955   6.078
 6109SOL     OW19225   6.908   6.629   3.803
 6109SOL    HW119226   6.993   6.612   3.753
 6109SOL    HW219227   6.875   6.721   3.781
 6110SOL     OW19228   1.291   2.027   3.907
 6110SOL    HW119229   1.235   2.033   3.990
 6110SOL    HW219230   1.386   2.009   3.932
 6111SOL     OW19231   2.558   2.982   0.802
 6111SOL    HW119232   2.615   2.994   0.720
 6111SOL    HW219233   2.613   2.997   0.884
 6112SOL     OW19234   4.902   6.440   3.484
 6112SOL    HW119235   4.984   6.459   3.431
 6112SOL    HW219236   4.915   6.357   3.538
 6113SOL     OW19237   2.831   5.557   1.168
 6113SOL    HW119238   2.928   5.535   1.153
 6113SOL    HW219239   2.775   5.480   1.140
 6114SOL     OW19240   4.696   3.419   1.749
 6114SOL    HW119241   4.748   3.389   1.669
 6114SOL    HW219242   4.664   3.512   1.734
 6115SOL     OW19243   6.783   0.891   5.497
 6115SOL    HW119244   6.787   0.866   5.400
 6115SOL    HW219245   6.703   0.948   5.514
 6116SOL     OW19246   6.495   3.434   0.134
 6116SOL    HW119247   6.495   3.532   0.154
 6116SOL    HW219248   6.557   3.388   0.197
 6117SOL     OW19249   2.261   2.558   1.235
 6117SOL    HW119250   2.328   2.616   1.188
 6117SOL    HW219251   2.303   2.471   1.258
 6118SOL     OW19252   5.845   1.087   1.906
 6118SOL    HW119253   5.839   0.987   1.906
 6118SOL    HW219254   5.886   1.118   1.820
 6119SOL     OW19255   0.369   1.267   6.465
 6119SOL    HW119256   0.441   1.308   6.520
 6119SOL    HW219257   0.407   1.195   6.407
 6120SOL     OW19258   2.805   0.964   4.084
 6120SOL    HW119259   2.819   0.952   3.986
 6120SOL    HW219260   2.823   1.059   4.109
 6121SOL     OW19261   2.808   1.652   5.218
 6121SOL    HW119262   2.892   1.614   5.179
 6121SOL    HW219263   2.795   1.746   5.186
 6122SOL     OW19264   4.837   4.542   5.058
 6122SOL    HW119265   4.826   4.627   5.109
 6122SOL    HW219266   4.752   4.519   5.010
 6123SOL     OW19267   6.777   1.625   5.042
 6123SOL    HW119268   6.818   1.647   5.131
 6123SOL    HW219269   6.678   1.640   5.046
 6124SOL     OW19270   2.400   6.487   3.878
 6124SOL    HW119271   2.391   6.387   3.879
 6124SOL    HW219272   2.325   6.528   3.930
 6125SOL     OW19273   3.796   1.374   5.248
 6125SOL    HW119274   3.710   1.366   5.199
 6125SOL    HW219275   3.786   1.337   5.340
 6126SOL     OW19276   5.839   2.734   6.522
 6126SOL    HW119277   5.867   2.675   6.598
 6126SOL    HW219278   5.864   2.829   6.543
 6127SOL     OW19279   5.924   2.239   2.688
 6127SOL    HW119280   5.947   2.223   2.784
 6127SOL    HW219281   5.838   2.288   2.682
 6128SOL     OW19282   5.953   6.002   5.759
 6128SOL    HW119283   5.983   6.009   5.664
 6128SOL    HW219284   5.883   5.932   5.767
 6129SOL     OW19285   2.487   5.682   2.997
 6129SOL    HW119286   2.543   5.714   3.073
 6129SOL    HW219287   2.498   5.583   2.986
 6130SOL     OW19288   5.865   3.194   0.292
 6130SOL    HW119289   5.791   3.152   0.239
 6130SOL    HW219290   5.904   3.126   0.355
 6131SOL     OW19291   6.564   2.663   3.151
 6131SOL    HW119292   6.630   2.730   3.115
 6131SOL    HW219293   6.500   2.637   3.078
 6132SOL     OW19294   4.352   6.313   6.374
 6132SOL    HW119295   4.259   6.329   6.408
 6132SOL    HW219296   4.397   6.244   6.431
 6133SOL     OW19297   0.776   2.219   3.489
 6133SOL    HW119298   0.853   2.221   3.425
 6133SOL    HW219299   0.760   2.311   3.525
 6134SOL     OW19300   0.108   6.338   5.641
 6134SOL    HW119301   0.125   6.297   5.552
 6134SOL    HW219302   0.156   6.425   5.648
 6135SOL     OW19303   6.113   6.355   0.342
 6135SOL    HW119304   6.177   6.324   0.413
 6135SOL    HW219305   6.137   6.312   0.255
 6136SOL     OW19306   1.265   2.074   3.635
 6136SOL    HW119307   1.307   2.152   3.588
 6136SOL    HW219308   1.264   2.091   3.733
 6137SOL     OW19309   6.576   5.083   1.089
 6137SOL    HW119310   6.558   5.077   0.990
 6137SOL    HW219311   6.619   4.999   1.120
 6138SOL     OW19312   5.465   0.737   1.811
 6138SOL    HW119313   5.498   0.693   1.728
 6138SOL    HW219314   5.532   0.805   1.842
 6139SOL     OW19315   1.770   2.149   5.262
 6139SOL    HW119316   1.798   2.204   5.183
 6139SOL    HW219317   1.847   2.139   5.325
 6140SOL     OW19318   2.062   0.427   3.485
 6140SOL    HW119319   1.965   0.403   3.497
 6140SOL    HW219320   2.115   0.343   3.469
 6141SOL     OW19321   1.093   0.767   0.207
 6141SOL    HW119322   1.045   0.748   0.121
 6141SOL    HW219323   1.142   0.685   0.236
 6142SOL     OW19324   0.205   0.401   1.516
 6142SOL    HW119325   0.164   0.310   1.516
 6142SOL    HW219326   0.188   0.445   1.428
 6143SOL     OW19327   0.904   3.243   5.520
 6143SOL    HW119328   0.879   3.158   5.567
 6143SOL    HW219329   0.956   3.301   5.582
 6144SOL     OW19330   3.420   5.725   2.637
 6144SOL    HW119331   3.514   5.755   2.625
 6144SOL    HW219332   3.410   5.677   2.724
 6145SOL     OW19333   5.076   3.094   4.016
 6145SOL    HW119334   5.070   2.999   3.986
 6145SOL    HW219335   5.162   3.135   3.986
 6146SOL     OW19336   5.993   0.498   5.282
 6146SOL    HW119337   6.076   0.514   5.335
 6146SOL    HW219338   5.934   0.433   5.331
 6147SOL     OW19339   1.232   2.030   5.770
 6147SOL    HW119340   1.327   2.002   5.783
 6147SOL    HW219341   1.229   2.113   5.715
 6148SOL     OW19342   3.730   4.909   0.109
 6148SOL    HW119343   3.778   4.822   0.121
 6148SOL    HW219344   3.769   4.958   0.031
 6149SOL     OW19345   3.944   1.872   1.478
 6149SOL    HW119346   3.984   1.897   1.567
 6149SOL    HW219347   3.860   1.925   1.464
 6150SOL     OW19348   0.126   4.763   4.253
 6150SOL    HW119349   0.043   4.800   4.211
 6150SOL    HW219350   0.146   4.673   4.215
 6151SOL     OW19351   3.862   4.986   2.993
 6151SOL    HW119352   3.821   5.074   2.967
 6151SOL    HW219353   3.960   4.998   3.007
 6152SOL     OW19354   0.707   3.677   2.877
 6152SOL    HW119355   0.644   3.749   2.907
 6152SOL    HW219356   0.723   3.687   2.779
 6153SOL     OW19357   5.186   6.336   0.879
 6153SOL    HW119358   5.165   6.341   0.781
 6153SOL    HW219359   5.184   6.428   0.918
 6154SOL     OW19360   4.604   4.447   2.717
 6154SOL    HW119361   4.506   4.456   2.732
 6154SOL    HW219362   4.621   4.426   2.621
 6155SOL     OW19363   1.930   1.345   3.767
 6155SOL    HW119364   1.868   1.379   3.837
 6155SOL    HW219365   1.994   1.279   3.808
 6156SOL     OW19366   4.763   4.197   2.062
 6156SOL    HW119367   4.829   4.263   2.098
 6156SOL    HW219368   4.674   4.242   2.053
 6157SOL     OW19369   0.555   3.201   1.130
 6157SOL    HW119370   0.475   3.167   1.081
 6157SOL    HW219371   0.527   3.269   1.197
 6158SOL     OW19372   2.786   0.905   6.082
 6158SOL    HW119373   2.777   1.005   6.084
 6158SOL    HW219374   2.838   0.875   6.162
 6159SOL     OW19375   5.741   2.586   0.355
 6159SOL    HW119376   5.763   2.515   0.288
 6159SOL    HW219377   5.802   2.664   0.342
 6160SOL     OW19378   0.850   6.809   1.222
 6160SOL    HW119379   0.916   6.780   1.153
 6160SOL    HW219380   0.829   6.906   1.209
 6161SOL     OW19381   5.062   4.068   6.540
 6161SOL    HW119382   4.975   4.076   6.493
 6161SOL    HW219383   5.131   4.032   6.477
 6162SOL     OW19384   6.285   5.698   1.150
 6162SOL    HW119385   6.303   5.617   1.094
 6162SOL    HW219386   6.368   5.754   1.155
 6163SOL     OW19387   6.517   6.104   3.011
 6163SOL    HW119388   6.427   6.126   3.049
 6163SOL    HW219389   6.546   6.179   2.951
 6164SOL     OW19390   3.466   3.738   4.231
 6164SOL    HW119391   3.449   3.787   4.146
 6164SOL    HW219392   3.438   3.642   4.221
 6165SOL     OW19393   3.966   0.976   6.870
 6165SOL    HW119394   3.867   0.966   6.859
 6165SOL    HW219395   4.006   0.888   6.892
 6166SOL     OW19396   3.421   1.166   5.731
 6166SOL    HW119397   3.460   1.201   5.646
 6166SOL    HW219398   3.347   1.226   5.761
 6167SOL     OW19399   1.618   3.316   3.055
 6167SOL    HW119400   1.618   3.333   2.957
 6167SOL    HW219401   1.692   3.253   3.079
 6168SOL     OW19402   0.265   3.541   4.240
 6168SOL    HW119403   0.335   3.593   4.288
 6168SOL    HW219404   0.208   3.604   4.185
 6169SOL     OW19405   3.008   0.619   0.418
 6169SOL    HW119406   3.052   0.549   0.362
 6169SOL    HW219407   3.032   0.604   0.514
 6170SOL     OW19408   2.989   4.755   1.567
 6170SOL    HW119409   3.064   4.745   1.632
 6170SOL    HW219410   2.903   4.764   1.617
 6171SOL     OW19411   2.202   4.175   1.540
 6171SOL    HW119412   2.125   4.237   1.556
 6171SOL    HW219413   2.288   4.223   1.556
 6172SOL     OW19414   2.858   5.461   1.728
 6172SOL    HW119415   2.885   5.483   1.822
 6172SOL    HW219416   2.846   5.362   1.720
 6173SOL     OW19417   1.355   5.538   2.230
 6173SOL    HW119418   1.441   5.501   2.263
 6173SOL    HW219419   1.337   5.626   2.274
 6174SOL     OW19420   5.349   4.318   1.936
 6174SOL    HW119421   5.423   4.270   1.984
 6174SOL    HW219422   5.388   4.383   1.872
 6175SOL     OW19423   4.695   0.476   3.932
 6175SOL    HW119424   4.673   0.554   3.991
 6175SOL    HW219425   4.672   0.391   3.980
 6176SOL     OW19426   5.344   3.311   6.891
 6176SOL    HW119427   5.382   3.302   6.982
 6176SOL    HW219428   5.276   3.385   6.889
 6177SOL     OW19429   6.588   2.907   2.393
 6177SOL    HW119430   6.540   2.837   2.446
 6177SOL    HW219431   6.667   2.939   2.444
 6178SOL     OW19432   5.882   3.533   1.342
 6178SOL    HW119433   5.909   3.566   1.433
 6178SOL    HW219434   5.789   3.563   1.322
 6179SOL     OW19435   0.446   1.958   5.045
 6179SOL    HW119436   0.402   1.985   4.959
 6179SOL    HW219437   0.492   1.870   5.032
 6180SOL     OW19438   3.621   0.092   6.001
 6180SOL    HW119439   3.592   0.107   5.906
 6180SOL    HW219440   3.653   0.178   6.040
 6181SOL     OW19441   4.237   6.027   6.899
 6181SOL    HW119442   4.153   5.983   6.930
 6181SOL    HW219443   4.246   6.014   6.800
 6182SOL     OW19444   5.054   0.077   5.994
 6182SOL    HW119445   5.016   0.119   5.912
 6182SOL    HW219446   4.980   0.056   6.058
 6183SOL     OW19447   3.558   0.263   2.632
 6183SOL    HW119448   3.483   0.244   2.696
 6183SOL    HW219449   3.586   0.178   2.586
 6184SOL     OW19450   6.252   6.917   6.322
 6184SOL    HW119451   6.227   6.967   6.240
 6184SOL    HW219452   6.340   6.950   6.356
 6185SOL     OW19453   1.905   2.699   6.830
 6185SOL    HW119454   1.858   2.664   6.912
 6185SOL    HW219455   2.002   2.708   6.849
 6186SOL     OW19456   4.817   0.749   4.264
 6186SOL    HW119457   4.834   0.842   4.297
 6186SOL    HW219458   4.904   0.700   4.259
 6187SOL     OW19459   3.251   5.179   4.755
 6187SOL    HW119460   3.316   5.215   4.688
 6187SOL    HW219461   3.289   5.096   4.797
 6188SOL     OW19462   3.146   6.957   1.579
 6188SOL    HW119463   3.071   6.974   1.642
 6188SOL    HW219464   3.117   6.889   1.511
 6189SOL     OW19465   4.933   4.843   3.021
 6189SOL    HW119466   4.837   4.847   2.992
 6189SOL    HW219467   4.992   4.841   2.941
 6190SOL     OW19468   5.126   2.360   5.882
 6190SOL    HW119469   5.080   2.443   5.915
 6190SOL    HW219470   5.211   2.347   5.933
 6191SOL     OW19471   6.579   1.718   6.441
 6191SOL    HW119472   6.512   1.644   6.450
 6191SOL    HW219473   6.580   1.772   6.525
 6192SOL     OW19474   3.405   2.412   0.702
 6192SOL    HW119475   3.486   2.457   0.740
 6192SOL    HW219476   3.417   2.313   0.708
 6193SOL     OW19477   6.432   0.221   1.504
 6193SOL    HW119478   6.399   0.208   1.597
 6193SOL    HW219479   6.518   0.170   1.492
 6194SOL     OW19480   2.164   0.373   0.558
 6194SOL    HW119481   2.210   0.388   0.471
 6194SOL    HW219482   2.072   0.413   0.554
 6195SOL     OW19483   2.105   6.666   5.508
 6195SOL    HW119484   2.092   6.574   5.471
 6195SOL    HW219485   2.048   6.731   5.458
 6196SOL     OW19486   0.617   2.053   5.807
 6196SOL    HW119487   0.654   2.132   5.758
 6196SOL    HW219488   0.542   2.083   5.866
 6197SOL     OW19489   2.312   2.976   1.080
 6197SOL    HW119490   2.359   2.890   1.101
 6197SOL    HW219491   2.302   3.029   1.164
 6198SOL     OW19492   3.613   5.400   2.500
 6198SOL    HW119493   3.523   5.440   2.483
 6198SOL    HW219494   3.609   5.301   2.487
 6199SOL     OW19495   0.696   0.663   6.357
 6199SOL    HW119496   0.761   0.596   6.320
 6199SOL    HW219497   0.707   0.669   6.456
 6200SOL     OW19498   4.026   0.369   5.933
 6200SOL    HW119499   3.951   0.383   5.998
 6200SOL    HW219500   4.107   0.417   5.966
 6201SOL     OW19501   2.173   4.650   3.974
 6201SOL    HW119502   2.117   4.732   3.982
 6201SOL    HW219503   2.257   4.661   4.028
 6202SOL     OW19504   2.573   2.552   1.392
 6202SOL    HW119505   2.479   2.539   1.424
 6202SOL    HW219506   2.612   2.631   1.438
 6203SOL     OW19507   5.528   1.989   4.497
 6203SOL    HW119508   5.622   2.014   4.474
 6203SOL    HW219509   5.503   1.904   4.449
 6204SOL     OW19510   1.347   6.395   6.009
 6204SOL    HW119511   1.250   6.389   5.985
 6204SOL    HW219512   1.384   6.482   5.979
 6205SOL     OW19513   5.357   6.190   6.712
 6205SOL    HW119514   5.265   6.221   6.735
 6205SOL    HW219515   5.422   6.265   6.725
 6206SOL     OW19516   5.219   6.910   3.638
 6206SOL    HW119517   5.176   6.986   3.591
 6206SOL    HW219518   5.153   6.836   3.650
 6207SOL     OW19519   2.385   4.328   4.330
 6207SOL    HW119520   2.421   4.353   4.421
 6207SOL    HW219521   2.423   4.390   4.262
 6208SOL     OW19522   5.837   5.676   5.380
 6208SOL    HW119523   5.812   5.620   5.301
 6208SOL    HW219524   5.861   5.617   5.456
 6209SOL     OW19525   2.588   4.914   0.951
 6209SOL    HW119526   2.510   4.892   0.892
 6209SOL    HW219527   2.597   4.844   1.022
 6210SOL     OW19528   6.722   5.220   3.092
 6210SOL    HW119529   6.731   5.121   3.085
 6210SOL    HW219530   6.756   5.250   3.181
 6211SOL     OW19531   2.436   0.686   5.013
 6211SOL    HW119532   2.434   0.752   5.087
 6211SOL    HW219533   2.361   0.704   4.950
 6212SOL     OW19534   6.421   0.750   3.691
 6212SOL    HW119535   6.334   0.729   3.648
 6212SOL    HW219536   6.491   0.763   3.620
 6213SOL     OW19537   6.839   0.316   0.321
 6213SOL    HW119538   6.936   0.289   0.320
 6213SOL    HW219539   6.829   0.403   0.273
 6214SOL     OW19540   5.397   4.890   2.236
 6214SOL    HW119541   5.329   4.823   2.262
 6214SOL    HW219542   5.489   4.855   2.257
 6215SOL     OW19543   2.666   4.878   1.605
 6215SOL    HW119544   2.633   4.960   1.560
 6215SOL    HW219545   2.604   4.802   1.586
 6216SOL     OW19546   6.460   2.133   2.609
 6216SOL    HW119547   6.436   2.054   2.552
 6216SOL    HW219548   6.445   2.217   2.557
 6217SOL     OW19549   5.131   1.568   1.196
 6217SOL    HW119550   5.164   1.597   1.286
 6217SOL    HW219551   5.071   1.639   1.159
 6218SOL     OW19552   4.561   4.962   3.907
 6218SOL    HW119553   4.493   5.033   3.891
 6218SOL    HW219554   4.650   4.991   3.871
 6219SOL     OW19555   6.901   1.170   4.545
 6219SOL    HW119556   6.857   1.259   4.556
 6219SOL    HW219557   7.001   1.181   4.547
 6220SOL     OW19558   1.567   3.445   5.408
 6220SOL    HW119559   1.504   3.498   5.464
 6220SOL    HW219560   1.562   3.348   5.434
 6221SOL     OW19561   4.486   4.903   4.607
 6221SOL    HW119562   4.465   4.897   4.704
 6221SOL    HW219563   4.580   4.873   4.591
 6222SOL     OW19564   0.334   1.502   1.304
 6222SOL    HW119565   0.239   1.509   1.275
 6222SOL    HW219566   0.381   1.588   1.286
 6223SOL     OW19567   5.065   4.071   4.189
 6223SOL    HW119568   5.019   4.069   4.277
 6223SOL    HW219569   5.022   4.005   4.127
 6224SOL     OW19570   2.643   0.199   4.604
 6224SOL    HW119571   2.544   0.209   4.609
 6224SOL    HW219572   2.684   0.284   4.569
 6225SOL     OW19573   3.751   2.152   6.943
 6225SOL    HW119574   3.722   2.113   0.001
 6225SOL    HW219575   3.785   2.079   6.884
 6226SOL     OW19576   6.750   6.696   4.279
 6226SOL    HW119577   6.771   6.776   4.336
 6226SOL    HW219578   6.731   6.726   4.185
 6227SOL     OW19579   2.999   4.321   6.589
 6227SOL    HW119580   2.962   4.235   6.555
 6227SOL    HW219581   3.093   4.307   6.619
 6228SOL     OW19582   6.948   2.192   2.895
 6228SOL    HW119583   6.926   2.104   2.937
 6228SOL    HW219584   0.003   2.184   2.841
 6229SOL     OW19585   1.803   2.202   1.791
 6229SOL    HW119586   1.784   2.279   1.853
 6229SOL    HW219587   1.758   2.120   1.826
 6230SOL     OW19588   1.961   1.868   4.308
 6230SOL    HW119589   1.920   1.912   4.229
 6230SOL    HW219590   1.889   1.828   4.365
 6231SOL     OW19591   0.045   5.400   1.583
 6231SOL    HW119592   6.975   5.412   1.571
 6231SOL    HW219593   0.082   5.479   1.632
 6232SOL     OW19594   0.794   1.151   0.053
 6232SOL    HW119595   0.808   1.127   0.149
 6232SOL    HW219596   0.882   1.159   0.006
 6233SOL     OW19597   4.360   0.780   6.616
 6233SOL    HW119598   4.439   0.729   6.652
 6233SOL    HW219599   4.308   0.819   6.691
 6234SOL     OW19600   2.076   2.696   3.933
 6234SOL    HW119601   2.009   2.731   3.867
 6234SOL    HW219602   2.054   2.730   4.024
 6235SOL     OW19603   2.295   6.058   2.463
 6235SOL    HW119604   2.328   6.074   2.556
 6235SOL    HW219605   2.275   6.146   2.420
 6236SOL     OW19606   6.992   3.910   7.022
 6236SOL    HW119607   0.058   3.895   6.996
 6236SOL    HW219608   6.984   3.997   0.043
 6237SOL     OW19609   4.016   6.191   6.157
 6237SOL    HW119610   4.008   6.092   6.170
 6237SOL    HW219611   3.927   6.234   6.175
 6238SOL     OW19612   5.556   3.686   0.450
 6238SOL    HW119613   5.519   3.745   0.522
 6238SOL    HW219614   5.530   3.591   0.469
 6239SOL     OW19615   2.638   6.976   3.418
 6239SOL    HW119616   2.658   6.897   3.361
 6239SOL    HW219617   2.600   6.945   3.505
 6240SOL     OW19618   2.371   3.618   0.390
 6240SOL    HW119619   2.351   3.695   0.452
 6240SOL    HW219620   2.335   3.534   0.429
 6241SOL     OW19621   5.033   0.151   1.534
 6241SOL    HW119622   5.026   0.138   1.435
 6241SOL    HW219623   5.080   0.237   1.553
 6242SOL     OW19624   4.047   2.230   3.242
 6242SOL    HW119625   3.991   2.258   3.164
 6242SOL    HW219626   3.988   2.217   3.321
 6243SOL     OW19627   5.963   5.700   2.992
 6243SOL    HW119628   5.971   5.603   3.013
 6243SOL    HW219629   6.050   5.734   2.957
 6244SOL     OW19630   1.850   1.820   2.275
 6244SOL    HW119631   1.950   1.824   2.267
 6244SOL    HW219632   1.817   1.732   2.240
 6245SOL     OW19633   1.812   4.217   0.624
 6245SOL    HW119634   1.839   4.124   0.600
 6245SOL    HW219635   1.730   4.243   0.574
 6246SOL     OW19636   4.264   0.125   0.317
 6246SOL    HW119637   4.360   0.137   0.340
 6246SOL    HW219638   4.227   0.045   0.364
 6247SOL     OW19639   6.868   6.866   2.851
 6247SOL    HW119640   6.797   6.929   2.884
 6247SOL    HW219641   6.857   6.777   2.896
 6248SOL     OW19642   1.089   5.637   0.948
 6248SOL    HW119643   1.161   5.569   0.947
 6248SOL    HW219644   1.018   5.610   1.013
 6249SOL     OW19645   6.459   3.713   6.534
 6249SOL    HW119646   6.517   3.769   6.475
 6249SOL    HW219647   6.471   3.741   6.630
 6250SOL     OW19648   6.668   4.697   5.692
 6250SOL    HW119649   6.573   4.670   5.677
 6250SOL    HW219650   6.671   4.793   5.720
 6251SOL     OW19651   4.693   1.597   1.274
 6251SOL    HW119652   4.764   1.593   1.345
 6251SOL    HW219653   4.637   1.679   1.287
 6252SOL     OW19654   1.971   6.294   5.356
 6252SOL    HW119655   1.941   6.215   5.303
 6252SOL    HW219656   2.046   6.267   5.416
 6253SOL     OW19657   2.970   4.160   1.494
 6253SOL    HW119658   3.048   4.211   1.531
 6253SOL    HW219659   2.962   4.072   1.541
 6254SOL     OW19660   5.539   0.306   0.182
 6254SOL    HW119661   5.591   0.271   0.260
 6254SOL    HW219662   5.581   0.391   0.151
 6255SOL     OW19663   6.930   2.915   3.348
 6255SOL    HW119664   6.891   2.969   3.422
 6255SOL    HW219665   7.017   2.954   3.320
 6256SOL     OW19666   4.093   5.038   4.010
 6256SOL    HW119667   4.162   5.090   4.061
 6256SOL    HW219668   4.136   4.992   3.933
 6257SOL     OW19669   4.203   2.782   6.935
 6257SOL    HW119670   4.275   2.806   6.870
 6257SOL    HW219671   4.146   2.709   6.896
 6258SOL     OW19672   4.338   2.390   3.097
 6258SOL    HW119673   4.347   2.368   3.194
 6258SOL    HW219674   4.379   2.480   3.079
 6259SOL     OW19675   3.045   2.034   1.602
 6259SOL    HW119676   3.140   2.004   1.587
 6259SOL    HW219677   3.036   2.068   1.696
 6260SOL     OW19678   3.220   4.424   1.135
 6260SOL    HW119679   3.188   4.330   1.147
 6260SOL    HW219680   3.160   4.471   1.071
 6261SOL     OW19681   4.606   6.768   6.541
 6261SOL    HW119682   4.673   6.797   6.473
 6261SOL    HW219683   4.652   6.715   6.612
 6262SOL     OW19684   0.844   6.100   5.338
 6262SOL    HW119685   0.767   6.059   5.288
 6262SOL    HW219686   0.836   6.200   5.335
 6263SOL     OW19687   5.909   0.972   1.507
 6263SOL    HW119688   5.952   1.037   1.569
 6263SOL    HW219689   5.971   0.952   1.431
 6264SOL     OW19690   2.388   1.539   0.354
 6264SOL    HW119691   2.414   1.589   0.437
 6264SOL    HW219692   2.466   1.538   0.291
 6265SOL     OW19693   5.847   3.546   0.569
 6265SOL    HW119694   5.796   3.617   0.617
 6265SOL    HW219695   5.832   3.555   0.470
 6266SOL     OW19696   2.493   0.344   2.352
 6266SOL    HW119697   2.571   0.301   2.397
 6266SOL    HW219698   2.418   0.279   2.344
 6267SOL     OW19699   2.495   0.062   7.025
 6267SOL    HW119700   2.515   0.160   7.022
 6267SOL    HW219701   2.454   0.040   0.085
 6268SOL     OW19702   2.171   5.877   2.806
 6268SOL    HW119703   2.161   5.822   2.889
 6268SOL    HW219704   2.198   5.818   2.730
 6269SOL     OW19705   6.115   4.566   0.160
 6269SOL    HW119706   6.028   4.525   0.133
 6269SOL    HW219707   6.186   4.536   0.096
 6270SOL     OW19708   0.419   1.029   3.989
 6270SOL    HW119709   0.365   1.058   4.068
 6270SOL    HW219710   0.498   0.976   4.020
 6271SOL     OW19711   6.512   1.694   1.204
 6271SOL    HW119712   6.585   1.729   1.263
 6271SOL    HW219713   6.427   1.688   1.256
 6272SOL     OW19714   2.139   2.433   3.846
 6272SOL    HW119715   2.105   2.527   3.843
 6272SOL    HW219716   2.085   2.381   3.912
 6273SOL     OW19717   4.343   0.783   2.526
 6273SOL    HW119718   4.310   0.690   2.511
 6273SOL    HW219719   4.405   0.784   2.605
 6274SOL     OW19720   2.812   6.239   6.730
 6274SOL    HW119721   2.819   6.140   6.716
 6274SOL    HW219722   2.796   6.258   6.827
 6275SOL     OW19723   3.107   0.806   4.557
 6275SOL    HW119724   3.041   0.878   4.537
 6275SOL    HW219725   3.119   0.797   4.656
 6276SOL     OW19726   1.419   5.499   3.747
 6276SOL    HW119727   1.461   5.438   3.815
 6276SOL    HW219728   1.432   5.594   3.775
 6277SOL     OW19729   5.774   3.057   3.899
 6277SOL    HW119730   5.863   3.077   3.859
 6277SOL    HW219731   5.777   3.074   3.997
 6278SOL     OW19732   4.485   0.598   3.710
 6278SOL    HW119733   4.431   0.571   3.790
 6278SOL    HW219734   4.425   0.608   3.631
 6279SOL     OW19735   4.872   2.229   6.575
 6279SOL    HW119736   4.912   2.272   6.656
 6279SOL    HW219737   4.781   2.193   6.599
 6280SOL     OW19738   1.107   5.518   5.952
 6280SOL    HW119739   1.021   5.565   5.932
 6280SOL    HW219740   1.090   5.443   6.016
 6281SOL     OW19741   3.003   6.664   4.558
 6281SOL    HW119742   2.978   6.743   4.614
 6281SOL    HW219743   3.071   6.609   4.606
 6282SOL     OW19744   0.774   0.193   4.002
 6282SOL    HW119745   0.730   0.153   3.921
 6282SOL    HW219746   0.748   0.290   4.009
 6283SOL     OW19747   1.271   3.310   5.158
 6283SOL    HW119748   1.228   3.275   5.242
 6283SOL    HW219749   1.370   3.294   5.162
 6284SOL     OW19750   2.508   4.857   6.496
 6284SOL    HW119751   2.574   4.917   6.542
 6284SOL    HW219752   2.515   4.765   6.533
 6285SOL     OW19753   1.923   4.307   2.720
 6285SOL    HW119754   1.996   4.374   2.710
 6285SOL    HW219755   1.869   4.327   2.801
 6286SOL     OW19756   6.354   6.062   4.476
 6286SOL    HW119757   6.399   6.011   4.549
 6286SOL    HW219758   6.408   6.053   4.392
 6287SOL     OW19759   3.780   5.020   2.602
 6287SOL    HW119760   3.720   4.987   2.675
 6287SOL    HW219761   3.874   5.025   2.635
 6288SOL     OW19762   5.778   3.019   1.056
 6288SOL    HW119763   5.807   2.936   1.008
 6288SOL    HW219764   5.718   2.994   1.133
 6289SOL     OW19765   1.011   6.612   2.775
 6289SOL    HW119766   1.013   6.518   2.741
 6289SOL    HW219767   0.976   6.673   2.703
 6290SOL     OW19768   6.110   4.324   3.333
 6290SOL    HW119769   6.020   4.288   3.356
 6290SOL    HW219770   6.172   4.312   3.410
 6291SOL     OW19771   3.813   4.048   3.493
 6291SOL    HW119772   3.835   4.137   3.454
 6291SOL    HW219773   3.751   3.999   3.432
 6292SOL     OW19774   6.918   1.390   2.035
 6292SOL    HW119775   6.893   1.448   1.958
 6292SOL    HW219776   6.999   1.336   2.013
 6293SOL     OW19777   5.525   5.326   6.574
 6293SOL    HW119778   5.460   5.349   6.501
 6293SOL    HW219779   5.570   5.410   6.605
 6294SOL     OW19780   3.622   6.085   2.071
 6294SOL    HW119781   3.719   6.108   2.066
 6294SOL    HW219782   3.603   6.041   2.160
 6295SOL     OW19783   0.129   5.783   5.668
 6295SOL    HW119784   0.072   5.724   5.611
 6295SOL    HW219785   0.091   5.786   5.761
 6296SOL     OW19786   6.409   1.322   3.200
 6296SOL    HW119787   6.379   1.332   3.105
 6296SOL    HW219788   6.328   1.315   3.259
 6297SOL     OW19789   5.689   0.841   5.547
 6297SOL    HW119790   5.654   0.842   5.640
 6297SOL    HW219791   5.628   0.788   5.488
 6298SOL     OW19792   6.457   1.886   4.318
 6298SOL    HW119793   6.409   1.896   4.230
 6298SOL    HW219794   6.390   1.884   4.392
 6299SOL     OW19795   6.679   3.281   0.598
 6299SOL    HW119796   6.737   3.350   0.642
 6299SOL    HW219797   6.704   3.190   0.632
 6300SOL     OW19798   5.595   1.531   3.208
 6300SOL    HW119799   5.672   1.515   3.145
 6300SOL    HW219800   5.562   1.443   3.242
 6301SOL     OW19801   3.848   0.861   0.754
 6301SOL    HW119802   3.784   0.818   0.689
 6301SOL    HW219803   3.826   0.831   0.847
 6302SOL     OW19804   6.395   0.662   2.700
 6302SOL    HW119805   6.416   0.757   2.721
 6302SOL    HW219806   6.402   0.648   2.601
 6303SOL     OW19807   2.440   5.996   4.880
 6303SOL    HW119808   2.434   5.916   4.820
 6303SOL    HW219809   2.357   6.002   4.936
 6304SOL     OW19810   3.977   1.031   4.769
 6304SOL    HW119811   4.009   0.941   4.797
 6304SOL    HW219812   3.899   1.022   4.708
 6305SOL     OW19813   5.506   0.871   2.410
 6305SOL    HW119814   5.448   0.942   2.371
 6305SOL    HW219815   5.513   0.885   2.509
 6306SOL     OW19816   5.890   2.723   4.165
 6306SOL    HW119817   5.933   2.715   4.074
 6306SOL    HW219818   5.961   2.735   4.234
 6307SOL     OW19819   1.988   4.894   0.427
 6307SOL    HW119820   1.919   4.843   0.479
 6307SOL    HW219821   2.034   4.832   0.363
 6308SOL     OW19822   4.098   2.390   6.303
 6308SOL    HW119823   4.018   2.352   6.348
 6308SOL    HW219824   4.127   2.473   6.352
 6309SOL     OW19825   5.729   2.130   4.996
 6309SOL    HW119826   5.681   2.203   4.948
 6309SOL    HW219827   5.695   2.125   5.090
 6310SOL     OW19828   6.991   5.582   4.615
 6310SOL    HW119829   6.994   5.537   4.525
 6310SOL    HW219830   0.000   5.520   4.683
 6311SOL     OW19831   5.885   6.960   4.262
 6311SOL    HW119832   5.942   6.995   4.337
 6311SOL    HW219833   5.797   6.930   4.299
 6312SOL     OW19834   5.241   4.181   5.697
 6312SOL    HW119835   5.246   4.127   5.782
 6312SOL    HW219836   5.328   4.175   5.648
 6313SOL     OW19837   2.252   5.041   3.999
 6313SOL    HW119838   2.155   5.023   3.983
 6313SOL    HW219839   2.263   5.130   4.043
 6314SOL     OW19840   1.289   0.684   3.574
 6314SOL    HW119841   1.340   0.708   3.656
 6314SOL    HW219842   1.299   0.756   3.506
 6315SOL     OW19843   1.878   3.987   0.250
 6315SOL    HW119844   1.950   4.020   0.312
 6315SOL    HW219845   1.898   3.894   0.222
 6316SOL     OW19846   4.320   0.975   5.242
 6316SOL    HW119847   4.377   1.057   5.238
 6316SOL    HW219848   4.336   0.920   5.160
 6317SOL     OW19849   6.467   5.115   4.716
 6317SOL    HW119850   6.500   5.142   4.806
 6317SOL    HW219851   6.497   5.022   4.694
 6318SOL     OW19852   1.713   1.896   4.465
 6318SOL    HW119853   1.756   1.919   4.552
 6318SOL    HW219854   1.625   1.851   4.482
 6319SOL     OW19855   1.009   2.052   2.736
 6319SOL    HW119856   1.096   2.015   2.770
 6319SOL    HW219857   1.027   2.109   2.655
 6320SOL     OW19858   0.529   2.223   2.548
 6320SOL    HW119859   0.448   2.240   2.493
 6320SOL    HW219860   0.529   2.284   2.628
 6321SOL     OW19861   2.716   3.829   5.779
 6321SOL    HW119862   2.787   3.811   5.846
 6321SOL    HW219863   2.756   3.873   5.698
 6322SOL     OW19864   2.526   0.346   0.046
 6322SOL    HW119865   2.620   0.359   0.079
 6322SOL    HW219866   2.505   0.415   7.006
 6323SOL     OW19867   3.978   1.593   1.507
 6323SOL    HW119868   4.021   1.558   1.424
 6323SOL    HW219869   3.955   1.690   1.495
 6324SOL     OW19870   3.608   1.539   0.026
 6324SOL    HW119871   3.558   1.597   0.090
 6324SOL    HW219872   3.660   1.597   6.992
 6325SOL     OW19873   1.621   2.865   2.718
 6325SOL    HW119874   1.716   2.844   2.695
 6325SOL    HW219875   1.584   2.929   2.651
 6326SOL     OW19876   4.674   6.523   1.172
 6326SOL    HW119877   4.602   6.578   1.215
 6326SOL    HW219878   4.716   6.464   1.240
 6327SOL     OW19879   3.756   5.693   5.484
 6327SOL    HW119880   3.830   5.651   5.535
 6327SOL    HW219881   3.702   5.750   5.545
 6328SOL     OW19882   2.516   4.546   0.018
 6328SOL    HW119883   2.569   4.630   0.012
 6328SOL    HW219884   2.429   4.559   6.998
 6329SOL     OW19885   0.453   1.570   2.759
 6329SOL    HW119886   0.377   1.598   2.819
 6329SOL    HW219887   0.464   1.470   2.765
 6330SOL     OW19888   3.610   0.293   0.265
 6330SOL    HW119889   3.678   0.364   0.251
 6330SOL    HW219890   3.566   0.306   0.354
 6331SOL     OW19891   4.878   3.301   1.898
 6331SOL    HW119892   4.810   3.350   1.844
 6331SOL    HW219893   4.833   3.237   1.960
 6332SOL     OW19894   4.916   6.408   2.142
 6332SOL    HW119895   4.820   6.435   2.138
 6332SOL    HW219896   4.948   6.381   2.051
 6333SOL     OW19897   2.160   5.078   3.148
 6333SOL    HW119898   2.123   5.166   3.118
 6333SOL    HW219899   2.095   5.006   3.126
 6334SOL     OW19900   2.481   1.376   2.699
 6334SOL    HW119901   2.445   1.455   2.651
 6334SOL    HW219902   2.479   1.393   2.798
 6335SOL     OW19903   6.864   1.332   0.018
 6335SOL    HW119904   6.886   1.423   0.053
 6335SOL    HW219905   6.940   1.269   0.037
 6336SOL     OW19906   1.294   3.077   4.709
 6336SOL    HW119907   1.232   3.062   4.632
 6336SOL    HW219908   1.378   3.121   4.676
 6337SOL     OW19909   0.380   4.950   4.913
 6337SOL    HW119910   0.287   4.939   4.948
 6337SOL    HW219911   0.377   4.999   4.826
 6338SOL     OW19912   3.656   1.408   4.340
 6338SOL    HW119913   3.717   1.390   4.417
 6338SOL    HW219914   3.572   1.449   4.372
 6339SOL     OW19915   0.370   2.881   4.331
 6339SOL    HW119916   0.390   2.829   4.249
 6339SOL    HW219917   0.448   2.939   4.354
 6340SOL     OW19918   2.591   6.020   4.370
 6340SOL    HW119919   2.644   5.957   4.426
 6340SOL    HW219920   2.627   6.113   4.381
 6341SOL     OW19921   6.357   5.576   2.159
 6341SOL    HW119922   6.277   5.558   2.216
 6341SOL    HW219923   6.433   5.604   2.216
 6342SOL     OW19924   1.286   3.639   0.435
 6342SOL    HW119925   1.251   3.602   0.349
 6342SOL    HW219926   1.265   3.737   0.440
 6343SOL     OW19927   4.773   1.171   0.391
 6343SOL    HW119928   4.782   1.116   0.474
 6343SOL    HW219929   4.689   1.226   0.397
 6344SOL     OW19930   5.994   4.847   4.573
 6344SOL    HW119931   5.993   4.820   4.477
 6344SOL    HW219932   5.900   4.867   4.603
 6345SOL     OW19933   2.156   2.196   1.576
 6345SOL    HW119934   2.197   2.129   1.513
 6345SOL    HW219935   2.184   2.175   1.670
 6346SOL     OW19936   0.844   5.233   4.186
 6346SOL    HW119937   0.863   5.311   4.126
 6346SOL    HW219938   0.760   5.250   4.237
 6347SOL     OW19939   3.357   0.147   0.695
 6347SOL    HW119940   3.365   0.053   0.664
 6347SOL    HW219941   3.372   0.152   0.793
 6348SOL     OW19942   0.574   2.596   3.793
 6348SOL    HW119943   0.577   2.566   3.888
 6348SOL    HW219944   0.624   2.531   3.736
 6349SOL     OW19945   1.430   0.799   0.659
 6349SOL    HW119946   1.331   0.804   0.645
 6349SOL    HW219947   1.476   0.868   0.603
 6350SOL     OW19948   0.153   5.840   3.347
 6350SOL    HW119949   0.224   5.797   3.293
 6350SOL    HW219950   0.064   5.803   3.322
 6351SOL     OW19951   6.971   2.236   3.175
 6351SOL    HW119952   6.950   2.228   3.078
 6351SOL    HW219953   7.002   2.147   3.209
 6352SOL     OW19954   0.313   4.811   2.527
 6352SOL    HW119955   0.270   4.899   2.548
 6352SOL    HW219956   0.259   4.764   2.457
 6353SOL     OW19957   0.446   6.654   1.734
 6353SOL    HW119958   0.455   6.554   1.735
 6353SOL    HW219959   0.356   6.680   1.769
 6354SOL     OW19960   0.117   6.808   4.454
 6354SOL    HW119961   0.170   6.752   4.391
 6354SOL    HW219962   0.070   6.750   4.520
 6355SOL     OW19963   1.386   2.368   1.680
 6355SOL    HW119964   1.334   2.370   1.766
 6355SOL    HW219965   1.363   2.284   1.630
 6356SOL     OW19966   3.478   3.667   1.150
 6356SOL    HW119967   3.529   3.706   1.227
 6356SOL    HW219968   3.542   3.638   1.079
 6357SOL     OW19969   5.425   2.016   1.423
 6357SOL    HW119970   5.413   2.095   1.483
 6357SOL    HW219971   5.400   2.041   1.329
 6358SOL     OW19972   1.520   3.241   5.165
 6358SOL    HW119973   1.614   3.266   5.144
 6358SOL    HW219974   1.517   3.187   5.249
 6359SOL     OW19975   6.751   1.291   6.211
 6359SOL    HW119976   6.803   1.212   6.181
 6359SOL    HW219977   6.812   1.370   6.220
 6360SOL     OW19978   2.421   5.551   4.026
 6360SOL    HW119979   2.481   5.585   4.098
 6360SOL    HW219980   2.372   5.471   4.059
 6361SOL     OW19981   2.811   6.567   5.675
 6361SOL    HW119982   2.782   6.653   5.717
 6361SOL    HW219983   2.813   6.495   5.745
 6362SOL     OW19984   6.357   4.876   6.214
 6362SOL    HW119985   6.374   4.955   6.272
 6362SOL    HW219986   6.349   4.794   6.272
 6363SOL     OW19987   0.912   5.441   4.018
 6363SOL    HW119988   0.945   5.427   3.925
 6363SOL    HW219989   0.957   5.521   4.058
 6364SOL     OW19990   2.282   2.152   6.710
 6364SOL    HW119991   2.319   2.245   6.709
 6364SOL    HW219992   2.239   2.133   6.622
 6365SOL     OW19993   4.275   5.219   2.344
 6365SOL    HW119994   4.201   5.223   2.277
 6365SOL    HW219995   4.337   5.297   2.331
 6366SOL     OW19996   0.697   4.353   5.580
 6366SOL    HW119997   0.642   4.430   5.612
 6366SOL    HW219998   0.748   4.380   5.498
 6367SOL     OW19999   5.491   6.129   2.458
 6367SOL    HW120000   5.460   6.193   2.528
 6367SOL    HW220001   5.477   6.169   2.367
 6368SOL     OW20002   2.905   1.071   3.058
 6368SOL    HW120003   2.833   1.005   3.039
 6368SOL    HW220004   2.865   1.154   3.097
 6369SOL     OW20005   2.244   5.953   5.093
 6369SOL    HW120006   2.237   6.016   5.170
 6369SOL    HW220007   2.173   5.882   5.102
 6370SOL     OW20008   5.346   3.162   2.134
 6370SOL    HW120009   5.268   3.194   2.188
 6370SOL    HW220010   5.369   3.231   2.065
 6371SOL     OW20011   4.266   0.980   3.985
 6371SOL    HW120012   4.341   1.018   4.039
 6371SOL    HW220013   4.298   0.963   3.892
 6372SOL     OW20014   2.731   0.250   2.475
 6372SOL    HW120015   2.818   0.298   2.467
 6372SOL    HW220016   2.737   0.160   2.431
 6373SOL     OW20017   3.475   4.638   0.272
 6373SOL    HW120018   3.446   4.718   0.219
 6373SOL    HW220019   3.519   4.572   0.211
 6374SOL     OW20020   2.890   3.429   3.174
 6374SOL    HW120021   2.792   3.433   3.190
 6374SOL    HW220022   2.924   3.337   3.193
 6375SOL     OW20023   2.118   5.788   1.991
 6375SOL    HW120024   2.129   5.771   1.893
 6375SOL    HW220025   2.126   5.701   2.041
 6376SOL     OW20026   1.191   1.754   5.500
 6376SOL    HW120027   1.241   1.836   5.473
 6376SOL    HW220028   1.155   1.766   5.593
 6377SOL     OW20029   1.010   1.718   4.089
 6377SOL    HW120030   1.006   1.775   4.171
 6377SOL    HW220031   0.981   1.625   4.112
 6378SOL     OW20032   4.100   5.331   3.745
 6378SOL    HW120033   4.032   5.392   3.706
 6378SOL    HW220034   4.089   5.239   3.707
 6379SOL     OW20035   2.605   4.901   2.272
 6379SOL    HW120036   2.650   4.814   2.256
 6379SOL    HW220037   2.630   4.966   2.201
 6380SOL     OW20038   1.412   1.032   6.040
 6380SOL    HW120039   1.423   1.104   5.972
 6380SOL    HW220040   1.499   0.985   6.055
 6381SOL     OW20041   3.404   3.447   2.265
 6381SOL    HW120042   3.400   3.358   2.220
 6381SOL    HW220043   3.312   3.485   2.273
 6382SOL     OW20044   1.180   4.763   4.507
 6382SOL    HW120045   1.196   4.814   4.422
 6382SOL    HW220046   1.086   4.727   4.507
 6383SOL     OW20047   3.436   1.494   3.925
 6383SOL    HW120048   3.459   1.408   3.971
 6383SOL    HW220049   3.491   1.568   3.963
 6384SOL     OW20050   6.562   4.497   2.235
 6384SOL    HW120051   6.544   4.595   2.250
 6384SOL    HW220052   6.627   4.486   2.160
 6385SOL     OW20053   1.635   5.851   5.626
 6385SOL    HW120054   1.707   5.793   5.586
 6385SOL    HW220055   1.545   5.814   5.602
 6386SOL     OW20056   2.302   5.411   2.689
 6386SOL    HW120057   2.234   5.419   2.762
 6386SOL    HW220058   2.352   5.325   2.699
 6387SOL     OW20059   6.070   0.778   4.933
 6387SOL    HW120060   6.054   0.804   5.029
 6387SOL    HW220061   6.057   0.680   4.923
 6388SOL     OW20062   1.821   5.049   3.274
 6388SOL    HW120063   1.728   5.064   3.242
 6388SOL    HW220064   1.866   4.979   3.217
 6389SOL     OW20065   1.510   4.106   1.050
 6389SOL    HW120066   1.559   4.030   1.007
 6389SOL    HW220067   1.488   4.082   1.144
 6390SOL     OW20068   0.906   2.642   4.512
 6390SOL    HW120069   0.922   2.548   4.541
 6390SOL    HW220070   0.957   2.705   4.571
 6391SOL     OW20071   3.714   0.712   0.064
 6391SOL    HW120072   3.661   0.796   0.060
 6391SOL    HW220073   3.722   0.673   7.001
 6392SOL     OW20074   1.273   5.894   4.427
 6392SOL    HW120075   1.317   5.808   4.451
 6392SOL    HW220076   1.310   5.967   4.485
 6393SOL     OW20077   5.084   1.283   6.983
 6393SOL    HW120078   5.151   1.235   0.011
 6393SOL    HW220079   5.103   1.266   6.887
 6394SOL     OW20080   3.245   5.099   1.877
 6394SOL    HW120081   3.265   5.110   1.779
 6394SOL    HW220082   3.270   5.007   1.906
 6395SOL     OW20083   5.802   2.339   6.798
 6395SOL    HW120084   5.721   2.300   6.842
 6395SOL    HW220085   5.787   2.343   6.699
 6396SOL     OW20086   6.257   3.534   6.358
 6396SOL    HW120087   6.307   3.608   6.403
 6396SOL    HW220088   6.200   3.487   6.425
 6397SOL     OW20089   6.155   1.019   1.037
 6397SOL    HW120090   6.240   1.068   1.017
 6397SOL    HW220091   6.124   0.971   0.954
 6398SOL     OW20092   3.858   1.067   1.588
 6398SOL    HW120093   3.915   1.019   1.520
 6398SOL    HW220094   3.879   1.165   1.586
 6399SOL     OW20095   1.348   6.294   6.714
 6399SOL    HW120096   1.344   6.393   6.719
 6399SOL    HW220097   1.382   6.267   6.624
 6400SOL     OW20098   2.890   5.091   4.955
 6400SOL    HW120099   2.810   5.141   4.989
 6400SOL    HW220100   2.867   5.049   4.867
 6401SOL     OW20101   0.809   4.685   4.782
 6401SOL    HW120102   0.725   4.720   4.822
 6401SOL    HW220103   0.816   4.586   4.799
 6402SOL     OW20104   1.744   2.919   3.518
 6402SOL    HW120105   1.786   2.965   3.440
 6402SOL    HW220106   1.657   2.879   3.489
 6403SOL     OW20107   1.009   5.988   1.655
 6403SOL    HW120108   0.920   6.027   1.629
 6403SOL    HW220109   1.082   6.043   1.614
 6404SOL     OW20110   5.075   1.106   2.457
 6404SOL    HW120111   5.003   1.066   2.399
 6404SOL    HW220112   5.035   1.170   2.521
 6405SOL     OW20113   3.619   0.505   1.776
 6405SOL    HW120114   3.713   0.525   1.748
 6405SOL    HW220115   3.562   0.497   1.694
 6406SOL     OW20116   2.789   1.902   3.303
 6406SOL    HW120117   2.859   1.866   3.241
 6406SOL    HW220118   2.824   1.899   3.397
 6407SOL     OW20119   4.543   6.170   6.565
 6407SOL    HW120120   4.560   6.253   6.618
 6407SOL    HW220121   4.630   6.126   6.543
 6408SOL     OW20122   5.690   2.543   0.766
 6408SOL    HW120123   5.636   2.555   0.849
 6408SOL    HW220124   5.645   2.476   0.706
 6409SOL     OW20125   0.737   5.150   1.954
 6409SOL    HW120126   0.825   5.197   1.962
 6409SOL    HW220127   0.671   5.193   2.016
 6410SOL     OW20128   0.502   0.780   2.051
 6410SOL    HW120129   0.470   0.871   2.076
 6410SOL    HW220130   0.525   0.729   2.134
 6411SOL     OW20131   1.422   1.587   3.654
 6411SOL    HW120132   1.336   1.616   3.698
 6411SOL    HW220133   1.409   1.496   3.614
 6412SOL     OW20134   5.555   2.258   4.287
 6412SOL    HW120135   5.504   2.321   4.346
 6412SOL    HW220136   5.581   2.305   4.203
 6413SOL     OW20137   0.548   4.991   0.889
 6413SOL    HW120138   0.571   4.901   0.853
 6413SOL    HW220139   0.513   5.049   0.815
 6414SOL     OW20140   6.119   0.534   3.328
 6414SOL    HW120141   6.091   0.449   3.283
 6414SOL    HW220142   6.214   0.555   3.304
 6415SOL     OW20143   1.592   1.706   2.176
 6415SOL    HW120144   1.498   1.688   2.204
 6415SOL    HW220145   1.599   1.703   2.077
 6416SOL     OW20146   2.664   6.276   6.486
 6416SOL    HW120147   2.691   6.261   6.580
 6416SOL    HW220148   2.664   6.190   6.436
 6417SOL     OW20149   0.360   6.009   4.295
 6417SOL    HW120150   0.413   5.990   4.378
 6417SOL    HW220151   0.404   5.965   4.217
 6418SOL     OW20152   6.744   5.216   2.212
 6418SOL    HW120153   6.664   5.217   2.154
 6418SOL    HW220154   6.752   5.127   2.258
 6419SOL     OW20155   2.283   3.415   0.545
 6419SOL    HW120156   2.265   3.378   0.637
 6419SOL    HW220157   2.228   3.365   0.478
 6420SOL     OW20158   0.653   2.949   6.936
 6420SOL    HW120159   0.689   2.951   6.843
 6420SOL    HW220160   0.658   2.856   6.973
 6421SOL     OW20161   5.523   2.315   0.178
 6421SOL    HW120162   5.620   2.338   0.192
 6421SOL    HW220163   5.487   2.271   0.260
 6422SOL     OW20164   5.895   2.605   2.672
 6422SOL    HW120165   5.967   2.638   2.611
 6422SOL    HW220166   5.928   2.604   2.766
 6423SOL     OW20167   5.504   3.899   0.029
 6423SOL    HW120168   5.581   3.958   0.054
 6423SOL    HW220169   5.446   3.947   6.991
 6424SOL     OW20170   6.418   4.221   5.198
 6424SOL    HW120171   6.341   4.159   5.181
 6424SOL    HW220172   6.440   4.270   5.113
 6425SOL     OW20173   0.544   5.241   1.048
 6425SOL    HW120174   0.492   5.300   1.110
 6425SOL    HW220175   0.557   5.152   1.091
 6426SOL     OW20176   6.405   2.904   3.069
 6426SOL    HW120177   6.420   2.947   3.158
 6426SOL    HW220178   6.441   2.964   2.997
 6427SOL     OW20179   0.580   2.907   5.766
 6427SOL    HW120180   0.494   2.903   5.818
 6427SOL    HW220181   0.646   2.963   5.817
 6428SOL     OW20182   6.398   3.596   4.263
 6428SOL    HW120183   6.323   3.531   4.264
 6428SOL    HW220184   6.381   3.665   4.192
 6429SOL     OW20185   0.962   1.278   5.281
 6429SOL    HW120186   0.863   1.272   5.271
 6429SOL    HW220187   0.989   1.373   5.297
 6430SOL     OW20188   6.345   3.150   0.442
 6430SOL    HW120189   6.297   3.075   0.488
 6430SOL    HW220190   6.286   3.231   0.440
 6431SOL     OW20191   6.204   1.510   2.766
 6431SOL    HW120192   6.113   1.468   2.773
 6431SOL    HW220193   6.267   1.445   2.723
 6432SOL     OW20194   6.046   3.818   0.539
 6432SOL    HW120195   6.123   3.876   0.515
 6432SOL    HW220196   6.011   3.844   0.629
 6433SOL     OW20197   2.219   3.706   1.611
 6433SOL    HW120198   2.301   3.734   1.561
 6433SOL    HW220199   2.138   3.729   1.557
 6434SOL     OW20200   1.358   5.624   0.307
 6434SOL    HW120201   1.433   5.559   0.295
 6434SOL    HW220202   1.349   5.647   0.404
 6435SOL     OW20203   4.960   3.629   0.583
 6435SOL    HW120204   4.936   3.568   0.658
 6435SOL    HW220205   4.918   3.597   0.498
 6436SOL     OW20206   1.898   2.470   1.684
 6436SOL    HW120207   1.803   2.490   1.659
 6436SOL    HW220208   1.936   2.403   1.621
 6437SOL     OW20209   0.023   0.808   0.729
 6437SOL    HW120210   0.075   0.740   0.782
 6437SOL    HW220211   7.022   0.766   0.643
 6438SOL     OW20212   0.883   3.425   4.546
 6438SOL    HW120213   0.971   3.420   4.594
 6438SOL    HW220214   0.897   3.402   4.449
 6439SOL     OW20215   0.385   6.332   2.151
 6439SOL    HW120216   0.433   6.379   2.225
 6439SOL    HW220217   0.312   6.275   2.189
 6440SOL     OW20218   0.526   0.582   2.240
 6440SOL    HW120219   0.593   0.574   2.314
 6440SOL    HW220220   0.487   0.493   2.221
 6441SOL     OW20221   4.577   1.661   2.601
 6441SOL    HW120222   4.621   1.708   2.678
 6441SOL    HW220223   4.490   1.621   2.632
 6442SOL     OW20224   2.451   0.912   3.385
 6442SOL    HW120225   2.419   0.850   3.456
 6442SOL    HW220226   2.378   0.925   3.317
 6443SOL     OW20227   2.437   0.763   0.967
 6443SOL    HW120228   2.370   0.808   0.908
 6443SOL    HW220229   2.518   0.739   0.915
 6444SOL     OW20230   0.933   1.741   3.106
 6444SOL    HW120231   1.026   1.751   3.070
 6444SOL    HW220232   0.870   1.795   3.049
 6445SOL     OW20233   3.122   3.964   5.657
 6445SOL    HW120234   3.133   3.939   5.753
 6445SOL    HW220235   3.065   4.047   5.650
 6446SOL     OW20236   6.903   1.186   0.340
 6446SOL    HW120237   6.945   1.144   0.259
 6446SOL    HW220238   6.849   1.265   0.313
 6447SOL     OW20239   1.429   0.929   3.669
 6447SOL    HW120240   1.334   0.957   3.654
 6447SOL    HW220241   1.460   0.963   3.758
 6448SOL     OW20242   6.746   2.428   3.043
 6448SOL    HW120243   6.793   2.365   3.105
 6448SOL    HW220244   6.647   2.417   3.054
 6449SOL     OW20245   3.894   2.833   0.596
 6449SOL    HW120246   3.887   2.924   0.555
 6449SOL    HW220247   3.990   2.803   0.596
 6450SOL     OW20248   6.771   3.013   0.666
 6450SOL    HW120249   6.797   2.955   0.588
 6450SOL    HW220250   6.850   3.026   0.725
 6451SOL     OW20251   2.397   6.905   4.082
 6451SOL    HW120252   2.370   6.944   3.994
 6451SOL    HW220253   2.319   6.909   4.145
 6452SOL     OW20254   3.605   6.322   4.620
 6452SOL    HW120255   3.618   6.229   4.585
 6452SOL    HW220256   3.686   6.377   4.602
 6453SOL     OW20257   2.053   5.135   6.644
 6453SOL    HW120258   2.087   5.042   6.631
 6453SOL    HW220259   1.956   5.133   6.665
 6454SOL     OW20260   3.607   0.675   4.686
 6454SOL    HW120261   3.687   0.729   4.659
 6454SOL    HW220262   3.587   0.607   4.616
 6455SOL     OW20263   6.393   3.235   6.877
 6455SOL    HW120264   6.336   3.155   6.899
 6455SOL    HW220265   6.489   3.213   6.892
 6456SOL     OW20266   6.757   1.795   4.807
 6456SOL    HW120267   6.737   1.877   4.860
 6456SOL    HW220268   6.754   1.715   4.867
 6457SOL     OW20269   5.891   2.798   2.345
 6457SOL    HW120270   5.905   2.852   2.427
 6457SOL    HW220271   5.825   2.843   2.285
 6458SOL     OW20272   0.902   6.113   3.586
 6458SOL    HW120273   0.950   6.190   3.626
 6458SOL    HW220274   0.964   6.035   3.579
 6459SOL     OW20275   5.503   4.446   0.599
 6459SOL    HW120276   5.514   4.403   0.688
 6459SOL    HW220277   5.582   4.425   0.541
 6460SOL     OW20278   3.634   4.963   1.650
 6460SOL    HW120279   3.729   4.970   1.618
 6460SOL    HW220280   3.591   5.054   1.646
 6461SOL     OW20281   3.382   6.206   5.560
 6461SOL    HW120282   3.443   6.198   5.482
 6461SOL    HW220283   3.290   6.229   5.529
 6462SOL     OW20284   1.880   3.578   3.039
 6462SOL    HW120285   1.926   3.655   3.083
 6462SOL    HW220286   1.858   3.509   3.109
 6463SOL     OW20287   1.431   3.624   5.583
 6463SOL    HW120288   1.350   3.644   5.638
 6463SOL    HW220289   1.443   3.695   5.514
 6464SOL     OW20290   1.569   5.113   2.239
 6464SOL    HW120291   1.622   5.037   2.278
 6464SOL    HW220292   1.499   5.141   2.305
 6465SOL     OW20293   6.027   0.558   2.784
 6465SOL    HW120294   5.928   0.565   2.770
 6465SOL    HW220295   6.072   0.550   2.695
 6466SOL     OW20296   6.662   2.062   4.417
 6466SOL    HW120297   6.592   2.005   4.375
 6466SOL    HW220298   6.634   2.086   4.510
 6467SOL     OW20299   3.589   0.558   6.573
 6467SOL    HW120300   3.616   0.638   6.518
 6467SOL    HW220301   3.495   0.569   6.604
 6468SOL     OW20302   5.697   4.241   2.162
 6468SOL    HW120303   5.717   4.210   2.255
 6468SOL    HW220304   5.639   4.173   2.116
 6469SOL     OW20305   5.836   1.830   5.528
 6469SOL    HW120306   5.847   1.786   5.617
 6469SOL    HW220307   5.923   1.829   5.479
 6470SOL     OW20308   6.513   5.802   4.528
 6470SOL    HW120309   6.421   5.765   4.517
 6470SOL    HW220310   6.579   5.738   4.488
 6471SOL     OW20311   6.479   6.014   5.097
 6471SOL    HW120312   6.569   5.994   5.135
 6471SOL    HW220313   6.489   6.071   5.015
 6472SOL     OW20314   1.850   6.520   1.538
 6472SOL    HW120315   1.876   6.441   1.593
 6472SOL    HW220316   1.754   6.511   1.510
 6473SOL     OW20317   2.211   0.443   5.313
 6473SOL    HW120318   2.228   0.387   5.394
 6473SOL    HW220319   2.142   0.513   5.335
 6474SOL     OW20320   2.090   3.281   6.375
 6474SOL    HW120321   1.990   3.283   6.374
 6474SOL    HW220322   2.122   3.220   6.303
 6475SOL     OW20323   4.314   5.543   3.707
 6475SOL    HW120324   4.407   5.507   3.710
 6475SOL    HW220325   4.250   5.474   3.742
 6476SOL     OW20326   4.901   5.697   2.580
 6476SOL    HW120327   4.835   5.633   2.619
 6476SOL    HW220328   4.906   5.778   2.637
 6477SOL     OW20329   6.555   6.329   0.027
 6477SOL    HW120330   6.498   6.411   0.022
 6477SOL    HW220331   6.616   6.325   6.977
 6478SOL     OW20332   4.518   5.562   1.339
 6478SOL    HW120333   4.428   5.605   1.344
 6478SOL    HW220334   4.585   5.630   1.309
 6479SOL     OW20335   3.494   6.032   2.720
 6479SOL    HW120336   3.476   6.038   2.818
 6479SOL    HW220337   3.555   5.955   2.702
 6480SOL     OW20338   2.858   0.905   1.190
 6480SOL    HW120339   2.784   0.911   1.257
 6480SOL    HW220340   2.833   0.956   1.108
 6481SOL     OW20341   4.514   0.401   0.768
 6481SOL    HW120342   4.467   0.348   0.698
 6481SOL    HW220343   4.448   0.432   0.836
 6482SOL     OW20344   6.764   0.040   6.274
 6482SOL    HW120345   6.835   0.087   6.326
 6482SOL    HW220346   6.805   6.995   6.220
 6483SOL     OW20347   2.246   5.000   1.657
 6483SOL    HW120348   2.151   4.993   1.626
 6483SOL    HW220349   2.283   5.089   1.629
 6484SOL     OW20350   4.937   6.916   2.966
 6484SOL    HW120351   5.015   6.975   2.946
 6484SOL    HW220352   4.867   6.927   2.896
 6485SOL     OW20353   0.572   3.053   3.197
 6485SOL    HW120354   0.611   3.043   3.106
 6485SOL    HW220355   0.641   3.032   3.266
 6486SOL     OW20356   1.574   2.494   3.326
 6486SOL    HW120357   1.558   2.507   3.424
 6486SOL    HW220358   1.623   2.573   3.289
 6487SOL     OW20359   5.942   5.318   3.360
 6487SOL    HW120360   5.982   5.351   3.275
 6487SOL    HW220361   5.935   5.218   3.357
 6488SOL     OW20362   3.392   5.276   4.555
 6488SOL    HW120363   3.474   5.264   4.611
 6488SOL    HW220364   3.380   5.373   4.534
 6489SOL     OW20365   2.585   1.361   6.789
 6489SOL    HW120366   2.503   1.348   6.844
 6489SOL    HW220367   2.635   1.275   6.782
 6490SOL     OW20368   5.067   2.143   0.730
 6490SOL    HW120369   5.152   2.090   0.735
 6490SOL    HW220370   5.044   2.179   0.821
 6491SOL     OW20371   5.108   0.794   5.561
 6491SOL    HW120372   5.181   0.727   5.549
 6491SOL    HW220373   5.098   0.817   5.658
 6492SOL     OW20374   6.400   5.734   5.922
 6492SOL    HW120375   6.401   5.791   5.840
 6492SOL    HW220376   6.439   5.785   5.999
 6493SOL     OW20377   0.979   0.050   5.287
 6493SOL    HW120378   0.983   0.088   5.379
 6493SOL    HW220379   1.035   6.996   5.283
 6494SOL     OW20380   0.479   1.657   3.511
 6494SOL    HW120381   0.572   1.633   3.541
 6494SOL    HW220382   0.435   1.576   3.471
 6495SOL     OW20383   5.885   4.460   1.841
 6495SOL    HW120384   5.838   4.404   1.772
 6495SOL    HW220385   5.974   4.419   1.861
 6496SOL     OW20386   0.190   6.094   3.077
 6496SOL    HW120387   0.099   6.097   3.117
 6496SOL    HW220388   0.203   6.006   3.030
 6497SOL     OW20389   0.711   6.940   0.762
 6497SOL    HW120390   0.640   6.872   0.741
 6497SOL    HW220391   0.669   0.002   0.767
 6498SOL     OW20392   1.426   4.195   3.829
 6498SOL    HW120393   1.387   4.134   3.761
 6498SOL    HW220394   1.389   4.173   3.919
 6499SOL     OW20395   6.180   1.630   3.395
 6499SOL    HW120396   6.214   1.570   3.467
 6499SOL    HW220397   6.099   1.678   3.428
 6500SOL     OW20398   5.893   4.796   2.238
 6500SOL    HW120399   5.963   4.732   2.207
 6500SOL    HW220400   5.871   4.778   2.334
 6501SOL     OW20401   6.740   4.223   0.715
 6501SOL    HW120402   6.703   4.146   0.664
 6501SOL    HW220403   6.680   4.302   0.704
 6502SOL     OW20404   0.888   4.904   1.125
 6502SOL    HW120405   0.986   4.907   1.143
 6502SOL    HW220406   0.852   4.997   1.116
 6503SOL     OW20407   4.467   0.328   4.183
 6503SOL    HW120408   4.512   0.318   4.272
 6503SOL    HW220409   4.526   0.292   4.111
 6504SOL     OW20410   2.064   1.431   0.884
 6504SOL    HW120411   2.148   1.410   0.934
 6504SOL    HW220412   1.987   1.382   0.926
 6505SOL     OW20413   5.694   5.380   0.398
 6505SOL    HW120414   5.695   5.302   0.336
 6505SOL    HW220415   5.787   5.417   0.407
 6506SOL     OW20416   2.225   1.121   0.973
 6506SOL    HW120417   2.209   1.066   1.055
 6506SOL    HW220418   2.164   1.089   0.900
 6507SOL     OW20419   3.081   0.706   1.813
 6507SOL    HW120420   3.075   0.800   1.780
 6507SOL    HW220421   3.021   0.694   1.892
 6508SOL     OW20422   1.872   2.067   2.059
 6508SOL    HW120423   1.888   2.012   1.978
 6508SOL    HW220424   1.795   2.029   2.111
 6509SOL     OW20425   1.329   2.768   3.886
 6509SOL    HW120426   1.336   2.820   3.972
 6509SOL    HW220427   1.410   2.785   3.830
 6510SOL     OW20428   6.147   4.732   6.492
 6510SOL    HW120429   6.101   4.733   6.580
 6510SOL    HW220430   6.228   4.791   6.495
 6511SOL     OW20431   6.881   6.883   6.082
 6511SOL    HW120432   6.961   6.911   6.028
 6511SOL    HW220433   6.884   6.784   6.096
 6512SOL     OW20434   5.436   6.306   3.468
 6512SOL    HW120435   5.443   6.290   3.369
 6512SOL    HW220436   5.340   6.298   3.496
 6513SOL     OW20437   1.255   6.738   3.629
 6513SOL    HW120438   1.301   6.827   3.622
 6513SOL    HW220439   1.190   6.740   3.704
 6514SOL     OW20440   2.805   0.579   3.432
 6514SOL    HW120441   2.768   0.671   3.438
 6514SOL    HW220442   2.905   0.582   3.429
 6515SOL     OW20443   0.508   0.488   3.152
 6515SOL    HW120444   0.562   0.462   3.072
 6515SOL    HW220445   0.423   0.531   3.123
 6516SOL     OW20446   1.569   1.060   5.631
 6516SOL    HW120447   1.600   1.009   5.551
 6516SOL    HW220448   1.478   1.099   5.613
 6517SOL     OW20449   2.505   2.152   0.966
 6517SOL    HW120450   2.551   2.065   0.982
 6517SOL    HW220451   2.425   2.159   1.026
 6518SOL     OW20452   5.721   6.302   1.054
 6518SOL    HW120453   5.781   6.222   1.039
 6518SOL    HW220454   5.626   6.272   1.061
 6519SOL     OW20455   1.137   1.829   4.346
 6519SOL    HW120456   1.123   1.922   4.380
 6519SOL    HW220457   1.192   1.832   4.262
 6520SOL     OW20458   5.642   5.404   1.349
 6520SOL    HW120459   5.737   5.378   1.369
 6520SOL    HW220460   5.598   5.331   1.298
 6521SOL     OW20461   1.493   2.172   5.589
 6521SOL    HW120462   1.559   2.157   5.662
 6521SOL    HW220463   1.412   2.217   5.626
 6522SOL     OW20464   2.605   5.418   4.356
 6522SOL    HW120465   2.572   5.347   4.295
 6522SOL    HW220466   2.697   5.395   4.388
 6523SOL     OW20467   1.744   2.359   0.284
 6523SOL    HW120468   1.815   2.416   0.245
 6523SOL    HW220469   1.785   2.278   0.326
 6524SOL     OW20470   4.132   2.726   5.666
 6524SOL    HW120471   4.076   2.650   5.632
 6524SOL    HW220472   4.141   2.720   5.765
 6525SOL     OW20473   0.450   2.492   4.352
 6525SOL    HW120474   0.486   2.504   4.260
 6525SOL    HW220475   0.515   2.438   4.406
 6526SOL     OW20476   1.720   5.559   3.827
 6526SOL    HW120477   1.650   5.630   3.823
 6526SOL    HW220478   1.767   5.563   3.915
 6527SOL     OW20479   2.449   1.357   4.005
 6527SOL    HW120480   2.443   1.257   4.003
 6527SOL    HW220481   2.407   1.391   4.089
 6528SOL     OW20482   0.339   7.017   3.065
 6528SOL    HW120483   0.360   0.025   3.156
 6528SOL    HW220484   0.293   6.929   3.076
 6529SOL     OW20485   6.786   2.973   2.528
 6529SOL    HW120486   6.879   2.946   2.502
 6529SOL    HW220487   6.790   3.040   2.602
 6530SOL     OW20488   0.490   1.907   0.378
 6530SOL    HW120489   0.485   1.818   0.332
 6530SOL    HW220490   0.584   1.941   0.373
 6531SOL     OW20491   5.114   2.413   5.068
 6531SOL    HW120492   5.043   2.363   5.018
 6531SOL    HW220493   5.089   2.418   5.165
 6532SOL     OW20494   1.110   1.941   6.959
 6532SOL    HW120495   1.017   1.905   6.951
 6532SOL    HW220496   1.106   2.040   6.972
 6533SOL     OW20497   4.595   0.411   1.151
 6533SOL    HW120498   4.544   0.451   1.075
 6533SOL    HW220499   4.649   0.482   1.196
 6534SOL     OW20500   2.477   2.643   0.158
 6534SOL    HW120501   2.563   2.599   0.132
 6534SOL    HW220502   2.404   2.613   0.097
 6535SOL     OW20503   2.017   3.314   5.298
 6535SOL    HW120504   2.077   3.243   5.262
 6535SOL    HW220505   2.058   3.404   5.281
 6536SOL     OW20506   6.850   1.974   6.879
 6536SOL    HW120507   6.847   2.061   6.928
 6536SOL    HW220508   6.863   1.990   6.781
 6537SOL     OW20509   1.070   0.727   6.625
 6537SOL    HW120510   1.013   0.662   6.675
 6537SOL    HW220511   1.148   0.678   6.586
 6538SOL     OW20512   2.746   2.794   5.712
 6538SOL    HW120513   2.684   2.839   5.777
 6538SOL    HW220514   2.828   2.763   5.759
 6539SOL     OW20515   3.331   1.512   6.559
 6539SOL    HW120516   3.354   1.544   6.651
 6539SOL    HW220517   3.385   1.431   6.538
 6540SOL     OW20518   3.811   2.045   3.794
 6540SOL    HW120519   3.713   2.029   3.807
 6540SOL    HW220520   3.855   1.961   3.764
 6541SOL     OW20521   3.011   2.527   5.622
 6541SOL    HW120522   3.050   2.455   5.565
 6541SOL    HW220523   3.000   2.610   5.568
 6542SOL     OW20524   5.533   4.348   2.649
 6542SOL    HW120525   5.588   4.430   2.660
 6542SOL    HW220526   5.533   4.319   2.553
 6543SOL     OW20527   1.129   6.103   5.706
 6543SOL    HW120528   1.179   6.082   5.790
 6543SOL    HW220529   1.043   6.052   5.704
 6544SOL     OW20530   0.157   6.159   2.512
 6544SOL    HW120531   0.234   6.221   2.528
 6544SOL    HW220532   0.075   6.197   2.554
 6545SOL     OW20533   5.924   3.019   6.517
 6545SOL    HW120534   5.864   3.085   6.562
 6545SOL    HW220535   5.930   3.039   6.420
 6546SOL     OW20536   3.125   4.707   6.185
 6546SOL    HW120537   3.075   4.653   6.253
 6546SOL    HW220538   3.218   4.722   6.216
 6547SOL     OW20539   5.107   0.748   6.541
 6547SOL    HW120540   5.163   0.803   6.603
 6547SOL    HW220541   5.062   0.808   6.475
 6548SOL     OW20542   5.004   4.054   5.683
 6548SOL    HW120543   4.968   4.088   5.597
 6548SOL    HW220544   5.082   4.110   5.712
 6549SOL     OW20545   2.623   2.303   2.746
 6549SOL    HW120546   2.600   2.207   2.759
 6549SOL    HW220547   2.721   2.311   2.724
 6550SOL     OW20548   1.175   5.978   2.652
 6550SOL    HW120549   1.245   5.912   2.677
 6550SOL    HW220550   1.087   5.948   2.688
 6551SOL     OW20551   3.243   5.199   2.223
 6551SOL    HW120552   3.319   5.258   2.195
 6551SOL    HW220553   3.273   5.104   2.222
 6552SOL     OW20554   4.224   4.823   5.800
 6552SOL    HW120555   4.291   4.804   5.872
 6552SOL    HW220556   4.155   4.751   5.798
 6553SOL     OW20557   0.038   3.283   3.179
 6553SOL    HW120558   0.086   3.198   3.200
 6553SOL    HW220559   0.030   3.293   3.080
 6554SOL     OW20560   6.926   4.025   4.582
 6554SOL    HW120561   6.869   3.957   4.534
 6554SOL    HW220562   6.876   4.062   4.659
 6555SOL     OW20563   0.607   1.396   1.279
 6555SOL    HW120564   0.526   1.426   1.329
 6555SOL    HW220565   0.644   1.313   1.321
 6556SOL     OW20566   3.673   0.300   3.438
 6556SOL    HW120567   3.702   0.206   3.421
 6556SOL    HW220568   3.744   0.347   3.491
 6557SOL     OW20569   5.516   5.729   0.525
 6557SOL    HW120570   5.587   5.789   0.489
 6557SOL    HW220571   5.432   5.782   0.539
 6558SOL     OW20572   6.870   6.166   5.753
 6558SOL    HW120573   6.962   6.151   5.718
 6558SOL    HW220574   6.812   6.203   5.680
 6559SOL     OW20575   3.244   3.362   1.277
 6559SOL    HW120576   3.215   3.433   1.213
 6559SOL    HW220577   3.259   3.276   1.227
 6560SOL     OW20578   4.538   1.811   1.267
 6560SOL    HW120579   4.509   1.752   1.192
 6560SOL    HW220580   4.509   1.905   1.249
 6561SOL     OW20581   3.855   3.919   4.395
 6561SOL    HW120582   3.936   3.878   4.438
 6561SOL    HW220583   3.801   3.847   4.351
 6562SOL     OW20584   0.175   4.428   4.982
 6562SOL    HW120585   0.105   4.414   4.912
 6562SOL    HW220586   0.138   4.484   5.056
 6563SOL     OW20587   0.509   5.452   2.567
 6563SOL    HW120588   0.480   5.537   2.524
 6563SOL    HW220589   0.453   5.435   2.648
 6564SOL     OW20590   1.410   5.157   2.989
 6564SOL    HW120591   1.318   5.119   2.983
 6564SOL    HW220592   1.405   5.257   2.980
 6565SOL     OW20593   6.899   3.372   5.246
 6565SOL    HW120594   6.985   3.393   5.200
 6565SOL    HW220595   6.822   3.395   5.187
 6566SOL     OW20596   4.351   1.247   0.527
 6566SOL    HW120597   4.411   1.320   0.495
 6566SOL    HW220598   4.390   1.159   0.503
 6567SOL     OW20599   6.419   2.686   0.858
 6567SOL    HW120600   6.474   2.768   0.848
 6567SOL    HW220601   6.475   2.605   0.837
 6568SOL     OW20602   4.652   3.718   1.036
 6568SOL    HW120603   4.732   3.732   0.977
 6568SOL    HW220604   4.617   3.626   1.022
 6569SOL     OW20605   1.002   4.454   5.716
 6569SOL    HW120606   0.916   4.439   5.764
 6569SOL    HW220607   1.035   4.547   5.733
 6570SOL     OW20608   6.673   4.064   2.010
 6570SOL    HW120609   6.715   4.008   1.938
 6570SOL    HW220610   6.633   4.146   1.969
 6571SOL     OW20611   1.920   6.285   3.902
 6571SOL    HW120612   1.880   6.231   3.827
 6571SOL    HW220613   2.005   6.241   3.933
 6572SOL     OW20614   1.794   3.766   6.181
 6572SOL    HW120615   1.891   3.750   6.202
 6572SOL    HW220616   1.745   3.678   6.182
 6573SOL     OW20617   1.719   1.797   1.541
 6573SOL    HW120618   1.800   1.775   1.486
 6573SOL    HW220619   1.671   1.875   1.500
 6574SOL     OW20620   2.172   4.392   4.662
 6574SOL    HW120621   2.197   4.299   4.690
 6574SOL    HW220622   2.212   4.458   4.726
 6575SOL     OW20623   1.697   1.550   2.975
 6575SOL    HW120624   1.770   1.612   3.004
 6575SOL    HW220625   1.628   1.545   3.047
 6576SOL     OW20626   0.389   6.471   3.950
 6576SOL    HW120627   0.410   6.406   4.023
 6576SOL    HW220628   0.396   6.426   3.862
 6577SOL     OW20629   0.274   3.690   5.278
 6577SOL    HW120630   0.211   3.751   5.325
 6577SOL    HW220631   0.309   3.734   5.196
 6578SOL     OW20632   6.699   5.709   3.915
 6578SOL    HW120633   6.617   5.755   3.882
 6578SOL    HW220634   6.738   5.652   3.843
 6579SOL     OW20635   7.002   4.186   3.550
 6579SOL    HW120636   7.025   4.101   3.501
 6579SOL    HW220637   6.951   4.247   3.489
 6580SOL     OW20638   5.471   3.033   0.538
 6580SOL    HW120639   5.524   3.042   0.454
 6580SOL    HW220640   5.506   2.956   0.591
 6581SOL     OW20641   2.746   2.343   5.954
 6581SOL    HW120642   2.665   2.373   5.903
 6581SOL    HW220643   2.806   2.291   5.894
 6582SOL     OW20644   6.673   0.649   2.706
 6582SOL    HW120645   6.662   0.726   2.642
 6582SOL    HW220646   6.586   0.601   2.715
 6583SOL     OW20647   6.528   1.439   6.125
 6583SOL    HW120648   6.621   1.429   6.091
 6583SOL    HW220649   6.523   1.407   6.220
 6584SOL     OW20650   5.665   2.858   0.709
 6584SOL    HW120651   5.722   2.790   0.754
 6584SOL    HW220652   5.694   2.950   0.737
 6585SOL     OW20653   2.617   1.047   1.802
 6585SOL    HW120654   2.696   1.010   1.852
 6585SOL    HW220655   2.535   0.996   1.827
 6586SOL     OW20656   6.120   1.925   6.859
 6586SOL    HW120657   6.098   2.012   6.904
 6586SOL    HW220658   6.134   1.941   6.761
 6587SOL     OW20659   2.032   6.103   1.719
 6587SOL    HW120660   2.034   6.052   1.804
 6587SOL    HW220661   2.113   6.081   1.664
 6588SOL     OW20662   3.048   2.635   0.215
 6588SOL    HW120663   2.950   2.617   0.225
 6588SOL    HW220664   3.086   2.580   0.141
 6589SOL     OW20665   4.734   1.740   5.938
 6589SOL    HW120666   4.831   1.763   5.947
 6589SOL    HW220667   4.697   1.787   5.858
 6590SOL     OW20668   6.053   1.778   5.390
 6590SOL    HW120669   6.065   1.765   5.292
 6590SOL    HW220670   6.142   1.783   5.435
 6591SOL     OW20671   5.206   0.416   2.641
 6591SOL    HW120672   5.210   0.504   2.689
 6591SOL    HW220673   5.125   0.413   2.583
 6592SOL     OW20674   6.395   5.595   4.935
 6592SOL    HW120675   6.492   5.594   4.962
 6592SOL    HW220676   6.380   5.526   4.865
 6593SOL     OW20677   5.206   0.932   2.732
 6593SOL    HW120678   5.170   1.000   2.795
 6593SOL    HW220679   5.212   0.972   2.640
 6594SOL     OW20680   5.488   1.276   6.957
 6594SOL    HW120681   5.455   1.210   7.025
 6594SOL    HW220682   5.580   1.307   6.983
 6595SOL     OW20683   3.363   2.529   6.586
 6595SOL    HW120684   3.353   2.557   6.491
 6595SOL    HW220685   3.272   2.522   6.628
 6596SOL     OW20686   2.905   6.543   5.264
 6596SOL    HW120687   2.899   6.519   5.167
 6596SOL    HW220688   2.834   6.493   5.315
 6597SOL     OW20689   0.126   4.129   6.513
 6597SOL    HW120690   0.173   4.201   6.463
 6597SOL    HW220691   0.090   4.166   6.599
 6598SOL     OW20692   2.546   6.269   4.816
 6598SOL    HW120693   2.509   6.178   4.836
 6598SOL    HW220694   2.628   6.260   4.760
 6599SOL     OW20695   4.415   3.490   6.463
 6599SOL    HW120696   4.426   3.422   6.535
 6599SOL    HW220697   4.405   3.444   6.375
 6600SOL     OW20698   4.230   4.977   4.910
 6600SOL    HW120699   4.325   5.002   4.894
 6600SOL    HW220700   4.171   5.056   4.893
 6601SOL     OW20701   0.344   0.661   1.835
 6601SOL    HW120702   0.388   0.705   1.913
 6601SOL    HW220703   0.355   0.562   1.842
 6602SOL     OW20704   6.673   1.285   1.521
 6602SOL    HW120705   6.585   1.286   1.569
 6602SOL    HW220706   6.737   1.225   1.570
 6603SOL     OW20707   2.763   1.489   2.005
 6603SOL    HW120708   2.850   1.506   1.960
 6603SOL    HW220709   2.700   1.445   1.940
 6604SOL     OW20710   4.304   6.201   4.281
 6604SOL    HW120711   4.275   6.114   4.241
 6604SOL    HW220712   4.337   6.261   4.209
 6605SOL     OW20713   5.105   6.324   0.336
 6605SOL    HW120714   5.028   6.259   0.335
 6605SOL    HW220715   5.074   6.413   0.302
 6606SOL     OW20716   0.395   2.140   3.218
 6606SOL    HW120717   0.336   2.221   3.215
 6606SOL    HW220718   0.389   2.092   3.130
 6607SOL     OW20719   1.087   3.333   2.722
 6607SOL    HW120720   1.021   3.391   2.770
 6607SOL    HW220721   1.136   3.387   2.653
 6608SOL     OW20722   5.092   4.465   4.973
 6608SOL    HW120723   5.112   4.367   4.973
 6608SOL    HW220724   4.997   4.479   5.001
 6609SOL     OW20725   5.284   2.163   0.084
 6609SOL    HW120726   5.220   2.192   0.155
 6609SOL    HW220727   5.377   2.159   0.123
 6610SOL     OW20728   3.794   1.381   0.695
 6610SOL    HW120729   3.781   1.320   0.616
 6610SOL    HW220730   3.765   1.473   0.671
 6611SOL     OW20731   5.489   3.579   3.174
 6611SOL    HW120732   5.573   3.625   3.204
 6611SOL    HW220733   5.512   3.513   3.102
 6612SOL     OW20734   1.114   6.101   6.485
 6612SOL    HW120735   1.091   6.005   6.503
 6612SOL    HW220736   1.193   6.127   6.540
 6613SOL     OW20737   5.680   4.868   0.893
 6613SOL    HW120738   5.711   4.823   0.809
 6613SOL    HW220739   5.581   4.854   0.903
 6614SOL     OW20740   5.894   4.598   5.991
 6614SOL    HW120741   5.967   4.575   5.927
 6614SOL    HW220742   5.924   4.579   6.084
 6615SOL     OW20743   0.203   3.442   5.328
 6615SOL    HW120744   0.246   3.426   5.417
 6615SOL    HW220745   0.220   3.536   5.298
 6616SOL     OW20746   4.507   1.050   4.090
 6616SOL    HW120747   4.526   1.087   4.182
 6616SOL    HW220748   4.578   0.984   4.066
 6617SOL     OW20749   4.576   0.015   5.089
 6617SOL    HW120750   4.483   0.045   5.107
 6617SOL    HW220751   4.575   6.965   5.028
 6618SOL     OW20752   6.985   4.755   1.124
 6618SOL    HW120753   0.012   4.790   1.199
 6618SOL    HW220754   0.006   4.683   1.076
 6619SOL     OW20755   0.106   6.011   1.394
 6619SOL    HW120756   0.045   6.082   1.429
 6619SOL    HW220757   0.178   5.993   1.461
 6620SOL     OW20758   4.568   3.121   5.373
 6620SOL    HW120759   4.591   3.219   5.374
 6620SOL    HW220760   4.646   3.069   5.337
 6621SOL     OW20761   2.680   3.290   0.225
 6621SOL    HW120762   2.729   3.202   0.220
 6621SOL    HW220763   2.739   3.359   0.266
 6622SOL     OW20764   6.196   5.520   0.499
 6622SOL    HW120765   6.164   5.542   0.591
 6622SOL    HW220766   6.171   5.426   0.477
 6623SOL     OW20767   3.768   4.062   2.799
 6623SOL    HW120768   3.804   4.061   2.893
 6623SOL    HW220769   3.840   4.033   2.736
 6624SOL     OW20770   4.596   4.983   4.296
 6624SOL    HW120771   4.504   4.980   4.335
 6624SOL    HW220772   4.613   4.900   4.245
 6625SOL     OW20773   6.019   6.767   6.902
 6625SOL    HW120774   6.086   6.720   6.959
 6625SOL    HW220775   5.931   6.720   6.908
 6626SOL     OW20776   2.904   4.805   3.622
 6626SOL    HW120777   2.936   4.851   3.539
 6626SOL    HW220778   2.815   4.763   3.605
 6627SOL     OW20779   2.021   6.674   1.683
 6627SOL    HW120780   1.976   6.699   1.768
 6627SOL    HW220781   1.952   6.655   1.613
 6628SOL     OW20782   4.145   6.199   3.664
 6628SOL    HW120783   4.113   6.104   3.658
 6628SOL    HW220784   4.164   6.234   3.572
 6629SOL     OW20785   3.208   3.760   0.383
 6629SOL    HW120786   3.109   3.752   0.387
 6629SOL    HW220787   3.240   3.743   0.290
 6630SOL     OW20788   3.870   0.796   6.546
 6630SOL    HW120789   3.822   0.862   6.604
 6630SOL    HW220790   3.882   0.835   6.455
 6631SOL     OW20791   3.985   0.144   1.360
 6631SOL    HW120792   4.046   0.138   1.282
 6631SOL    HW220793   3.913   0.211   1.341
 6632SOL     OW20794   6.226   2.733   2.501
 6632SOL    HW120795   6.179   2.729   2.413
 6632SOL    HW220796   6.315   2.776   2.490
 6633SOL     OW20797   0.758   6.109   2.135
 6633SOL    HW120798   0.742   6.031   2.075
 6633SOL    HW220799   0.834   6.163   2.100
 6634SOL     OW20800   6.582   2.402   6.014
 6634SOL    HW120801   6.661   2.395   5.953
 6634SOL    HW220802   6.538   2.312   6.022
 6635SOL     OW20803   4.440   5.033   3.313
 6635SOL    HW120804   4.426   5.127   3.344
 6635SOL    HW220805   4.488   4.981   3.384
 6636SOL     OW20806   1.851   3.669   3.731
 6636SOL    HW120807   1.951   3.663   3.726
 6636SOL    HW220808   1.816   3.589   3.781
 6637SOL     OW20809   6.354   2.681   1.310
 6637SOL    HW120810   6.379   2.626   1.230
 6637SOL    HW220811   6.293   2.629   1.369
 6638SOL     OW20812   1.716   0.756   6.413
 6638SOL    HW120813   1.733   0.853   6.391
 6638SOL    HW220814   1.714   0.745   6.513
 6639SOL     OW20815   4.218   5.667   6.247
 6639SOL    HW120816   4.139   5.607   6.245
 6639SOL    HW220817   4.289   5.632   6.185
 6640SOL     OW20818   5.863   3.024   3.039
 6640SOL    HW120819   5.882   3.102   3.099
 6640SOL    HW220820   5.765   3.017   3.024
 6641SOL     OW20821   2.276   5.259   6.730
 6641SOL    HW120822   2.197   5.208   6.696
 6641SOL    HW220823   2.247   5.318   6.806
 6642SOL     OW20824   6.861   5.809   6.104
 6642SOL    HW120825   6.821   5.727   6.064
 6642SOL    HW220826   6.854   5.804   6.204
 6643SOL     OW20827   3.887   5.172   6.861
 6643SOL    HW120828   3.931   5.113   6.928
 6643SOL    HW220829   3.956   5.206   6.797
 6644SOL     OW20830   0.794   4.016   2.010
 6644SOL    HW120831   0.754   3.947   2.071
 6644SOL    HW220832   0.843   4.084   2.065
 6645SOL     OW20833   6.432   4.517   5.515
 6645SOL    HW120834   6.525   4.514   5.479
 6645SOL    HW220835   6.417   4.437   5.574
 6646SOL     OW20836   1.409   5.946   3.689
 6646SOL    HW120837   1.402   6.037   3.650
 6646SOL    HW220838   1.408   5.878   3.616
 6647SOL     OW20839   4.251   1.894   2.070
 6647SOL    HW120840   4.284   1.889   2.164
 6647SOL    HW220841   4.198   1.812   2.049
 6648SOL     OW20842   4.272   5.433   1.797
 6648SOL    HW120843   4.212   5.370   1.846
 6648SOL    HW220844   4.219   5.510   1.763
 6649SOL     OW20845   4.290   1.201   6.483
 6649SOL    HW120846   4.296   1.294   6.446
 6649SOL    HW220847   4.267   1.207   6.581
 6650SOL     OW20848   3.064   1.266   3.931
 6650SOL    HW120849   3.073   1.364   3.915
 6650SOL    HW220850   3.060   1.218   3.843
 6651SOL     OW20851   0.409   1.892   0.631
 6651SOL    HW120852   0.499   1.908   0.672
 6651SOL    HW220853   0.419   1.884   0.532
 6652SOL     OW20854   0.883   5.223   3.165
 6652SOL    HW120855   0.809   5.248   3.228
 6652SOL    HW220856   0.909   5.128   3.181
 6653SOL     OW20857   3.518   3.648   3.429
 6653SOL    HW120858   3.449   3.669   3.361
 6653SOL    HW220859   3.519   3.720   3.499
 6654SOL     OW20860   1.844   3.839   1.177
 6654SOL    HW120861   1.832   3.895   1.095
 6654SOL    HW220862   1.793   3.880   1.253
 6655SOL     OW20863   1.564   0.646   0.043
 6655SOL    HW120864   1.584   0.652   0.141
 6655SOL    HW220865   1.466   0.654   0.028
 6656SOL     OW20866   0.288   2.686   2.196
 6656SOL    HW120867   0.212   2.745   2.224
 6656SOL    HW220868   0.335   2.651   2.277
 6657SOL     OW20869   3.224   5.089   5.309
 6657SOL    HW120870   3.266   5.004   5.340
 6657SOL    HW220871   3.265   5.166   5.356
 6658SOL     OW20872   6.519   6.953   6.314
 6658SOL    HW120873   6.605   7.004   6.305
 6658SOL    HW220874   6.533   6.859   6.282
 6659SOL     OW20875   1.508   2.908   6.723
 6659SOL    HW120876   1.415   2.897   6.689
 6659SOL    HW220877   1.534   3.005   6.715
 6660SOL     OW20878   1.005   6.355   2.988
 6660SOL    HW120879   0.994   6.333   2.891
 6660SOL    HW220880   0.955   6.439   3.009
 6661SOL     OW20881   6.714   6.820   4.003
 6661SOL    HW120882   6.681   6.774   3.920
 6661SOL    HW220883   6.714   6.919   3.989
 6662SOL     OW20884   1.203   3.598   5.773
 6662SOL    HW120885   1.141   3.606   5.695
 6662SOL    HW220886   1.159   3.638   5.854
 6663SOL     OW20887   0.499   4.923   2.283
 6663SOL    HW120888   0.539   4.933   2.192
 6663SOL    HW220889   0.417   4.980   2.290
 6664SOL     OW20890   0.064   2.182   2.378
 6664SOL    HW120891   7.008   2.134   2.359
 6664SOL    HW220892   0.045   2.265   2.430
 6665SOL     OW20893   2.157   0.199   2.370
 6665SOL    HW120894   2.191   0.156   2.453
 6665SOL    HW220895   2.077   0.256   2.391
 6666SOL     OW20896   5.373   1.288   0.270
 6666SOL    HW120897   5.472   1.292   0.283
 6666SOL    HW220898   5.339   1.377   0.242
 6667SOL     OW20899   5.824   4.545   4.902
 6667SOL    HW120900   5.898   4.478   4.896
 6667SOL    HW220901   5.774   4.546   4.815
 6668SOL     OW20902   6.881   6.581   1.229
 6668SOL    HW120903   6.895   6.561   1.132
 6668SOL    HW220904   6.799   6.638   1.239
 6669SOL     OW20905   0.793   4.922   2.899
 6669SOL    HW120906   0.799   5.011   2.945
 6669SOL    HW220907   0.778   4.850   2.967
 6670SOL     OW20908   4.466   4.481   0.013
 6670SOL    HW120909   4.373   4.446   0.024
 6670SOL    HW220910   4.494   4.528   0.097
 6671SOL     OW20911   0.658   2.799   5.332
 6671SOL    HW120912   0.730   2.862   5.362
 6671SOL    HW220913   0.640   2.732   5.404
 6672SOL     OW20914   0.096   0.489   5.496
 6672SOL    HW120915   0.107   0.390   5.500
 6672SOL    HW220916   0.074   0.525   5.586
 6673SOL     OW20917   4.683   5.788   1.253
 6673SOL    HW120918   4.783   5.800   1.251
 6673SOL    HW220919   4.645   5.838   1.331
 6674SOL     OW20920   0.764   0.033   5.668
 6674SOL    HW120921   0.668   0.034   5.695
 6674SOL    HW220922   0.784   6.980   5.615
 6675SOL     OW20923   6.869   5.985   6.993
 6675SOL    HW120924   6.831   5.914   6.933
 6675SOL    HW220925   6.794   6.041   7.028
 6676SOL     OW20926   0.258   1.924   0.873
 6676SOL    HW120927   0.281   1.848   0.933
 6676SOL    HW220928   0.322   1.926   0.796
 6677SOL     OW20929   0.239   4.762   0.476
 6677SOL    HW120930   0.241   4.663   0.461
 6677SOL    HW220931   0.252   4.809   0.388
 6678SOL     OW20932   1.041   3.101   4.414
 6678SOL    HW120933   1.085   3.184   4.382
 6678SOL    HW220934   1.088   3.021   4.376
 6679SOL     OW20935   1.740   1.221   4.964
 6679SOL    HW120936   1.659   1.274   4.938
 6679SOL    HW220937   1.711   1.139   5.014
 6680SOL     OW20938   3.030   0.701   6.282
 6680SOL    HW120939   3.035   0.792   6.242
 6680SOL    HW220940   2.946   0.656   6.252
 6681SOL     OW20941   5.530   5.654   6.448
 6681SOL    HW120942   5.440   5.648   6.490
 6681SOL    HW220943   5.557   5.750   6.440
 6682SOL     OW20944   6.933   5.364   2.070
 6682SOL    HW120945   6.885   5.309   2.137
 6682SOL    HW220946   6.884   5.362   1.983
 6683SOL     OW20947   4.779   2.049   4.512
 6683SOL    HW120948   4.688   2.082   4.488
 6683SOL    HW220949   4.793   2.060   4.610
 6684SOL     OW20950   1.393   1.502   2.558
 6684SOL    HW120951   1.415   1.541   2.647
 6684SOL    HW220952   1.465   1.528   2.492
 6685SOL     OW20953   5.800   3.056   6.976
 6685SOL    HW120954   5.852   2.987   7.025
 6685SOL    HW220955   5.762   3.016   6.892
 6686SOL     OW20956   5.861   4.107   3.951
 6686SOL    HW120957   5.842   4.047   3.873
 6686SOL    HW220958   5.855   4.203   3.921
 6687SOL     OW20959   0.346   0.606   0.337
 6687SOL    HW120960   0.279   0.558   0.281
 6687SOL    HW220961   0.392   0.676   0.282
 6688SOL     OW20962   0.605   5.016   2.519
 6688SOL    HW120963   0.638   5.054   2.432
 6688SOL    HW220964   0.658   5.055   2.594
 6689SOL     OW20965   4.955   4.327   6.963
 6689SOL    HW120966   5.003   4.380   6.892
 6689SOL    HW220967   4.858   4.322   6.941
 6690SOL     OW20968   0.531   1.568   0.673
 6690SOL    HW120969   0.469   1.497   0.642
 6690SOL    HW220970   0.555   1.627   0.596
 6691SOL     OW20971   1.375   5.101   0.925
 6691SOL    HW120972   1.471   5.089   0.903
 6691SOL    HW220973   1.332   5.161   0.858
 6692SOL     OW20974   4.564   3.958   6.373
 6692SOL    HW120975   4.617   3.937   6.455
 6692SOL    HW220976   4.581   4.053   6.346
 6693SOL     OW20977   4.355   3.851   5.881
 6693SOL    HW120978   4.413   3.811   5.953
 6693SOL    HW220979   4.270   3.799   5.874
 6694SOL     OW20980   2.712   6.119   0.003
 6694SOL    HW120981   2.650   6.098   0.079
 6694SOL    HW220982   2.787   6.177   0.035
 6695SOL     OW20983   1.416   1.651   6.980
 6695SOL    HW120984   1.429   1.664   0.049
 6695SOL    HW220985   1.466   1.722   6.930
 6696SOL     OW20986   1.783   2.882   1.310
 6696SOL    HW120987   1.741   2.864   1.222
 6696SOL    HW220988   1.806   2.796   1.355
 6697SOL     OW20989   5.298   3.139   4.440
 6697SOL    HW120990   5.280   3.083   4.359
 6697SOL    HW220991   5.390   3.120   4.474
 6698SOL     OW20992   2.663   4.122   6.366
 6698SOL    HW120993   2.580   4.133   6.421
 6698SOL    HW220994   2.641   4.079   6.279
 6699SOL     OW20995   1.629   3.438   6.497
 6699SOL    HW120996   1.543   3.464   6.540
 6699SOL    HW220997   1.700   3.504   6.522
 6700SOL     OW20998   0.521   6.385   6.366
 6700SOL    HW120999   0.427   6.376   6.399
 6700SOL    HW221000   0.532   6.332   6.282
 6701SOL     OW21001   0.807   2.411   0.707
 6701SOL    HW121002   0.895   2.416   0.661
 6701SOL    HW221003   0.760   2.499   0.701
 6702SOL     OW21004   2.126   3.263   0.342
 6702SOL    HW121005   2.057   3.246   0.413
 6702SOL    HW221006   2.081   3.270   0.253
 6703SOL     OW21007   0.218   2.570   6.652
 6703SOL    HW121008   0.227   2.471   6.667
 6703SOL    HW221009   0.250   2.619   6.733
 6704SOL     OW21010   4.953   3.332   3.095
 6704SOL    HW121011   4.979   3.238   3.114
 6704SOL    HW221012   4.894   3.366   3.169
 6705SOL     OW21013   5.965   1.219   1.084
 6705SOL    HW121014   6.023   1.292   1.121
 6705SOL    HW221015   6.022   1.142   1.057
 6706SOL     OW21016   1.058   6.088   6.942
 6706SOL    HW121017   0.977   6.071   6.886
 6706SOL    HW221018   1.044   6.047   0.004
 6707SOL     OW21019   1.185   5.024   2.948
 6707SOL    HW121020   1.139   4.953   3.000
 6707SOL    HW221021   1.124   5.059   2.876
 6708SOL     OW21022   1.856   6.306   1.225
 6708SOL    HW121023   1.797   6.268   1.154
 6708SOL    HW221024   1.858   6.243   1.303
 6709SOL     OW21025   5.549   1.621   3.697
 6709SOL    HW121026   5.504   1.688   3.638
 6709SOL    HW221027   5.621   1.575   3.646
 6710SOL     OW21028   1.750   1.787   0.658
 6710SOL    HW121029   1.823   1.726   0.686
 6710SOL    HW221030   1.666   1.763   0.707
 6711SOL     OW21031   5.278   3.477   6.390
 6711SOL    HW121032   5.331   3.430   6.320
 6711SOL    HW221033   5.296   3.436   6.480
 6712SOL     OW21034   3.608   6.548   0.968
 6712SOL    HW121035   3.516   6.547   1.007
 6712SOL    HW221036   3.654   6.461   0.990
 6713SOL     OW21037   1.640   2.115   3.480
 6713SOL    HW121038   1.617   2.018   3.478
 6713SOL    HW221039   1.561   2.169   3.450
 6714SOL     OW21040   6.736   0.015   5.112
 6714SOL    HW121041   6.743   0.096   5.170
 6714SOL    HW221042   6.728   0.044   5.016
 6715SOL     OW21043   5.932   2.503   1.014
 6715SOL    HW121044   6.029   2.512   0.990
 6715SOL    HW221045   5.890   2.434   0.955
 6716SOL     OW21046   3.726   6.312   0.988
 6716SOL    HW121047   3.824   6.324   0.972
 6716SOL    HW221048   3.687   6.256   0.914
 6717SOL     OW21049   4.218   1.222   6.838
 6717SOL    HW121050   4.189   1.317   6.833
 6717SOL    HW221051   4.147   1.163   6.799
 6718SOL     OW21052   3.703   0.609   6.849
 6718SOL    HW121053   3.636   0.638   6.781
 6718SOL    HW221054   3.777   0.558   6.804
 6719SOL     OW21055   0.526   2.144   5.425
 6719SOL    HW121056   0.497   2.222   5.481
 6719SOL    HW221057   0.481   2.061   5.457
 6720SOL     OW21058   1.659   4.823   1.268
 6720SOL    HW121059   1.634   4.920   1.263
 6720SOL    HW221060   1.650   4.792   1.363
 6721SOL     OW21061   6.803   6.175   2.791
 6721SOL    HW121062   6.858   6.259   2.799
 6721SOL    HW221063   6.707   6.197   2.805
 6722SOL     OW21064   4.622   4.638   6.848
 6722SOL    HW121065   4.694   4.707   6.861
 6722SOL    HW221066   4.585   4.612   6.936
 6723SOL     OW21067   4.107   1.200   2.692
 6723SOL    HW121068   4.055   1.180   2.775
 6723SOL    HW221069   4.114   1.118   2.636
 6724SOL     OW21070   3.538   4.510   5.375
 6724SOL    HW121071   3.516   4.412   5.369
 6724SOL    HW221072   3.626   4.521   5.421
 6725SOL     OW21073   0.345   5.309   1.237
 6725SOL    HW121074   0.270   5.366   1.205
 6725SOL    HW221075   0.309   5.220   1.268
 6726SOL     OW21076   2.473   2.825   1.811
 6726SOL    HW121077   2.484   2.730   1.782
 6726SOL    HW221078   2.497   2.885   1.735
 6727SOL     OW21079   3.222   4.151   0.931
 6727SOL    HW121080   3.130   4.188   0.942
 6727SOL    HW221081   3.216   4.056   0.899
 6728SOL     OW21082   4.398   1.303   4.302
 6728SOL    HW121083   4.395   1.338   4.396
 6728SOL    HW221084   4.319   1.245   4.285
 6729SOL     OW21085   5.213   6.150   3.245
 6729SOL    HW121086   5.167   6.092   3.178
 6729SOL    HW221087   5.188   6.121   3.337
 6730SOL     OW21088   1.397   6.826   2.398
 6730SOL    HW121089   1.300   6.848   2.385
 6730SOL    HW221090   1.420   6.743   2.348
 6731SOL     OW21091   1.999   3.986   1.715
 6731SOL    HW121092   1.988   4.068   1.771
 6731SOL    HW221093   2.087   3.990   1.667
 6732SOL     OW21094   2.958   5.618   0.583
 6732SOL    HW121095   2.929   5.534   0.630
 6732SOL    HW221096   3.044   5.650   0.623
 6733SOL     OW21097   6.275   5.699   4.465
 6733SOL    HW121098   6.195   5.729   4.413
 6733SOL    HW221099   6.299   5.605   4.440
 6734SOL     OW21100   2.469   3.491   6.323
 6734SOL    HW121101   2.442   3.438   6.404
 6734SOL    HW221102   2.425   3.582   6.327
 6735SOL     OW21103   0.802   6.489   6.405
 6735SOL    HW121104   0.719   6.438   6.384
 6735SOL    HW221105   0.787   6.586   6.386
 6736SOL     OW21106   2.565   4.581   2.004
 6736SOL    HW121107   2.502   4.646   2.046
 6736SOL    HW221108   2.659   4.603   2.030
 6737SOL     OW21109   1.467   6.800   0.851
 6737SOL    HW121110   1.423   6.829   0.936
 6737SOL    HW221111   1.548   6.746   0.872
 6738SOL     OW21112   4.868   1.561   1.492
 6738SOL    HW121113   4.791   1.511   1.533
 6738SOL    HW221114   4.919   1.609   1.564
 6739SOL     OW21115   4.208   6.555   5.502
 6739SOL    HW121116   4.123   6.504   5.489
 6739SOL    HW221117   4.187   6.647   5.533
 6740SOL     OW21118   5.690   2.571   5.684
 6740SOL    HW121119   5.731   2.574   5.593
 6740SOL    HW221120   5.594   2.598   5.678
 6741SOL     OW21121   0.030   0.385   5.824
 6741SOL    HW121122   0.126   0.410   5.828
 6741SOL    HW221123   0.021   0.290   5.795
 6742SOL     OW21124   6.191   5.771   4.947
 6742SOL    HW121125   6.155   5.788   4.855
 6742SOL    HW221126   6.278   5.722   4.941
 6743SOL     OW21127   5.872   2.370   1.677
 6743SOL    HW121128   5.931   2.400   1.752
 6743SOL    HW221129   5.777   2.390   1.700
 6744SOL     OW21130   4.621   0.196   3.983
 6744SOL    HW121131   4.712   0.190   4.024
 6744SOL    HW221132   4.608   0.118   3.922
 6745SOL     OW21133   0.312   3.670   2.983
 6745SOL    HW121134   0.289   3.596   3.046
 6745SOL    HW221135   0.361   3.742   3.033
 6746SOL     OW21136   6.237   1.049   0.688
 6746SOL    HW121137   6.186   1.120   0.737
 6746SOL    HW221138   6.211   1.050   0.592
 6747SOL     OW21139   4.803   5.442   7.025
 6747SOL    HW121140   4.717   5.391   7.023
 6747SOL    HW221141   4.803   5.510   6.952
 6748SOL     OW21142   0.042   6.562   2.359
 6748SOL    HW121143   7.028   6.488   2.307
 6748SOL    HW221144   7.014   6.644   2.353
 6749SOL     OW21145   2.764   5.313   0.973
 6749SOL    HW121146   2.856   5.275   0.965
 6749SOL    HW221147   2.705   5.248   1.020
 6750SOL     OW21148   2.449   2.984   5.458
 6750SOL    HW121149   2.486   2.898   5.494
 6750SOL    HW221150   2.471   2.992   5.361
 6751SOL     OW21151   4.262   2.404   5.920
 6751SOL    HW121152   4.272   2.363   5.829
 6751SOL    HW221153   4.248   2.332   5.988
 6752SOL     OW21154   6.925   1.717   6.927
 6752SOL    HW121155   6.873   1.670   6.999
 6752SOL    HW221156   6.904   1.814   6.929
 6753SOL     OW21157   6.486   1.223   6.714
 6753SOL    HW121158   6.502   1.311   6.757
 6753SOL    HW221159   6.477   1.235   6.615
 6754SOL     OW21160   4.558   0.425   6.751
 6754SOL    HW121161   4.576   0.518   6.718
 6754SOL    HW221162   4.645   0.378   6.766
 6755SOL     OW21163   5.277   1.587   3.446
 6755SOL    HW121164   5.376   1.575   3.439
 6755SOL    HW221165   5.246   1.655   3.380
 6756SOL     OW21166   4.574   4.611   3.498
 6756SOL    HW121167   4.482   4.578   3.474
 6756SOL    HW221168   4.612   4.552   3.570
 6757SOL     OW21169   6.027   4.484   1.386
 6757SOL    HW121170   6.021   4.496   1.287
 6757SOL    HW221171   6.096   4.546   1.423
 6758SOL     OW21172   6.579   2.024   2.851
 6758SOL    HW121173   6.546   2.075   2.771
 6758SOL    HW221174   6.547   1.930   2.846
 6759SOL     OW21175   0.984   5.221   3.500
 6759SOL    HW121176   0.989   5.287   3.425
 6759SOL    HW221177   1.061   5.158   3.493
 6760SOL     OW21178   0.029   3.626   5.004
 6760SOL    HW121179   6.985   3.693   5.011
 6760SOL    HW221180   0.113   3.664   5.043
 6761SOL     OW21181   6.216   2.966   5.939
 6761SOL    HW121182   6.218   2.868   5.915
 6761SOL    HW221183   6.220   2.976   6.038
 6762SOL     OW21184   0.407   3.723   3.912
 6762SOL    HW121185   0.465   3.764   3.982
 6762SOL    HW221186   0.451   3.641   3.875
 6763SOL     OW21187   6.566   6.709   5.344
 6763SOL    HW121188   6.476   6.697   5.387
 6763SOL    HW221189   6.565   6.667   5.254
 6764SOL     OW21190   1.643   3.643   0.021
 6764SOL    HW121191   1.620   3.675   0.113
 6764SOL    HW221192   1.695   3.713   7.002
 6765SOL     OW21193   5.098   5.166   2.421
 6765SOL    HW121194   5.141   5.155   2.331
 6765SOL    HW221195   5.015   5.220   2.412
 6766SOL     OW21196   2.754   2.604   6.035
 6766SOL    HW121197   2.814   2.658   5.976
 6766SOL    HW221198   2.766   2.507   6.016
 6767SOL     OW21199   0.606   2.616   5.742
 6767SOL    HW121200   0.616   2.713   5.765
 6767SOL    HW221201   0.519   2.582   5.778
 6768SOL     OW21202   0.155   0.603   6.048
 6768SOL    HW121203   0.164   0.692   6.003
 6768SOL    HW221204   0.188   0.531   5.986
 6769SOL     OW21205   1.054   2.304   6.092
 6769SOL    HW121206   1.100   2.229   6.139
 6769SOL    HW221207   0.964   2.274   6.061
 6770SOL     OW21208   0.005   1.634   3.429
 6770SOL    HW121209   7.025   1.676   3.339
 6770SOL    HW221210   0.077   1.679   3.480
 6771SOL     OW21211   6.146   2.221   2.511
 6771SOL    HW121212   6.116   2.273   2.431
 6771SOL    HW221213   6.076   2.228   2.583
 6772SOL     OW21214   1.008   0.557   1.911
 6772SOL    HW121215   1.102   0.533   1.936
 6772SOL    HW221216   0.958   0.586   1.992
 6773SOL     OW21217   1.661   1.149   2.843
 6773SOL    HW121218   1.601   1.184   2.915
 6773SOL    HW221219   1.755   1.144   2.878
 6774SOL     OW21220   4.051   1.298   5.203
 6774SOL    HW121221   4.107   1.367   5.157
 6774SOL    HW221222   3.965   1.338   5.233
 6775SOL     OW21223   1.587   2.204   4.833
 6775SOL    HW121224   1.521   2.277   4.849
 6775SOL    HW221225   1.663   2.213   4.897
 6776SOL     OW21226   3.500   3.814   3.661
 6776SOL    HW121227   3.488   3.913   3.671
 6776SOL    HW221228   3.420   3.767   3.696
 6777SOL     OW21229   7.017   0.193   6.117
 6777SOL    HW121230   0.011   0.150   6.030
 6777SOL    HW221231   6.956   0.271   6.100
 6778SOL     OW21232   6.768   5.831   1.971
 6778SOL    HW121233   6.814   5.767   2.032
 6778SOL    HW221234   6.749   5.787   1.884
 6779SOL     OW21235   4.966   4.348   6.468
 6779SOL    HW121236   4.913   4.295   6.401
 6779SOL    HW221237   5.061   4.355   6.436
 6780SOL     OW21238   4.763   1.033   2.419
 6780SOL    HW121239   4.788   1.026   2.516
 6780SOL    HW221240   4.666   1.013   2.409
 6781SOL     OW21241   5.701   3.908   3.135
 6781SOL    HW121242   5.749   3.885   3.051
 6781SOL    HW221243   5.763   3.896   3.213
 6782SOL     OW21244   0.219   1.716   2.716
 6782SOL    HW121245   0.195   1.753   2.806
 6782SOL    HW221246   0.245   1.791   2.655
 6783SOL     OW21247   0.606   6.326   6.636
 6783SOL    HW121248   0.516   6.342   6.676
 6783SOL    HW221249   0.598   6.316   6.537
 6784SOL     OW21250   1.173   4.751   6.723
 6784SOL    HW121251   1.212   4.735   6.632
 6784SOL    HW221252   1.247   4.775   6.786
 6785SOL     OW21253   5.500   4.524   1.839
 6785SOL    HW121254   5.567   4.585   1.881
 6785SOL    HW221255   5.412   4.571   1.833
 6786SOL     OW21256   6.316   1.835   5.443
 6786SOL    HW121257   6.325   1.778   5.525
 6786SOL    HW221258   6.405   1.841   5.398
 6787SOL     OW21259   4.008   2.279   1.272
 6787SOL    HW121260   4.040   2.358   1.324
 6787SOL    HW221261   4.027   2.195   1.323
 6788SOL     OW21262   1.545   4.289   0.820
 6788SOL    HW121263   1.476   4.268   0.752
 6788SOL    HW221264   1.549   4.216   0.888
 6789SOL     OW21265   6.483   2.996   1.913
 6789SOL    HW121266   6.486   3.019   2.010
 6789SOL    HW221267   6.566   2.946   1.888
 6790SOL     OW21268   0.258   5.422   0.494
 6790SOL    HW121269   0.161   5.409   0.515
 6790SOL    HW221270   0.306   5.451   0.577
 6791SOL     OW21271   1.940   6.454   3.404
 6791SOL    HW121272   1.871   6.423   3.469
 6791SOL    HW221273   2.020   6.395   3.409
 6792SOL     OW21274   3.662   5.964   6.679
 6792SOL    HW121275   3.624   5.903   6.609
 6792SOL    HW221276   3.731   5.915   6.732
 6793SOL     OW21277   1.864   3.799   6.910
 6793SOL    HW121278   1.854   3.875   6.974
 6793SOL    HW221279   1.946   3.813   6.854
 6794SOL     OW21280   4.637   2.194   4.250
 6794SOL    HW121281   4.566   2.183   4.181
 6794SOL    HW221282   4.601   2.169   4.340
 6795SOL     OW21283   0.753   0.596   2.406
 6795SOL    HW121284   0.749   0.690   2.371
 6795SOL    HW221285   0.846   0.577   2.436
 6796SOL     OW21286   6.986   2.924   2.061
 6796SOL    HW121287   7.013   2.845   2.116
 6796SOL    HW221288   0.034   2.953   2.004
 6797SOL     OW21289   1.958   3.535   0.371
 6797SOL    HW121290   2.005   3.456   0.410
 6797SOL    HW221291   1.910   3.584   0.445
 6798SOL     OW21292   4.895   1.654   1.778
 6798SOL    HW121293   4.923   1.714   1.853
 6798SOL    HW221294   4.868   1.565   1.814
 6799SOL     OW21295   5.113   6.990   2.610
 6799SOL    HW121296   5.158   0.021   2.544
 6799SOL    HW221297   5.145   6.896   2.595
 6800SOL     OW21298   6.550   2.688   2.028
 6800SOL    HW121299   6.626   2.741   1.991
 6800SOL    HW221300   6.467   2.744   2.026
 6801SOL     OW21301   2.343   5.275   5.237
 6801SOL    HW121302   2.302   5.188   5.211
 6801SOL    HW221303   2.272   5.336   5.271
 6802SOL     OW21304   2.823   4.465   1.623
 6802SOL    HW121305   2.782   4.375   1.632
 6802SOL    HW221306   2.863   4.492   1.711
 6803SOL     OW21307   6.480   5.082   6.323
 6803SOL    HW121308   6.508   5.092   6.418
 6803SOL    HW221309   6.431   5.164   6.293
 6804SOL     OW21310   3.361   4.842   1.984
 6804SOL    HW121311   3.451   4.811   1.952
 6804SOL    HW221312   3.371   4.889   2.071
 6805SOL     OW21313   0.692   3.815   4.012
 6805SOL    HW121314   0.707   3.908   3.980
 6805SOL    HW221315   0.705   3.811   4.111
 6806SOL     OW21316   6.182   3.668   1.869
 6806SOL    HW121317   6.201   3.586   1.814
 6806SOL    HW221318   6.083   3.675   1.884
 6807SOL     OW21319   3.942   2.989   2.370
 6807SOL    HW121320   4.031   3.007   2.329
 6807SOL    HW221321   3.872   2.989   2.298
 6808SOL     OW21322   3.150   6.308   3.903
 6808SOL    HW121323   3.073   6.349   3.952
 6808SOL    HW221324   3.172   6.219   3.942
 6809SOL     OW21325   6.003   3.061   0.750
 6809SOL    HW121326   5.968   3.002   0.822
 6809SOL    HW221327   6.086   3.022   0.710
 6810SOL     OW21328   3.124   0.040   4.630
 6810SOL    HW121329   3.087   0.026   4.538
 6810SOL    HW221330   3.223   0.034   4.628
 6811SOL     OW21331   6.559   1.534   1.456
 6811SOL    HW121332   6.611   1.456   1.490
 6811SOL    HW221333   6.622   1.607   1.430
 6812SOL     OW21334   3.223   4.441   5.423
 6812SOL    HW121335   3.313   4.462   5.384
 6812SOL    HW221336   3.162   4.409   5.350
 6813SOL     OW21337   0.005   4.052   2.341
 6813SOL    HW121338   6.941   4.069   2.309
 6813SOL    HW221339   0.035   3.961   2.310
 6814SOL     OW21340   4.274   2.373   1.589
 6814SOL    HW121341   4.182   2.410   1.603
 6814SOL    HW221342   4.334   2.404   1.662
 6815SOL     OW21343   1.251   5.869   0.572
 6815SOL    HW121344   1.256   5.966   0.548
 6815SOL    HW221345   1.317   5.850   0.645
 6816SOL     OW21346   5.837   6.689   3.685
 6816SOL    HW121347   5.747   6.664   3.720
 6816SOL    HW221348   5.881   6.755   3.746
 6817SOL     OW21349   5.920   0.755   1.680
 6817SOL    HW121350   5.924   0.665   1.637
 6817SOL    HW221351   5.913   0.826   1.610
 6818SOL     OW21352   6.847   0.190   5.539
 6818SOL    HW121353   6.832   0.164   5.444
 6818SOL    HW221354   6.765   0.234   5.576
 6819SOL     OW21355   5.747   3.913   0.354
 6819SOL    HW121356   5.711   3.849   0.422
 6819SOL    HW221357   5.746   3.870   0.264
 6820SOL     OW21358   2.195   4.557   1.295
 6820SOL    HW121359   2.149   4.572   1.382
 6820SOL    HW221360   2.128   4.530   1.226
 6821SOL     OW21361   2.944   3.268   6.109
 6821SOL    HW121362   2.974   3.234   6.020
 6821SOL    HW221363   2.846   3.286   6.106
 6822SOL     OW21364   6.756   4.375   5.037
 6822SOL    HW121365   6.657   4.371   5.024
 6822SOL    HW221366   6.781   4.323   5.119
 6823SOL     OW21367   6.562   3.094   5.473
 6823SOL    HW121368   6.558   3.142   5.385
 6823SOL    HW221369   6.655   3.098   5.509
 6824SOL     OW21370   0.689   0.370   3.752
 6824SOL    HW121371   0.619   0.439   3.770
 6824SOL    HW221372   0.649   0.294   3.701
 6825SOL     OW21373   5.018   4.790   1.743
 6825SOL    HW121374   4.947   4.735   1.699
 6825SOL    HW221375   5.002   4.887   1.724
 6826SOL     OW21376   5.649   1.086   3.852
 6826SOL    HW121377   5.704   1.064   3.771
 6826SOL    HW221378   5.628   1.002   3.902
 6827SOL     OW21379   5.097   4.955   5.273
 6827SOL    HW121380   5.106   5.048   5.310
 6827SOL    HW221381   5.148   4.948   5.188
 6828SOL     OW21382   2.436   2.444   2.599
 6828SOL    HW121383   2.519   2.405   2.639
 6828SOL    HW221384   2.360   2.382   2.614
 6829SOL     OW21385   5.608   6.883   4.164
 6829SOL    HW121386   5.544   6.948   4.206
 6829SOL    HW221387   5.642   6.922   4.078
 6830SOL     OW21388   3.693   6.390   2.241
 6830SOL    HW121389   3.682   6.307   2.295
 6830SOL    HW221390   3.651   6.378   2.151
 6831SOL     OW21391   2.399   0.688   0.085
 6831SOL    HW121392   2.492   0.695   0.120
 6831SOL    HW221393   2.394   0.612   0.020
 6832SOL     OW21394   3.148   3.468   0.586
 6832SOL    HW121395   3.228   3.528   0.580
 6832SOL    HW221396   3.176   3.374   0.571
 6833SOL     OW21397   4.721   4.850   0.285
 6833SOL    HW121398   4.743   4.839   0.382
 6833SOL    HW221399   4.705   4.947   0.265
 6834SOL     OW21400   6.343   5.507   5.455
 6834SOL    HW121401   6.411   5.435   5.446
 6834SOL    HW221402   6.259   5.481   5.408
 6835SOL     OW21403   4.013   0.431   2.659
 6835SOL    HW121404   3.939   0.397   2.718
 6835SOL    HW221405   4.080   0.481   2.715
 6836SOL     OW21406   0.671   4.550   6.931
 6836SOL    HW121407   0.670   4.453   6.958
 6836SOL    HW221408   0.688   4.557   6.833
 6837SOL     OW21409   6.647   2.568   1.499
 6837SOL    HW121410   6.729   2.583   1.553
 6837SOL    HW221411   6.629   2.649   1.443
 6838SOL     OW21412   2.005   4.321   6.991
 6838SOL    HW121413   2.006   4.351   6.895
 6838SOL    HW221414   2.083   4.361   0.010
 6839SOL     OW21415   5.915   2.092   5.559
 6839SOL    HW121416   5.869   2.007   5.534
 6839SOL    HW221417   5.888   2.119   5.651
 6840SOL     OW21418   3.408   0.079   4.616
 6840SOL    HW121419   3.465   7.026   4.614
 6840SOL    HW221420   3.444   0.147   4.552
 6841SOL     OW21421   4.720   5.914   0.624
 6841SOL    HW121422   4.782   5.970   0.679
 6841SOL    HW221423   4.704   5.827   0.671
 6842SOL     OW21424   0.980   3.394   3.431
 6842SOL    HW121425   0.922   3.416   3.352
 6842SOL    HW221426   0.943   3.438   3.513
 6843SOL     OW21427   4.783   3.078   1.691
 6843SOL    HW121428   4.712   3.063   1.759
 6843SOL    HW221429   4.859   3.129   1.732
 6844SOL     OW21430   3.573   6.888   4.569
 6844SOL    HW121431   3.488   6.857   4.526
 6844SOL    HW221432   3.637   6.812   4.575
 6845SOL     OW21433   3.489   3.987   7.015
 6845SOL    HW121434   3.397   3.977   6.975
 6845SOL    HW221435   3.502   3.920   0.058
 6846SOL     OW21436   3.614   2.903   4.077
 6846SOL    HW121437   3.713   2.891   4.077
 6846SOL    HW221438   3.587   2.966   4.150
 6847SOL     OW21439   5.222   3.694   2.224
 6847SOL    HW121440   5.243   3.663   2.132
 6847SOL    HW221441   5.141   3.752   2.222
 6848SOL     OW21442   0.830   5.888   4.872
 6848SOL    HW121443   0.884   5.804   4.878
 6848SOL    HW221444   0.747   5.871   4.820
 6849SOL     OW21445   3.202   0.019   4.919
 6849SOL    HW121446   3.301   0.035   4.923
 6849SOL    HW221447   3.168   0.049   4.830
 6850SOL     OW21448   6.583   3.533   1.974
 6850SOL    HW121449   6.494   3.563   2.009
 6850SOL    HW221450   6.625   3.607   1.923
 6851SOL     OW21451   1.781   5.646   0.294
 6851SOL    HW121452   1.803   5.594   0.376
 6851SOL    HW221453   1.745   5.736   0.319
 6852SOL     OW21454   5.743   4.903   1.795
 6852SOL    HW121455   5.748   4.816   1.844
 6852SOL    HW221456   5.672   4.898   1.724
 6853SOL     OW21457   6.241   4.132   4.547
 6853SOL    HW121458   6.264   4.224   4.515
 6853SOL    HW221459   6.295   4.064   4.496
 6854SOL     OW21460   5.949   1.250   6.562
 6854SOL    HW121461   5.876   1.207   6.510
 6854SOL    HW221462   5.933   1.348   6.567
 6855SOL     OW21463   3.370   6.902   1.914
 6855SOL    HW121464   3.293   6.930   1.972
 6855SOL    HW221465   3.409   6.983   1.871
 6856SOL     OW21466   0.137   5.373   5.476
 6856SOL    HW121467   0.054   5.332   5.438
 6856SOL    HW221468   0.181   5.430   5.406
 6857SOL     OW21469   4.913   0.359   6.969
 6857SOL    HW121470   5.011   0.356   6.989
 6857SOL    HW221471   4.862   0.316   0.014
 6858SOL     OW21472   3.518   2.793   6.608
 6858SOL    HW121473   3.505   2.826   6.701
 6858SOL    HW221474   3.544   2.696   6.609
 6859SOL     OW21475   4.541   0.702   0.648
 6859SOL    HW121476   4.612   0.772   0.654
 6859SOL    HW221477   4.554   0.635   0.720
 6860SOL     OW21478   4.973   3.397   0.010
 6860SOL    HW121479   5.038   3.395   6.962
 6860SOL    HW221480   5.021   3.374   0.094
 6861SOL     OW21481   6.118   3.753   0.053
 6861SOL    HW121482   6.079   3.738   0.144
 6861SOL    HW221483   6.070   3.697   7.015
 6862SOL     OW21484   2.567   4.626   4.793
 6862SOL    HW121485   2.481   4.615   4.843
 6862SOL    HW221486   2.584   4.545   4.737
 6863SOL     OW21487   0.875   3.469   3.686
 6863SOL    HW121488   0.800   3.407   3.712
 6863SOL    HW221489   0.857   3.560   3.723
 6864SOL     OW21490   3.347   5.447   6.077
 6864SOL    HW121491   3.275   5.403   6.131
 6864SOL    HW221492   3.374   5.387   6.002
 6865SOL     OW21493   1.348   2.606   5.168
 6865SOL    HW121494   1.277   2.612   5.097
 6865SOL    HW221495   1.392   2.695   5.178
 6866SOL     OW21496   0.769   4.040   2.405
 6866SOL    HW121497   0.866   4.060   2.390
 6866SOL    HW221498   0.720   4.127   2.418
 6867SOL     OW21499   2.202   5.406   3.240
 6867SOL    HW121500   2.105   5.387   3.226
 6867SOL    HW221501   2.229   5.379   3.332
 6868SOL     OW21502   1.996   5.864   4.763
 6868SOL    HW121503   2.008   5.813   4.848
 6868SOL    HW221504   1.911   5.917   4.768
 6869SOL     OW21505   0.489   2.855   4.900
 6869SOL    HW121506   0.405   2.903   4.875
 6869SOL    HW221507   0.566   2.918   4.895
 6870SOL     OW21508   5.450   3.862   3.071
 6870SOL    HW121509   5.393   3.832   3.147
 6870SOL    HW221510   5.542   3.884   3.104
 6871SOL     OW21511   4.447   5.721   1.606
 6871SOL    HW121512   4.509   5.664   1.553
 6871SOL    HW221513   4.436   5.683   1.698
 6872SOL     OW21514   3.437   4.335   0.807
 6872SOL    HW121515   3.394   4.421   0.780
 6872SOL    HW221516   3.374   4.283   0.865
 6873SOL     OW21517   5.548   4.748   5.162
 6873SOL    HW121518   5.630   4.692   5.168
 6873SOL    HW221519   5.470   4.691   5.137
 6874SOL     OW21520   0.986   2.034   6.415
 6874SOL    HW121521   0.941   2.093   6.482
 6874SOL    HW221522   0.947   1.943   6.420
 6875SOL     OW21523   4.056   0.372   5.144
 6875SOL    HW121524   4.018   0.301   5.085
 6875SOL    HW221525   3.983   0.431   5.177
 6876SOL     OW21526   3.012   6.294   4.572
 6876SOL    HW121527   3.060   6.209   4.547
 6876SOL    HW221528   3.055   6.332   4.654
 6877SOL     OW21529   2.275   3.687   6.713
 6877SOL    HW121530   2.256   3.589   6.721
 6877SOL    HW221531   2.358   3.709   6.764
 6878SOL     OW21532   1.495   1.352   4.952
 6878SOL    HW121533   1.420   1.362   4.887
 6878SOL    HW221534   1.461   1.365   5.045
 6879SOL     OW21535   6.575   1.044   5.582
 6879SOL    HW121536   6.518   1.021   5.660
 6879SOL    HW221537   6.583   1.144   5.575
 6880SOL     OW21538   1.334   4.209   4.708
 6880SOL    HW121539   1.336   4.251   4.799
 6880SOL    HW221540   1.413   4.149   4.697
 6881SOL     OW21541   5.255   5.493   1.333
 6881SOL    HW121542   5.292   5.530   1.248
 6881SOL    HW221543   5.162   5.528   1.348
 6882SOL     OW21544   2.435   5.841   5.808
 6882SOL    HW121545   2.368   5.862   5.879
 6882SOL    HW221546   2.467   5.747   5.820
 6883SOL     OW21547   3.246   6.003   2.042
 6883SOL    HW121548   3.189   6.059   1.983
 6883SOL    HW221549   3.190   5.962   2.114
 6884SOL     OW21550   2.147   4.445   2.727
 6884SOL    HW121551   2.196   4.366   2.763
 6884SOL    HW221552   2.204   4.493   2.661
 6885SOL     OW21553   4.247   4.719   4.793
 6885SOL    HW121554   4.245   4.810   4.833
 6885SOL    HW221555   4.220   4.652   4.862
 6886SOL     OW21556   5.603   0.602   1.600
 6886SOL    HW121557   5.547   0.618   1.519
 6886SOL    HW221558   5.699   0.594   1.574
 6887SOL     OW21559   6.290   1.053   4.609
 6887SOL    HW121560   6.255   1.039   4.702
 6887SOL    HW221561   6.233   1.005   4.543
 6888SOL     OW21562   6.395   0.058   3.811
 6888SOL    HW121563   6.359   0.109   3.889
 6888SOL    HW221564   6.391   0.115   3.729
 6889SOL     OW21565   2.234   3.869   6.408
 6889SOL    HW121566   2.187   3.797   6.458
 6889SOL    HW221567   2.277   3.831   6.326
 6890SOL     OW21568   1.070   0.440   1.525
 6890SOL    HW121569   1.153   0.385   1.514
 6890SOL    HW221570   1.044   0.479   1.437
 6891SOL     OW21571   4.215   5.366   5.995
 6891SOL    HW121572   4.248   5.319   5.913
 6891SOL    HW221573   4.265   5.451   6.008
 6892SOL     OW21574   3.441   1.750   4.255
 6892SOL    HW121575   3.343   1.768   4.249
 6892SOL    HW221576   3.491   1.836   4.257
 6893SOL     OW21577   5.294   6.954   1.348
 6893SOL    HW121578   5.294   0.025   1.351
 6893SOL    HW221579   5.210   6.922   1.305
 6894SOL     OW21580   5.851   4.775   5.752
 6894SOL    HW121581   5.824   4.856   5.701
 6894SOL    HW221582   5.814   4.780   5.845
 6895SOL     OW21583   4.303   5.266   5.746
 6895SOL    HW121584   4.274   5.326   5.672
 6895SOL    HW221585   4.395   5.292   5.776
 6896SOL     OW21586   5.200   1.984   2.256
 6896SOL    HW121587   5.286   2.001   2.304
 6896SOL    HW221588   5.219   1.938   2.169
 6897SOL     OW21589   3.851   0.795   1.335
 6897SOL    HW121590   3.770   0.753   1.375
 6897SOL    HW221591   3.862   0.764   1.241
 6898SOL     OW21592   3.521   1.393   2.119
 6898SOL    HW121593   3.585   1.334   2.069
 6898SOL    HW221594   3.478   1.457   2.056
 6899SOL     OW21595   5.690   5.144   5.884
 6899SOL    HW121596   5.788   5.145   5.865
 6899SOL    HW221597   5.641   5.104   5.807
 6900SOL     OW21598   4.299   6.914   6.393
 6900SOL    HW121599   4.232   6.983   6.369
 6900SOL    HW221600   4.345   6.940   6.478
 6901SOL     OW21601   2.186   0.733   0.243
 6901SOL    HW121602   2.254   0.749   0.172
 6901SOL    HW221603   2.131   0.653   0.219
 6902SOL     OW21604   6.703   5.818   2.534
 6902SOL    HW121605   6.770   5.836   2.606
 6902SOL    HW221606   6.707   5.891   2.466
 6903SOL     OW21607   5.377   4.500   0.122
 6903SOL    HW121608   5.340   4.448   0.045
 6903SOL    HW221609   5.453   4.450   0.163
 6904SOL     OW21610   0.376   0.587   2.897
 6904SOL    HW121611   0.364   0.568   2.800
 6904SOL    HW221612   0.289   0.571   2.945
 6905SOL     OW21613   3.391   5.350   0.779
 6905SOL    HW121614   3.452   5.287   0.730
 6905SOL    HW221615   3.367   5.311   0.868
 6906SOL     OW21616   6.018   6.025   2.912
 6906SOL    HW121617   6.110   5.985   2.907
 6906SOL    HW221618   6.026   6.123   2.934
 6907SOL     OW21619   3.449   0.464   1.537
 6907SOL    HW121620   3.462   0.479   1.439
 6907SOL    HW221621   3.363   0.505   1.566
 6908SOL     OW21622   5.401   6.672   6.684
 6908SOL    HW121623   5.475   6.732   6.653
 6908SOL    HW221624   5.318   6.726   6.697
 6909SOL     OW21625   2.292   1.856   0.373
 6909SOL    HW121626   2.204   1.812   0.358
 6909SOL    HW221627   2.294   1.898   0.463
 6910SOL     OW21628   5.293   1.178   1.305
 6910SOL    HW121629   5.271   1.141   1.215
 6910SOL    HW221630   5.293   1.105   1.373
 6911SOL     OW21631   4.107   0.043   4.829
 6911SOL    HW121632   4.025   0.005   4.785
 6911SOL    HW221633   4.097   0.142   4.837
 6912SOL     OW21634   4.055   5.029   1.742
 6912SOL    HW121635   3.992   4.994   1.811
 6912SOL    HW221636   4.080   4.956   1.679
 6913SOL     OW21637   5.126   5.890   5.431
 6913SOL    HW121638   5.029   5.915   5.421
 6913SOL    HW221639   5.133   5.791   5.440
 6914SOL     OW21640   6.752   4.853   0.143
 6914SOL    HW121641   6.716   4.928   0.087
 6914SOL    HW221642   6.851   4.850   0.135
 6915SOL     OW21643   0.237   6.874   0.816
 6915SOL    HW121644   0.243   6.902   0.912
 6915SOL    HW221645   0.151   6.906   0.777
 6916SOL     OW21646   5.974   0.913   5.521
 6916SOL    HW121647   6.021   0.972   5.455
 6916SOL    HW221648   5.876   0.915   5.503
 6917SOL     OW21649   4.768   6.769   5.564
 6917SOL    HW121650   4.711   6.786   5.644
 6917SOL    HW221651   4.731   6.818   5.485
 6918SOL     OW21652   2.107   2.744   3.447
 6918SOL    HW121653   2.023   2.761   3.498
 6918SOL    HW221654   2.184   2.788   3.493
 6919SOL     OW21655   1.350   5.825   3.341
 6919SOL    HW121656   1.289   5.747   3.330
 6919SOL    HW221657   1.329   5.894   3.272
 6920SOL     OW21658   5.307   5.834   3.936
 6920SOL    HW121659   5.253   5.861   3.857
 6920SOL    HW221660   5.265   5.871   4.019
 6921SOL     OW21661   1.609   5.444   3.466
 6921SOL    HW121662   1.567   5.526   3.505
 6921SOL    HW221663   1.645   5.387   3.539
 6922SOL     OW21664   2.080   6.345   1.055
 6922SOL    HW121665   2.007   6.353   1.122
 6922SOL    HW221666   2.089   6.249   1.027
 6923SOL     OW21667   4.808   5.637   3.712
 6923SOL    HW121668   4.814   5.733   3.687
 6923SOL    HW221669   4.885   5.587   3.672
 6924SOL     OW21670   5.774   5.750   2.039
 6924SOL    HW121671   5.843   5.791   1.978
 6924SOL    HW221672   5.707   5.700   1.984
 6925SOL     OW21673   4.895   5.454   2.293
 6925SOL    HW121674   4.923   5.378   2.233
 6925SOL    HW221675   4.896   5.423   2.388
 6926SOL     OW21676   2.810   3.911   5.543
 6926SOL    HW121677   2.900   3.951   5.527
 6926SOL    HW221678   2.762   3.902   5.455
 6927SOL     OW21679   3.946   3.941   0.644
 6927SOL    HW121680   4.006   3.931   0.724
 6927SOL    HW221681   3.956   4.033   0.606
 6928SOL     OW21682   6.779   0.476   6.927
 6928SOL    HW121683   6.684   0.506   6.921
 6928SOL    HW221684   6.829   0.507   6.847
 6929SOL     OW21685   3.360   5.333   1.952
 6929SOL    HW121686   3.293   5.259   1.949
 6929SOL    HW221687   3.335   5.404   1.885
 6930SOL     OW21688   0.139   0.321   2.946
 6930SOL    HW121689   0.100   0.231   2.964
 6930SOL    HW221690   0.237   0.312   2.930
 6931SOL     OW21691   2.864   0.338   0.426
 6931SOL    HW121692   2.820   0.372   0.509
 6931SOL    HW221693   2.866   0.238   0.428
 6932SOL     OW21694   2.949   2.018   0.335
 6932SOL    HW121695   2.872   2.066   0.376
 6932SOL    HW221696   2.981   1.946   0.397
 6933SOL     OW21697   2.557   6.361   5.101
 6933SOL    HW121698   2.569   6.296   5.176
 6933SOL    HW221699   2.502   6.320   5.029
 6934SOL     OW21700   5.501   4.925   6.367
 6934SOL    HW121701   5.513   4.998   6.300
 6934SOL    HW221702   5.417   4.875   6.347
 6935SOL     OW21703   4.112   5.451   3.114
 6935SOL    HW121704   4.040   5.511   3.079
 6935SOL    HW221705   4.072   5.365   3.145
 6936SOL     OW21706   0.478   4.568   1.006
 6936SOL    HW121707   0.519   4.650   0.966
 6936SOL    HW221708   0.385   4.588   1.034
 6937SOL     OW21709   4.175   6.105   5.935
 6937SOL    HW121710   4.102   6.171   5.951
 6937SOL    HW221711   4.143   6.034   5.872
 6938SOL     OW21712   6.153   2.603   5.434
 6938SOL    HW121713   6.196   2.530   5.382
 6938SOL    HW221714   6.223   2.651   5.487
 6939SOL     OW21715   6.769   4.919   1.420
 6939SOL    HW121716   6.866   4.894   1.429
 6939SOL    HW221717   6.739   4.903   1.326
 6940SOL     OW21718   4.231   0.489   4.462
 6940SOL    HW121719   4.151   0.437   4.431
 6940SOL    HW221720   4.201   0.578   4.496
 6941SOL     OW21721   3.615   2.850   4.746
 6941SOL    HW121722   3.694   2.856   4.807
 6941SOL    HW221723   3.563   2.767   4.766
 6942SOL     OW21724   5.907   1.511   6.736
 6942SOL    HW121725   5.889   1.591   6.679
 6942SOL    HW221726   6.005   1.507   6.757
 6943SOL     OW21727   6.488   5.115   6.596
 6943SOL    HW121728   6.542   5.047   6.644
 6943SOL    HW221729   6.518   5.207   6.621
 6944SOL     OW21730   1.254   6.725   0.409
 6944SOL    HW121731   1.326   6.661   0.380
 6944SOL    HW221732   1.284   6.775   0.490
 6945SOL     OW21733   4.243   1.696   6.375
 6945SOL    HW121734   4.219   1.725   6.468
 6945SOL    HW221735   4.321   1.750   6.343
 6946SOL     OW21736   6.239   3.936   2.784
 6946SOL    HW121737   6.206   3.996   2.856
 6946SOL    HW221738   6.309   3.983   2.730
 6947SOL     OW21739   4.287   6.609   0.855
 6947SOL    HW121740   4.258   6.583   0.763
 6947SOL    HW221741   4.321   6.528   0.903
 6948SOL     OW21742   3.492   2.185   5.568
 6948SOL    HW121743   3.462   2.280   5.582
 6948SOL    HW221744   3.540   2.177   5.481
 6949SOL     OW21745   5.074   0.729   2.098
 6949SOL    HW121746   5.121   0.804   2.052
 6949SOL    HW221747   4.976   0.750   2.104
 6950SOL     OW21748   3.638   1.533   2.959
 6950SOL    HW121749   3.678   1.577   2.878
 6950SOL    HW221750   3.629   1.600   3.032
 6951SOL     OW21751   4.926   4.440   5.577
 6951SOL    HW121752   4.861   4.439   5.501
 6951SOL    HW221753   5.016   4.412   5.544
 6952SOL     OW21754   0.270   3.974   6.357
 6952SOL    HW121755   0.258   4.008   6.264
 6952SOL    HW221756   0.199   4.012   6.416
 6953SOL     OW21757   5.254   2.324   4.703
 6953SOL    HW121758   5.281   2.244   4.650
 6953SOL    HW221759   5.164   2.355   4.672
 6954SOL     OW21760   0.127   4.663   2.372
 6954SOL    HW121761   0.047   4.701   2.419
 6954SOL    HW221762   0.100   4.580   2.323
 6955SOL     OW21763   6.799   0.520   3.535
 6955SOL    HW121764   6.811   0.605   3.586
 6955SOL    HW221765   6.736   0.460   3.584
 6956SOL     OW21766   2.808   4.538   1.140
 6956SOL    HW121767   2.856   4.454   1.165
 6956SOL    HW221768   2.765   4.525   1.050
 6957SOL     OW21769   0.693   4.727   0.132
 6957SOL    HW121770   0.668   4.680   0.047
 6957SOL    HW221771   0.784   4.697   0.160
 6958SOL     OW21772   2.609   4.048   5.950
 6958SOL    HW121773   2.628   3.956   5.917
 6958SOL    HW221774   2.538   4.091   5.894
 6959SOL     OW21775   3.717   1.029   4.936
 6959SOL    HW121776   3.712   0.929   4.933
 6959SOL    HW221777   3.805   1.059   4.901
 6960SOL     OW21778   0.601   6.084   6.944
 6960SOL    HW121779   0.699   6.100   6.937
 6960SOL    HW221780   0.555   6.170   6.969
 6961SOL     OW21781   6.280   1.509   3.604
 6961SOL    HW121782   6.254   1.473   3.694
 6961SOL    HW221783   6.375   1.538   3.606
 6962SOL     OW21784   3.250   3.781   1.232
 6962SOL    HW121785   3.294   3.867   1.206
 6962SOL    HW221786   3.320   3.709   1.236
 6963SOL     OW21787   6.170   5.920   1.608
 6963SOL    HW121788   6.216   5.938   1.695
 6963SOL    HW221789   6.076   5.956   1.612
 6964SOL     OW21790   3.498   5.920   6.005
 6964SOL    HW121791   3.550   5.993   6.050
 6964SOL    HW221792   3.427   5.961   5.947
 6965SOL     OW21793   6.159   1.984   5.718
 6965SOL    HW121794   6.084   2.003   5.654
 6965SOL    HW221795   6.122   1.956   5.806
 6966SOL     OW21796   4.903   1.582   3.732
 6966SOL    HW121797   4.866   1.562   3.641
 6966SOL    HW221798   4.884   1.505   3.793
 6967SOL     OW21799   3.028   2.830   6.382
 6967SOL    HW121800   2.944   2.884   6.369
 6967SOL    HW221801   3.009   2.734   6.360
 6968SOL     OW21802   4.279   0.202   3.840
 6968SOL    HW121803   4.329   0.274   3.792
 6968SOL    HW221804   4.192   0.184   3.792
 6969SOL     OW21805   3.238   3.213   0.985
 6969SOL    HW121806   3.322   3.267   0.990
 6969SOL    HW221807   3.243   3.138   1.051
 6970SOL     OW21808   5.040   4.711   0.486
 6970SOL    HW121809   5.137   4.689   0.480
 6970SOL    HW221810   4.989   4.654   0.421
 6971SOL     OW21811   6.300   1.705   2.561
 6971SOL    HW121812   6.256   1.681   2.648
 6971SOL    HW221813   6.310   1.623   2.505
 6972SOL     OW21814   5.167   4.889   4.408
 6972SOL    HW121815   5.127   4.978   4.432
 6972SOL    HW221816   5.257   4.903   4.368
 6973SOL     OW21817   1.256   4.668   4.134
 6973SOL    HW121818   1.331   4.661   4.068
 6973SOL    HW221819   1.268   4.749   4.191
 6974SOL     OW21820   3.793   4.298   5.211
 6974SOL    HW121821   3.791   4.241   5.292
 6974SOL    HW221822   3.733   4.377   5.223
 6975SOL     OW21823   2.579   6.670   5.956
 6975SOL    HW121824   2.482   6.692   5.964
 6975SOL    HW221825   2.599   6.585   6.004
 6976SOL     OW21826   1.009   6.156   0.784
 6976SOL    HW121827   0.940   6.228   0.772
 6976SOL    HW221828   1.016   6.133   0.881
 6977SOL     OW21829   4.931   2.820   1.915
 6977SOL    HW121830   4.858   2.886   1.932
 6977SOL    HW221831   4.950   2.769   1.999
 6978SOL     OW21832   4.175   1.978   3.534
 6978SOL    HW121833   4.119   2.036   3.594
 6978SOL    HW221834   4.204   1.896   3.585
 6979SOL     OW21835   0.169   3.759   4.101
 6979SOL    HW121836   0.081   3.797   4.071
 6979SOL    HW221837   0.233   3.759   4.024
 6980SOL     OW21838   4.699   1.236   4.554
 6980SOL    HW121839   4.685   1.201   4.462
 6980SOL    HW221840   4.612   1.234   4.604
 6981SOL     OW21841   2.859   3.717   6.878
 6981SOL    HW121842   2.792   3.656   6.919
 6981SOL    HW221843   2.838   3.729   6.781
 6982SOL     OW21844   0.266   6.967   4.931
 6982SOL    HW121845   0.250   6.878   4.890
 6982SOL    HW221846   0.219   6.972   5.020
 6983SOL     OW21847   6.123   1.157   2.926
 6983SOL    HW121848   6.130   1.095   2.849
 6983SOL    HW221849   6.114   1.105   3.011
 6984SOL     OW21850   1.656   1.285   6.150
 6984SOL    HW121851   1.645   1.238   6.063
 6984SOL    HW221852   1.582   1.258   6.212
 6985SOL     OW21853   5.010   6.427   3.828
 6985SOL    HW121854   5.012   6.515   3.874
 6985SOL    HW221855   5.090   6.418   3.768
 6986SOL     OW21856   1.626   6.346   5.116
 6986SOL    HW121857   1.565   6.301   5.050
 6986SOL    HW221858   1.615   6.303   5.205
 6987SOL     OW21859   6.813   3.485   6.328
 6987SOL    HW121860   6.843   3.502   6.422
 6987SOL    HW221861   6.892   3.460   6.272
 6988SOL     OW21862   5.468   1.555   6.131
 6988SOL    HW121863   5.511   1.481   6.079
 6988SOL    HW221864   5.444   1.522   6.222
 6989SOL     OW21865   2.164   3.213   4.282
 6989SOL    HW121866   2.208   3.264   4.356
 6989SOL    HW221867   2.158   3.270   4.200
 6990SOL     OW21868   4.132   3.634   1.257
 6990SOL    HW121869   4.198   3.699   1.220
 6990SOL    HW221870   4.168   3.594   1.341
 6991SOL     OW21871   4.108   4.810   5.098
 6991SOL    HW121872   4.123   4.884   5.033
 6991SOL    HW221873   4.016   4.818   5.138
 6992SOL     OW21874   6.399   6.289   4.695
 6992SOL    HW121875   6.397   6.247   4.604
 6992SOL    HW221876   6.312   6.336   4.712
 6993SOL     OW21877   0.386   6.845   2.852
 6993SOL    HW121878   0.398   6.915   2.923
 6993SOL    HW221879   0.289   6.831   2.835
 6994SOL     OW21880   1.109   2.438   0.258
 6994SOL    HW121881   1.034   2.460   0.320
 6994SOL    HW221882   1.075   2.380   0.184
 6995SOL     OW21883   1.309   5.572   4.335
 6995SOL    HW121884   1.388   5.626   4.308
 6995SOL    HW221885   1.305   5.488   4.280
 6996SOL     OW21886   1.838   0.129   6.169
 6996SOL    HW121887   1.774   0.158   6.098
 6996SOL    HW221888   1.902   0.203   6.189
 6997SOL     OW21889   4.385   5.285   4.421
 6997SOL    HW121890   4.373   5.187   4.431
 6997SOL    HW221891   4.465   5.304   4.365
 6998SOL     OW21892   2.565   1.985   2.465
 6998SOL    HW121893   2.579   2.044   2.385
 6998SOL    HW221894   2.653   1.953   2.500
 6999SOL     OW21895   5.569   2.291   6.941
 6999SOL    HW121896   5.504   2.266   6.870
 6999SOL    HW221897   5.521   2.305   7.027
 7000SOL     OW21898   6.885   0.314   1.791
 7000SOL    HW121899   6.944   0.380   1.744
 7000SOL    HW221900   6.876   0.340   1.887
 7001SOL     OW21901   2.945   1.796   6.392
 7001SOL    HW121902   2.971   1.811   6.487
 7001SOL    HW221903   2.912   1.702   6.381
 7002SOL     OW21904   2.183   4.974   2.557
 7002SOL    HW121905   2.268   4.988   2.506
 7002SOL    HW221906   2.201   4.921   2.639
 7003SOL     OW21907   2.055   6.361   5.941
 7003SOL    HW121908   1.998   6.340   5.861
 7003SOL    HW221909   2.094   6.276   5.977
 7004SOL     OW21910   1.583   4.046   0.062
 7004SOL    HW121911   1.545   3.982   0.130
 7004SOL    HW221912   1.671   4.012   0.030
 7005SOL     OW21913   6.914   6.902   5.600
 7005SOL    HW121914   6.820   6.937   5.592
 7005SOL    HW221915   6.917   6.830   5.670
 7006SOL     OW21916   4.640   4.794   4.103
 7006SOL    HW121917   4.738   4.793   4.085
 7006SOL    HW221918   4.591   4.822   4.020
 7007SOL     OW21919   4.930   5.244   2.115
 7007SOL    HW121920   4.837   5.213   2.096
 7007SOL    HW221921   4.992   5.166   2.115
 7008SOL     OW21922   0.989   5.990   3.905
 7008SOL    HW121923   0.947   6.024   3.989
 7008SOL    HW221924   1.087   6.011   3.906
 7009SOL     OW21925   6.798   3.951   1.780
 7009SOL    HW121926   6.825   3.855   1.790
 7009SOL    HW221927   6.778   3.970   1.684
 7010SOL     OW21928   5.603   4.414   6.145
 7010SOL    HW121929   5.507   4.409   6.116
 7010SOL    HW221930   5.661   4.372   6.076
 7011SOL     OW21931   0.819   0.771   5.368
 7011SOL    HW121932   0.782   0.723   5.447
 7011SOL    HW221933   0.746   0.788   5.302
 7012SOL     OW21934   1.230   1.250   1.567
 7012SOL    HW121935   1.150   1.198   1.597
 7012SOL    HW221936   1.299   1.249   1.639
 7013SOL     OW21937   6.745   2.216   1.853
 7013SOL    HW121938   6.771   2.183   1.944
 7013SOL    HW221939   6.739   2.139   1.790
 7014SOL     OW21940   2.302   5.418   0.855
 7014SOL    HW121941   2.296   5.515   0.833
 7014SOL    HW221942   2.391   5.382   0.826
 7015SOL     OW21943   4.316   1.913   2.343
 7015SOL    HW121944   4.256   1.861   2.404
 7015SOL    HW221945   4.362   1.985   2.395
 7016SOL     OW21946   4.188   4.356   1.355
 7016SOL    HW121947   4.145   4.362   1.445
 7016SOL    HW221948   4.118   4.336   1.286
 7017SOL     OW21949   5.116   1.496   5.240
 7017SOL    HW121950   5.187   1.531   5.301
 7017SOL    HW221951   5.037   1.465   5.294
 7018SOL     OW21952   0.429   3.282   3.294
 7018SOL    HW121953   0.474   3.195   3.272
 7018SOL    HW221954   0.469   3.320   3.377
 7019SOL     OW21955   0.622   6.185   1.634
 7019SOL    HW121956   0.579   6.094   1.633
 7019SOL    HW221957   0.708   6.180   1.685
 7020SOL     OW21958   0.529   5.723   6.548
 7020SOL    HW121959   0.523   5.805   6.605
 7020SOL    HW221960   0.511   5.746   6.453
 7021SOL     OW21961   3.588   6.696   5.876
 7021SOL    HW121962   3.651   6.699   5.799
 7021SOL    HW221963   3.544   6.606   5.880
 7022SOL     OW21964   3.958   5.538   5.907
 7022SOL    HW121965   4.054   5.510   5.912
 7022SOL    HW221966   3.907   5.474   5.851
 7023SOL     OW21967   5.198   4.946   2.558
 7023SOL    HW121968   5.288   4.965   2.597
 7023SOL    HW221969   5.160   5.030   2.520
 7024SOL     OW21970   6.081   6.573   1.528
 7024SOL    HW121971   6.068   6.477   1.551
 7024SOL    HW221972   6.005   6.606   1.473
 7025SOL     OW21973   2.637   0.213   0.894
 7025SOL    HW121974   2.643   0.114   0.905
 7025SOL    HW221975   2.721   0.256   0.926
 7026SOL     OW21976   4.104   1.779   1.243
 7026SOL    HW121977   4.114   1.832   1.159
 7026SOL    HW221978   4.014   1.797   1.283
 7027SOL     OW21979   5.717   5.858   4.299
 7027SOL    HW121980   5.663   5.838   4.217
 7027SOL    HW221981   5.681   5.940   4.344
 7028SOL     OW21982   2.826   0.715   4.779
 7028SOL    HW121983   2.884   0.675   4.708
 7028SOL    HW221984   2.780   0.796   4.743
 7029SOL     OW21985   4.201   1.054   4.621
 7029SOL    HW121986   4.192   1.129   4.555
 7029SOL    HW221987   4.121   1.054   4.682
 7030SOL     OW21988   1.572   3.507   3.864
 7030SOL    HW121989   1.662   3.472   3.840
 7030SOL    HW221990   1.581   3.595   3.910
 7031SOL     OW21991   1.343   1.046   4.990
 7031SOL    HW121992   1.269   1.032   4.924
 7031SOL    HW221993   1.311   1.108   5.062
 7032SOL     OW21994   6.102   2.462   3.536
 7032SOL    HW121995   6.038   2.415   3.597
 7032SOL    HW221996   6.196   2.433   3.556
 7033SOL     OW21997   0.470   0.308   5.253
 7033SOL    HW121998   0.436   0.359   5.174
 7033SOL    HW221999   0.459   0.210   5.236
 7034SOL     OW22000   0.441   4.657   3.479
 7034SOL    HW122001   0.407   4.615   3.563
 7034SOL    HW222002   0.518   4.604   3.443
 7035SOL     OW22003   6.656   4.700   2.019
 7035SOL    HW122004   6.568   4.684   2.065
 7035SOL    HW222005   6.660   4.794   1.987
 7036SOL     OW22006   5.945   4.561   0.638
 7036SOL    HW122007   5.888   4.479   0.633
 7036SOL    HW222008   6.021   4.544   0.701
 7037SOL     OW22009   1.650   0.393   6.371
 7037SOL    HW122010   1.641   0.477   6.425
 7037SOL    HW222011   1.594   0.321   6.412
 7038SOL     OW22012   2.155   3.398   4.492
 7038SOL    HW122013   2.117   3.307   4.508
 7038SOL    HW222014   2.147   3.453   4.575
 7039SOL     OW22015   3.479   1.814   0.055
 7039SOL    HW122016   3.528   1.885   0.106
 7039SOL    HW222017   3.407   1.775   0.111
 7040SOL     OW22018   5.507   2.576   6.955
 7040SOL    HW122019   5.459   2.624   7.028
 7040SOL    HW222020   5.525   2.482   6.983
 7041SOL     OW22021   2.304   1.682   3.532
 7041SOL    HW122022   2.398   1.709   3.549
 7041SOL    HW222023   2.242   1.754   3.564
 7042SOL     OW22024   1.380   1.039   6.621
 7042SOL    HW122025   1.422   1.038   6.530
 7042SOL    HW222026   1.308   1.109   6.623
 7043SOL     OW22027   1.241   2.645   2.360
 7043SOL    HW122028   1.291   2.562   2.334
 7043SOL    HW222029   1.146   2.621   2.383
 7044SOL     OW22030   6.699   6.271   1.480
 7044SOL    HW122031   6.736   6.363   1.488
 7044SOL    HW222032   6.763   6.215   1.427
 7045SOL     OW22033   0.024   4.843   0.121
 7045SOL    HW122034   0.084   4.881   0.192
 7045SOL    HW222035   0.066   4.759   0.085
 7046SOL     OW22036   3.508   1.447   3.679
 7046SOL    HW122037   3.461   1.505   3.613
 7046SOL    HW222038   3.486   1.478   3.772
 7047SOL     OW22039   1.443   0.075   2.894
 7047SOL    HW122040   1.449   0.031   2.983
 7047SOL    HW222041   1.521   0.135   2.880
 7048SOL     OW22042   6.862   5.672   0.036
 7048SOL    HW122043   6.864   5.772   0.043
 7048SOL    HW222044   6.791   5.636   0.096
 7049SOL     OW22045   2.195   1.114   6.309
 7049SOL    HW122046   2.183   1.203   6.353
 7049SOL    HW222047   2.117   1.096   6.249
 7050SOL     OW22048   4.140   3.626   4.949
 7050SOL    HW122049   4.110   3.701   5.007
 7050SOL    HW222050   4.223   3.585   4.987
 7051SOL     OW22051   6.286   6.416   2.924
 7051SOL    HW122052   6.254   6.480   2.854
 7051SOL    HW222053   6.365   6.366   2.888
 7052SOL     OW22054   7.007   6.932   5.353
 7052SOL    HW122055   6.935   6.934   5.283
 7052SOL    HW222056   6.965   6.941   5.444
 7053SOL     OW22057   6.951   3.557   6.001
 7053SOL    HW122058   7.009   3.538   5.922
 7053SOL    HW222059   7.002   3.610   6.068
 7054SOL     OW22060   6.404   1.974   2.191
 7054SOL    HW122061   6.406   2.070   2.162
 7054SOL    HW222062   6.375   1.969   2.286
 7055SOL     OW22063   4.232   1.344   3.970
 7055SOL    HW122064   4.255   1.441   3.979
 7055SOL    HW222065   4.252   1.315   3.876
 7056SOL     OW22066   4.573   5.188   4.105
 7056SOL    HW122067   4.636   5.200   4.181
 7056SOL    HW222068   4.593   5.101   4.059
 7057SOL     OW22069   6.009   5.818   2.460
 7057SOL    HW122070   5.964   5.804   2.548
 7057SOL    HW222071   5.957   5.772   2.388
 7058SOL     OW22072   0.276   4.313   4.295
 7058SOL    HW122073   0.374   4.331   4.306
 7058SOL    HW222074   0.260   4.215   4.289
 7059SOL     OW22075   1.782   1.380   2.523
 7059SOL    HW122076   1.808   1.410   2.615
 7059SOL    HW222077   1.731   1.454   2.478
 7060SOL     OW22078   3.000   6.627   1.102
 7060SOL    HW122079   2.911   6.618   1.056
 7060SOL    HW222080   3.065   6.672   1.041
 7061SOL     OW22081   0.058   0.772   2.944
 7061SOL    HW122082   0.095   0.703   3.007
 7061SOL    HW222083   0.006   0.725   2.872
 7062SOL     OW22084   6.622   1.478   5.813
 7062SOL    HW122085   6.602   1.568   5.773
 7062SOL    HW222086   6.536   1.430   5.830
 7063SOL     OW22087   1.971   6.551   2.686
 7063SOL    HW122088   2.021   6.476   2.642
 7063SOL    HW222089   1.934   6.612   2.617
 7064SOL     OW22090   3.446   2.723   0.162
 7064SOL    HW122091   3.508   2.669   0.218
 7064SOL    HW222092   3.433   2.813   0.203
 7065SOL     OW22093   3.637   3.628   2.499
 7065SOL    HW122094   3.682   3.586   2.420
 7065SOL    HW222095   3.570   3.696   2.468
 7066SOL     OW22096   2.388   4.867   1.869
 7066SOL    HW122097   2.379   4.938   1.798
 7066SOL    HW222098   2.485   4.853   1.889
 7067SOL     OW22099   0.526   4.096   4.585
 7067SOL    HW122100   0.515   4.055   4.675
 7067SOL    HW222101   0.517   4.195   4.591
 7068SOL     OW22102   0.051   0.399   2.664
 7068SOL    HW122103   0.087   0.350   2.743
 7068SOL    HW222104   7.028   0.479   2.696
 7069SOL     OW22105   2.010   4.824   5.157
 7069SOL    HW122106   1.948   4.757   5.199
 7069SOL    HW222107   2.006   4.815   5.058
 7070SOL     OW22108   5.411   5.448   3.507
 7070SOL    HW122109   5.422   5.374   3.573
 7070SOL    HW222110   5.496   5.500   3.500
 7071SOL     OW22111   1.814   6.551   5.025
 7071SOL    HW122112   1.842   6.608   5.102
 7071SOL    HW222113   1.784   6.461   5.058
 7072SOL     OW22114   0.657   0.243   6.641
 7072SOL    HW122115   0.708   0.278   6.563
 7072SOL    HW222116   0.719   0.226   6.717
 7073SOL     OW22117   1.943   2.271   6.511
 7073SOL    HW122118   2.009   2.307   6.577
 7073SOL    HW222119   1.850   2.284   6.546
 7074SOL     OW22120   3.756   1.111   0.234
 7074SOL    HW122121   3.843   1.089   0.190
 7074SOL    HW222122   3.715   1.192   0.192
 7075SOL     OW22123   0.770   6.027   2.943
 7075SOL    HW122124   0.826   6.056   3.021
 7075SOL    HW222125   0.673   6.029   2.969
 7076SOL     OW22126   3.845   1.386   5.857
 7076SOL    HW122127   3.922   1.322   5.860
 7076SOL    HW222128   3.761   1.338   5.879
 7077SOL     OW22129   1.474   5.146   6.413
 7077SOL    HW122130   1.546   5.077   6.412
 7077SOL    HW222131   1.415   5.131   6.492
 7078SOL     OW22132   6.959   0.884   1.936
 7078SOL    HW122133   6.891   0.948   1.971
 7078SOL    HW222134   0.020   0.927   1.936
 7079SOL     OW22135   5.314   5.920   4.370
 7079SOL    HW122136   5.404   5.963   4.371
 7079SOL    HW222137   5.322   5.823   4.393
 7080SOL     OW22138   5.862   0.442   4.231
 7080SOL    HW122139   5.838   0.347   4.210
 7080SOL    HW222140   5.949   0.443   4.281
 7081SOL     OW22141   5.030   0.738   5.099
 7081SOL    HW122142   5.069   0.784   5.019
 7081SOL    HW222143   4.939   0.776   5.118
 7082SOL     OW22144   5.881   1.459   0.317
 7082SOL    HW122145   5.934   1.429   0.238
 7082SOL    HW222146   5.943   1.493   0.388
 7083SOL     OW22147   4.052   0.228   5.467
 7083SOL    HW122148   4.095   0.155   5.413
 7083SOL    HW222149   3.962   0.198   5.497
 7084SOL     OW22150   6.083   5.998   0.388
 7084SOL    HW122151   6.114   6.034   0.476
 7084SOL    HW222152   5.993   6.037   0.366
 7085SOL     OW22153   4.184   1.453   1.217
 7085SOL    HW122154   4.103   1.395   1.227
 7085SOL    HW222155   4.247   1.434   1.292
 7086SOL     OW22156   1.272   1.046   6.279
 7086SOL    HW122157   1.331   1.048   6.199
 7086SOL    HW222158   1.187   1.095   6.258
 7087SOL     OW22159   2.457   2.670   5.113
 7087SOL    HW122160   2.448   2.768   5.097
 7087SOL    HW222161   2.473   2.623   5.026
 7088SOL     OW22162   0.111   2.287   5.010
 7088SOL    HW122163   0.095   2.362   5.073
 7088SOL    HW222164   0.176   2.222   5.051
 7089SOL     OW22165   3.200   1.790   1.682
 7089SOL    HW122166   3.266   1.857   1.647
 7089SOL    HW222167   3.148   1.830   1.757
 7090SOL     OW22168   2.335   2.101   5.301
 7090SOL    HW122169   2.423   2.133   5.336
 7090SOL    HW222170   2.302   2.026   5.358
 7091SOL     OW22171   6.559   6.626   0.669
 7091SOL    HW122172   6.573   6.527   0.664
 7091SOL    HW222173   6.534   6.651   0.762
 7092SOL     OW22174   3.175   1.729   0.687
 7092SOL    HW122175   3.257   1.679   0.715
 7092SOL    HW222176   3.122   1.753   0.768
 7093SOL     OW22177   4.031   3.143   6.215
 7093SOL    HW122178   4.113   3.086   6.210
 7093SOL    HW222179   4.036   3.200   6.298
 7094SOL     OW22180   6.243   1.008   6.231
 7094SOL    HW122181   6.220   0.938   6.298
 7094SOL    HW222182   6.301   1.078   6.274
 7095SOL     OW22183   0.589   3.876   0.704
 7095SOL    HW122184   0.530   3.797   0.720
 7095SOL    HW222185   0.595   3.929   0.789
 7096SOL     OW22186   4.398   0.118   2.610
 7096SOL    HW122187   4.404   0.203   2.662
 7096SOL    HW222188   4.357   0.137   2.521
 7097SOL     OW22189   2.049   1.666   1.388
 7097SOL    HW122190   1.960   1.624   1.368
 7097SOL    HW222191   2.057   1.752   1.338
 7098SOL     OW22192   1.048   0.738   6.292
 7098SOL    HW122193   0.991   0.820   6.281
 7098SOL    HW222194   1.115   0.735   6.218
 7099SOL     OW22195   6.749   1.279   5.637
 7099SOL    HW122196   6.721   1.374   5.647
 7099SOL    HW222197   6.730   1.229   5.721
 7100SOL     OW22198   5.521   1.495   1.355
 7100SOL    HW122199   5.559   1.585   1.375
 7100SOL    HW222200   5.528   1.437   1.436
 7101SOL     OW22201   1.250   0.737   3.864
 7101SOL    HW122202   1.202   0.654   3.891
 7101SOL    HW222203   1.224   0.812   3.925
 7102SOL     OW22204   4.796   3.253   0.455
 7102SOL    HW122205   4.699   3.243   0.435
 7102SOL    HW222206   4.837   3.163   0.471
 7103SOL     OW22207   2.326   6.736   6.036
 7103SOL    HW122208   2.281   6.682   6.107
 7103SOL    HW222209   2.283   6.716   5.947
 7104SOL     OW22210   0.932   2.675   2.093
 7104SOL    HW122211   0.841   2.716   2.099
 7104SOL    HW222212   0.998   2.745   2.068
 7105SOL     OW22213   1.900   3.291   5.575
 7105SOL    HW122214   1.855   3.365   5.626
 7105SOL    HW222215   1.936   3.328   5.489
 7106SOL     OW22216   2.972   2.732   5.444
 7106SOL    HW122217   2.884   2.766   5.411
 7106SOL    HW222218   3.046   2.783   5.400
 7107SOL     OW22219   1.404   1.494   0.765
 7107SOL    HW122220   1.321   1.450   0.798
 7107SOL    HW222221   1.416   1.476   0.667
 7108SOL     OW22222   4.609   6.529   1.700
 7108SOL    HW122223   4.539   6.595   1.672
 7108SOL    HW222224   4.689   6.538   1.641
 7109SOL     OW22225   4.357   5.677   6.531
 7109SOL    HW122226   4.304   5.664   6.447
 7109SOL    HW222227   4.435   5.737   6.512
 7110SOL     OW22228   3.606   4.950   4.449
 7110SOL    HW122229   3.672   4.925   4.377
 7110SOL    HW222230   3.554   5.030   4.419
 7111SOL     OW22231   1.424   2.538   3.577
 7111SOL    HW122232   1.414   2.637   3.578
 7111SOL    HW222233   1.334   2.496   3.561
 7112SOL     OW22234   1.555   6.337   3.395
 7112SOL    HW122235   1.475   6.396   3.388
 7112SOL    HW222236   1.613   6.370   3.470
 7113SOL     OW22237   3.717   3.453   5.528
 7113SOL    HW122238   3.626   3.486   5.552
 7113SOL    HW222239   3.712   3.357   5.503
 7114SOL     OW22240   3.790   6.689   0.511
 7114SOL    HW122241   3.731   6.657   0.585
 7114SOL    HW222242   3.742   6.759   0.458
 7115SOL     OW22243   3.940   2.159   1.617
 7115SOL    HW122244   3.965   2.244   1.663
 7115SOL    HW222245   4.007   2.139   1.546
 7116SOL     OW22246   6.112   4.114   2.997
 7116SOL    HW122247   6.136   4.074   3.086
 7116SOL    HW222248   6.144   4.208   2.993
 7117SOL     OW22249   6.217   6.573   2.712
 7117SOL    HW122250   6.222   6.583   2.613
 7117SOL    HW222251   6.144   6.631   2.748
 7118SOL     OW22252   6.640   3.189   3.220
 7118SOL    HW122253   6.690   3.269   3.253
 7118SOL    HW222254   6.688   3.151   3.141
 7119SOL     OW22255   1.286   2.217   3.169
 7119SOL    HW122256   1.351   2.265   3.111
 7119SOL    HW222257   1.199   2.267   3.170
 7120SOL     OW22258   4.556   6.401   3.120
 7120SOL    HW122259   4.532   6.481   3.177
 7120SOL    HW222260   4.473   6.366   3.076
 7121SOL     OW22261   2.255   6.554   1.118
 7121SOL    HW122262   2.261   6.624   1.047
 7121SOL    HW222263   2.180   6.491   1.097
 7122SOL     OW22264   6.832   6.237   0.313
 7122SOL    HW122265   6.841   6.189   0.400
 7122SOL    HW222266   6.823   6.335   0.329
 7123SOL     OW22267   2.707   5.723   0.674
 7123SOL    HW122268   2.801   5.719   0.641
 7123SOL    HW222269   2.697   5.803   0.734
 7124SOL     OW22270   0.100   6.083   6.251
 7124SOL    HW122271   0.151   6.039   6.178
 7124SOL    HW222272   0.038   6.151   6.212
 7125SOL     OW22273   0.534   6.286   3.487
 7125SOL    HW122274   0.476   6.282   3.406
 7125SOL    HW222275   0.555   6.194   3.518
 7126SOL     OW22276   1.764   3.973   1.424
 7126SOL    HW122277   1.794   3.992   1.517
 7126SOL    HW222278   1.697   4.041   1.396
 7127SOL     OW22279   2.385   0.301   4.663
 7127SOL    HW122280   2.326   0.271   4.588
 7127SOL    HW222281   2.342   0.378   4.710
 7128SOL     OW22282   3.006   3.827   2.020
 7128SOL    HW122283   3.036   3.890   1.949
 7128SOL    HW222284   2.956   3.751   1.979
 7129SOL     OW22285   2.671   1.943   1.001
 7129SOL    HW122286   2.766   1.926   0.976
 7129SOL    HW222287   2.622   1.856   1.007
 7130SOL     OW22288   2.273   0.523   3.178
 7130SOL    HW122289   2.270   0.622   3.194
 7130SOL    HW222290   2.350   0.484   3.227
 7131SOL     OW22291   2.706   1.532   3.602
 7131SOL    HW122292   2.803   1.557   3.608
 7131SOL    HW222293   2.699   1.437   3.571
 7132SOL     OW22294   3.129   4.055   1.897
 7132SOL    HW122295   3.194   4.041   1.822
 7132SOL    HW222296   3.111   4.153   1.907
 7133SOL     OW22297   6.178   4.376   1.908
 7133SOL    HW122298   6.141   4.283   1.904
 7133SOL    HW222299   6.205   4.397   2.002
 7134SOL     OW22300   5.626   4.785   2.309
 7134SOL    HW122301   5.712   4.789   2.257
 7134SOL    HW222302   5.641   4.822   2.401
 7135SOL     OW22303   0.140   2.230   6.219
 7135SOL    HW122304   0.182   2.285   6.148
 7135SOL    HW222305   0.207   2.214   6.292
 7136SOL     OW22306   1.941   1.946   0.075
 7136SOL    HW122307   1.857   1.994   0.049
 7136SOL    HW222308   2.018   2.010   0.075
 7137SOL     OW22309   4.931   2.038   5.008
 7137SOL    HW122310   4.975   2.037   4.918
 7137SOL    HW222311   4.967   1.964   5.064
 7138SOL     OW22312   2.437   2.371   6.734
 7138SOL    HW122313   2.477   2.348   6.823
 7138SOL    HW222314   2.490   2.445   6.692
 7139SOL     OW22315   3.032   1.415   0.438
 7139SOL    HW122316   3.101   1.479   0.403
 7139SOL    HW222317   2.967   1.393   0.365
 7140SOL     OW22318   6.676   4.356   4.617
 7140SOL    HW122319   6.738   4.385   4.544
 7140SOL    HW222320   6.721   4.287   4.673
 7141SOL     OW22321   0.686   6.835   1.797
 7141SOL    HW122322   0.592   6.807   1.776
 7141SOL    HW222323   0.750   6.781   1.742
 7142SOL     OW22324   3.449   6.673   3.700
 7142SOL    HW122325   3.379   6.621   3.750
 7142SOL    HW222326   3.539   6.638   3.726
 7143SOL     OW22327   1.953   2.313   4.017
 7143SOL    HW122328   1.871   2.360   4.048
 7143SOL    HW222329   1.998   2.268   4.094
 7144SOL     OW22330   1.268   3.423   3.417
 7144SOL    HW122331   1.168   3.416   3.412
 7144SOL    HW222332   1.307   3.400   3.328
 7145SOL     OW22333   4.111   5.895   5.778
 7145SOL    HW122334   4.020   5.873   5.813
 7145SOL    HW222335   4.170   5.815   5.787
 7146SOL     OW22336   3.617   5.235   1.908
 7146SOL    HW122337   3.599   5.214   1.812
 7146SOL    HW222338   3.537   5.278   1.948
 7147SOL     OW22339   7.021   1.008   3.743
 7147SOL    HW122340   6.987   1.100   3.761
 7147SOL    HW222341   0.091   1.010   3.732
 7148SOL     OW22342   6.824   1.916   0.782
 7148SOL    HW122343   6.743   1.975   0.774
 7148SOL    HW222344   6.804   1.827   0.741
 7149SOL     OW22345   0.398   0.698   4.850
 7149SOL    HW122346   0.415   0.780   4.796
 7149SOL    HW222347   0.412   0.717   4.947
 7150SOL     OW22348   5.926   3.369   6.186
 7150SOL    HW122349   5.963   3.357   6.278
 7150SOL    HW222350   5.830   3.343   6.184
 7151SOL     OW22351   2.219   6.891   0.562
 7151SOL    HW122352   2.296   6.909   0.624
 7151SOL    HW222353   2.168   6.976   0.546
 7152SOL     OW22354   1.032   2.345   4.990
 7152SOL    HW122355   1.004   2.251   4.967
 7152SOL    HW222356   1.130   2.347   5.008
 7153SOL     OW22357   4.104   2.027   3.047
 7153SOL    HW122358   4.064   2.103   3.099
 7153SOL    HW222359   4.031   1.973   3.005
 7154SOL     OW22360   3.772   6.988   4.950
 7154SOL    HW122361   3.696   0.023   4.937
 7154SOL    HW222362   3.756   6.932   5.031
 7155SOL     OW22363   2.535   1.793   3.274
 7155SOL    HW122364   2.624   1.824   3.241
 7155SOL    HW222365   2.542   1.766   3.370
 7156SOL     OW22366   1.715   5.690   5.894
 7156SOL    HW122367   1.729   5.727   5.802
 7156SOL    HW222368   1.706   5.766   5.959
 7157SOL     OW22369   5.464   3.914   0.615
 7157SOL    HW122370   5.376   3.893   0.571
 7157SOL    HW222371   5.448   3.937   0.711
 7158SOL     OW22372   4.089   6.964   3.450
 7158SOL    HW122373   4.037   6.931   3.372
 7158SOL    HW222374   4.182   6.985   3.422
 7159SOL     OW22375   0.847   5.935   6.878
 7159SOL    HW122376   0.821   5.878   6.800
 7159SOL    HW222377   0.786   5.916   6.955
 7160SOL     OW22378   6.270   0.369   1.858
 7160SOL    HW122379   6.299   0.418   1.940
 7160SOL    HW222380   6.222   0.431   1.797
 7161SOL     OW22381   3.938   3.973   4.895
 7161SOL    HW122382   3.968   3.923   4.976
 7161SOL    HW222383   4.000   4.050   4.878
 7162SOL     OW22384   3.793   4.890   4.252
 7162SOL    HW122385   3.780   4.831   4.172
 7162SOL    HW222386   3.890   4.895   4.274
 7163SOL     OW22387   1.433   6.523   3.701
 7163SOL    HW122388   1.336   6.517   3.681
 7163SOL    HW222389   1.473   6.601   3.652
 7164SOL     OW22390   2.214   2.337   4.962
 7164SOL    HW122391   2.258   2.424   4.982
 7164SOL    HW222392   2.232   2.311   4.867
 7165SOL     OW22393   4.838   5.642   2.121
 7165SOL    HW122394   4.887   5.654   2.034
 7165SOL    HW222395   4.882   5.569   2.173
 7166SOL     OW22396   3.875   6.168   2.066
 7166SOL    HW122397   3.926   6.089   2.030
 7166SOL    HW222398   3.913   6.195   2.154
 7167SOL     OW22399   5.308   3.293   6.610
 7167SOL    HW122400   5.304   3.194   6.625
 7167SOL    HW222401   5.237   3.337   6.666
 7168SOL     OW22402   0.438   1.556   4.121
 7168SOL    HW122403   0.345   1.525   4.101
 7168SOL    HW222404   0.434   1.637   4.179
 7169SOL     OW22405   2.201   2.687   6.802
 7169SOL    HW122406   2.234   2.704   6.709
 7169SOL    HW222407   2.261   2.621   6.847
 7170SOL     OW22408   5.298   4.055   3.734
 7170SOL    HW122409   5.318   4.118   3.659
 7170SOL    HW222410   5.342   4.088   3.818
 7171SOL     OW22411   4.076   3.584   5.374
 7171SOL    HW122412   3.999   3.586   5.310
 7171SOL    HW222413   4.113   3.491   5.379
 7172SOL     OW22414   0.411   6.219   0.926
 7172SOL    HW122415   0.425   6.151   0.997
 7172SOL    HW222416   0.482   6.211   0.856
 7173SOL     OW22417   6.179   6.467   4.705
 7173SOL    HW122418   6.164   6.477   4.804
 7173SOL    HW222419   6.091   6.479   4.658
 7174SOL     OW22420   1.225   5.944   6.192
 7174SOL    HW122421   1.147   5.896   6.233
 7174SOL    HW222422   1.254   5.895   6.110
 7175SOL     OW22423   6.100   3.509   5.802
 7175SOL    HW122424   6.157   3.504   5.884
 7175SOL    HW222425   6.051   3.423   5.791
 7176SOL     OW22426   0.722   3.018   1.883
 7176SOL    HW122427   0.785   3.013   1.961
 7176SOL    HW222428   0.635   3.057   1.913
 7177SOL     OW22429   0.738   4.928   2.111
 7177SOL    HW122430   0.738   4.998   2.039
 7177SOL    HW222431   0.774   4.967   2.196
 7178SOL     OW22432   6.213   1.049   6.670
 7178SOL    HW122433   6.153   0.988   6.617
 7178SOL    HW222434   6.308   1.031   6.646
 7179SOL     OW22435   1.055   4.055   5.599
 7179SOL    HW122436   1.142   4.056   5.548
 7179SOL    HW222437   1.008   3.968   5.581
 7180SOL     OW22438   6.823   6.911   2.588
 7180SOL    HW122439   6.862   6.923   2.679
 7180SOL    HW222440   6.816   6.813   2.568
 7181SOL     OW22441   5.718   5.963   2.478
 7181SOL    HW122442   5.736   5.888   2.414
 7181SOL    HW222443   5.643   6.019   2.443
 7182SOL     OW22444   4.250   3.598   5.881
 7182SOL    HW122445   4.158   3.585   5.918
 7182SOL    HW222446   4.244   3.619   5.783
 7183SOL     OW22447   1.847   3.365   3.219
 7183SOL    HW122448   1.941   3.343   3.244
 7183SOL    HW222449   1.789   3.357   3.300
 7184SOL     OW22450   2.460   5.773   3.680
 7184SOL    HW122451   2.457   5.814   3.771
 7184SOL    HW222452   2.386   5.808   3.624
 7185SOL     OW22453   4.514   2.268   6.991
 7185SOL    HW122454   4.572   2.265   6.909
 7185SOL    HW222455   4.510   2.361   7.026
 7186SOL     OW22456   0.833   6.437   5.007
 7186SOL    HW122457   0.827   6.535   4.990
 7186SOL    HW222458   0.779   6.387   4.939
 7187SOL     OW22459   1.316   5.521   1.120
 7187SOL    HW122460   1.327   5.584   1.197
 7187SOL    HW222461   1.354   5.432   1.146
 7188SOL     OW22462   5.391   6.957   2.110
 7188SOL    HW122463   5.351   6.983   2.198
 7188SOL    HW222464   5.333   6.991   2.036
 7189SOL     OW22465   6.278   0.869   5.370
 7189SOL    HW122466   6.293   0.954   5.419
 7189SOL    HW222467   6.327   0.795   5.416
 7190SOL     OW22468   4.105   5.176   2.872
 7190SOL    HW122469   4.142   5.145   2.785
 7190SOL    HW222470   4.123   5.274   2.883
 7191SOL     OW22471   0.826   3.063   2.152
 7191SOL    HW122472   0.792   3.133   2.214
 7191SOL    HW222473   0.783   2.975   2.174
 7192SOL     OW22474   3.386   4.172   6.448
 7192SOL    HW122475   3.447   4.222   6.386
 7192SOL    HW222476   3.380   4.076   6.420
 7193SOL     OW22477   5.385   1.831   4.735
 7193SOL    HW122478   5.351   1.868   4.821
 7193SOL    HW222479   5.483   1.851   4.727
 7194SOL     OW22480   3.191   1.436   1.556
 7194SOL    HW122481   3.189   1.526   1.513
 7194SOL    HW222482   3.211   1.446   1.654
 7195SOL     OW22483   0.328   6.967   2.007
 7195SOL    HW122484   0.254   6.971   1.940
 7195SOL    HW222485   0.338   0.027   2.052
 7196SOL     OW22486   3.737   3.379   1.437
 7196SOL    HW122487   3.799   3.397   1.360
 7196SOL    HW222488   3.724   3.280   1.446
 7197SOL     OW22489   1.320   0.921   4.427
 7197SOL    HW122490   1.395   0.869   4.386
 7197SOL    HW222491   1.277   0.867   4.500
 7198SOL     OW22492   0.073   6.586   6.310
 7198SOL    HW122493   7.027   6.620   6.254
 7198SOL    HW222494   0.036   6.523   6.380
 7199SOL     OW22495   5.896   5.683   2.265
 7199SOL    HW122496   5.810   5.656   2.309
 7199SOL    HW222497   5.877   5.720   2.175
 7200SOL     OW22498   1.646   1.927   2.449
 7200SOL    HW122499   1.708   1.973   2.513
 7200SOL    HW222500   1.692   1.914   2.361
 7201SOL     OW22501   2.364   4.818   4.115
 7201SOL    HW122502   2.324   4.895   4.066
 7201SOL    HW222503   2.381   4.844   4.210
 7202SOL     OW22504   2.728   6.803   5.778
 7202SOL    HW122505   2.695   6.760   5.862
 7202SOL    HW222506   2.820   6.840   5.793
 7203SOL     OW22507   5.897   0.281   6.985
 7203SOL    HW122508   5.916   0.186   6.963
 7203SOL    HW222509   5.982   0.333   6.988
 7204SOL     OW22510   6.627   2.349   3.503
 7204SOL    HW122511   6.561   2.278   3.479
 7204SOL    HW222512   6.663   2.332   3.594
 7205SOL     OW22513   1.513   4.297   1.633
 7205SOL    HW122514   1.509   4.387   1.591
 7205SOL    HW222515   1.522   4.307   1.732
 7206SOL     OW22516   6.173   1.383   1.702
 7206SOL    HW122517   6.224   1.419   1.781
 7206SOL    HW222518   6.098   1.446   1.679
 7207SOL     OW22519   4.406   6.705   1.678
 7207SOL    HW122520   4.374   6.659   1.761
 7207SOL    HW222521   4.329   6.743   1.628
 7208SOL     OW22522   2.652   0.641   5.315
 7208SOL    HW122523   2.750   0.646   5.294
 7208SOL    HW222524   2.624   0.721   5.367
 7209SOL     OW22525   2.967   3.727   4.378
 7209SOL    HW122526   2.964   3.723   4.278
 7209SOL    HW222527   2.988   3.821   4.407
 7210SOL     OW22528   4.322   7.018   3.992
 7210SOL    HW122529   4.288   0.060   3.930
 7210SOL    HW222530   4.256   6.943   3.997
 7211SOL     OW22531   0.845   5.070   2.334
 7211SOL    HW122532   0.808   5.162   2.351
 7211SOL    HW222533   0.887   5.036   2.418
 7212SOL     OW22534   5.142   6.583   2.916
 7212SOL    HW122535   5.168   6.616   2.825
 7212SOL    HW222536   5.170   6.649   2.986
 7213SOL     OW22537   5.109   6.248   5.176
 7213SOL    HW122538   5.143   6.308   5.103
 7213SOL    HW222539   5.109   6.298   5.262
 7214SOL     OW22540   0.974   4.981   5.389
 7214SOL    HW122541   0.955   4.935   5.302
 7214SOL    HW222542   0.991   4.913   5.460
 7215SOL     OW22543   1.145   2.925   1.819
 7215SOL    HW122544   1.062   2.930   1.763
 7215SOL    HW222545   1.198   3.009   1.808
 7216SOL     OW22546   2.877   2.267   2.441
 7216SOL    HW122547   2.807   2.321   2.395
 7216SOL    HW222548   2.917   2.202   2.377
 7217SOL     OW22549   0.497   3.585   1.909
 7217SOL    HW122550   0.462   3.672   1.944
 7217SOL    HW222551   0.549   3.539   1.981
 7218SOL     OW22552   6.832   2.420   4.539
 7218SOL    HW122553   6.763   2.483   4.504
 7218SOL    HW222554   6.875   2.373   4.463
 7219SOL     OW22555   3.311   1.072   1.037
 7219SOL    HW122556   3.227   1.026   1.009
 7219SOL    HW222557   3.326   1.058   1.135
 7220SOL     OW22558   6.789   1.965   3.192
 7220SOL    HW122559   6.807   1.984   3.289
 7220SOL    HW222560   6.727   2.034   3.156
 7221SOL     OW22561   6.396   3.846   5.494
 7221SOL    HW122562   6.486   3.845   5.536
 7221SOL    HW222563   6.335   3.784   5.545
 7222SOL     OW22564   6.765   0.222   3.227
 7222SOL    HW122565   6.753   0.163   3.147
 7222SOL    HW222566   6.739   0.172   3.310
 7223SOL     OW22567   4.818   0.764   4.640
 7223SOL    HW122568   4.889   0.745   4.572
 7223SOL    HW222569   4.728   0.763   4.596
 7224SOL     OW22570   5.727   1.783   3.244
 7224SOL    HW122571   5.818   1.742   3.235
 7224SOL    HW222572   5.658   1.719   3.213
 7225SOL     OW22573   2.513   0.359   1.456
 7225SOL    HW122574   2.544   0.415   1.533
 7225SOL    HW222575   2.591   0.335   1.398
 7226SOL     OW22576   6.151   6.286   4.993
 7226SOL    HW122577   6.139   6.225   4.915
 7226SOL    HW222578   6.244   6.324   4.992
 7227SOL     OW22579   7.028   2.472   6.014
 7227SOL    HW122580   6.974   2.553   5.991
 7227SOL    HW222581   6.968   2.403   6.055
 7228SOL     OW22582   2.054   0.736   2.958
 7228SOL    HW122583   2.144   0.727   3.000
 7228SOL    HW222584   2.062   0.787   2.872
 7229SOL     OW22585   0.302   6.856   3.374
 7229SOL    HW122586   0.303   6.953   3.398
 7229SOL    HW222587   0.380   6.811   3.416
 7230SOL     OW22588   6.632   5.325   1.202
 7230SOL    HW122589   6.596   5.250   1.146
 7230SOL    HW222590   6.593   5.319   1.294
 7231SOL     OW22591   5.788   0.991   0.357
 7231SOL    HW122592   5.852   0.920   0.326
 7231SOL    HW222593   5.769   1.054   0.282
 7232SOL     OW22594   3.427   4.001   1.152
 7232SOL    HW122595   3.489   3.971   1.079
 7232SOL    HW222596   3.381   4.085   1.123
 7233SOL     OW22597   1.252   1.810   5.220
 7233SOL    HW122598   1.238   1.889   5.280
 7233SOL    HW222599   1.338   1.819   5.171
 7234SOL     OW22600   4.824   2.048   3.651
 7234SOL    HW122601   4.842   1.953   3.675
 7234SOL    HW222602   4.805   2.054   3.553
 7235SOL     OW22603   5.991   2.542   4.770
 7235SOL    HW122604   6.080   2.569   4.806
 7235SOL    HW222605   6.004   2.483   4.691
 7236SOL     OW22606   1.434   1.947   3.186
 7236SOL    HW122607   1.358   2.010   3.171
 7236SOL    HW222608   1.508   1.969   3.122
 7237SOL     OW22609   5.510   5.232   4.984
 7237SOL    HW122610   5.563   5.313   5.009
 7237SOL    HW222611   5.562   5.150   5.007
 7238SOL     OW22612   1.452   0.068   1.929
 7238SOL    HW122613   1.533   0.107   1.885
 7238SOL    HW222614   1.383   0.048   1.860
 7239SOL     OW22615   4.342   1.784   1.843
 7239SOL    HW122616   4.331   1.812   1.938
 7239SOL    HW222617   4.437   1.797   1.814
 7240SOL     OW22618   3.055   3.941   2.562
 7240SOL    HW122619   3.030   3.894   2.477
 7240SOL    HW222620   3.091   4.032   2.540
 7241SOL     OW22621   4.801   6.731   4.178
 7241SOL    HW122622   4.827   6.676   4.099
 7241SOL    HW222623   4.793   6.672   4.259
 7242SOL     OW22624   6.568   5.951   0.926
 7242SOL    HW122625   6.547   5.855   0.942
 7242SOL    HW222626   6.606   5.992   1.009
 7243SOL     OW22627   0.409   5.557   0.726
 7243SOL    HW122628   0.406   5.545   0.825
 7243SOL    HW222629   0.352   5.635   0.700
 7244SOL     OW22630   5.822   2.048   1.132
 7244SOL    HW122631   5.748   1.982   1.146
 7244SOL    HW222632   5.877   2.055   1.216
 7245SOL     OW22633   5.505   1.610   3.952
 7245SOL    HW122634   5.580   1.555   3.990
 7245SOL    HW222635   5.518   1.619   3.853
 7246SOL     OW22636   1.020   5.801   5.832
 7246SOL    HW122637   1.087   5.773   5.762
 7246SOL    HW222638   0.928   5.782   5.799
 7247SOL     OW22639   4.008   5.849   3.905
 7247SOL    HW122640   3.987   5.798   3.989
 7247SOL    HW222641   4.103   5.880   3.908
 7248SOL     OW22642   2.994   1.126   4.937
 7248SOL    HW122643   3.043   1.211   4.921
 7248SOL    HW222644   3.054   1.048   4.916
 7249SOL     OW22645   4.459   3.214   5.813
 7249SOL    HW122646   4.392   3.216   5.739
 7249SOL    HW222647   4.451   3.297   5.867
 7250SOL     OW22648   2.665   3.551   6.976
 7250SOL    HW122649   2.635   3.552   6.880
 7250SOL    HW222650   2.586   3.559   0.007
 7251SOL     OW22651   6.102   1.201   5.089
 7251SOL    HW122652   6.197   1.200   5.058
 7251SOL    HW222653   6.044   1.154   5.022
 7252SOL     OW22654   4.608   3.424   5.397
 7252SOL    HW122655   4.614   3.478   5.313
 7252SOL    HW222656   4.531   3.454   5.452
 7253SOL     OW22657   4.940   4.699   0.035
 7253SOL    HW122658   4.970   4.791   0.060
 7253SOL    HW222659   4.933   4.692   6.965
 7254SOL     OW22660   4.994   6.654   5.307
 7254SOL    HW122661   5.088   6.675   5.281
 7254SOL    HW222662   4.991   6.621   5.401
 7255SOL     OW22663   3.679   2.890   2.992
 7255SOL    HW122664   3.702   2.986   2.975
 7255SOL    HW222665   3.676   2.841   2.905
 7256SOL     OW22666   3.054   5.527   3.777
 7256SOL    HW122667   3.014   5.439   3.801
 7256SOL    HW222668   3.063   5.583   3.860
 7257SOL     OW22669   6.275   5.021   2.461
 7257SOL    HW122670   6.350   5.078   2.429
 7257SOL    HW222671   6.311   4.951   2.524
 7258SOL     OW22672   2.591   0.292   5.660
 7258SOL    HW122673   2.674   0.238   5.652
 7258SOL    HW222674   2.539   0.263   5.740
 7259SOL     OW22675   3.304   4.009   6.237
 7259SOL    HW122676   3.207   4.032   6.242
 7259SOL    HW222677   3.320   3.948   6.159
 7260SOL     OW22678   4.637   2.691   2.793
 7260SOL    HW122679   4.682   2.772   2.754
 7260SOL    HW222680   4.627   2.704   2.892
 7261SOL     OW22681   2.369   5.092   1.194
 7261SOL    HW122682   2.350   4.994   1.186
 7261SOL    HW222683   2.317   5.142   1.124
 7262SOL     OW22684   6.367   0.454   4.772
 7262SOL    HW122685   6.382   0.488   4.865
 7262SOL    HW222686   6.269   0.445   4.755
 7263SOL     OW22687   5.574   5.148   1.250
 7263SOL    HW122688   5.592   5.125   1.154
 7263SOL    HW222689   5.475   5.158   1.263
 7264SOL     OW22690   0.259   6.382   4.422
 7264SOL    HW122691   0.309   6.342   4.345
 7264SOL    HW222692   0.200   6.455   4.388
 7265SOL     OW22693   4.614   3.498   6.822
 7265SOL    HW122694   4.700   3.549   6.833
 7265SOL    HW222695   4.615   3.451   6.734
 7266SOL     OW22696   4.540   1.652   2.322
 7266SOL    HW122697   4.454   1.607   2.301
 7266SOL    HW222698   4.550   1.661   2.422
 7267SOL     OW22699   5.188   1.648   3.726
 7267SOL    HW122700   5.229   1.628   3.636
 7267SOL    HW222701   5.089   1.634   3.721
 7268SOL     OW22702   4.106   6.650   0.166
 7268SOL    HW122703   4.040   6.646   0.240
 7268SOL    HW222704   4.063   6.691   0.085
 7269SOL     OW22705   1.531   0.106   2.216
 7269SOL    HW122706   1.495   0.104   2.123
 7269SOL    HW222707   1.456   0.111   2.281
 7270SOL     OW22708   3.433   2.205   1.749
 7270SOL    HW122709   3.420   2.273   1.676
 7270SOL    HW222710   3.514   2.229   1.803
 7271SOL     OW22711   5.968   5.356   3.716
 7271SOL    HW122712   5.870   5.378   3.718
 7271SOL    HW222713   6.006   5.384   3.627
 7272SOL     OW22714   5.972   1.953   1.356
 7272SOL    HW122715   5.958   1.855   1.370
 7272SOL    HW222716   5.951   2.002   1.440
 7273SOL     OW22717   5.773   5.524   5.151
 7273SOL    HW122718   5.813   5.554   5.064
 7273SOL    HW222719   5.826   5.447   5.187
 7274SOL     OW22720   5.405   4.948   3.662
 7274SOL    HW122721   5.320   4.908   3.696
 7274SOL    HW222722   5.464   4.970   3.740
 7275SOL     OW22723   6.111   6.932   1.943
 7275SOL    HW122724   6.064   7.011   1.984
 7275SOL    HW222725   6.060   6.849   1.965
 7276SOL     OW22726   4.071   1.617   3.542
 7276SOL    HW122727   4.116   1.537   3.502
 7276SOL    HW222728   4.141   1.681   3.576
 7277SOL     OW22729   6.142   2.190   4.048
 7277SOL    HW122730   6.046   2.165   4.065
 7277SOL    HW222731   6.195   2.106   4.034
 7278SOL     OW22732   3.804   1.612   3.512
 7278SOL    HW122733   3.903   1.601   3.509
 7278SOL    HW222734   3.763   1.535   3.562
 7279SOL     OW22735   3.498   3.675   1.869
 7279SOL    HW122736   3.533   3.764   1.838
 7279SOL    HW222737   3.433   3.689   1.943
 7280SOL     OW22738   6.688   1.518   5.451
 7280SOL    HW122739   6.783   1.521   5.419
 7280SOL    HW222740   6.675   1.588   5.521
 7281SOL     OW22741   3.229   6.629   3.114
 7281SOL    HW122742   3.214   6.675   3.026
 7281SOL    HW222743   3.239   6.698   3.186
 7282SOL     OW22744   0.053   3.652   1.005
 7282SOL    HW122745   0.106   3.568   1.019
 7282SOL    HW222746   6.988   3.636   1.036
 7283SOL     OW22747   3.344   6.115   2.951
 7283SOL    HW122748   3.329   6.206   2.913
 7283SOL    HW222749   3.260   6.084   2.997
 7284SOL     OW22750   0.310   0.094   3.477
 7284SOL    HW122751   0.325   0.193   3.487
 7284SOL    HW222752   0.321   0.049   3.565
 7285SOL     OW22753   5.050   3.102   1.873
 7285SOL    HW122754   5.010   3.187   1.905
 7285SOL    HW222755   4.997   3.025   1.908
 7286SOL     OW22756   6.512   0.835   4.663
 7286SOL    HW122757   6.491   0.930   4.638
 7286SOL    HW222758   6.448   0.805   4.734
 7287SOL     OW22759   2.934   1.739   4.431
 7287SOL    HW122760   2.842   1.749   4.394
 7287SOL    HW222761   2.980   1.828   4.433
 7288SOL     OW22762   3.097   1.842   1.955
 7288SOL    HW122763   3.162   1.894   2.010
 7288SOL    HW222764   3.007   1.885   1.960
 7289SOL     OW22765   6.818   2.197   1.166
 7289SOL    HW122766   6.738   2.154   1.124
 7289SOL    HW222767   6.790   2.280   1.215
 7290SOL     OW22768   3.231   2.198   4.651
 7290SOL    HW122769   3.303   2.259   4.620
 7290SOL    HW222770   3.270   2.107   4.668
 7291SOL     OW22771   0.882   1.148   0.374
 7291SOL    HW122772   0.784   1.157   0.393
 7291SOL    HW222773   0.933   1.215   0.428
 7292SOL     OW22774   4.032   1.115   1.943
 7292SOL    HW122775   4.119   1.083   1.982
 7292SOL    HW222776   3.968   1.038   1.937
 7293SOL     OW22777   6.587   1.144   4.317
 7293SOL    HW122778   6.620   1.211   4.384
 7293SOL    HW222779   6.561   1.191   4.233
 7294SOL     OW22780   3.545   0.502   2.853
 7294SOL    HW122781   3.559   0.601   2.855
 7294SOL    HW222782   3.486   0.475   2.929
 7295SOL     OW22783   5.464   3.931   1.574
 7295SOL    HW122784   5.457   3.855   1.639
 7295SOL    HW222785   5.438   3.899   1.483
 7296SOL     OW22786   3.197   6.895   2.350
 7296SOL    HW122787   3.104   6.864   2.371
 7296SOL    HW222788   3.233   6.946   2.428
 7297SOL     OW22789   3.929   6.954   0.209
 7297SOL    HW122790   3.897   6.859   0.208
 7297SOL    HW222791   3.862   7.012   0.163
 7298SOL     OW22792   3.879   4.504   1.350
 7298SOL    HW122793   3.807   4.523   1.283
 7298SOL    HW222794   3.952   4.572   1.341
 7299SOL     OW22795   0.332   3.210   0.091
 7299SOL    HW122796   0.412   3.254   0.048
 7299SOL    HW222797   0.265   3.186   0.021
 7300SOL     OW22798   0.842   4.087   1.304
 7300SOL    HW122799   0.754   4.135   1.295
 7300SOL    HW222800   0.845   4.040   1.392
 7301SOL     OW22801   4.774   1.633   0.406
 7301SOL    HW122802   4.845   1.693   0.444
 7301SOL    HW222803   4.785   1.628   0.306
 7302SOL     OW22804   5.702   2.044   6.154
 7302SOL    HW122805   5.634   2.035   6.227
 7302SOL    HW222806   5.668   1.999   6.071
 7303SOL     OW22807   3.332   2.012   1.584
 7303SOL    HW122808   3.355   1.988   1.490
 7303SOL    HW222809   3.403   2.071   1.622
 7304SOL     OW22810   2.329   0.004   0.301
 7304SOL    HW122811   2.374   0.085   0.339
 7304SOL    HW222812   2.265   6.995   0.369
 7305SOL     OW22813   6.838   6.718   6.374
 7305SOL    HW122814   6.905   6.783   6.411
 7305SOL    HW222815   6.759   6.768   6.338
 7306SOL     OW22816   2.036   3.741   0.184
 7306SOL    HW122817   1.999   3.672   0.246
 7306SOL    HW222818   2.131   3.717   0.160
 7307SOL     OW22819   3.809   6.245   1.667
 7307SOL    HW122820   3.837   6.314   1.734
 7307SOL    HW222821   3.764   6.289   1.590
 7308SOL     OW22822   3.623   1.846   2.922
 7308SOL    HW122823   3.626   1.945   2.927
 7308SOL    HW222824   3.642   1.817   2.827
 7309SOL     OW22825   2.704   4.746   4.089
 7309SOL    HW122826   2.687   4.733   4.186
 7309SOL    HW222827   2.675   4.838   4.062
 7310SOL     OW22828   3.301   3.302   0.170
 7310SOL    HW122829   3.340   3.289   0.261
 7310SOL    HW222830   3.212   3.257   0.165
 7311SOL     OW22831   1.115   6.776   5.675
 7311SOL    HW122832   1.102   6.680   5.699
 7311SOL    HW222833   1.030   6.815   5.641
 7312SOL     OW22834   6.323   2.170   4.481
 7312SOL    HW122835   6.329   2.074   4.453
 7312SOL    HW222836   6.270   2.221   4.413
 7313SOL     OW22837   3.760   1.000   2.805
 7313SOL    HW122838   3.816   0.961   2.732
 7313SOL    HW222839   3.788   1.095   2.821
 7314SOL     OW22840   2.677   5.741   4.689
 7314SOL    HW122841   2.645   5.670   4.627
 7314SOL    HW222842   2.662   5.712   4.784
 7315SOL     OW22843   2.708   5.418   2.636
 7315SOL    HW122844   2.783   5.395   2.575
 7315SOL    HW222845   2.704   5.517   2.649
 7316SOL     OW22846   3.848   0.915   1.944
 7316SOL    HW122847   3.819   0.848   1.876
 7316SOL    HW222848   3.821   0.883   2.035
 7317SOL     OW22849   6.240   1.894   1.524
 7317SOL    HW122850   6.223   1.986   1.559
 7317SOL    HW222851   6.265   1.900   1.427
 7318SOL     OW22852   5.022   6.137   1.346
 7318SOL    HW122853   5.030   6.046   1.387
 7318SOL    HW222854   5.090   6.198   1.386
 7319SOL     OW22855   4.383   5.616   6.037
 7319SOL    HW122856   4.400   5.677   5.960
 7319SOL    HW222857   4.469   5.576   6.068
 7320SOL     OW22858   1.351   2.720   0.600
 7320SOL    HW122859   1.300   2.798   0.564
 7320SOL    HW222860   1.329   2.639   0.545
 7321SOL     OW22861   2.189   2.531   5.654
 7321SOL    HW122862   2.200   2.563   5.560
 7321SOL    HW222863   2.180   2.610   5.716
 7322SOL     OW22864   2.185   2.004   4.655
 7322SOL    HW122865   2.131   2.065   4.713
 7322SOL    HW222866   2.165   2.025   4.559
 7323SOL     OW22867   2.537   1.702   1.071
 7323SOL    HW122868   2.443   1.702   1.036
 7323SOL    HW222869   2.568   1.608   1.083
 7324SOL     OW22870   5.042   3.761   4.509
 7324SOL    HW122871   5.031   3.688   4.442
 7324SOL    HW222872   5.129   3.807   4.495
 7325SOL     OW22873   3.512   0.831   6.336
 7325SOL    HW122874   3.452   0.844   6.414
 7325SOL    HW222875   3.578   0.906   6.332
 7326SOL     OW22876   3.667   6.358   0.556
 7326SOL    HW122877   3.742   6.339   0.620
 7326SOL    HW222878   3.698   6.341   0.462
 7327SOL     OW22879   1.410   4.423   3.185
 7327SOL    HW122880   1.323   4.396   3.144
 7327SOL    HW222881   1.465   4.342   3.203
 7328SOL     OW22882   4.563   5.002   6.499
 7328SOL    HW122883   4.493   5.039   6.437
 7328SOL    HW222884   4.646   5.058   6.492
 7329SOL     OW22885   2.774   3.695   6.597
 7329SOL    HW122886   2.690   3.740   6.568
 7329SOL    HW222887   2.849   3.721   6.537
 7330SOL     OW22888   2.312   3.683   0.931
 7330SOL    HW122889   2.275   3.667   0.839
 7330SOL    HW222890   2.236   3.690   0.996
 7331SOL     OW22891   5.214   1.307   2.642
 7331SOL    HW122892   5.278   1.234   2.668
 7331SOL    HW222893   5.246   1.351   2.559
 7332SOL     OW22894   2.436   6.822   5.210
 7332SOL    HW122895   2.428   6.795   5.306
 7332SOL    HW222896   2.456   6.920   5.204
 7333SOL     OW22897   6.401   0.810   1.829
 7333SOL    HW122898   6.377   0.785   1.735
 7333SOL    HW222899   6.480   0.871   1.828
 7334SOL     OW22900   0.937   4.690   4.527
 7334SOL    HW122901   0.855   4.683   4.471
 7334SOL    HW222902   0.915   4.737   4.613
 7335SOL     OW22903   0.520   3.206   2.515
 7335SOL    HW122904   0.578   3.224   2.594
 7335SOL    HW222905   0.426   3.189   2.545
 7336SOL     OW22906   2.492   0.349   1.075
 7336SOL    HW122907   2.524   0.272   1.020
 7336SOL    HW222908   2.549   0.356   1.158
 7337SOL     OW22909   3.215   1.787   2.402
 7337SOL    HW122910   3.294   1.833   2.362
 7337SOL    HW222911   3.166   1.737   2.331
 7338SOL     OW22912   5.542   3.399   0.455
 7338SOL    HW122913   5.620   3.351   0.495
 7338SOL    HW222914   5.458   3.370   0.502
 7339SOL     OW22915   6.780   0.327   3.877
 7339SOL    HW122916   6.684   0.336   3.906
 7339SOL    HW222917   6.839   0.322   3.958
 7340SOL     OW22918   2.802   6.709   0.701
 7340SOL    HW122919   2.872   6.773   0.667
 7340SOL    HW222920   2.826   6.616   0.673
 7341SOL     OW22921   6.362   5.582   3.463
 7341SOL    HW122922   6.362   5.533   3.376
 7341SOL    HW222923   6.309   5.666   3.453
 7342SOL     OW22924   0.254   5.660   0.319
 7342SOL    HW122925   0.275   5.585   0.382
 7342SOL    HW222926   0.222   5.622   0.232
 7343SOL     OW22927   0.290   2.437   2.913
 7343SOL    HW122928   0.261   2.395   2.999
 7343SOL    HW222929   0.209   2.460   2.859
 7344SOL     OW22930   1.836   1.137   5.928
 7344SOL    HW122931   1.831   1.213   5.864
 7344SOL    HW222932   1.925   1.091   5.920
 7345SOL     OW22933   1.523   6.745   6.597
 7345SOL    HW122934   1.478   6.692   6.669
 7345SOL    HW222935   1.608   6.700   6.571
 7346SOL     OW22936   3.328   5.352   3.840
 7346SOL    HW122937   3.416   5.305   3.849
 7346SOL    HW222938   3.266   5.295   3.787
 7347SOL     OW22939   5.849   3.335   3.549
 7347SOL    HW122940   5.762   3.296   3.579
 7347SOL    HW222941   5.913   3.262   3.529
 7348SOL     OW22942   5.742   0.478   6.653
 7348SOL    HW122943   5.739   0.394   6.600
 7348SOL    HW222944   5.811   0.471   6.725
 7349SOL     OW22945   3.701   2.025   1.411
 7349SOL    HW122946   3.667   2.015   1.318
 7349SOL    HW222947   3.678   2.116   1.446
 7350SOL     OW22948   1.696   1.231   3.248
 7350SOL    HW122949   1.611   1.247   3.199
 7350SOL    HW222950   1.771   1.279   3.202
 7351SOL     OW22951   5.588   4.766   0.148
 7351SOL    HW122952   5.535   4.681   0.157
 7351SOL    HW222953   5.537   4.831   0.091
 7352SOL     OW22954   6.666   1.369   3.283
 7352SOL    HW122955   6.576   1.385   3.241
 7352SOL    HW222956   6.734   1.428   3.241
 7353SOL     OW22957   5.234   1.710   5.038
 7353SOL    HW122958   5.268   1.672   5.124
 7353SOL    HW222959   5.291   1.787   5.011
 7354SOL     OW22960   5.425   4.196   5.298
 7354SOL    HW122961   5.489   4.270   5.281
 7354SOL    HW222962   5.451   4.116   5.243
 7355SOL     OW22963   6.708   5.760   0.746
 7355SOL    HW122964   6.677   5.786   0.654
 7355SOL    HW222965   6.630   5.725   0.798
 7356SOL     OW22966   6.714   1.989   5.875
 7356SOL    HW122967   6.748   1.991   5.781
 7356SOL    HW222968   6.787   1.955   5.935
 7357SOL     OW22969   0.227   1.685   0.525
 7357SOL    HW122970   0.288   1.740   0.581
 7357SOL    HW222971   0.197   1.605   0.577
 7358SOL     OW22972   3.127   0.857   3.553
 7358SOL    HW122973   3.068   0.920   3.503
 7358SOL    HW222974   3.191   0.813   3.489
 7359SOL     OW22975   3.004   3.779   4.105
 7359SOL    HW122976   3.080   3.836   4.073
 7359SOL    HW222977   2.979   3.713   4.034
 7360SOL     OW22978   1.284   4.247   6.369
 7360SOL    HW122979   1.226   4.275   6.293
 7360SOL    HW222980   1.375   4.222   6.335
 7361SOL     OW22981   5.001   6.928   1.638
 7361SOL    HW122982   4.953   6.879   1.565
 7361SOL    HW222983   5.030   7.018   1.605
 7362SOL     OW22984   1.199   5.652   6.721
 7362SOL    HW122985   1.266   5.687   6.787
 7362SOL    HW222986   1.215   5.555   6.706
 7363SOL     OW22987   4.397   1.988   6.364
 7363SOL    HW122988   4.348   2.048   6.427
 7363SOL    HW222989   4.479   1.952   6.409
 7364SOL     OW22990   5.254   7.025   0.895
 7364SOL    HW122991   5.181   6.968   0.934
 7364SOL    HW222992   5.222   0.039   0.811
 7365SOL     OW22993   4.840   6.837   1.421
 7365SOL    HW122994   4.810   6.745   1.394
 7365SOL    HW222995   4.761   6.888   1.456
 7366SOL     OW22996   2.368   0.218   0.667
 7366SOL    HW122997   2.304   0.272   0.613
 7366SOL    HW222998   2.460   0.255   0.658
 7367SOL     OW22999   4.380   3.017   6.850
 7367SOL    HW123000   4.372   3.116   6.867
 7367SOL    HW223001   4.448   2.978   6.912
 7368SOL     OW23002   2.925   3.365   4.744
 7368SOL    HW123003   2.936   3.420   4.661
 7368SOL    HW223004   2.828   3.365   4.772
 7369SOL     OW23005   6.558   0.431   6.699
 7369SOL    HW123006   6.603   0.505   6.649
 7369SOL    HW223007   6.579   0.343   6.657
 7370SOL     OW23008   0.638   6.165   0.754
 7370SOL    HW123009   0.697   6.239   0.785
 7370SOL    HW223010   0.618   6.177   0.656
 7371SOL     OW23011   1.562   5.136   3.925
 7371SOL    HW123012   1.518   5.074   3.989
 7371SOL    HW223013   1.576   5.090   3.837
 7372SOL     OW23014   2.660   0.308   5.148
 7372SOL    HW123015   2.648   0.220   5.103
 7372SOL    HW223016   2.748   0.309   5.197
 7373SOL     OW23017   3.569   1.268   1.253
 7373SOL    HW123018   3.570   1.368   1.250
 7373SOL    HW223019   3.591   1.233   1.162
 7374SOL     OW23020   2.182   3.860   0.607
 7374SOL    HW123021   2.282   3.860   0.600
 7374SOL    HW223022   2.152   3.781   0.662
 7375SOL     OW23023   2.543   6.019   3.374
 7375SOL    HW123024   2.615   5.961   3.414
 7375SOL    HW223025   2.455   5.995   3.416
 7376SOL     OW23026   3.210   3.971   6.985
 7376SOL    HW123027   3.169   4.047   6.935
 7376SOL    HW223028   3.189   3.980   0.053
 7377SOL     OW23029   5.962   5.663   1.597
 7377SOL    HW123030   5.869   5.629   1.612
 7377SOL    HW223031   5.960   5.763   1.597
 7378SOL     OW23032   0.850   2.256   5.776
 7378SOL    HW123033   0.762   2.298   5.758
 7378SOL    HW223034   0.880   2.205   5.696
 7379SOL     OW23035   4.452   0.174   0.555
 7379SOL    HW123036   4.418   0.133   0.640
 7379SOL    HW223037   4.549   0.151   0.545
 7380SOL     OW23038   6.941   2.989   6.337
 7380SOL    HW123039   6.861   2.968   6.281
 7380SOL    HW223040   6.994   3.062   6.294
 7381SOL     OW23041   5.108   2.468   0.579
 7381SOL    HW123042   5.077   2.543   0.520
 7381SOL    HW223043   5.040   2.452   0.651
 7382SOL     OW23044   1.203   5.297   4.164
 7382SOL    HW123045   1.125   5.240   4.135
 7382SOL    HW223046   1.252   5.251   4.238
 7383SOL     OW23047   1.663   4.532   2.543
 7383SOL    HW123048   1.737   4.580   2.496
 7383SOL    HW223049   1.661   4.437   2.513
 7384SOL     OW23050   6.195   1.998   1.203
 7384SOL    HW123051   6.115   2.006   1.263
 7384SOL    HW223052   6.263   2.067   1.229
 7385SOL     OW23053   5.626   0.378   2.075
 7385SOL    HW123054   5.624   0.413   1.981
 7385SOL    HW223055   5.689   0.433   2.130
 7386SOL     OW23056   6.587   1.747   5.708
 7386SOL    HW123057   6.623   1.838   5.729
 7386SOL    HW223058   6.489   1.744   5.730
 7387SOL     OW23059   4.449   6.496   3.428
 7387SOL    HW123060   4.452   6.593   3.404
 7387SOL    HW223061   4.364   6.476   3.477
 7388SOL     OW23062   4.887   3.902   4.686
 7388SOL    HW123063   4.906   3.907   4.784
 7388SOL    HW223064   4.954   3.843   4.641
 7389SOL     OW23065   1.565   2.982   5.325
 7389SOL    HW123066   1.563   2.978   5.425
 7389SOL    HW223067   1.660   2.994   5.294
 7390SOL     OW23068   4.474   6.764   6.994
 7390SOL    HW123069   4.552   6.778   0.026
 7390SOL    HW223070   4.454   6.850   6.946
 7391SOL     OW23071   0.239   5.111   0.013
 7391SOL    HW123072   0.247   5.178   0.086
 7391SOL    HW223073   0.231   5.158   6.954
 7392SOL     OW23074   1.772   4.415   2.212
 7392SOL    HW123075   1.685   4.441   2.169
 7392SOL    HW223076   1.795   4.481   2.283
 7393SOL     OW23077   1.232   3.950   0.522
 7393SOL    HW123078   1.145   3.902   0.523
 7393SOL    HW223079   1.230   4.022   0.453
 7394SOL     OW23080   2.445   3.383   6.562
 7394SOL    HW123081   2.460   3.285   6.545
 7394SOL    HW223082   2.348   3.400   6.576
 7395SOL     OW23083   2.652   0.669   0.121
 7395SOL    HW123084   2.687   0.576   0.120
 7395SOL    HW223085   2.709   0.726   0.062
 7396SOL     OW23086   6.746   6.601   2.630
 7396SOL    HW123087   6.737   6.559   2.539
 7396SOL    HW223088   6.784   6.533   2.694
 7397SOL     OW23089   6.412   4.329   4.251
 7397SOL    HW123090   6.370   4.364   4.335
 7397SOL    HW223091   6.493   4.276   4.275
 7398SOL     OW23092   4.554   6.305   2.723
 7398SOL    HW123093   4.615   6.263   2.656
 7398SOL    HW223094   4.603   6.320   2.808
 7399SOL     OW23095   5.267   6.147   3.969
 7399SOL    HW123096   5.320   6.124   3.888
 7399SOL    HW223097   5.216   6.067   4.000
 7400SOL     OW23098   2.447   4.247   6.880
 7400SOL    HW123099   2.533   4.293   6.855
 7400SOL    HW223100   2.459   4.198   6.966
 7401SOL     OW23101   6.143   3.160   4.055
 7401SOL    HW123102   6.067   3.148   3.991
 7401SOL    HW223103   6.110   3.152   4.149
 7402SOL     OW23104   1.934   6.128   4.479
 7402SOL    HW123105   1.940   6.227   4.471
 7402SOL    HW223106   1.980   6.085   4.400
 7403SOL     OW23107   2.327   3.228   1.743
 7403SOL    HW123108   2.336   3.312   1.797
 7403SOL    HW223109   2.231   3.213   1.721
 7404SOL     OW23110   1.199   2.951   3.045
 7404SOL    HW123111   1.102   2.963   3.064
 7404SOL    HW223112   1.233   3.029   2.992
 7405SOL     OW23113   3.407   4.564   6.161
 7405SOL    HW123114   3.353   4.571   6.077
 7405SOL    HW223115   3.359   4.507   6.228
 7406SOL     OW23116   0.153   5.912   2.668
 7406SOL    HW123117   0.171   5.983   2.600
 7406SOL    HW223118   0.058   5.920   2.701
 7407SOL     OW23119   3.533   1.439   5.470
 7407SOL    HW123120   3.572   1.356   5.431
 7407SOL    HW223121   3.594   1.475   5.541
 7408SOL     OW23122   1.437   3.757   5.322
 7408SOL    HW123123   1.496   3.803   5.256
 7408SOL    HW223124   1.392   3.679   5.277
 7409SOL     OW23125   2.577   0.003   4.263
 7409SOL    HW123126   2.550   6.956   4.322
 7409SOL    HW223127   2.535   7.020   4.173
 7410SOL     OW23128   5.054   5.659   5.822
 7410SOL    HW123129   4.988   5.630   5.892
 7410SOL    HW223130   5.069   5.758   5.829
 7411SOL     OW23131   5.797   3.878   5.697
 7411SOL    HW123132   5.781   3.851   5.602
 7411SOL    HW223133   5.743   3.960   5.717
 7412SOL     OW23134   1.194   1.152   0.313
 7412SOL    HW123135   1.125   1.080   0.315
 7412SOL    HW223136   1.179   1.215   0.389
 7413SOL     OW23137   6.688   3.684   3.656
 7413SOL    HW123138   6.733   3.647   3.737
 7413SOL    HW223139   6.757   3.711   3.589
 7414SOL     OW23140   0.515   5.229   1.572
 7414SOL    HW123141   0.492   5.322   1.544
 7414SOL    HW223142   0.595   5.197   1.520
 7415SOL     OW23143   3.361   1.608   2.871
 7415SOL    HW123144   3.441   1.559   2.906
 7415SOL    HW223145   3.384   1.705   2.858
 7416SOL     OW23146   6.380   0.006   2.815
 7416SOL    HW123147   6.418   6.966   2.754
 7416SOL    HW223148   6.433   0.091   2.808
 7417SOL     OW23149   0.356   5.018   1.285
 7417SOL    HW123150   0.343   5.039   1.382
 7417SOL    HW223151   0.454   5.021   1.264
 7418SOL     OW23152   1.588   3.857   0.511
 7418SOL    HW123153   1.541   3.857   0.599
 7418SOL    HW223154   1.640   3.772   0.502
 7419SOL     OW23155   6.312   2.217   5.737
 7419SOL    HW123156   6.368   2.227   5.819
 7419SOL    HW223157   6.255   2.136   5.746
 7420SOL     OW23158   0.374   5.630   1.974
 7420SOL    HW123159   0.428   5.614   1.892
 7420SOL    HW223160   0.315   5.551   1.990
 7421SOL     OW23161   4.102   1.896   1.734
 7421SOL    HW123162   4.057   1.923   1.819
 7421SOL    HW223163   4.192   1.858   1.754
 7422SOL     OW23164   0.894   2.046   1.098
 7422SOL    HW123165   0.902   2.131   1.045
 7422SOL    HW223166   0.975   1.989   1.080
 7423SOL     OW23167   2.824   3.800   0.558
 7423SOL    HW123168   2.842   3.703   0.540
 7423SOL    HW223169   2.911   3.847   0.574
 7424SOL     OW23170   5.053   0.851   3.615
 7424SOL    HW123171   4.993   0.773   3.596
 7424SOL    HW223172   5.005   0.936   3.591
 7425SOL     OW23173   3.499   0.216   4.400
 7425SOL    HW123174   3.487   0.141   4.335
 7425SOL    HW223175   3.422   0.279   4.394
 7426SOL     OW23176   0.262   0.651   6.556
 7426SOL    HW123177   0.311   0.675   6.640
 7426SOL    HW223178   0.171   0.692   6.557
 7427SOL     OW23179   5.646   4.991   5.095
 7427SOL    HW123180   5.611   4.899   5.111
 7427SOL    HW223181   5.746   4.988   5.094
 7428SOL     OW23182   4.969   1.168   5.277
 7428SOL    HW123183   4.910   1.126   5.346
 7428SOL    HW223184   5.064   1.142   5.293
 7429SOL     OW23185   6.269   6.290   3.952
 7429SOL    HW123186   6.336   6.336   3.893
 7429SOL    HW223187   6.264   6.337   4.040
 7430SOL     OW23188   0.435   4.024   4.166
 7430SOL    HW123189   0.375   4.061   4.095
 7430SOL    HW223190   0.394   4.040   4.256
 7431SOL     OW23191   6.960   3.949   2.634
 7431SOL    HW123192   7.000   4.000   2.710
 7431SOL    HW223193   6.980   3.996   2.548
 7432SOL     OW23194   1.958   5.883   5.884
 7432SOL    HW123195   2.013   5.805   5.857
 7432SOL    HW223196   1.924   5.930   5.802
 7433SOL     OW23197   0.280   6.991   1.063
 7433SOL    HW123198   0.274   0.047   1.011
 7433SOL    HW223199   0.334   7.006   1.146
 7434SOL     OW23200   4.996   6.586   0.290
 7434SOL    HW123201   5.006   6.676   0.248
 7434SOL    HW223202   4.922   6.536   0.245
 7435SOL     OW23203   0.980   5.246   0.092
 7435SOL    HW123204   0.902   5.243   0.154
 7435SOL    HW223205   1.021   5.337   0.093
 7436SOL     OW23206   4.891   3.519   6.728
 7436SOL    HW123207   4.911   3.600   6.672
 7436SOL    HW223208   4.899   3.543   6.825
 7437SOL     OW23209   0.348   6.516   5.471
 7437SOL    HW123210   0.282   6.576   5.426
 7437SOL    HW223211   0.349   6.535   5.569
 7438SOL     OW23212   5.703   3.767   0.717
 7438SOL    HW123213   5.799   3.795   0.726
 7438SOL    HW223214   5.644   3.843   0.741
 7439SOL     OW23215   0.977   6.631   3.041
 7439SOL    HW123216   0.993   6.613   2.944
 7439SOL    HW223217   1.035   6.706   3.070
 7440SOL     OW23218   0.289   1.119   4.249
 7440SOL    HW123219   0.241   1.143   4.333
 7440SOL    HW223220   0.227   1.070   4.187
 7441SOL     OW23221   6.685   0.397   4.192
 7441SOL    HW123222   6.646   0.381   4.101
 7441SOL    HW223223   6.715   0.310   4.231
 7442SOL     OW23224   1.598   0.982   6.814
 7442SOL    HW123225   1.571   0.972   6.910
 7442SOL    HW223226   1.518   1.003   6.759
 7443SOL     OW23227   6.805   2.153   2.146
 7443SOL    HW123228   6.902   2.166   2.122
 7443SOL    HW223229   6.780   2.215   2.220
 7444SOL     OW23230   1.314   2.598   5.457
 7444SOL    HW123231   1.312   2.583   5.359
 7444SOL    HW223232   1.247   2.539   5.502
 7445SOL     OW23233   5.913   2.933   1.817
 7445SOL    HW123234   5.993   2.970   1.866
 7445SOL    HW223235   5.911   2.834   1.829
 7446SOL     OW23236   4.686   4.181   2.746
 7446SOL    HW123237   4.710   4.130   2.664
 7446SOL    HW223238   4.634   4.262   2.720
 7447SOL     OW23239   0.979   3.975   6.581
 7447SOL    HW123240   0.902   4.034   6.557
 7447SOL    HW223241   1.040   3.966   6.502
 7448SOL     OW23242   0.534   1.375   5.936
 7448SOL    HW123243   0.632   1.394   5.942
 7448SOL    HW223244   0.517   1.318   5.856
 7449SOL     OW23245   3.752   0.353   2.295
 7449SOL    HW123246   3.787   0.273   2.343
 7449SOL    HW223247   3.659   0.374   2.327
 7450SOL     OW23248   3.615   1.831   1.749
 7450SOL    HW123249   3.659   1.921   1.736
 7450SOL    HW223250   3.589   1.794   1.660
 7451SOL     OW23251   1.265   0.600   1.990
 7451SOL    HW123252   1.278   0.674   2.057
 7451SOL    HW223253   1.347   0.593   1.933
 7452SOL     OW23254   1.691   6.104   3.459
 7452SOL    HW123255   1.626   6.171   3.424
 7452SOL    HW223256   1.712   6.125   3.555
 7453SOL     OW23257   6.463   4.544   4.681
 7453SOL    HW123258   6.541   4.485   4.660
 7453SOL    HW223259   6.453   4.553   4.780
 7454SOL     OW23260   2.318   2.517   6.977
 7454SOL    HW123261   2.231   2.469   6.985
 7454SOL    HW223262   2.386   2.456   6.937
 7455SOL     OW23263   5.019   6.859   0.986
 7455SOL    HW123264   4.964   6.777   0.974
 7455SOL    HW223265   4.966   6.939   0.959
 7456SOL     OW23266   1.092   4.033   5.892
 7456SOL    HW123267   1.106   4.028   5.793
 7456SOL    HW223268   1.165   3.981   5.937
 7457SOL     OW23269   0.230   6.010   5.996
 7457SOL    HW123270   0.221   6.092   5.938
 7457SOL    HW223271   0.160   5.943   5.970
 7458SOL     OW23272   3.071   0.350   1.605
 7458SOL    HW123273   3.142   0.279   1.600
 7458SOL    HW223274   3.112   0.436   1.633
 7459SOL     OW23275   3.557   6.097   3.984
 7459SOL    HW123276   3.514   6.069   3.898
 7459SOL    HW223277   3.487   6.110   4.054
 7460SOL     OW23278   0.576   5.443   6.545
 7460SOL    HW123279   0.675   5.434   6.560
 7460SOL    HW223280   0.549   5.538   6.562
 7461SOL     OW23281   4.420   0.862   3.488
 7461SOL    HW123282   4.368   0.781   3.517
 7461SOL    HW223283   4.363   0.918   3.428
 7462SOL     OW23284   2.302   1.669   3.822
 7462SOL    HW123285   2.388   1.618   3.813
 7462SOL    HW223286   2.314   1.761   3.787
 7463SOL     OW23287   3.926   3.918   2.580
 7463SOL    HW123288   3.878   3.843   2.625
 7463SOL    HW223289   3.981   3.882   2.505
 7464SOL     OW23290   4.545   5.753   6.920
 7464SOL    HW123291   4.583   5.779   7.008
 7464SOL    HW223292   4.597   5.798   6.847
 7465SOL     OW23293   3.864   1.593   2.698
 7465SOL    HW123294   3.838   1.676   2.649
 7465SOL    HW223295   3.843   1.513   2.641
 7466SOL     OW23296   6.177   0.387   0.287
 7466SOL    HW123297   6.242   0.351   0.220
 7466SOL    HW223298   6.223   0.454   0.345
 7467SOL     OW23299   4.631   2.313   0.793
 7467SOL    HW123300   4.707   2.279   0.737
 7467SOL    HW223301   4.556   2.247   0.790
 7468SOL     OW23302   5.484   4.381   4.714
 7468SOL    HW123303   5.575   4.340   4.712
 7468SOL    HW223304   5.478   4.444   4.792
 7469SOL     OW23305   5.295   1.874   2.020
 7469SOL    HW123306   5.380   1.924   2.004
 7469SOL    HW223307   5.230   1.895   1.947
 7470SOL     OW23308   0.159   3.316   3.458
 7470SOL    HW123309   0.096   3.314   3.380
 7470SOL    HW223310   0.246   3.356   3.429
 7471SOL     OW23311   6.677   4.585   5.358
 7471SOL    HW123312   6.676   4.612   5.262
 7471SOL    HW223313   6.699   4.665   5.414
 7472SOL     OW23314   4.065   5.181   3.146
 7472SOL    HW123315   4.091   5.104   3.204
 7472SOL    HW223316   4.091   5.163   3.051
 7473SOL     OW23317   1.483   2.536   6.644
 7473SOL    HW123318   1.554   2.558   6.577
 7473SOL    HW223319   1.401   2.503   6.596
 7474SOL     OW23320   2.596   1.477   2.232
 7474SOL    HW123321   2.613   1.560   2.286
 7474SOL    HW223322   2.662   1.472   2.158
 7475SOL     OW23323   5.278   0.591   5.856
 7475SOL    HW123324   5.219   0.671   5.844
 7475SOL    HW223325   5.234   0.511   5.814
 7476SOL     OW23326   2.007   6.818   4.688
 7476SOL    HW123327   1.935   6.783   4.747
 7476SOL    HW223328   2.093   6.772   4.710
 7477SOL     OW23329   4.929   4.308   4.158
 7477SOL    HW123330   4.834   4.292   4.185
 7477SOL    HW223331   4.978   4.221   4.157
 7478SOL     OW23332   0.438   4.778   1.654
 7478SOL    HW123333   0.510   4.709   1.657
 7478SOL    HW223334   0.474   4.862   1.613
 7479SOL     OW23335   3.635   0.549   5.117
 7479SOL    HW123336   3.625   0.471   5.055
 7479SOL    HW223337   3.545   0.589   5.135
 7480SOL     OW23338   5.940   5.258   6.905
 7480SOL    HW123339   5.998   5.240   6.826
 7480SOL    HW223340   5.844   5.267   6.875
 7481SOL     OW23341   6.260   6.244   0.123
 7481SOL    HW123342   6.216   6.167   0.075
 7481SOL    HW223343   6.359   6.239   0.110
 7482SOL     OW23344   4.699   7.000   4.744
 7482SOL    HW123345   4.655   0.050   4.786
 7482SOL    HW223346   4.647   6.971   4.664
 7483SOL     OW23347   3.535   6.941   6.881
 7483SOL    HW123348   3.492   6.898   6.801
 7483SOL    HW223349   3.579   7.026   6.853
 7484SOL     OW23350   3.529   6.811   1.142
 7484SOL    HW123351   3.600   6.785   1.076
 7484SOL    HW223352   3.571   6.864   1.216
 7485SOL     OW23353   0.813   6.365   5.335
 7485SOL    HW123354   0.758   6.379   5.253
 7485SOL    HW223355   0.839   6.454   5.374
 7486SOL     OW23356   1.351   2.010   5.416
 7486SOL    HW123357   1.378   2.088   5.473
 7486SOL    HW223358   1.431   1.952   5.400
 7487SOL     OW23359   3.472   5.205   2.754
 7487SOL    HW123360   3.476   5.109   2.780
 7487SOL    HW223361   3.562   5.247   2.766
 7488SOL     OW23362   4.505   1.191   5.193
 7488SOL    HW123363   4.438   1.237   5.136
 7488SOL    HW223364   4.597   1.209   5.158
 7489SOL     OW23365   0.253   3.466   3.141
 7489SOL    HW123366   0.328   3.404   3.165
 7489SOL    HW223367   0.169   3.435   3.186
 7490SOL     OW23368   5.534   6.713   2.711
 7490SOL    HW123369   5.576   6.799   2.737
 7490SOL    HW223370   5.538   6.649   2.788
 7491SOL     OW23371   0.173   0.412   0.993
 7491SOL    HW123372   0.199   0.388   1.087
 7491SOL    HW223373   0.153   0.328   0.942
 7492SOL     OW23374   2.265   1.870   3.274
 7492SOL    HW123375   2.252   1.809   3.352
 7492SOL    HW223376   2.361   1.869   3.246
 7493SOL     OW23377   5.221   4.416   6.331
 7493SOL    HW123378   5.201   4.406   6.233
 7493SOL    HW223379   5.318   4.398   6.347
 7494SOL     OW23380   5.138   1.718   1.423
 7494SOL    HW123381   5.192   1.716   1.507
 7494SOL    HW223382   5.052   1.765   1.440
 7495SOL     OW23383   1.329   1.716   3.281
 7495SOL    HW123384   1.246   1.739   3.331
 7495SOL    HW223385   1.377   1.800   3.256
 7496SOL     OW23386   0.642   5.202   5.750
 7496SOL    HW123387   0.582   5.230   5.674
 7496SOL    HW223388   0.730   5.248   5.741
 7497SOL     OW23389   1.400   4.802   2.897
 7497SOL    HW123390   1.321   4.862   2.910
 7497SOL    HW223391   1.450   4.830   2.814
 7498SOL     OW23392   5.384   1.883   4.285
 7498SOL    HW123393   5.395   1.981   4.298
 7498SOL    HW223394   5.470   1.844   4.249
 7499SOL     OW23395   3.630   5.155   3.485
 7499SOL    HW123396   3.714   5.188   3.442
 7499SOL    HW223397   3.653   5.092   3.560
 7500SOL     OW23398   4.749   3.901   1.602
 7500SOL    HW123399   4.658   3.943   1.611
 7500SOL    HW223400   4.766   3.881   1.506
 7501SOL     OW23401   0.629   4.321   3.954
 7501SOL    HW123402   0.727   4.336   3.938
 7501SOL    HW223403   0.594   4.391   4.016
 7502SOL     OW23404   1.554   2.107   4.068
 7502SOL    HW123405   1.543   2.196   4.023
 7502SOL    HW223406   1.583   2.121   4.163
 7503SOL     OW23407   2.599   2.030   6.692
 7503SOL    HW123408   2.626   2.108   6.636
 7503SOL    HW223409   2.539   1.970   6.640
 7504SOL     OW23410   4.647   5.631   4.474
 7504SOL    HW123411   4.690   5.708   4.426
 7504SOL    HW223412   4.622   5.659   4.567
 7505SOL     OW23413   1.895   1.434   4.026
 7505SOL    HW123414   1.871   1.412   4.121
 7505SOL    HW223415   1.991   1.412   4.010
 7506SOL     OW23416   3.733   0.900   3.093
 7506SOL    HW123417   3.817   0.850   3.114
 7506SOL    HW223418   3.740   0.941   3.002
 7507SOL     OW23419   1.803   7.005   5.449
 7507SOL    HW123420   1.839   6.942   5.518
 7507SOL    HW223421   1.843   6.983   5.360
 7508SOL     OW23422   5.566   6.039   3.043
 7508SOL    HW123423   5.527   6.018   2.954
 7508SOL    HW223424   5.654   6.086   3.031
 7509SOL     OW23425   3.763   4.270   6.013
 7509SOL    HW123426   3.770   4.348   5.951
 7509SOL    HW223427   3.693   4.207   5.978
 7510SOL     OW23428   3.484   3.451   4.728
 7510SOL    HW123429   3.499   3.525   4.663
 7510SOL    HW223430   3.403   3.399   4.701
 7511SOL     OW23431   1.189   1.381   2.690
 7511SOL    HW123432   1.116   1.374   2.622
 7511SOL    HW223433   1.273   1.414   2.646
 7512SOL     OW23434   2.167   2.977   2.439
 7512SOL    HW123435   2.229   3.052   2.418
 7512SOL    HW223436   2.075   3.000   2.407
 7513SOL     OW23437   2.047   3.390   6.809
 7513SOL    HW123438   2.062   3.316   6.875
 7513SOL    HW223439   1.951   3.418   6.812
 7514SOL     OW23440   3.073   5.493   3.521
 7514SOL    HW123441   3.073   5.493   3.621
 7514SOL    HW223442   3.103   5.582   3.488
 7515SOL     OW23443   0.109   4.705   3.113
 7515SOL    HW123444   0.138   4.610   3.124
 7515SOL    HW223445   0.127   4.736   3.020
 7516SOL     OW23446   2.052   3.107   1.538
 7516SOL    HW123447   2.008   3.054   1.610
 7516SOL    HW223448   1.987   3.122   1.463
 7517SOL     OW23449   1.145   4.916   2.324
 7517SOL    HW123450   1.123   4.979   2.398
 7517SOL    HW223451   1.075   4.845   2.318
 7518SOL     OW23452   4.881   4.068   2.910
 7518SOL    HW123453   4.930   4.147   2.948
 7518SOL    HW223454   4.801   4.100   2.859
 7519SOL     OW23455   2.034   0.011   4.538
 7519SOL    HW123456   2.029   6.964   4.603
 7519SOL    HW223457   1.943   0.029   4.501
 7520SOL     OW23458   2.109   0.112   4.170
 7520SOL    HW123459   2.099   0.208   4.197
 7520SOL    HW223460   2.098   0.103   4.071
 7521SOL     OW23461   4.349   3.123   5.535
 7521SOL    HW123462   4.424   3.142   5.472
 7521SOL    HW223463   4.362   3.033   5.577
 7522SOL     OW23464   1.871   6.722   2.502
 7522SOL    HW123465   1.790   6.777   2.481
 7522SOL    HW223466   1.952   6.766   2.463
 7523SOL     OW23467   0.006   6.681   6.689
 7523SOL    HW123468   0.002   6.732   6.603
 7523SOL    HW223469   7.000   6.739   6.763
 7524SOL     OW23470   6.522   1.235   5.086
 7524SOL    HW123471   6.500   1.313   5.145
 7524SOL    HW223472   6.604   1.256   5.032
 7525SOL     OW23473   0.638   0.768   0.759
 7525SOL    HW123474   0.654   0.681   0.713
 7525SOL    HW223475   0.653   0.843   0.694
 7526SOL     OW23476   3.648   3.309   5.823
 7526SOL    HW123477   3.691   3.317   5.733
 7526SOL    HW223478   3.719   3.298   5.892
 7527SOL     OW23479   3.598   6.452   1.972
 7527SOL    HW123480   3.544   6.525   2.015
 7527SOL    HW223481   3.537   6.377   1.947
 7528SOL     OW23482   6.084   3.328   6.458
 7528SOL    HW123483   6.162   3.266   6.459
 7528SOL    HW223484   6.017   3.299   6.527
 7529SOL     OW23485   1.714   6.912   4.322
 7529SOL    HW123486   1.741   6.857   4.242
 7529SOL    HW223487   1.734   6.861   4.405
 7530SOL     OW23488   0.033   2.793   2.786
 7530SOL    HW123489   7.005   2.872   2.761
 7530SOL    HW223490   7.021   2.746   2.864
 7531SOL     OW23491   2.386   1.917   4.226
 7531SOL    HW123492   2.434   1.967   4.154
 7531SOL    HW223493   2.299   1.883   4.189
 7532SOL     OW23494   4.855   4.455   2.155
 7532SOL    HW123495   4.914   4.494   2.084
 7532SOL    HW223496   4.762   4.489   2.143
 7533SOL     OW23497   3.368   0.708   5.139
 7533SOL    HW123498   3.310   0.637   5.097
 7533SOL    HW223499   3.323   0.797   5.130
 7534SOL     OW23500   4.259   6.785   3.642
 7534SOL    HW123501   4.169   6.827   3.625
 7534SOL    HW223502   4.278   6.786   3.740
 7535SOL     OW23503   3.209   4.993   0.223
 7535SOL    HW123504   3.148   5.020   0.149
 7535SOL    HW223505   3.302   4.981   0.187
 7536SOL     OW23506   4.605   5.502   6.143
 7536SOL    HW123507   4.619   5.405   6.161
 7536SOL    HW223508   4.628   5.554   6.225
 7537SOL     OW23509   2.168   4.652   5.313
 7537SOL    HW123510   2.139   4.734   5.264
 7537SOL    HW223511   2.182   4.578   5.247
 7538SOL     OW23512   3.502   3.971   5.307
 7538SOL    HW123513   3.423   3.996   5.364
 7538SOL    HW223514   3.520   3.873   5.317
 7539SOL     OW23515   0.923   1.984   5.194
 7539SOL    HW123516   0.946   1.920   5.267
 7539SOL    HW223517   0.828   2.014   5.206
 7540SOL     OW23518   2.604   0.926   0.268
 7540SOL    HW123519   2.576   1.020   0.289
 7540SOL    HW223520   2.683   0.928   0.207
 7541SOL     OW23521   6.641   2.299   5.631
 7541SOL    HW123522   6.623   2.206   5.599
 7541SOL    HW223523   6.557   2.354   5.623
 7542SOL     OW23524   1.511   0.339   5.237
 7542SOL    HW123525   1.567   0.262   5.209
 7542SOL    HW223526   1.462   0.375   5.157
 7543SOL     OW23527   2.451   2.846   1.435
 7543SOL    HW123528   2.372   2.855   1.496
 7543SOL    HW223529   2.489   2.936   1.416
 7544SOL     OW23530   1.392   1.917   2.569
 7544SOL    HW123531   1.324   1.918   2.496
 7544SOL    HW223532   1.483   1.912   2.529
 7545SOL     OW23533   3.919   0.768   3.212
 7545SOL    HW123534   3.877   0.718   3.288
 7545SOL    HW223535   4.019   0.763   3.221
 7546SOL     OW23536   5.330   0.363   5.412
 7546SOL    HW123537   5.341   0.295   5.485
 7546SOL    HW223538   5.280   0.322   5.336
 7547SOL     OW23539   2.779   0.375   0.175
 7547SOL    HW123540   2.820   0.379   0.265
 7547SOL    HW223541   2.839   0.324   0.113
 7548SOL     OW23542   2.068   3.499   1.418
 7548SOL    HW123543   2.152   3.465   1.459
 7548SOL    HW223544   2.057   3.460   1.327
 7549SOL     OW23545   5.838   0.462   2.287
 7549SOL    HW123546   5.792   0.540   2.329
 7549SOL    HW223547   5.912   0.495   2.228
 7550SOL     OW23548   0.925   5.500   1.090
 7550SOL    HW123549   0.869   5.440   1.033
 7550SOL    HW223550   0.870   5.576   1.124
 7551SOL     OW23551   5.197   3.545   5.965
 7551SOL    HW123552   5.150   3.485   5.900
 7551SOL    HW223553   5.154   3.537   6.055
 7552SOL     OW23554   3.836   6.067   4.041
 7552SOL    HW123555   3.864   6.098   4.132
 7552SOL    HW223556   3.741   6.093   4.025
 7553SOL     OW23557   4.238   4.105   5.958
 7553SOL    HW123558   4.270   4.014   5.933
 7553SOL    HW223559   4.152   4.097   6.008
 7554SOL     OW23560   0.103   1.519   1.143
 7554SOL    HW123561   0.185   1.572   1.125
 7554SOL    HW223562   0.047   1.515   1.060
 7555SOL     OW23563   1.788   6.300   6.073
 7555SOL    HW123564   1.728   6.219   6.073
 7555SOL    HW223565   1.869   6.281   6.127
 7556SOL     OW23566   6.684   3.862   2.887
 7556SOL    HW123567   6.707   3.948   2.841
 7556SOL    HW223568   6.619   3.810   2.832
 7557SOL     OW23569   4.029   4.184   0.494
 7557SOL    HW123570   4.128   4.188   0.510
 7557SOL    HW223571   4.011   4.125   0.416
 7558SOL     OW23572   1.584   2.966   3.752
 7558SOL    HW123573   1.645   2.973   3.673
 7558SOL    HW223574   1.552   3.058   3.777
 7559SOL     OW23575   0.655   4.078   6.828
 7559SOL    HW123576   0.713   4.031   6.896
 7559SOL    HW223577   0.564   4.091   6.866
 7560SOL     OW23578   4.509   0.425   5.621
 7560SOL    HW123579   4.449   0.503   5.638
 7560SOL    HW223580   4.511   0.405   5.523
 7561SOL     OW23581   0.576   3.929   0.196
 7561SOL    HW123582   0.661   3.983   0.197
 7561SOL    HW223583   0.542   3.919   0.289
 7562SOL     OW23584   4.328   6.245   4.545
 7562SOL    HW123585   4.317   6.160   4.596
 7562SOL    HW223586   4.293   6.234   4.453
 7563SOL     OW23587   2.271   1.088   3.657
 7563SOL    HW123588   2.311   1.180   3.647
 7563SOL    HW223589   2.345   1.021   3.664
 7564SOL     OW23590   5.668   5.688   3.916
 7564SOL    HW123591   5.703   5.654   4.003
 7564SOL    HW223592   5.706   5.633   3.841
 7565SOL     OW23593   4.768   5.198   6.491
 7565SOL    HW123594   4.837   5.253   6.538
 7565SOL    HW223595   4.800   5.176   6.399
 7566SOL     OW23596   1.786   5.619   4.086
 7566SOL    HW123597   1.864   5.589   4.141
 7566SOL    HW223598   1.730   5.683   4.139
 7567SOL     OW23599   2.382   3.249   0.201
 7567SOL    HW123600   2.478   3.266   0.178
 7567SOL    HW223601   2.371   3.251   0.300
 7568SOL     OW23602   4.020   4.809   2.776
 7568SOL    HW123603   3.934   4.816   2.825
 7568SOL    HW223604   4.091   4.776   2.838
 7569SOL     OW23605   3.555   6.992   2.256
 7569SOL    HW123606   3.529   6.896   2.243
 7569SOL    HW223607   3.500   0.021   2.196
 7570SOL     OW23608   5.963   4.965   5.099
 7570SOL    HW123609   6.000   4.933   5.012
 7570SOL    HW223610   6.022   5.037   5.136
 7571SOL     OW23611   6.267   4.188   0.343
 7571SOL    HW123612   6.296   4.139   0.425
 7571SOL    HW223613   6.173   4.220   0.355
 7572SOL     OW23614   6.541   1.738   3.220
 7572SOL    HW123615   6.634   1.755   3.189
 7572SOL    HW223616   6.523   1.791   3.303
 7573SOL     OW23617   3.547   5.387   4.248
 7573SOL    HW123618   3.571   5.351   4.159
 7573SOL    HW223619   3.470   5.451   4.239
 7574SOL     OW23620   4.523   5.616   1.861
 7574SOL    HW123621   4.526   5.686   1.933
 7574SOL    HW223622   4.613   5.575   1.851
 7575SOL     OW23623   4.893   3.072   4.959
 7575SOL    HW123624   4.963   3.011   4.920
 7575SOL    HW223625   4.873   3.145   4.894
 7576SOL     OW23626   6.816   3.666   1.796
 7576SOL    HW123627   6.725   3.688   1.761
 7576SOL    HW223628   6.848   3.581   1.753
 7577SOL     OW23629   4.076   1.271   4.499
 7577SOL    HW123630   4.090   1.274   4.400
 7577SOL    HW223631   3.979   1.285   4.520
 7578SOL     OW23632   2.326   5.725   4.698
 7578SOL    HW123633   2.381   5.691   4.622
 7578SOL    HW223634   2.286   5.648   4.748
 7579SOL     OW23635   4.272   2.257   4.514
 7579SOL    HW123636   4.323   2.290   4.593
 7579SOL    HW223637   4.174   2.255   4.536
 7580SOL     OW23638   2.079   3.300   2.141
 7580SOL    HW123639   2.124   3.377   2.096
 7580SOL    HW223640   2.083   3.220   2.081
 7581SOL     OW23641   5.322   0.861   0.716
 7581SOL    HW123642   5.225   0.861   0.694
 7581SOL    HW223643   5.362   0.949   0.692
 7582SOL     OW23644   3.872   2.702   1.399
 7582SOL    HW123645   3.773   2.692   1.387
 7582SOL    HW223646   3.893   2.794   1.431
 7583SOL     OW23647   6.733   4.442   3.158
 7583SOL    HW123648   6.744   4.519   3.096
 7583SOL    HW223649   6.705   4.361   3.105
 7584SOL     OW23650   2.509   1.909   2.055
 7584SOL    HW123651   2.566   1.971   2.002
 7584SOL    HW223652   2.543   1.904   2.149
 7585SOL     OW23653   2.363   4.579   0.334
 7585SOL    HW123654   2.372   4.646   0.260
 7585SOL    HW223655   2.399   4.491   0.304
 7586SOL     OW23656   1.835   2.229   3.645
 7586SOL    HW123657   1.776   2.200   3.570
 7586SOL    HW223658   1.791   2.304   3.695
 7587SOL     OW23659   2.281   1.083   5.673
 7587SOL    HW123660   2.347   1.032   5.618
 7587SOL    HW223661   2.199   1.101   5.618
 7588SOL     OW23662   0.390   4.503   1.721
 7588SOL    HW123663   0.357   4.546   1.638
 7588SOL    HW223664   0.320   4.511   1.793
 7589SOL     OW23665   4.853   5.570   6.018
 7589SOL    HW123666   4.900   5.643   6.069
 7589SOL    HW223667   4.761   5.558   6.055
 7590SOL     OW23668   1.903   0.756   5.488
 7590SOL    HW123669   1.971   0.828   5.502
 7590SOL    HW223670   1.893   0.704   5.573
 7591SOL     OW23671   6.356   6.126   6.490
 7591SOL    HW123672   6.285   6.143   6.558
 7591SOL    HW223673   6.440   6.172   6.517
 7592SOL     OW23674   4.130   4.961   6.261
 7592SOL    HW123675   4.045   4.962   6.208
 7592SOL    HW223676   4.115   5.005   6.349
 7593SOL     OW23677   6.033   4.299   0.498
 7593SOL    HW123678   6.035   4.239   0.578
 7593SOL    HW223679   5.992   4.386   0.522
 7594SOL     OW23680   1.090   6.813   3.823
 7594SOL    HW123681   1.042   6.738   3.868
 7594SOL    HW223682   1.048   6.900   3.851
 7595SOL     OW23683   6.410   3.056   6.436
 7595SOL    HW123684   6.376   3.140   6.480
 7595SOL    HW223685   6.455   2.999   6.505
 7596SOL     OW23686   5.153   5.993   2.132
 7596SOL    HW123687   5.204   5.913   2.165
 7596SOL    HW223688   5.193   6.076   2.171
 7597SOL     OW23689   2.445   5.350   1.754
 7597SOL    HW123690   2.382   5.390   1.688
 7597SOL    HW223691   2.455   5.411   1.833
 7598SOL     OW23692   6.165   0.935   2.770
 7598SOL    HW123693   6.192   0.923   2.674
 7598SOL    HW223694   6.171   0.847   2.817
 7599SOL     OW23695   5.670   3.107   2.520
 7599SOL    HW123696   5.611   3.030   2.545
 7599SOL    HW223697   5.622   3.164   2.453
 7600SOL     OW23698   2.011   2.694   2.843
 7600SOL    HW123699   2.074   2.670   2.769
 7600SOL    HW223700   2.034   2.640   2.924
 7601SOL     OW23701   1.891   0.484   5.156
 7601SOL    HW123702   1.948   0.442   5.086
 7601SOL    HW223703   1.889   0.425   5.237
 7602SOL     OW23704   2.199   3.127   5.226
 7602SOL    HW123705   2.214   3.029   5.213
 7602SOL    HW223706   2.283   3.169   5.261
 7603SOL     OW23707   6.552   1.490   2.095
 7603SOL    HW123708   6.608   1.438   2.030
 7603SOL    HW223709   6.585   1.474   2.188
 7604SOL     OW23710   5.197   5.231   6.457
 7604SOL    HW123711   5.169   5.135   6.457
 7604SOL    HW223712   5.285   5.239   6.409
 7605SOL     OW23713   5.836   3.643   6.439
 7605SOL    HW123714   5.809   3.624   6.345
 7605SOL    HW223715   5.762   3.616   6.501
 7606SOL     OW23716   5.446   1.371   3.520
 7606SOL    HW123717   5.475   1.367   3.615
 7606SOL    HW223718   5.352   1.405   3.515
 7607SOL     OW23719   5.300   6.791   5.644
 7607SOL    HW123720   5.218   6.794   5.586
 7607SOL    HW223721   5.316   6.881   5.683
 7608SOL     OW23722   3.300   3.607   4.893
 7608SOL    HW123723   3.354   3.689   4.914
 7608SOL    HW223724   3.246   3.623   4.810
 7609SOL     OW23725   1.094   2.737   3.496
 7609SOL    HW123726   1.187   2.770   3.509
 7609SOL    HW223727   1.030   2.812   3.511
 7610SOL     OW23728   5.373   0.408   2.194
 7610SOL    HW123729   5.451   0.374   2.142
 7610SOL    HW223730   5.397   0.493   2.240
 7611SOL     OW23731   2.251   1.486   1.373
 7611SOL    HW123732   2.172   1.548   1.373
 7611SOL    HW223733   2.335   1.539   1.382
 7612SOL     OW23734   4.549   2.258   2.843
 7612SOL    HW123735   4.470   2.296   2.891
 7612SOL    HW223736   4.521   2.179   2.789
 7613SOL     OW23737   6.050   0.470   2.511
 7613SOL    HW123738   6.072   0.452   2.415
 7613SOL    HW223739   5.984   0.545   2.516
 7614SOL     OW23740   4.778   0.843   0.659
 7614SOL    HW123741   4.800   0.940   0.665
 7614SOL    HW223742   4.839   0.791   0.719
 7615SOL     OW23743   3.718   4.851   5.570
 7615SOL    HW123744   3.745   4.786   5.642
 7615SOL    HW223745   3.641   4.814   5.519
 7616SOL     OW23746   0.270   5.311   3.014
 7616SOL    HW123747   0.362   5.333   3.047
 7616SOL    HW223748   0.267   5.322   2.915
 7617SOL     OW23749   3.697   5.802   3.562
 7617SOL    HW123750   3.685   5.724   3.624
 7617SOL    HW223751   3.612   5.820   3.514
 7618SOL     OW23752   2.857   2.036   0.053
 7618SOL    HW123753   2.920   1.982   7.027
 7618SOL    HW223754   2.887   2.035   0.149
 7619SOL     OW23755   5.728   3.136   6.120
 7619SOL    HW123756   5.664   3.201   6.161
 7619SOL    HW223757   5.731   3.149   6.021
 7620SOL     OW23758   3.405   5.807   1.523
 7620SOL    HW123759   3.322   5.777   1.569
 7620SOL    HW223760   3.431   5.898   1.556
 7621SOL     OW23761   2.387   2.398   0.587
 7621SOL    HW123762   2.308   2.421   0.644
 7621SOL    HW223763   2.356   2.366   0.498
 7622SOL     OW23764   4.768   2.280   1.217
 7622SOL    HW123765   4.775   2.260   1.315
 7622SOL    HW223766   4.783   2.196   1.164
 7623SOL     OW23767   6.591   6.347   5.120
 7623SOL    HW123768   6.521   6.345   5.192
 7623SOL    HW223769   6.680   6.330   5.162
 7624SOL     OW23770   0.022   0.491   4.855
 7624SOL    HW123771   0.098   0.521   4.798
 7624SOL    HW223772   0.004   0.393   4.839
 7625SOL     OW23773   3.133   5.496   0.966
 7625SOL    HW123774   3.128   5.427   0.894
 7625SOL    HW223775   3.060   5.563   0.954
 7626SOL     OW23776   2.625   4.202   5.465
 7626SOL    HW123777   2.678   4.277   5.425
 7626SOL    HW223778   2.682   4.152   5.530
 7627SOL     OW23779   6.993   0.922   0.355
 7627SOL    HW123780   6.930   0.982   0.404
 7627SOL    HW223781   6.975   0.928   0.257
 7628SOL     OW23782   4.834   1.872   1.609
 7628SOL    HW123783   4.869   1.796   1.664
 7628SOL    HW223784   4.837   1.956   1.663
 7629SOL     OW23785   6.287   5.850   3.385
 7629SOL    HW123786   6.369   5.881   3.338
 7629SOL    HW223787   6.249   5.925   3.440
 7630SOL     OW23788   6.509   1.731   1.973
 7630SOL    HW123789   6.553   1.799   2.032
 7630SOL    HW223790   6.513   1.641   2.017
 7631SOL     OW23791   1.256   0.842   3.296
 7631SOL    HW123792   1.349   0.850   3.261
 7631SOL    HW223793   1.206   0.927   3.276
 7632SOL     OW23794   4.352   0.343   4.888
 7632SOL    HW123795   4.301   0.285   4.951
 7632SOL    HW223796   4.401   0.414   4.940
 7633SOL     OW23797   6.513   4.044   6.537
 7633SOL    HW123798   6.467   4.001   6.615
 7633SOL    HW223799   6.524   3.977   6.463
 7634SOL     OW23800   1.329   2.635   2.628
 7634SOL    HW123801   1.407   2.673   2.676
 7634SOL    HW223802   1.343   2.644   2.529
 7635SOL     OW23803   2.381   4.688   5.980
 7635SOL    HW123804   2.349   4.606   6.026
 7635SOL    HW223805   2.476   4.706   6.007
 7636SOL     OW23806   0.656   0.540   3.393
 7636SOL    HW123807   0.734   0.600   3.373
 7636SOL    HW223808   0.598   0.533   3.312
 7637SOL     OW23809   2.651   6.529   4.002
 7637SOL    HW123810   2.657   6.610   4.061
 7637SOL    HW223811   2.556   6.511   3.980
 7638SOL     OW23812   4.385   4.383   1.634
 7638SOL    HW123813   4.289   4.370   1.611
 7638SOL    HW223814   4.408   4.327   1.715
 7639SOL     OW23815   0.442   1.683   4.388
 7639SOL    HW123816   0.391   1.738   4.321
 7639SOL    HW223817   0.494   1.744   4.447
 7640SOL     OW23818   2.574   2.980   5.828
 7640SOL    HW123819   2.504   3.022   5.770
 7640SOL    HW223820   2.545   2.985   5.923
 7641SOL     OW23821   5.996   3.018   2.803
 7641SOL    HW123822   6.066   2.962   2.846
 7641SOL    HW223823   5.914   3.019   2.860
 7642SOL     OW23824   1.507   2.095   2.831
 7642SOL    HW123825   1.573   2.068   2.901
 7642SOL    HW223826   1.509   2.030   2.755
 7643SOL     OW23827   5.277   3.707   3.444
 7643SOL    HW123828   5.217   3.730   3.368
 7643SOL    HW223829   5.225   3.663   3.516
 7644SOL     OW23830   6.429   3.218   4.062
 7644SOL    HW123831   6.330   3.204   4.069
 7644SOL    HW223832   6.473   3.189   4.147
 7645SOL     OW23833   3.588   3.071   0.484
 7645SOL    HW123834   3.535   3.015   0.547
 7645SOL    HW223835   3.684   3.042   0.486
 7646SOL     OW23836   0.705   0.064   1.879
 7646SOL    HW123837   0.700   6.993   1.888
 7646SOL    HW223838   0.666   0.106   1.961
 7647SOL     OW23839   1.897   4.873   6.985
 7647SOL    HW123840   1.944   4.944   0.009
 7647SOL    HW223841   1.912   4.784   7.027
 7648SOL     OW23842   3.036   1.078   3.743
 7648SOL    HW123843   2.998   1.132   3.667
 7648SOL    HW223844   3.118   1.030   3.712
 7649SOL     OW23845   3.080   1.627   0.935
 7649SOL    HW123846   3.173   1.604   0.962
 7649SOL    HW223847   3.050   1.566   0.861
 7650SOL     OW23848   6.524   5.044   0.537
 7650SOL    HW123849   6.581   4.982   0.484
 7650SOL    HW223850   6.518   5.132   0.491
 7651SOL     OW23851   5.465   2.007   6.311
 7651SOL    HW123852   5.463   2.085   6.373
 7651SOL    HW223853   5.427   1.927   6.356
 7652SOL     OW23854   1.175   3.492   3.056
 7652SOL    HW123855   1.174   3.547   2.973
 7652SOL    HW223856   1.265   3.500   3.100
 7653SOL     OW23857   4.909   2.560   2.263
 7653SOL    HW123858   4.853   2.537   2.184
 7653SOL    HW223859   4.968   2.638   2.241
 7654SOL     OW23860   5.454   3.730   4.842
 7654SOL    HW123861   5.393   3.808   4.833
 7654SOL    HW223862   5.458   3.701   4.938
 7655SOL     OW23863   4.751   5.024   5.748
 7655SOL    HW123864   4.675   5.025   5.813
 7655SOL    HW223865   4.827   4.972   5.788
 7656SOL     OW23866   0.725   0.472   5.125
 7656SOL    HW123867   0.713   0.486   5.027
 7656SOL    HW223868   0.669   0.537   5.175
 7657SOL     OW23869   4.279   1.741   3.654
 7657SOL    HW123870   4.378   1.746   3.640
 7657SOL    HW223871   4.260   1.706   3.746
 7658SOL     OW23872   4.254   0.441   6.046
 7658SOL    HW123873   4.262   0.402   6.137
 7658SOL    HW223874   4.344   0.446   6.003
 7659SOL     OW23875   5.145   6.001   6.412
 7659SOL    HW123876   5.152   6.096   6.440
 7659SOL    HW223877   5.119   5.945   6.491
 7660SOL     OW23878   5.261   5.570   3.951
 7660SOL    HW123879   5.212   5.547   3.867
 7660SOL    HW223880   5.302   5.660   3.941
 7661SOL     OW23881   6.178   3.847   3.920
 7661SOL    HW123882   6.086   3.807   3.922
 7661SOL    HW223883   6.172   3.943   3.894
 7662SOL     OW23884   6.630   5.481   3.520
 7662SOL    HW123885   6.568   5.552   3.487
 7662SOL    HW223886   6.578   5.413   3.572
 7663SOL     OW23887   0.485   6.767   0.754
 7663SOL    HW123888   0.487   6.673   0.719
 7663SOL    HW223889   0.392   6.802   0.750
 7664SOL     OW23890   3.568   5.710   4.839
 7664SOL    HW123891   3.587   5.762   4.757
 7664SOL    HW223892   3.567   5.771   4.919
 7665SOL     OW23893   2.028   5.634   3.872
 7665SOL    HW123894   1.970   5.664   3.947
 7665SOL    HW223895   2.055   5.539   3.886
 7666SOL     OW23896   1.936   0.329   2.449
 7666SOL    HW123897   1.878   0.275   2.388
 7666SOL    HW223898   1.880   0.367   2.523
 7667SOL     OW23899   5.827   6.838   5.373
 7667SOL    HW123900   5.765   6.911   5.347
 7667SOL    HW223901   5.870   6.861   5.461
 7668SOL     OW23902   2.879   3.629   1.873
 7668SOL    HW123903   2.933   3.591   1.797
 7668SOL    HW223904   2.800   3.679   1.836
 7669SOL     OW23905   4.643   6.571   5.003
 7669SOL    HW123906   4.569   6.525   4.955
 7669SOL    HW223907   4.721   6.582   4.941
 7670SOL     OW23908   1.461   5.775   0.722
 7670SOL    HW123909   1.474   5.728   0.634
 7670SOL    HW223910   1.456   5.707   0.795
 7671SOL     OW23911   4.977   2.210   4.384
 7671SOL    HW123912   4.993   2.179   4.291
 7671SOL    HW223913   4.909   2.152   4.428
 7672SOL     OW23914   6.751   0.226   2.125
 7672SOL    HW123915   6.745   0.191   2.219
 7672SOL    HW223916   6.660   0.225   2.084
 7673SOL     OW23917   1.172   3.399   0.611
 7673SOL    HW123918   1.188   3.495   0.635
 7673SOL    HW223919   1.076   3.376   0.629
 7674SOL     OW23920   6.070   0.861   5.196
 7674SOL    HW123921   6.133   0.809   5.253
 7674SOL    HW223922   6.086   0.959   5.209
 7675SOL     OW23923   4.980   0.519   3.245
 7675SOL    HW123924   4.982   0.521   3.145
 7675SOL    HW223925   5.048   0.453   3.278
 7676SOL     OW23926   1.624   0.141   1.050
 7676SOL    HW123927   1.527   0.162   1.040
 7676SOL    HW223928   1.639   0.094   1.137
 7677SOL     OW23929   1.930   3.077   2.685
 7677SOL    HW123930   2.003   3.145   2.672
 7677SOL    HW223931   1.893   3.085   2.777
 7678SOL     OW23932   5.233   6.841   6.058
 7678SOL    HW123933   5.182   6.840   6.145
 7678SOL    HW223934   5.176   6.801   5.986
 7679SOL     OW23935   1.599   5.327   4.288
 7679SOL    HW123936   1.606   5.401   4.222
 7679SOL    HW223937   1.687   5.280   4.297
 7680SOL     OW23938   4.957   0.541   0.462
 7680SOL    HW123939   4.992   0.619   0.410
 7680SOL    HW223940   4.857   0.545   0.465
 7681SOL     OW23941   3.745   2.169   6.150
 7681SOL    HW123942   3.804   2.088   6.144
 7681SOL    HW223943   3.727   2.204   6.058
 7682SOL     OW23944   3.097   0.310   0.694
 7682SOL    HW123945   3.119   0.395   0.646
 7682SOL    HW223946   3.162   0.239   0.667
 7683SOL     OW23947   6.755   3.231   3.606
 7683SOL    HW123948   6.758   3.265   3.700
 7683SOL    HW223949   6.784   3.136   3.603
 7684SOL     OW23950   3.880   1.975   5.629
 7684SOL    HW123951   3.873   2.069   5.597
 7684SOL    HW223952   3.822   1.961   5.708
 7685SOL     OW23953   3.857   3.905   1.260
 7685SOL    HW123954   3.829   3.814   1.290
 7685SOL    HW223955   3.783   3.970   1.275
 7686SOL     OW23956   2.747   1.029   2.724
 7686SOL    HW123957   2.663   0.983   2.697
 7686SOL    HW223958   2.748   1.122   2.687
 7687SOL     OW23959   4.591   4.111   5.629
 7687SOL    HW123960   4.635   4.092   5.716
 7687SOL    HW223961   4.491   4.108   5.640
 7688SOL     OW23962   6.531   0.793   3.340
 7688SOL    HW123963   6.582   0.840   3.412
 7688SOL    HW223964   6.595   0.763   3.269
 7689SOL     OW23965   3.537   6.719   4.929
 7689SOL    HW123966   3.589   6.695   4.847
 7689SOL    HW223967   3.447   6.677   4.925
 7690SOL     OW23968   1.066   5.204   2.761
 7690SOL    HW123969   1.117   5.261   2.696
 7690SOL    HW223970   1.056   5.254   2.847
 7691SOL     OW23971   6.439   3.795   5.869
 7691SOL    HW123972   6.359   3.801   5.930
 7691SOL    HW223973   6.443   3.876   5.811
 7692SOL     OW23974   1.485   6.522   1.251
 7692SOL    HW123975   1.508   6.619   1.257
 7692SOL    HW223976   1.386   6.511   1.236
 7693SOL     OW23977   5.241   1.445   0.516
 7693SOL    HW123978   5.337   1.436   0.545
 7693SOL    HW223979   5.237   1.456   0.417
 7694SOL     OW23980   5.655   5.123   3.636
 7694SOL    HW123981   5.679   5.027   3.648
 7694SOL    HW223982   5.698   5.158   3.553
 7695SOL     OW23983   4.791   0.291   6.740
 7695SOL    HW123984   4.849   0.300   6.659
 7695SOL    HW223985   4.842   0.322   6.821
 7696SOL     OW23986   1.250   3.932   5.418
 7696SOL    HW123987   1.310   4.000   5.461
 7696SOL    HW223988   1.305   3.864   5.370
 7697SOL     OW23989   4.799   1.574   2.043
 7697SOL    HW123990   4.863   1.497   2.040
 7697SOL    HW223991   4.725   1.557   1.977
 7698SOL     OW23992   6.785   2.453   5.854
 7698SOL    HW123993   6.866   2.496   5.814
 7698SOL    HW223994   6.751   2.382   5.793
 7699SOL     OW23995   3.031   3.604   0.807
 7699SOL    HW123996   3.069   3.551   0.731
 7699SOL    HW223997   2.934   3.581   0.818
 7700SOL     OW23998   5.549   6.843   4.635
 7700SOL    HW123999   5.579   6.907   4.565
 7700SOL    HW224000   5.505   6.764   4.592
 7701SOL     OW24001   6.383   2.386   5.489
 7701SOL    HW124002   6.456   2.433   5.440
 7701SOL    HW224003   6.386   2.288   5.469
 7702SOL     OW24004   1.708   6.347   0.179
 7702SOL    HW124005   1.687   6.251   0.196
 7702SOL    HW224006   1.666   6.375   0.092
 7703SOL     OW24007   0.539   2.277   6.015
 7703SOL    HW124008   0.615   2.213   6.028
 7703SOL    HW224009   0.516   2.320   6.102
 7704SOL     OW24010   2.638   3.943   1.286
 7704SOL    HW124011   2.555   3.948   1.231
 7704SOL    HW224012   2.647   3.851   1.324
 7705SOL     OW24013   4.142   3.547   4.265
 7705SOL    HW124014   4.042   3.537   4.269
 7705SOL    HW224015   4.169   3.581   4.175
 7706SOL     OW24016   6.731   0.630   5.601
 7706SOL    HW124017   6.638   0.611   5.632
 7706SOL    HW224018   6.738   0.727   5.576
 7707SOL     OW24019   6.818   5.785   6.779
 7707SOL    HW124020   6.729   5.751   6.808
 7707SOL    HW224021   6.888   5.716   6.798
 7708SOL     OW24022   5.239   1.277   5.098
 7708SOL    HW124023   5.183   1.321   5.167
 7708SOL    HW224024   5.184   1.209   5.049
 7709SOL     OW24025   3.953   2.406   1.721
 7709SOL    HW124026   3.879   2.386   1.786
 7709SOL    HW224027   3.956   2.504   1.704
 7710SOL     OW24028   3.283   1.979   6.886
 7710SOL    HW124029   3.363   1.959   6.943
 7710SOL    HW224030   3.301   2.060   6.830
 7711SOL     OW24031   4.280   6.024   4.687
 7711SOL    HW124032   4.227   5.940   4.670
 7711SOL    HW224033   4.298   6.033   4.784
 7712SOL     OW24034   5.573   4.091   6.196
 7712SOL    HW124035   5.576   4.046   6.285
 7712SOL    HW224036   5.665   4.120   6.170
 7713SOL     OW24037   0.494   5.731   6.259
 7713SOL    HW124038   0.489   5.824   6.222
 7713SOL    HW224039   0.401   5.694   6.265
 7714SOL     OW24040   5.286   3.945   4.851
 7714SOL    HW124041   5.315   4.002   4.774
 7714SOL    HW224042   5.187   3.954   4.863
 7715SOL     OW24043   3.900   2.144   2.191
 7715SOL    HW124044   3.834   2.211   2.157
 7715SOL    HW224045   3.929   2.085   2.116
 7716SOL     OW24046   4.195   2.253   4.233
 7716SOL    HW124047   4.220   2.272   4.328
 7716SOL    HW224048   4.276   2.265   4.175
 7717SOL     OW24049   3.153   0.160   6.720
 7717SOL    HW124050   3.053   0.149   6.717
 7717SOL    HW224051   3.186   0.189   6.630
 7718SOL     OW24052   2.418   6.358   3.473
 7718SOL    HW124053   2.410   6.445   3.522
 7718SOL    HW224054   2.450   6.375   3.380
 7719SOL     OW24055   5.856   2.662   4.994
 7719SOL    HW124056   5.923   2.704   5.055
 7719SOL    HW224057   5.903   2.605   4.928
 7720SOL     OW24058   5.395   6.070   1.242
 7720SOL    HW124059   5.330   6.127   1.191
 7720SOL    HW224060   5.488   6.091   1.211
 7721SOL     OW24061   0.755   4.436   2.903
 7721SOL    HW124062   0.739   4.371   2.977
 7721SOL    HW224063   0.841   4.485   2.919
 7722SOL     OW24064   0.884   6.149   4.103
 7722SOL    HW124065   0.839   6.189   4.023
 7722SOL    HW224066   0.817   6.132   4.175
 7723SOL     OW24067   6.910   2.066   0.381
 7723SOL    HW124068   6.965   1.994   0.423
 7723SOL    HW224069   6.891   2.137   0.449
 7724SOL     OW24070   2.381   6.381   6.945
 7724SOL    HW124071   2.423   6.298   6.907
 7724SOL    HW224072   2.446   6.457   6.937
 7725SOL     OW24073   4.969   3.523   4.268
 7725SOL    HW124074   4.899   3.501   4.200
 7725SOL    HW224075   5.015   3.440   4.298
 7726SOL     OW24076   5.366   5.462   2.859
 7726SOL    HW124077   5.365   5.365   2.886
 7726SOL    HW224078   5.353   5.519   2.940
 7727SOL     OW24079   5.854   3.334   2.338
 7727SOL    HW124080   5.820   3.341   2.432
 7727SOL    HW224081   5.918   3.409   2.321
 7728SOL     OW24082   2.243   3.045   3.345
 7728SOL    HW124083   2.255   2.958   3.297
 7728SOL    HW224084   2.301   3.047   3.426
 7729SOL     OW24085   5.076   1.846   6.489
 7729SOL    HW124086   5.174   1.832   6.470
 7729SOL    HW224087   5.059   1.943   6.502
 7730SOL     OW24088   4.515   6.903   2.379
 7730SOL    HW124089   4.575   6.853   2.442
 7730SOL    HW224090   4.503   6.851   2.295
 7731SOL     OW24091   6.788   1.647   3.989
 7731SOL    HW124092   6.795   1.707   4.068
 7731SOL    HW224093   6.876   1.603   3.972
 7732SOL     OW24094   4.441   4.990   0.657
 7732SOL    HW124095   4.455   5.070   0.714
 7732SOL    HW224096   4.512   4.922   0.675
 7733SOL     OW24097   3.046   6.026   0.739
 7733SOL    HW124098   2.974   6.020   0.670
 7733SOL    HW224099   3.096   5.939   0.743
 7734SOL     OW24100   1.541   2.970   2.258
 7734SOL    HW124101   1.469   2.912   2.294
 7734SOL    HW224102   1.612   2.912   2.217
 7735SOL     OW24103   5.285   4.307   0.955
 7735SOL    HW124104   5.298   4.280   1.051
 7735SOL    HW224105   5.314   4.402   0.942
 7736SOL     OW24106   5.937   4.453   6.703
 7736SOL    HW124107   5.949   4.373   6.763
 7736SOL    HW224108   5.851   4.499   6.726
 7737SOL     OW24109   4.923   2.843   0.214
 7737SOL    HW124110   4.835   2.884   0.190
 7737SOL    HW224111   4.951   2.780   0.141
 7738SOL     OW24112   2.001   4.793   6.751
 7738SOL    HW124113   1.984   4.841   6.837
 7738SOL    HW224114   1.914   4.767   6.709
 7739SOL     OW24115   5.368   3.827   2.429
 7739SOL    HW124116   5.294   3.894   2.423
 7739SOL    HW224117   5.333   3.736   2.408
 7740SOL     OW24118   6.795   6.408   3.892
 7740SOL    HW124119   6.789   6.339   3.821
 7740SOL    HW224120   6.815   6.497   3.850
 7741SOL     OW24121   2.834   5.347   3.836
 7741SOL    HW124122   2.805   5.403   3.913
 7741SOL    HW224123   2.759   5.336   3.772
 7742SOL     OW24124   6.797   0.241   4.563
 7742SOL    HW124125   6.736   0.210   4.491
 7742SOL    HW224126   6.819   0.338   4.550
 7743SOL     OW24127   4.874   3.152   2.250
 7743SOL    HW124128   4.973   3.164   2.244
 7743SOL    HW224129   4.837   3.136   2.158
 7744SOL     OW24130   0.324   6.324   5.021
 7744SOL    HW124131   0.373   6.393   4.968
 7744SOL    HW224132   0.263   6.369   5.086
 7745SOL     OW24133   5.465   3.162   5.948
 7745SOL    HW124134   5.561   3.142   5.930
 7745SOL    HW224135   5.407   3.095   5.901
 7746SOL     OW24136   2.345   0.555   6.264
 7746SOL    HW124137   2.340   0.472   6.319
 7746SOL    HW224138   2.363   0.633   6.323
 7747SOL     OW24139   4.713   4.866   0.558
 7747SOL    HW124140   4.763   4.827   0.635
 7747SOL    HW224141   4.723   4.966   0.559
 7748SOL     OW24142   2.060   3.858   6.761
 7748SOL    HW124143   2.056   3.951   6.723
 7748SOL    HW224144   2.147   3.816   6.736
 7749SOL     OW24145   5.974   3.053   6.250
 7749SOL    HW124146   5.879   3.050   6.217
 7749SOL    HW224147   6.033   3.083   6.175
 7750SOL     OW24148   4.378   5.245   3.058
 7750SOL    HW124149   4.332   5.313   3.117
 7750SOL    HW224150   4.314   5.172   3.036
 7751SOL     OW24151   0.635   2.640   1.103
 7751SOL    HW124152   0.573   2.621   1.180
 7751SOL    HW224153   0.582   2.642   1.018
 7752SOL     OW24154   3.926   1.387   3.070
 7752SOL    HW124155   3.832   1.386   3.103
 7752SOL    HW224156   3.973   1.468   3.104
 7753SOL     OW24157   3.979   0.748   5.400
 7753SOL    HW124158   3.983   0.818   5.328
 7753SOL    HW224159   3.958   0.659   5.359
 7754SOL     OW24160   4.806   5.142   1.391
 7754SOL    HW124161   4.756   5.191   1.463
 7754SOL    HW224162   4.756   5.150   1.305
 7755SOL     OW24163   0.308   4.746   5.993
 7755SOL    HW124164   0.239   4.790   5.936
 7755SOL    HW224165   0.333   4.806   6.069
 7756SOL     OW24166   2.011   3.904   2.308
 7756SOL    HW124167   2.102   3.944   2.320
 7756SOL    HW224168   2.018   3.805   2.306
 7757SOL     OW24169   0.512   4.434   0.272
 7757SOL    HW124170   0.612   4.436   0.267
 7757SOL    HW224171   0.475   4.387   0.192
 7758SOL     OW24172   0.546   1.199   5.697
 7758SOL    HW124173   0.528   1.169   5.603
 7758SOL    HW224174   0.574   1.120   5.752
 7759SOL     OW24175   3.740   0.989   2.426
 7759SOL    HW124176   3.747   1.087   2.447
 7759SOL    HW224177   3.747   0.936   2.510
 7760SOL     OW24178   4.700   2.996   0.164
 7760SOL    HW124179   4.703   2.992   0.264
 7760SOL    HW224180   4.713   3.091   0.135
 7761SOL     OW24181   5.735   5.287   3.102
 7761SOL    HW124182   5.659   5.353   3.110
 7761SOL    HW224183   5.729   5.220   3.176
 7762SOL     OW24184   4.855   1.869   1.342
 7762SOL    HW124185   4.838   1.872   1.440
 7762SOL    HW224186   4.781   1.917   1.294
 7763SOL     OW24187   1.541   0.414   3.076
 7763SOL    HW124188   1.626   0.362   3.075
 7763SOL    HW224189   1.510   0.426   3.171
 7764SOL     OW24190   3.799   5.360   5.380
 7764SOL    HW124191   3.731   5.421   5.337
 7764SOL    HW224192   3.752   5.283   5.422
 7765SOL     OW24193   5.714   3.953   4.338
 7765SOL    HW124194   5.776   3.882   4.304
 7765SOL    HW224195   5.679   3.925   4.427
 7766SOL     OW24196   6.670   2.283   6.649
 7766SOL    HW124197   6.769   2.285   6.633
 7766SOL    HW224198   6.623   2.325   6.571
 7767SOL     OW24199   4.277   0.147   4.206
 7767SOL    HW124200   4.345   0.219   4.191
 7767SOL    HW224201   4.296   0.069   4.147
 7768SOL     OW24202   3.361   5.579   3.701
 7768SOL    HW124203   3.409   5.535   3.626
 7768SOL    HW224204   3.312   5.510   3.755
 7769SOL     OW24205   3.649   2.692   6.877
 7769SOL    HW124206   3.626   2.595   6.880
 7769SOL    HW224207   3.583   2.744   6.931
 7770SOL     OW24208   0.817   3.693   3.792
 7770SOL    HW124209   0.801   3.728   3.884
 7770SOL    HW224210   0.848   3.767   3.732
 7771SOL     OW24211   0.849   3.701   5.128
 7771SOL    HW124212   0.890   3.777   5.179
 7771SOL    HW224213   0.759   3.680   5.167
 7772SOL     OW24214   5.318   5.616   1.586
 7772SOL    HW124215   5.243   5.607   1.651
 7772SOL    HW224216   5.300   5.561   1.504
 7773SOL     OW24217   2.631   6.829   6.983
 7773SOL    HW124218   2.623   6.770   0.035
 7773SOL    HW224219   2.594   6.919   7.004
 7774SOL     OW24220   5.363   1.601   3.019
 7774SOL    HW124221   5.355   1.597   3.118
 7774SOL    HW224222   5.435   1.538   2.988
 7775SOL     OW24223   3.400   1.574   0.723
 7775SOL    HW124224   3.442   1.550   0.811
 7775SOL    HW224225   3.402   1.495   0.662
 7776SOL     OW24226   3.241   1.340   3.686
 7776SOL    HW124227   3.320   1.347   3.624
 7776SOL    HW224228   3.157   1.339   3.632
 7777SOL     OW24229   5.096   5.291   3.239
 7777SOL    HW124230   5.066   5.212   3.185
 7777SOL    HW224231   5.153   5.259   3.315
 7778SOL     OW24232   1.448   3.770   2.324
 7778SOL    HW124233   1.373   3.709   2.351
 7778SOL    HW224234   1.460   3.766   2.225
 7779SOL     OW24235   3.104   0.681   2.859
 7779SOL    HW124236   3.109   0.736   2.775
 7779SOL    HW224237   3.117   0.585   2.836
 7780SOL     OW24238   5.999   5.661   4.081
 7780SOL    HW124239   5.999   5.760   4.069
 7780SOL    HW224240   6.065   5.619   4.019
 7781SOL     OW24241   2.732   2.517   0.798
 7781SOL    HW124242   2.741   2.607   0.841
 7781SOL    HW224243   2.661   2.521   0.727
 7782SOL     OW24244   5.589   3.905   3.994
 7782SOL    HW124245   5.545   3.819   3.967
 7782SOL    HW224246   5.643   3.889   4.077
 7783SOL     OW24247   1.036   6.284   3.780
 7783SOL    HW124248   0.951   6.297   3.831
 7783SOL    HW224249   1.083   6.202   3.814
 7784SOL     OW24250   1.554   2.603   2.835
 7784SOL    HW124251   1.608   2.601   2.751
 7784SOL    HW224252   1.533   2.697   2.860
 7785SOL     OW24253   6.484   6.539   2.738
 7785SOL    HW124254   6.567   6.584   2.704
 7785SOL    HW224255   6.404   6.580   2.695
 7786SOL     OW24256   5.263   1.185   6.570
 7786SOL    HW124257   5.243   1.283   6.563
 7786SOL    HW224258   5.348   1.172   6.621
 7787SOL     OW24259   1.068   2.733   1.240
 7787SOL    HW124260   1.133   2.800   1.275
 7787SOL    HW224261   1.070   2.651   1.297
 7788SOL     OW24262   1.063   3.756   2.332
 7788SOL    HW124263   0.989   3.722   2.274
 7788SOL    HW224264   1.050   3.854   2.348
 7789SOL     OW24265   3.324   0.111   6.087
 7789SOL    HW124266   3.418   0.117   6.119
 7789SOL    HW224267   3.269   0.059   6.152
 7790SOL     OW24268   4.332   5.013   4.398
 7790SOL    HW124269   4.351   4.965   4.484
 7790SOL    HW224270   4.271   4.957   4.342
 7791SOL     OW24271   2.610   6.186   1.713
 7791SOL    HW124272   2.666   6.268   1.728
 7791SOL    HW224273   2.558   6.195   1.628
 7792SOL     OW24274   1.063   0.984   1.980
 7792SOL    HW124275   1.145   1.037   1.959
 7792SOL    HW224276   1.035   0.933   1.898
 7793SOL     OW24277   5.000   1.812   0.461
 7793SOL    HW124278   4.945   1.887   0.497
 7793SOL    HW224279   5.096   1.839   0.456
 7794SOL     OW24280   1.391   0.884   2.711
 7794SOL    HW124281   1.335   0.829   2.772
 7794SOL    HW224282   1.484   0.847   2.709
 7795SOL     OW24283   4.086   3.893   1.111
 7795SOL    HW124284   4.162   3.890   1.176
 7795SOL    HW224285   4.000   3.896   1.161
 7796SOL     OW24286   4.388   1.595   0.781
 7796SOL    HW124287   4.347   1.510   0.748
 7796SOL    HW224288   4.473   1.612   0.731
 7797SOL     OW24289   1.459   6.385   2.918
 7797SOL    HW124290   1.413   6.318   2.859
 7797SOL    HW224291   1.520   6.441   2.863
 7798SOL     OW24292   1.504   3.221   1.288
 7798SOL    HW124293   1.523   3.152   1.358
 7798SOL    HW224294   1.590   3.254   1.249
 7799SOL     OW24295   2.066   6.635   3.728
 7799SOL    HW124296   1.972   6.602   3.731
 7799SOL    HW224297   2.109   6.619   3.817
 7800SOL     OW24298   1.103   0.929   2.290
 7800SOL    HW124299   1.120   0.878   2.205
 7800SOL    HW224300   1.186   0.928   2.346
 7801SOL     OW24301   1.685   2.384   0.672
 7801SOL    HW124302   1.647   2.293   0.654
 7801SOL    HW224303   1.691   2.398   0.771
 7802SOL     OW24304   6.368   5.378   4.173
 7802SOL    HW124305   6.312   5.408   4.097
 7802SOL    HW224306   6.464   5.400   4.155
 7803SOL     OW24307   3.253   1.741   6.271
 7803SOL    HW124308   3.312   1.778   6.342
 7803SOL    HW224309   3.193   1.671   6.310
 7804SOL     OW24310   2.867   1.304   5.314
 7804SOL    HW124311   2.887   1.389   5.264
 7804SOL    HW224312   2.804   1.324   5.389
 7805SOL     OW24313   6.191   2.602   7.015
 7805SOL    HW124314   6.226   2.682   6.965
 7805SOL    HW224315   6.153   2.536   6.950
 7806SOL     OW24316   6.221   2.284   4.911
 7806SOL    HW124317   6.143   2.288   4.849
 7806SOL    HW224318   6.282   2.362   4.893
 7807SOL     OW24319   1.800   5.387   5.663
 7807SOL    HW124320   1.726   5.389   5.730
 7807SOL    HW224321   1.873   5.327   5.696
 7808SOL     OW24322   0.618   3.052   4.438
 7808SOL    HW124323   0.669   2.996   4.373
 7808SOL    HW224324   0.677   3.077   4.515
 7809SOL     OW24325   4.092   7.001   2.694
 7809SOL    HW124326   4.170   0.034   2.696
 7809SOL    HW224327   4.124   6.907   2.680
 7810SOL     OW24328   1.978   6.558   6.115
 7810SOL    HW124329   2.000   6.485   6.051
 7810SOL    HW224330   1.879   6.564   6.126
 7811SOL     OW24331   1.574   5.671   3.138
 7811SOL    HW124332   1.646   5.640   3.076
 7811SOL    HW224333   1.615   5.714   3.218
 7812SOL     OW24334   3.171   0.878   5.748
 7812SOL    HW124335   3.214   0.824   5.821
 7812SOL    HW224336   3.077   0.847   5.736
 7813SOL     OW24337   5.772   1.330   0.590
 7813SOL    HW124338   5.851   1.388   0.572
 7813SOL    HW224339   5.764   1.315   0.689
 7814SOL     OW24340   0.144   2.597   1.991
 7814SOL    HW124341   0.208   2.613   2.066
 7814SOL    HW224342   0.081   2.524   2.016
 7815SOL     OW24343   4.756   5.792   3.004
 7815SOL    HW124344   4.784   5.707   2.960
 7815SOL    HW224345   4.732   5.859   2.934
 7816SOL     OW24346   1.069   1.404   5.565
 7816SOL    HW124347   1.023   1.468   5.503
 7816SOL    HW224348   1.015   1.321   5.575
 7817SOL     OW24349   4.258   1.034   6.271
 7817SOL    HW124350   4.298   1.065   6.185
 7817SOL    HW224351   4.275   1.102   6.342
 7818SOL     OW24352   5.534   1.402   2.878
 7818SOL    HW124353   5.627   1.406   2.916
 7818SOL    HW224354   5.532   1.335   2.804
 7819SOL     OW24355   2.396   2.749   4.478
 7819SOL    HW124356   2.307   2.777   4.515
 7819SOL    HW224357   2.390   2.743   4.378
 7820SOL     OW24358   1.494   1.253   5.888
 7820SOL    HW124359   1.525   1.226   5.796
 7820SOL    HW224360   1.468   1.350   5.887
 7821SOL     OW24361   3.757   5.442   6.625
 7821SOL    HW124362   3.777   5.522   6.567
 7821SOL    HW224363   3.754   5.471   6.721
 7822SOL     OW24364   0.870   1.512   4.667
 7822SOL    HW124365   0.948   1.501   4.729
 7822SOL    HW224366   0.873   1.602   4.624
 7823SOL     OW24367   2.760   3.058   5.614
 7823SOL    HW124368   2.764   2.964   5.647
 7823SOL    HW224369   2.696   3.111   5.669
 7824SOL     OW24370   5.889   4.226   2.617
 7824SOL    HW124371   5.946   4.295   2.662
 7824SOL    HW224372   5.834   4.179   2.686
 7825SOL     OW24373   3.409   2.894   3.173
 7825SOL    HW124374   3.504   2.880   3.145
 7825SOL    HW224375   3.349   2.883   3.094
 7826SOL     OW24376   6.467   7.009   1.065
 7826SOL    HW124377   6.517   6.943   1.009
 7826SOL    HW224378   6.462   6.976   1.159
 7827SOL     OW24379   5.215   3.896   0.521
 7827SOL    HW124380   5.207   3.944   0.433
 7827SOL    HW224381   5.164   3.946   0.591
 7828SOL     OW24382   1.154   6.562   0.689
 7828SOL    HW124383   1.251   6.557   0.669
 7828SOL    HW224384   1.102   6.563   0.603
 7829SOL     OW24385   3.589   3.825   2.841
 7829SOL    HW124386   3.490   3.831   2.832
 7829SOL    HW224387   3.628   3.917   2.838
 7830SOL     OW24388   6.723   4.562   0.432
 7830SOL    HW124389   6.657   4.610   0.489
 7830SOL    HW224390   6.811   4.609   0.435
 7831SOL     OW24391   2.699   2.563   0.067
 7831SOL    HW124392   2.760   2.642   0.057
 7831SOL    HW224393   2.734   2.487   0.012
 7832SOL     OW24394   3.473   2.786   5.990
 7832SOL    HW124395   3.481   2.875   6.035
 7832SOL    HW224396   3.563   2.744   5.983
 7833SOL     OW24397   6.336   6.741   1.915
 7833SOL    HW124398   6.258   6.804   1.921
 7833SOL    HW224399   6.410   6.775   1.972
 7834SOL     OW24400   5.529   1.220   1.682
 7834SOL    HW124401   5.487   1.156   1.746
 7834SOL    HW224402   5.479   1.307   1.684
 7835SOL     OW24403   2.689   1.878   4.406
 7835SOL    HW124404   2.713   1.966   4.364
 7835SOL    HW224405   2.589   1.867   4.404
 7836SOL     OW24406   2.442   1.017   6.471
 7836SOL    HW124407   2.499   1.099   6.463
 7836SOL    HW224408   2.431   0.993   6.567
 7837SOL     OW24409   5.634   6.128   1.890
 7837SOL    HW124410   5.728   6.129   1.856
 7837SOL    HW224411   5.585   6.207   1.855
 7838SOL     OW24412   3.657   5.610   3.746
 7838SOL    HW124413   3.570   5.562   3.762
 7838SOL    HW224414   3.666   5.686   3.811
 7839SOL     OW24415   6.959   5.371   3.859
 7839SOL    HW124416   7.024   5.314   3.810
 7839SOL    HW224417   6.994   5.465   3.864
 7840SOL     OW24418   4.316   3.010   6.221
 7840SOL    HW124419   4.402   3.023   6.271
 7840SOL    HW224420   4.336   2.993   6.125
 7841SOL     OW24421   1.272   2.306   5.707
 7841SOL    HW124422   1.211   2.354   5.644
 7841SOL    HW224423   1.285   2.361   5.789
 7842SOL     OW24424   2.036   0.819   2.678
 7842SOL    HW124425   1.949   0.866   2.661
 7842SOL    HW224426   2.111   0.885   2.668
 7843SOL     OW24427   0.049   2.169   2.050
 7843SOL    HW124428   0.105   2.191   2.130
 7843SOL    HW224429   0.070   2.077   2.019
 7844SOL     OW24430   3.688   2.049   3.326
 7844SOL    HW124431   3.665   2.065   3.230
 7844SOL    HW224432   3.748   1.970   3.333
 7845SOL     OW24433   0.470   0.608   4.491
 7845SOL    HW124434   0.396   0.609   4.558
 7845SOL    HW224435   0.555   0.638   4.535
 7846SOL     OW24436   4.419   0.658   2.175
 7846SOL    HW124437   4.464   0.613   2.098
 7846SOL    HW224438   4.462   0.629   2.260
 7847SOL     OW24439   0.367   0.011   6.780
 7847SOL    HW124440   0.276   0.049   6.797
 7847SOL    HW224441   0.428   0.035   6.855
 7848SOL     OW24442   3.993   3.668   1.582
 7848SOL    HW124443   4.089   3.671   1.555
 7848SOL    HW224444   3.986   3.648   1.680
 7849SOL     OW24445   5.045   4.187   4.901
 7849SOL    HW124446   4.997   4.104   4.929
 7849SOL    HW224447   5.028   4.205   4.804
 7850SOL     OW24448   1.428   2.856   5.086
 7850SOL    HW124449   1.351   2.884   5.029
 7850SOL    HW224450   1.451   2.930   5.149
 7851SOL     OW24451   3.946   6.889   0.738
 7851SOL    HW124452   3.876   6.864   0.804
 7851SOL    HW224453   3.904   6.902   0.648
 7852SOL     OW24454   2.967   6.949   0.642
 7852SOL    HW124455   2.997   7.017   0.709
 7852SOL    HW224456   2.886   6.983   0.594
 7853SOL     OW24457   2.002   1.611   0.703
 7853SOL    HW124458   2.017   1.565   0.615
 7853SOL    HW224459   2.031   1.550   0.777
 7854SOL     OW24460   4.115   3.326   3.974
 7854SOL    HW124461   4.116   3.424   3.992
 7854SOL    HW224462   4.207   3.295   3.949
 7855SOL     OW24463   2.867   0.269   4.902
 7855SOL    HW124464   2.818   0.202   4.958
 7855SOL    HW224465   2.806   0.303   4.831
 7856SOL     OW24466   3.404   2.809   6.935
 7856SOL    HW124467   3.349   2.890   6.914
 7856SOL    HW224468   3.383   2.778   7.028
 7857SOL     OW24469   0.591   3.076   5.232
 7857SOL    HW124470   0.644   3.006   5.183
 7857SOL    HW224471   0.546   3.034   5.311
 7858SOL     OW24472   5.255   3.273   3.447
 7858SOL    HW124473   5.169   3.288   3.496
 7858SOL    HW224474   5.310   3.357   3.451
 7859SOL     OW24475   0.333   0.189   0.625
 7859SOL    HW124476   0.376   0.126   0.560
 7859SOL    HW224477   0.368   0.281   0.611
 7860SOL     OW24478   4.802   6.337   1.368
 7860SOL    HW124479   4.886   6.290   1.342
 7860SOL    HW224480   4.725   6.301   1.315
 7861SOL     OW24481   6.224   3.428   0.166
 7861SOL    HW124482   6.322   3.417   0.148
 7861SOL    HW224483   6.197   3.522   0.146
 7862SOL     OW24484   2.694   4.843   1.923
 7862SOL    HW124485   2.727   4.751   1.942
 7862SOL    HW224486   2.712   4.866   1.828
 7863SOL     OW24487   4.284   5.895   2.315
 7863SOL    HW124488   4.336   5.849   2.387
 7863SOL    HW224489   4.218   5.957   2.356
 7864SOL     OW24490   1.205   5.753   5.234
 7864SOL    HW124491   1.153   5.676   5.269
 7864SOL    HW224492   1.142   5.827   5.209
 7865SOL     OW24493   4.436   0.825   3.077
 7865SOL    HW124494   4.397   0.869   2.996
 7865SOL    HW224495   4.515   0.877   3.109
 7866SOL     OW24496   2.788   1.409   5.870
 7866SOL    HW124497   2.821   1.417   5.964
 7866SOL    HW224498   2.696   1.371   5.870
 7867SOL     OW24499   6.132   3.623   1.272
 7867SOL    HW124500   6.129   3.664   1.181
 7867SOL    HW224501   6.055   3.561   1.282
 7868SOL     OW24502   4.487   6.807   0.815
 7868SOL    HW124503   4.446   6.717   0.830
 7868SOL    HW224504   4.429   6.877   0.857
 7869SOL     OW24505   6.073   1.855   4.115
 7869SOL    HW124506   6.036   1.762   4.111
 7869SOL    HW224507   6.168   1.854   4.084
 7870SOL     OW24508   6.672   0.474   3.282
 7870SOL    HW124509   6.708   0.508   3.368
 7870SOL    HW224510   6.716   0.387   3.258
 7871SOL     OW24511   5.240   2.928   4.252
 7871SOL    HW124512   5.318   2.867   4.233
 7871SOL    HW224513   5.180   2.930   4.172
 7872SOL     OW24514   6.920   4.145   4.324
 7872SOL    HW124515   6.946   4.117   4.416
 7872SOL    HW224516   6.821   4.142   4.314
 7873SOL     OW24517   0.023   5.484   4.333
 7873SOL    HW124518   0.115   5.520   4.349
 7873SOL    HW224519   7.000   5.550   4.279
 7874SOL     OW24520   5.940   6.998   7.022
 7874SOL    HW124521   5.955   7.019   0.090
 7874SOL    HW224522   5.983   6.910   7.001
 7875SOL     OW24523   5.291   3.213   0.266
 7875SOL    HW124524   5.335   3.228   0.354
 7875SOL    HW224525   5.253   3.121   0.262
 7876SOL     OW24526   0.305   1.780   4.773
 7876SOL    HW124527   0.363   1.857   4.746
 7876SOL    HW224528   0.311   1.709   4.703
 7877SOL     OW24529   5.585   3.900   2.227
 7877SOL    HW124530   5.520   3.849   2.283
 7877SOL    HW224531   5.676   3.896   2.269
 7878SOL     OW24532   3.758   3.671   1.420
 7878SOL    HW124533   3.836   3.652   1.479
 7878SOL    HW224534   3.682   3.611   1.445
 7879SOL     OW24535   0.049   1.225   5.078
 7879SOL    HW124536   7.008   1.157   5.099
 7879SOL    HW224537   0.026   1.271   4.992
 7880SOL     OW24538   1.737   6.141   6.671
 7880SOL    HW124539   1.740   6.093   6.583
 7880SOL    HW224540   1.814   6.205   6.676
 7881SOL     OW24541   0.952   5.364   4.545
 7881SOL    HW124542   1.015   5.346   4.469
 7881SOL    HW224543   1.002   5.401   4.623
 7882SOL     OW24544   1.789   4.565   1.558
 7882SOL    HW124545   1.709   4.541   1.502
 7882SOL    HW224546   1.760   4.621   1.636
 7883SOL     OW24547   3.229   2.063   2.255
 7883SOL    HW124548   3.133   2.086   2.239
 7883SOL    HW224549   3.282   2.081   2.172
 7884SOL     OW24550   1.170   2.846   5.733
 7884SOL    HW124551   1.082   2.799   5.731
 7884SOL    HW224552   1.224   2.813   5.810
 7885SOL     OW24553   6.120   5.496   2.273
 7885SOL    HW124554   6.039   5.543   2.238
 7885SOL    HW224555   6.120   5.401   2.241
 7886SOL     OW24556   4.353   4.620   2.742
 7886SOL    HW124557   4.399   4.699   2.702
 7886SOL    HW224558   4.282   4.587   2.679
 7887SOL     OW24559   0.959   3.268   0.742
 7887SOL    HW124560   0.860   3.262   0.756
 7887SOL    HW224561   1.004   3.282   0.830
 7888SOL     OW24562   6.847   1.842   5.252
 7888SOL    HW124563   6.929   1.793   5.281
 7888SOL    HW224564   6.873   1.923   5.199
 7889SOL     OW24565   5.476   5.070   0.173
 7889SOL    HW124566   5.442   5.000   0.235
 7889SOL    HW224567   5.401   5.129   0.145
 7890SOL     OW24568   2.279   2.737   2.393
 7890SOL    HW124569   2.261   2.833   2.414
 7890SOL    HW224570   2.198   2.683   2.413
 7891SOL     OW24571   6.270   1.581   4.352
 7891SOL    HW124572   6.327   1.504   4.381
 7891SOL    HW224573   6.306   1.620   4.268
 7892SOL     OW24574   1.121   2.032   4.535
 7892SOL    HW124575   1.199   2.082   4.571
 7892SOL    HW224576   1.036   2.077   4.562
 7893SOL     OW24577   5.889   6.047   1.283
 7893SOL    HW124578   5.792   6.071   1.290
 7893SOL    HW224579   5.944   6.119   1.325
 7894SOL     OW24580   3.308   0.590   6.643
 7894SOL    HW124581   3.252   0.666   6.610
 7894SOL    HW224582   3.312   0.592   6.743
 7895SOL     OW24583   5.771   6.559   3.288
 7895SOL    HW124584   5.755   6.510   3.374
 7895SOL    HW224585   5.688   6.558   3.233
 7896SOL     OW24586   2.583   1.802   0.483
 7896SOL    HW124587   2.515   1.825   0.414
 7896SOL    HW224588   2.631   1.885   0.513
 7897SOL     OW24589   4.603   1.492   1.592
 7897SOL    HW124590   4.520   1.516   1.542
 7897SOL    HW224591   4.613   1.392   1.592
 7898SOL     OW24592   4.724   6.195   2.974
 7898SOL    HW124593   4.646   6.216   3.033
 7898SOL    HW224594   4.785   6.132   3.021
 7899SOL     OW24595   6.119   4.759   2.884
 7899SOL    HW124596   6.041   4.715   2.928
 7899SOL    HW224597   6.142   4.843   2.934
 7900SOL     OW24598   0.230   3.378   0.848
 7900SOL    HW124599   0.300   3.309   0.830
 7900SOL    HW224600   0.246   3.458   0.791
 7901SOL     OW24601   0.451   2.545   0.052
 7901SOL    HW124602   0.372   2.500   0.010
 7901SOL    HW224603   0.535   2.498   0.024
 7902SOL     OW24604   1.729   0.365   0.908
 7902SOL    HW124605   1.800   0.332   0.847
 7902SOL    HW224606   1.682   0.288   0.950
 7903SOL     OW24607   3.171   1.946   5.523
 7903SOL    HW124608   3.092   1.997   5.558
 7903SOL    HW224609   3.241   1.940   5.594
 7904SOL     OW24610   5.315   3.212   2.821
 7904SOL    HW124611   5.285   3.132   2.873
 7904SOL    HW224612   5.278   3.295   2.863
 7905SOL     OW24613   6.324   1.724   1.769
 7905SOL    HW124614   6.377   1.752   1.689
 7905SOL    HW224615   6.386   1.701   1.844
 7906SOL     OW24616   0.494   5.962   6.146
 7906SOL    HW124617   0.517   6.056   6.174
 7906SOL    HW224618   0.408   5.962   6.095
 7907SOL     OW24619   5.817   6.149   3.777
 7907SOL    HW124620   5.908   6.189   3.791
 7907SOL    HW224621   5.781   6.117   3.864
 7908SOL     OW24622   1.833   0.311   5.769
 7908SOL    HW124623   1.803   0.281   5.678
 7908SOL    HW224624   1.897   0.244   5.807
 7909SOL     OW24625   6.338   3.198   1.511
 7909SOL    HW124626   6.413   3.135   1.491
 7909SOL    HW224627   6.252   3.156   1.482
 7910SOL     OW24628   1.613   4.532   5.136
 7910SOL    HW124629   1.561   4.458   5.180
 7910SOL    HW224630   1.551   4.587   5.080
 7911SOL     OW24631   6.201   4.013   5.691
 7911SOL    HW124632   6.131   4.017   5.762
 7911SOL    HW224633   6.256   4.097   5.694
 7912SOL     OW24634   5.862   5.817   1.109
 7912SOL    HW124635   5.815   5.758   1.174
 7912SOL    HW224636   5.890   5.901   1.154
 7913SOL     OW24637   1.395   5.049   6.139
 7913SOL    HW124638   1.362   5.075   6.230
 7913SOL    HW224639   1.421   4.953   6.140
 7914SOL     OW24640   0.924   0.118   4.785
 7914SOL    HW124641   0.985   0.197   4.801
 7914SOL    HW224642   0.962   0.062   4.711
 7915SOL     OW24643   2.820   5.445   2.030
 7915SOL    HW124644   2.826   5.483   2.122
 7915SOL    HW224645   2.762   5.364   2.031
 7916SOL     OW24646   0.863   0.668   3.971
 7916SOL    HW124647   0.925   0.747   3.966
 7916SOL    HW224648   0.846   0.646   4.067
 7917SOL     OW24649   5.037   2.387   2.983
 7917SOL    HW124650   5.054   2.378   2.885
 7917SOL    HW224651   4.984   2.471   3.000
 7918SOL     OW24652   1.679   2.531   2.619
 7918SOL    HW124653   1.703   2.537   2.523
 7918SOL    HW224654   1.670   2.435   2.645
 7919SOL     OW24655   0.868   6.755   5.152
 7919SOL    HW124656   0.955   6.765   5.200
 7919SOL    HW224657   0.821   6.843   5.149
 7920SOL     OW24658   5.358   6.700   0.753
 7920SOL    HW124659   5.437   6.716   0.693
 7920SOL    HW224660   5.323   6.788   0.785
 7921SOL     OW24661   5.305   3.364   0.575
 7921SOL    HW124662   5.285   3.457   0.546
 7921SOL    HW224663   5.231   3.330   0.633
 7922SOL     OW24664   1.998   0.059   3.045
 7922SOL    HW124665   1.906   0.063   3.084
 7922SOL    HW224666   2.047   7.011   3.086
 7923SOL     OW24667   4.933   0.268   0.652
 7923SOL    HW124668   4.895   0.292   0.741
 7923SOL    HW224669   5.032   0.252   0.661
 7924SOL     OW24670   5.652   5.752   0.245
 7924SOL    HW124671   5.688   5.700   0.323
 7924SOL    HW224672   5.727   5.800   0.199
 7925SOL     OW24673   1.500   4.385   6.037
 7925SOL    HW124674   1.463   4.348   6.122
 7925SOL    HW224675   1.600   4.391   6.044
 7926SOL     OW24676   4.903   5.893   5.705
 7926SOL    HW124677   4.838   5.857   5.772
 7926SOL    HW224678   4.987   5.921   5.751
 7927SOL     OW24679   4.324   0.408   3.426
 7927SOL    HW124680   4.286   0.360   3.347
 7927SOL    HW224681   4.424   0.401   3.425
 7928SOL     OW24682   5.622   1.742   4.189
 7928SOL    HW124683   5.656   1.828   4.150
 7928SOL    HW224684   5.554   1.702   4.127
 7929SOL     OW24685   4.949   4.093   5.966
 7929SOL    HW124686   4.990   4.043   5.889
 7929SOL    HW224687   4.981   4.188   5.963
 7930SOL     OW24688   4.338   5.729   0.193
 7930SOL    HW124689   4.390   5.649   0.163
 7930SOL    HW224690   4.248   5.700   0.226
 7931SOL     OW24691   5.196   1.060   0.391
 7931SOL    HW124692   5.148   1.143   0.363
 7931SOL    HW224693   5.289   1.083   0.421
 7932SOL     OW24694   1.055   3.411   1.253
 7932SOL    HW124695   0.970   3.409   1.199
 7932SOL    HW224696   1.061   3.498   1.302
 7933SOL     OW24697   1.356   1.881   0.627
 7933SOL    HW124698   1.395   1.824   0.700
 7933SOL    HW224699   1.430   1.920   0.573
 7934SOL     OW24700   6.915   5.268   1.148
 7934SOL    HW124701   6.912   5.319   1.062
 7934SOL    HW224702   6.822   5.246   1.177
 7935SOL     OW24703   6.462   3.089   2.857
 7935SOL    HW124704   6.408   3.162   2.898
 7935SOL    HW224705   6.406   3.039   2.791
 7936SOL     OW24706   2.189   6.049   3.233
 7936SOL    HW124707   2.096   6.063   3.198
 7936SOL    HW224708   2.252   6.042   3.156
 7937SOL     OW24709   4.293   1.300   0.788
 7937SOL    HW124710   4.311   1.270   0.695
 7937SOL    HW224711   4.217   1.365   0.788
 7938SOL     OW24712   2.318   6.988   3.484
 7938SOL    HW124713   2.391   6.927   3.513
 7938SOL    HW224714   2.298   6.971   3.387
 7939SOL     OW24715   1.665   0.592   2.465
 7939SOL    HW124716   1.653   0.492   2.464
 7939SOL    HW224717   1.671   0.626   2.372
 7940SOL     OW24718   6.238   1.838   5.191
 7940SOL    HW124719   6.225   1.925   5.144
 7940SOL    HW224720   6.263   1.855   5.287
 7941SOL     OW24721   3.397   6.966   0.517
 7941SOL    HW124722   3.347   6.986   0.432
 7941SOL    HW224723   3.494   6.956   0.496
 7942SOL     OW24724   1.075   4.047   1.177
 7942SOL    HW124725   0.984   4.049   1.219
 7942SOL    HW224726   1.139   4.099   1.233
 7943SOL     OW24727   1.607   5.656   6.920
 7943SOL    HW124728   1.527   5.596   6.925
 7943SOL    HW224729   1.580   5.743   6.877
 7944SOL     OW24730   1.127   1.904   1.012
 7944SOL    HW124731   1.160   1.963   0.938
 7944SOL    HW224732   1.175   1.816   1.008
 7945SOL     OW24733   6.063   3.559   3.165
 7945SOL    HW124734   6.084   3.503   3.245
 7945SOL    HW224735   6.124   3.639   3.163
 7946SOL     OW24736   4.283   1.304   6.114
 7946SOL    HW124737   4.338   1.300   6.030
 7946SOL    HW224738   4.339   1.341   6.188
 7947SOL     OW24739   0.398   3.480   6.444
 7947SOL    HW124740   0.409   3.531   6.529
 7947SOL    HW224741   0.367   3.387   6.463
 7948SOL     OW24742   1.205   5.871   1.048
 7948SOL    HW124743   1.141   5.947   1.047
 7948SOL    HW224744   1.159   5.788   1.015
 7949SOL     OW24745   2.908   5.535   5.583
 7949SOL    HW124746   2.832   5.471   5.587
 7949SOL    HW224747   2.942   5.541   5.489
 7950SOL     OW24748   6.526   3.524   5.350
 7950SOL    HW124749   6.606   3.483   5.394
 7950SOL    HW224750   6.480   3.584   5.415
 7951SOL     OW24751   3.856   0.068   2.777
 7951SOL    HW124752   3.848   0.167   2.789
 7951SOL    HW224753   3.950   0.045   2.756
 7952SOL     OW24754   6.907   2.826   5.275
 7952SOL    HW124755   6.915   2.809   5.373
 7952SOL    HW224756   6.878   2.920   5.260
 7953SOL     OW24757   2.085   0.095   0.521
 7953SOL    HW124758   1.999   0.082   0.472
 7953SOL    HW224759   2.110   0.192   0.520
 7954SOL     OW24760   3.426   3.104   6.976
 7954SOL    HW124761   3.521   3.080   6.960
 7954SOL    HW224762   3.420   3.199   7.006
 7955SOL     OW24763   0.063   0.922   6.898
 7955SOL    HW124764   0.015   0.931   6.811
 7955SOL    HW224765   0.133   0.850   6.890
 7956SOL     OW24766   0.082   0.187   0.408
 7956SOL    HW124767   0.126   0.098   0.412
 7956SOL    HW224768   0.014   0.194   0.481
 7957SOL     OW24769   5.633   1.379   5.584
 7957SOL    HW124770   5.629   1.312   5.509
 7957SOL    HW224771   5.651   1.332   5.670
 7958SOL     OW24772   4.639   2.400   6.759
 7958SOL    HW124773   4.735   2.414   6.783
 7958SOL    HW224774   4.585   2.479   6.787
 7959SOL     OW24775   4.720   3.264   0.098
 7959SOL    HW124776   4.734   3.230   0.005
 7959SOL    HW224777   4.760   3.355   0.108
 7960SOL     OW24778   0.939   1.637   5.058
 7960SOL    HW124779   0.861   1.616   5.117
 7960SOL    HW224780   0.952   1.736   5.054
 7961SOL     OW24781   5.920   0.880   6.764
 7961SOL    HW124782   5.985   0.951   6.792
 7961SOL    HW224783   5.834   0.894   6.811
 7962SOL     OW24784   5.777   6.696   4.733
 7962SOL    HW124785   5.831   6.726   4.812
 7962SOL    HW224786   5.708   6.765   4.712
 7963SOL     OW24787   5.766   6.273   2.895
 7963SOL    HW124788   5.744   6.203   2.827
 7963SOL    HW224789   5.865   6.282   2.904
 7964SOL     OW24790   6.562   3.768   1.772
 7964SOL    HW124791   6.559   3.866   1.755
 7964SOL    HW224792   6.488   3.723   1.722
 7965SOL     OW24793   4.848   1.530   6.542
 7965SOL    HW124794   4.896   1.466   6.602
 7965SOL    HW224795   4.796   1.594   6.598
 7966SOL     OW24796   5.849   3.363   4.998
 7966SOL    HW124797   5.854   3.463   4.995
 7966SOL    HW224798   5.768   3.335   5.049
 7967SOL     OW24799   1.917   4.288   1.318
 7967SOL    HW124800   1.915   4.358   1.246
 7967SOL    HW224801   1.823   4.262   1.340
 7968SOL     OW24802   2.288   2.956   4.113
 7968SOL    HW124803   2.195   2.984   4.136
 7968SOL    HW224804   2.353   3.015   4.161
 7969SOL     OW24805   3.427   4.601   6.668
 7969SOL    HW124806   3.356   4.571   6.733
 7969SOL    HW224807   3.489   4.525   6.650
 7970SOL     OW24808   6.145   2.945   3.630
 7970SOL    HW124809   6.223   3.007   3.623
 7970SOL    HW224810   6.175   2.851   3.618
 7971SOL     OW24811   3.498   0.842   6.832
 7971SOL    HW124812   3.494   0.891   6.919
 7971SOL    HW224813   3.447   0.757   6.839
 7972SOL     OW24814   3.919   3.499   4.563
 7972SOL    HW124815   3.923   3.501   4.663
 7972SOL    HW224816   3.986   3.563   4.526
 7973SOL     OW24817   0.411   4.892   1.921
 7973SOL    HW124818   0.408   4.855   1.828
 7973SOL    HW224819   0.353   4.836   1.981
 7974SOL     OW24820   0.772   3.090   4.826
 7974SOL    HW124821   0.691   3.137   4.860
 7974SOL    HW224822   0.789   3.116   4.731
 7975SOL     OW24823   3.977   6.760   6.945
 7975SOL    HW124824   3.878   6.745   6.939
 7975SOL    HW224825   4.024   6.692   6.889
 7976SOL     OW24826   0.868   0.483   0.281
 7976SOL    HW124827   0.822   0.397   0.259
 7976SOL    HW224828   0.799   0.555   0.294
 7977SOL     OW24829   4.677   5.188   2.648
 7977SOL    HW124830   4.762   5.147   2.679
 7977SOL    HW224831   4.599   5.140   2.689
 7978SOL     OW24832   0.103   3.919   1.304
 7978SOL    HW124833   0.047   3.935   1.223
 7978SOL    HW224834   0.148   4.004   1.331
 7979SOL     OW24835   2.975   2.173   5.782
 7979SOL    HW124836   2.945   2.219   5.699
 7979SOL    HW224837   2.957   2.075   5.775
 7980SOL     OW24838   3.634   5.664   2.201
 7980SOL    HW124839   3.671   5.688   2.112
 7980SOL    HW224840   3.690   5.592   2.242
 7981SOL     OW24841   1.340   3.621   4.684
 7981SOL    HW124842   1.389   3.570   4.614
 7981SOL    HW224843   1.380   3.713   4.692
 7982SOL     OW24844   6.719   0.571   0.275
 7982SOL    HW124845   6.733   0.661   0.316
 7982SOL    HW224846   6.642   0.574   0.211
 7983SOL     OW24847   3.453   0.957   1.664
 7983SOL    HW124848   3.494   1.034   1.614
 7983SOL    HW224849   3.416   0.990   1.751
 7984SOL     OW24850   6.227   2.686   3.216
 7984SOL    HW124851   6.298   2.727   3.158
 7984SOL    HW224852   6.149   2.748   3.221
 7985SOL     OW24853   3.477   3.633   5.576
 7985SOL    HW124854   3.463   3.679   5.663
 7985SOL    HW224855   3.392   3.590   5.546
 7986SOL     OW24856   3.281   0.490   3.914
 7986SOL    HW124857   3.306   0.585   3.935
 7986SOL    HW224858   3.210   0.489   3.844
 7987SOL     OW24859   1.463   2.841   6.322
 7987SOL    HW124860   1.461   2.930   6.275
 7987SOL    HW224861   1.484   2.769   6.255
 7988SOL     OW24862   6.436   0.698   1.284
 7988SOL    HW124863   6.446   0.599   1.280
 7988SOL    HW224864   6.373   0.728   1.213
 7989SOL     OW24865   0.187   4.651   1.586
 7989SOL    HW124866   0.220   4.648   1.492
 7989SOL    HW224867   0.252   4.701   1.643
 7990SOL     OW24868   3.796   5.231   4.975
 7990SOL    HW124869   3.704   5.194   4.990
 7990SOL    HW224870   3.791   5.331   4.974
 7991SOL     OW24871   5.067   0.804   4.516
 7991SOL    HW124872   5.144   0.747   4.487
 7991SOL    HW224873   5.089   0.900   4.500
 7992SOL     OW24874   2.018   0.930   6.961
 7992SOL    HW124875   1.948   0.961   7.026
 7992SOL    HW224876   1.982   0.855   6.906
 7993SOL     OW24877   6.297   6.363   0.575
 7993SOL    HW124878   6.269   6.454   0.603
 7993SOL    HW224879   6.372   6.331   0.633
 7994SOL     OW24880   0.413   1.242   4.805
 7994SOL    HW124881   0.339   1.190   4.762
 7994SOL    HW224882   0.460   1.296   4.736
 7995SOL     OW24883   0.790   5.905   1.482
 7995SOL    HW124884   0.866   5.854   1.523
 7995SOL    HW224885   0.703   5.862   1.508
 7996SOL     OW24886   2.106   6.912   3.694
 7996SOL    HW124887   2.197   6.953   3.683
 7996SOL    HW224888   2.116   6.818   3.725
 7997SOL     OW24889   2.535   1.311   5.881
 7997SOL    HW124890   2.517   1.224   5.928
 7997SOL    HW224891   2.449   1.348   5.846
 7998SOL     OW24892   1.675   1.181   1.240
 7998SOL    HW124893   1.761   1.140   1.209
 7998SOL    HW224894   1.605   1.169   1.170
 7999SOL     OW24895   0.199   1.056   2.777
 7999SOL    HW124896   0.210   1.134   2.839
 7999SOL    HW224897   0.258   0.981   2.806
 8000SOL     OW24898   4.363   5.711   0.606
 8000SOL    HW124899   4.326   5.779   0.543
 8000SOL    HW224900   4.416   5.643   0.554
 8001SOL     OW24901   5.482   4.480   2.326
 8001SOL    HW124902   5.559   4.538   2.300
 8001SOL    HW224903   5.397   4.532   2.320
 8002SOL     OW24904   1.157   0.561   4.724
 8002SOL    HW124905   1.235   0.570   4.786
 8002SOL    HW224906   1.096   0.489   4.757
 8003SOL     OW24907   2.684   5.741   3.216
 8003SOL    HW124908   2.677   5.769   3.312
 8003SOL    HW224909   2.672   5.642   3.209
 8004SOL     OW24910   2.107   3.624   4.012
 8004SOL    HW124911   2.119   3.691   3.939
 8004SOL    HW224912   2.043   3.659   4.080
 8005SOL     OW24913   3.060   0.065   4.379
 8005SOL    HW124914   3.105   0.011   4.308
 8005SOL    HW224915   2.960   0.056   4.369
 8006SOL     OW24916   4.647   5.240   6.173
 8006SOL    HW124917   4.640   5.150   6.216
 8006SOL    HW224918   4.679   5.230   6.079
 8007SOL     OW24919   0.106   0.571   1.253
 8007SOL    HW124920   0.023   0.609   1.294
 8007SOL    HW224921   0.136   0.630   1.179
 8008SOL     OW24922   5.454   4.901   0.615
 8008SOL    HW124923   5.507   4.984   0.595
 8008SOL    HW224924   5.515   4.822   0.615
 8009SOL     OW24925   6.815   1.099   1.713
 8009SOL    HW124926   6.777   1.008   1.693
 8009SOL    HW224927   6.907   1.106   1.674
 8010SOL     OW24928   2.762   0.213   5.925
 8010SOL    HW124929   2.815   0.297   5.936
 8010SOL    HW224930   2.700   0.201   6.003
 8011SOL     OW24931   3.758   2.099   2.621
 8011SOL    HW124932   3.838   2.153   2.649
 8011SOL    HW224933   3.769   2.073   2.525
 8012SOL     OW24934   6.396   0.534   5.095
 8012SOL    HW124935   6.328   0.514   5.165
 8012SOL    HW224936   6.488   0.520   5.133
 8013SOL     OW24937   3.653   0.372   3.188
 8013SOL    HW124938   3.693   0.346   3.276
 8013SOL    HW224939   3.727   0.397   3.125
 8014SOL     OW24940   2.273   2.871   3.861
 8014SOL    HW124941   2.281   2.917   3.949
 8014SOL    HW224942   2.246   2.776   3.875
 8015SOL     OW24943   3.339   6.350   4.637
 8015SOL    HW124944   3.317   6.308   4.725
 8015SOL    HW224945   3.434   6.382   4.639
 8016SOL     OW24946   3.330   2.789   5.591
 8016SOL    HW124947   3.422   2.828   5.604
 8016SOL    HW224948   3.323   2.751   5.499
 8017SOL     OW24949   5.771   6.351   1.700
 8017SOL    HW124950   5.747   6.446   1.720
 8017SOL    HW224951   5.700   6.309   1.644
 8018SOL     OW24952   2.793   3.463   0.923
 8018SOL    HW124953   2.728   3.462   0.846
 8018SOL    HW224954   2.781   3.548   0.974
 8019SOL     OW24955   2.626   3.739   0.860
 8019SOL    HW124956   2.678   3.823   0.842
 8019SOL    HW224957   2.571   3.752   0.943
 8020SOL     OW24958   0.319   0.342   0.051
 8020SOL    HW124959   0.371   0.398   7.016
 8020SOL    HW224960   0.381   0.285   0.104
 8021SOL     OW24961   1.021   3.022   0.631
 8021SOL    HW124962   1.062   2.974   0.708
 8021SOL    HW224963   0.997   3.115   0.658
 8022SOL     OW24964   4.378   0.399   2.381
 8022SOL    HW124965   4.471   0.400   2.417
 8022SOL    HW224966   4.366   0.317   2.325
 8023SOL     OW24967   4.032   5.146   2.177
 8023SOL    HW124968   4.024   5.049   2.155
 8023SOL    HW224969   3.985   5.165   2.263
 8024SOL     OW24970   2.316   0.664   5.994
 8024SOL    HW124971   2.288   0.626   6.082
 8024SOL    HW224972   2.393   0.726   6.007
 8025SOL     OW24973   1.059   6.921   1.454
 8025SOL    HW124974   1.148   6.951   1.418
 8025SOL    HW224975   1.002   6.891   1.378
 8026SOL     OW24976   0.508   0.106   6.124
 8026SOL    HW124977   0.437   0.068   6.183
 8026SOL    HW224978   0.582   0.040   6.114
 8027SOL     OW24979   4.749   0.175   6.461
 8027SOL    HW124980   4.790   0.104   6.518
 8027SOL    HW224981   4.658   0.198   6.495
 8028SOL     OW24982   4.011   5.870   6.517
 8028SOL    HW124983   3.932   5.812   6.497
 8028SOL    HW224984   4.072   5.822   6.580
 8029SOL     OW24985   0.806   0.186   1.466
 8029SOL    HW124986   0.849   0.225   1.548
 8029SOL    HW224987   0.751   0.107   1.492
 8030SOL     OW24988   0.513   3.888   1.138
 8030SOL    HW124989   0.469   3.811   1.184
 8030SOL    HW224990   0.447   3.933   1.078
 8031SOL     OW24991   6.786   0.727   3.232
 8031SOL    HW124992   6.871   0.715   3.283
 8031SOL    HW224993   6.746   0.638   3.213
 8032SOL     OW24994   0.340   3.113   1.005
 8032SOL    HW124995   0.358   3.020   1.037
 8032SOL    HW224996   0.352   3.117   0.906
 8033SOL     OW24997   3.824   4.708   1.100
 8033SOL    HW124998   3.821   4.669   1.008
 8033SOL    HW224999   3.907   4.761   1.112
 8034SOL     OW25000   0.701   1.251   5.431
 8034SOL    HW125001   0.728   1.258   5.527
 8034SOL    HW225002   0.679   1.342   5.395
 8035SOL     OW25003   5.659   0.422   4.525
 8035SOL    HW125004   5.720   0.348   4.553
 8035SOL    HW225005   5.710   0.489   4.471
 8036SOL     OW25006   4.968   4.210   3.791
 8036SOL    HW125007   4.954   4.148   3.713
 8036SOL    HW225008   4.924   4.172   3.872
 8037SOL     OW25009   2.778   1.584   6.394
 8037SOL    HW125010   2.686   1.571   6.430
 8037SOL    HW225011   2.839   1.516   6.435
 8038SOL     OW25012   0.086   5.703   1.734
 8038SOL    HW125013   0.034   5.696   1.649
 8038SOL    HW225014   0.044   5.771   1.793
 8039SOL     OW25015   1.948   2.487   5.269
 8039SOL    HW125016   2.011   2.530   5.332
 8039SOL    HW225017   1.980   2.395   5.247
 8040SOL     OW25018   0.759   6.612   6.063
 8040SOL    HW125019   0.798   6.591   5.973
 8040SOL    HW225020   0.828   6.594   6.134
 8041SOL     OW25021   3.044   1.641   2.904
 8041SOL    HW125022   3.019   1.690   2.988
 8041SOL    HW225023   3.132   1.674   2.871
 8042SOL     OW25024   3.984   4.149   6.125
 8042SOL    HW125025   3.895   4.182   6.093
 8042SOL    HW225026   3.988   4.050   6.116
 8043SOL     OW25027   5.253   4.924   6.899
 8043SOL    HW125028   5.245   4.936   6.998
 8043SOL    HW225029   5.325   4.983   6.864
 8044SOL     OW25030   0.927   2.965   1.666
 8044SOL    HW125031   0.932   2.982   1.567
 8044SOL    HW225032   0.855   3.021   1.706
 8045SOL     OW25033   6.140   3.513   4.910
 8045SOL    HW125034   6.061   3.453   4.916
 8045SOL    HW225035   6.200   3.499   4.988
 8046SOL     OW25036   0.356   4.318   0.683
 8046SOL    HW125037   0.440   4.333   0.736
 8046SOL    HW225038   0.379   4.276   0.596
 8047SOL     OW25039   3.167   6.477   6.955
 8047SOL    HW125040   3.125   6.521   0.006
 8047SOL    HW225041   3.229   6.542   6.910
 8048SOL     OW25042   4.311   2.052   6.728
 8048SOL    HW125043   4.338   2.111   6.651
 8048SOL    HW225044   4.393   2.027   6.780
 8049SOL     OW25045   1.953   1.415   1.149
 8049SOL    HW125046   1.954   1.421   1.249
 8049SOL    HW225047   2.046   1.414   1.114
 8050SOL     OW25048   0.040   5.384   6.014
 8050SOL    HW125049   0.011   5.408   5.922
 8050SOL    HW225050   0.057   5.468   6.066
 8051SOL     OW25051   4.383   6.478   2.611
 8051SOL    HW125052   4.432   6.423   2.679
 8051SOL    HW225053   4.285   6.458   2.616
 8052SOL     OW25054   2.795   1.322   3.080
 8052SOL    HW125055   2.852   1.321   2.999
 8052SOL    HW225056   2.703   1.353   3.057
 8053SOL     OW25057   1.032   2.400   6.370
 8053SOL    HW125058   0.968   2.473   6.347
 8053SOL    HW225059   1.029   2.329   6.299
 8054SOL     OW25060   5.081   3.724   5.270
 8054SOL    HW125061   5.140   3.738   5.349
 8054SOL    HW225062   5.129   3.752   5.187
 8055SOL     OW25063   6.627   0.061   6.836
 8055SOL    HW125064   6.697   0.118   6.879
 8055SOL    HW225065   6.648   0.051   6.738
 8056SOL     OW25066   2.545   2.582   3.645
 8056SOL    HW125067   2.473   2.612   3.708
 8056SOL    HW225068   2.611   2.526   3.694
 8057SOL     OW25069   3.285   2.103   1.952
 8057SOL    HW125070   3.187   2.120   1.954
 8057SOL    HW225071   3.324   2.138   1.867
 8058SOL     OW25072   4.098   6.385   1.469
 8058SOL    HW125073   4.047   6.415   1.550
 8058SOL    HW225074   4.114   6.287   1.475
 8059SOL     OW25075   3.967   2.976   5.648
 8059SOL    HW125076   4.022   2.893   5.657
 8059SOL    HW225077   3.975   3.012   5.555
 8060SOL     OW25078   0.302   1.197   5.545
 8060SOL    HW125079   0.364   1.273   5.568
 8060SOL    HW225080   0.242   1.225   5.470
 8061SOL     OW25081   6.847   0.803   1.491
 8061SOL    HW125082   6.835   0.725   1.429
 8061SOL    HW225083   6.919   0.783   1.556
 8062SOL     OW25084   3.685   4.871   6.236
 8062SOL    HW125085   3.631   4.821   6.304
 8062SOL    HW225086   3.699   4.814   6.155
 8063SOL     OW25087   2.428   4.783   3.180
 8063SOL    HW125088   2.482   4.715   3.129
 8063SOL    HW225089   2.444   4.874   3.141
 8064SOL     OW25090   7.024   3.083   0.785
 8064SOL    HW125091   7.009   3.180   0.804
 8064SOL    HW225092   0.031   3.038   0.868
 8065SOL     OW25093   4.765   0.043   6.860
 8065SOL    HW125094   4.668   0.018   6.854
 8065SOL    HW225095   4.777   0.136   6.824
 8066SOL     OW25096   6.742   0.882   6.008
 8066SOL    HW125097   6.789   0.964   6.042
 8066SOL    HW225098   6.802   0.833   5.945
 8067SOL     OW25099   4.799   0.993   4.393
 8067SOL    HW125100   4.892   1.006   4.359
 8067SOL    HW225101   4.740   1.066   4.356
 8068SOL     OW25102   6.691   4.623   1.663
 8068SOL    HW125103   6.615   4.667   1.616
 8068SOL    HW225104   6.676   4.624   1.762
 8069SOL     OW25105   1.363   2.396   2.240
 8069SOL    HW125106   1.265   2.402   2.257
 8069SOL    HW225107   1.403   2.324   2.297
 8070SOL     OW25108   5.150   3.876   1.693
 8070SOL    HW125109   5.140   3.934   1.612
 8070SOL    HW225110   5.245   3.881   1.725
 8071SOL     OW25111   2.606   0.510   5.908
 8071SOL    HW125112   2.656   0.459   5.838
 8071SOL    HW225113   2.526   0.457   5.937
 8072SOL     OW25114   2.378   2.151   5.749
 8072SOL    HW125115   2.450   2.210   5.786
 8072SOL    HW225116   2.303   2.144   5.815
 8073SOL     OW25117   5.724   0.229   6.532
 8073SOL    HW125118   5.673   0.207   6.616
 8073SOL    HW225119   5.717   0.153   6.468
 8074SOL     OW25120   6.625   1.007   0.667
 8074SOL    HW125121   6.541   0.955   0.679
 8074SOL    HW225122   6.691   0.980   0.737
 8075SOL     OW25123   0.590   0.590   1.144
 8075SOL    HW125124   0.572   0.492   1.139
 8075SOL    HW225125   0.652   0.609   1.220
 8076SOL     OW25126   6.460   6.032   0.690
 8076SOL    HW125127   6.514   6.022   0.774
 8076SOL    HW225128   6.501   5.977   0.617
 8077SOL     OW25129   5.917   4.147   1.232
 8077SOL    HW125130   5.937   4.052   1.208
 8077SOL    HW225131   5.978   4.177   1.305
 8078SOL     OW25132   6.306   1.415   1.931
 8078SOL    HW125133   6.229   1.449   1.985
 8078SOL    HW225134   6.388   1.412   1.988
 8079SOL     OW25135   0.306   0.762   6.824
 8079SOL    HW125136   0.358   0.749   6.908
 8079SOL    HW225137   0.341   0.841   6.774
 8080SOL     OW25138   0.705   4.053   3.905
 8080SOL    HW125139   0.674   4.129   3.963
 8080SOL    HW225140   0.671   4.067   3.812
 8081SOL     OW25141   6.119   1.005   5.745
 8081SOL    HW125142   6.199   1.038   5.696
 8081SOL    HW225143   6.058   0.956   5.683
 8082SOL     OW25144   4.988   2.663   4.790
 8082SOL    HW125145   4.929   2.639   4.868
 8082SOL    HW225146   5.029   2.580   4.753
 8083SOL     OW25147   6.517   3.145   4.312
 8083SOL    HW125148   6.445   3.145   4.381
 8083SOL    HW225149   6.601   3.182   4.351
 8084SOL     OW25150   5.262   1.919   0.228
 8084SOL    HW125151   5.172   1.907   0.186
 8084SOL    HW225152   5.291   2.014   0.217
 8085SOL     OW25153   1.526   6.180   4.353
 8085SOL    HW125154   1.575   6.095   4.370
 8085SOL    HW225155   1.430   6.169   4.378
 8086SOL     OW25156   0.351   2.519   2.423
 8086SOL    HW125157   0.448   2.541   2.437
 8086SOL    HW225158   0.294   2.588   2.469
 8087SOL     OW25159   6.691   0.643   6.589
 8087SOL    HW125160   6.743   0.586   6.525
 8087SOL    HW225161   6.750   0.669   6.665
 8088SOL     OW25162   0.407   6.825   5.224
 8088SOL    HW125163   0.311   6.833   5.198
 8088SOL    HW225164   0.431   6.899   5.287
 8089SOL     OW25165   6.443   1.585   0.029
 8089SOL    HW125166   6.365   1.525   0.015
 8089SOL    HW225167   6.427   1.673   7.012
 8090SOL     OW25168   4.674   2.340   4.854
 8090SOL    HW125169   4.712   2.380   4.771
 8090SOL    HW225170   4.731   2.365   4.932
 8091SOL     OW25171   0.542   3.688   4.788
 8091SOL    HW125172   0.628   3.683   4.738
 8091SOL    HW225173   0.538   3.774   4.840
 8092SOL     OW25174   4.706   0.459   6.128
 8092SOL    HW125175   4.752   0.542   6.160
 8092SOL    HW225176   4.609   0.464   6.151
 8093SOL     OW25177   2.976   6.948   3.216
 8093SOL    HW125178   3.026   6.936   3.301
 8093SOL    HW225179   2.887   6.904   3.222
 8094SOL     OW25180   1.855   3.958   4.118
 8094SOL    HW125181   1.804   4.043   4.105
 8094SOL    HW225182   1.953   3.977   4.117
 8095SOL     OW25183   1.441   5.705   4.587
 8095SOL    HW125184   1.444   5.695   4.686
 8095SOL    HW225185   1.439   5.615   4.544
 8096SOL     OW25186   0.748   4.658   1.054
 8096SOL    HW125187   0.780   4.722   1.123
 8096SOL    HW225188   0.721   4.572   1.098
 8097SOL     OW25189   5.206   6.488   6.931
 8097SOL    HW125190   5.295   6.469   6.890
 8097SOL    HW225191   5.188   6.421   7.003
 8098SOL     OW25192   2.798   6.183   4.706
 8098SOL    HW125193   2.748   6.173   4.620
 8098SOL    HW225194   2.894   6.206   4.686
 8099SOL     OW25195   2.189   3.931   2.626
 8099SOL    HW125196   2.145   4.021   2.622
 8099SOL    HW225197   2.120   3.860   2.612
 8100SOL     OW25198   6.937   6.804   0.353
 8100SOL    HW125199   6.915   6.779   0.447
 8100SOL    HW225200   6.861   6.855   0.313
 8101SOL     OW25201   2.166   5.074   0.051
 8101SOL    HW125202   2.234   5.121   0.107
 8101SOL    HW225203   2.075   5.111   0.072
 8102SOL     OW25204   1.121   4.761   3.901
 8102SOL    HW125205   1.209   4.787   3.862
 8102SOL    HW225206   1.130   4.672   3.946
 8103SOL     OW25207   4.191   0.733   1.352
 8103SOL    HW125208   4.205   0.722   1.450
 8103SOL    HW225209   4.119   0.801   1.336
 8104SOL     OW25210   0.815   5.750   6.676
 8104SOL    HW125211   0.726   5.761   6.632
 8104SOL    HW225212   0.811   5.674   6.741
 8105SOL     OW25213   6.720   0.145   2.966
 8105SOL    HW125214   6.650   0.197   2.917
 8105SOL    HW225215   6.685   0.053   2.984
 8106SOL     OW25216   2.947   6.402   6.477
 8106SOL    HW125217   2.973   6.369   6.386
 8106SOL    HW225218   2.857   6.365   6.502
 8107SOL     OW25219   1.151   6.839   0.164
 8107SOL    HW125220   1.055   6.857   0.184
 8107SOL    HW225221   1.190   6.779   0.234
 8108SOL     OW25222   1.686   1.300   0.608
 8108SOL    HW125223   1.784   1.296   0.588
 8108SOL    HW225224   1.673   1.314   0.707
 8109SOL     OW25225   0.363   3.878   2.180
 8109SOL    HW125226   0.263   3.880   2.184
 8109SOL    HW225227   0.392   3.874   2.084
 8110SOL     OW25228   4.497   4.091   0.276
 8110SOL    HW125229   4.419   4.065   0.333
 8110SOL    HW225230   4.569   4.023   0.285
 8111SOL     OW25231   5.885   1.957   2.335
 8111SOL    HW125232   5.841   2.042   2.308
 8111SOL    HW225233   5.884   1.949   2.434
 8112SOL     OW25234   2.133   4.823   6.229
 8112SOL    HW125235   2.101   4.847   6.321
 8112SOL    HW225236   2.067   4.761   6.186
 8113SOL     OW25237   5.210   4.948   6.537
 8113SOL    HW125238   5.120   4.916   6.564
 8113SOL    HW225239   5.253   4.881   6.476
 8114SOL     OW25240   2.131   3.237   3.002
 8114SOL    HW125241   2.133   3.138   2.989
 8114SOL    HW225242   2.121   3.282   2.913
 8115SOL     OW25243   2.409   1.441   6.257
 8115SOL    HW125244   2.375   1.416   6.348
 8115SOL    HW225245   2.352   1.397   6.187
 8116SOL     OW25246   4.138   3.435   2.192
 8116SOL    HW125247   4.067   3.468   2.130
 8116SOL    HW225248   4.228   3.459   2.156
 8117SOL     OW25249   1.338   0.184   4.111
 8117SOL    HW125250   1.321   0.279   4.086
 8117SOL    HW225251   1.435   0.172   4.132
 8118SOL     OW25252   6.440   2.500   0.060
 8118SOL    HW125253   6.343   2.518   0.044
 8118SOL    HW225254   6.468   2.419   0.008
 8119SOL     OW25255   5.132   5.174   6.126
 8119SOL    HW125256   5.194   5.191   6.050
 8119SOL    HW225257   5.169   5.215   6.209
 8120SOL     OW25258   2.318   6.595   2.572
 8120SOL    HW125259   2.409   6.560   2.550
 8120SOL    HW225260   2.257   6.519   2.593
 8121SOL     OW25261   2.182   2.638   2.654
 8121SOL    HW125262   2.277   2.606   2.665
 8121SOL    HW225263   2.145   2.602   2.568
 8122SOL     OW25264   1.040   4.643   1.406
 8122SOL    HW125265   1.094   4.702   1.345
 8122SOL    HW225266   0.990   4.700   1.471
 8123SOL     OW25267   6.985   1.616   6.684
 8123SOL    HW125268   7.003   1.666   6.769
 8123SOL    HW225269   7.001   1.676   6.606
 8124SOL     OW25270   6.672   5.972   5.268
 8124SOL    HW125271   6.611   5.893   5.270
 8124SOL    HW225272   6.662   6.025   5.352
 8125SOL     OW25273   1.134   5.921   1.900
 8125SOL    HW125274   1.229   5.951   1.912
 8125SOL    HW225275   1.106   5.935   1.805
 8126SOL     OW25276   3.611   5.734   4.540
 8126SOL    HW125277   3.675   5.660   4.517
 8126SOL    HW225278   3.600   5.795   4.462
 8127SOL     OW25279   3.943   1.588   6.325
 8127SOL    HW125280   3.890   1.628   6.400
 8127SOL    HW225281   4.029   1.640   6.314
 8128SOL     OW25282   3.280   3.081   1.205
 8128SOL    HW125283   3.208   3.012   1.194
 8128SOL    HW225284   3.367   3.042   1.176
 8129SOL     OW25285   0.285   2.565   3.804
 8129SOL    HW125286   0.212   2.529   3.746
 8129SOL    HW225287   0.370   2.571   3.751
 8130SOL     OW25288   6.728   6.344   6.844
 8130SOL    HW125289   6.825   6.344   6.818
 8130SOL    HW225290   6.676   6.397   6.777
 8131SOL     OW25291   2.060   2.527   1.072
 8131SOL    HW125292   2.043   2.587   0.994
 8131SOL    HW225293   2.138   2.563   1.125
 8132SOL     OW25294   6.295   1.643   4.652
 8132SOL    HW125295   6.288   1.672   4.748
 8132SOL    HW225296   6.223   1.578   4.631
 8133SOL     OW25297   3.627   5.339   1.437
 8133SOL    HW125298   3.719   5.359   1.402
 8133SOL    HW225299   3.565   5.411   1.408
 8134SOL     OW25300   5.874   2.178   6.326
 8134SOL    HW125301   5.970   2.183   6.297
 8134SOL    HW225302   5.818   2.144   6.251
 8135SOL     OW25303   2.663   6.148   2.000
 8135SOL    HW125304   2.626   6.142   1.908
 8135SOL    HW225305   2.608   6.212   2.054
 8136SOL     OW25306   4.782   4.807   2.612
 8136SOL    HW125307   4.693   4.852   2.601
 8136SOL    HW225308   4.787   4.728   2.551
 8137SOL     OW25309   4.485   1.028   5.987
 8137SOL    HW125310   4.446   1.080   5.910
 8137SOL    HW225311   4.452   0.934   5.984
 8138SOL     OW25312   5.662   0.922   2.184
 8138SOL    HW125313   5.602   0.907   2.262
 8138SOL    HW225314   5.607   0.948   2.104
 8139SOL     OW25315   0.241   0.935   4.475
 8139SOL    HW125316   0.155   0.890   4.453
 8139SOL    HW225317   0.287   0.961   4.390
 8140SOL     OW25318   4.938   2.574   3.298
 8140SOL    HW125319   4.879   2.653   3.318
 8140SOL    HW225320   4.881   2.498   3.267
 8141SOL     OW25321   5.963   3.785   3.628
 8141SOL    HW125322   5.910   3.701   3.623
 8141SOL    HW225323   6.057   3.765   3.655
 8142SOL     OW25324   6.905   6.509   0.299
 8142SOL    HW125325   6.989   6.466   0.332
 8142SOL    HW225326   6.921   6.546   0.207
 8143SOL     OW25327   6.551   2.855   5.313
 8143SOL    HW125328   6.594   2.777   5.358
 8143SOL    HW225329   6.550   2.933   5.375
 8144SOL     OW25330   5.068   5.879   6.655
 8144SOL    HW125331   5.081   5.969   6.697
 8144SOL    HW225332   5.040   5.814   6.726
 8145SOL     OW25333   4.677   6.296   3.394
 8145SOL    HW125334   4.603   6.294   3.460
 8145SOL    HW225335   4.746   6.363   3.424
 8146SOL     OW25336   3.581   1.708   4.020
 8146SOL    HW125337   3.669   1.755   4.017
 8146SOL    HW225338   3.546   1.709   4.114
 8147SOL     OW25339   5.154   1.217   3.247
 8147SOL    HW125340   5.218   1.212   3.171
 8147SOL    HW225341   5.116   1.309   3.253
 8148SOL     OW25342   6.846   3.821   3.086
 8148SOL    HW125343   6.767   3.820   3.025
 8148SOL    HW225344   6.920   3.768   3.045
 8149SOL     OW25345   4.043   5.094   3.595
 8149SOL    HW125346   4.015   5.152   3.519
 8149SOL    HW225347   4.056   5.000   3.563
 8150SOL     OW25348   1.177   6.675   1.256
 8150SOL    HW125349   1.205   6.768   1.278
 8150SOL    HW225350   1.214   6.612   1.325
 8151SOL     OW25351   0.653   1.458   4.894
 8151SOL    HW125352   0.583   1.395   4.860
 8151SOL    HW225353   0.710   1.489   4.817
 8152SOL     OW25354   0.554   0.715   3.586
 8152SOL    HW125355   0.626   0.777   3.616
 8152SOL    HW225356   0.595   0.637   3.539
 8153SOL     OW25357   2.172   6.614   0.236
 8153SOL    HW125358   2.075   6.613   0.259
 8153SOL    HW225359   2.226   6.609   0.320
 8154SOL     OW25360   1.969   6.699   3.266
 8154SOL    HW125361   1.971   6.611   3.313
 8154SOL    HW225362   1.904   6.694   3.190
 8155SOL     OW25363   3.154   3.869   4.748
 8155SOL    HW125364   3.206   3.939   4.798
 8155SOL    HW225365   3.137   3.902   4.655
 8156SOL     OW25366   0.454   7.012   5.409
 8156SOL    HW125367   0.515   0.052   5.447
 8156SOL    HW225368   0.359   0.012   5.420
 8157SOL     OW25369   5.546   2.493   6.560
 8157SOL    HW125370   5.578   2.549   6.637
 8157SOL    HW225371   5.513   2.552   6.487
 8158SOL     OW25372   1.255   5.400   2.637
 8158SOL    HW125373   1.301   5.327   2.587
 8158SOL    HW225374   1.270   5.488   2.591
 8159SOL     OW25375   0.495   6.014   0.495
 8159SOL    HW125376   0.489   5.943   0.425
 8159SOL    HW225377   0.444   5.985   0.576
 8160SOL     OW25378   4.591   1.829   1.766
 8160SOL    HW125379   4.618   1.745   1.813
 8160SOL    HW225380   4.644   1.839   1.682
 8161SOL     OW25381   4.094   3.259   1.470
 8161SOL    HW125382   4.034   3.324   1.423
 8161SOL    HW225383   4.179   3.306   1.496
 8162SOL     OW25384   6.252   0.739   2.300
 8162SOL    HW125385   6.268   0.775   2.208
 8162SOL    HW225386   6.251   0.816   2.365
 8163SOL     OW25387   2.428   2.727   5.736
 8163SOL    HW125388   2.351   2.789   5.724
 8163SOL    HW225389   2.463   2.699   5.647
 8164SOL     OW25390   4.795   3.805   1.863
 8164SOL    HW125391   4.777   3.863   1.784
 8164SOL    HW225392   4.740   3.721   1.856
 8165SOL     OW25393   1.757   4.374   1.789
 8165SOL    HW125394   1.829   4.320   1.832
 8165SOL    HW225395   1.781   4.393   1.694
 8166SOL     OW25396   3.314   0.168   1.275
 8166SOL    HW125397   3.381   0.103   1.238
 8166SOL    HW225398   3.303   0.151   1.373
 8167SOL     OW25399   5.573   2.598   4.452
 8167SOL    HW125400   5.594   2.603   4.550
 8167SOL    HW225401   5.494   2.539   4.438
 8168SOL     OW25402   2.624   2.105   3.291
 8168SOL    HW125403   2.689   2.029   3.299
 8168SOL    HW225404   2.672   2.191   3.308
 8169SOL     OW25405   5.405   3.984   5.085
 8169SOL    HW125406   5.414   3.885   5.102
 8169SOL    HW225407   5.351   3.999   5.003
 8170SOL     OW25408   1.450   5.360   4.029
 8170SOL    HW125409   1.362   5.352   4.077
 8170SOL    HW225410   1.471   5.272   3.985
 8171SOL     OW25411   1.835   1.119   6.770
 8171SOL    HW125412   1.889   1.047   6.728
 8171SOL    HW225413   1.763   1.079   6.827
 8172SOL     OW25414   0.484   6.382   1.790
 8172SOL    HW125415   0.550   6.319   1.748
 8172SOL    HW225416   0.391   6.352   1.768
 8173SOL     OW25417   6.663   3.364   0.337
 8173SOL    HW125418   6.746   3.385   0.286
 8173SOL    HW225419   6.684   3.355   0.434
 8174SOL     OW25420   5.054   6.728   2.446
 8174SOL    HW125421   4.963   6.755   2.415
 8174SOL    HW225422   5.113   6.712   2.366
 8175SOL     OW25423   1.788   3.371   3.747
 8175SOL    HW125424   1.746   3.312   3.678
 8175SOL    HW225425   1.880   3.338   3.767
 8176SOL     OW25426   4.070   5.830   3.337
 8176SOL    HW125427   4.054   5.760   3.406
 8176SOL    HW225428   4.011   5.909   3.356
 8177SOL     OW25429   1.571   6.489   6.311
 8177SOL    HW125430   1.588   6.495   6.213
 8177SOL    HW225431   1.535   6.399   6.334
 8178SOL     OW25432   2.450   6.458   6.133
 8178SOL    HW125433   2.437   6.360   6.117
 8178SOL    HW225434   2.366   6.497   6.172
 8179SOL     OW25435   3.990   0.697   0.110
 8179SOL    HW125436   4.015   0.725   0.203
 8179SOL    HW225437   3.892   0.714   0.096
 8180SOL     OW25438   4.931   4.946   5.038
 8180SOL    HW125439   4.952   5.035   5.077
 8180SOL    HW225440   4.952   4.947   4.940
 8181SOL     OW25441   2.663   2.105   2.247
 8181SOL    HW125442   2.662   2.112   2.148
 8181SOL    HW225443   2.687   2.194   2.287
 8182SOL     OW25444   5.267   2.955   5.849
 8182SOL    HW125445   5.305   2.876   5.802
 8182SOL    HW225446   5.167   2.954   5.841
 8183SOL     OW25447   2.164   3.551   3.391
 8183SOL    HW125448   2.175   3.461   3.350
 8183SOL    HW225449   2.142   3.618   3.320
 8184SOL     OW25450   6.047   5.755   4.338
 8184SOL    HW125451   6.040   5.851   4.309
 8184SOL    HW225452   6.042   5.696   4.257
 8185SOL     OW25453   1.022   2.265   3.370
 8185SOL    HW125454   1.107   2.214   3.361
 8185SOL    HW225455   1.000   2.310   3.283
 8186SOL     OW25456   4.302   3.848   6.510
 8186SOL    HW125457   4.351   3.794   6.578
 8186SOL    HW225458   4.291   3.942   6.543
 8187SOL     OW25459   2.238   1.621   5.979
 8187SOL    HW125460   2.181   1.554   6.027
 8187SOL    HW225461   2.330   1.622   6.020
 8188SOL     OW25462   4.832   3.065   2.497
 8188SOL    HW125463   4.850   3.108   2.409
 8188SOL    HW225464   4.850   3.131   2.571
 8189SOL     OW25465   6.777   5.354   3.342
 8189SOL    HW125466   6.716   5.408   3.400
 8189SOL    HW225467   6.854   5.410   3.312
 8190SOL     OW25468   6.130   3.462   2.539
 8190SOL    HW125469   6.101   3.383   2.594
 8190SOL    HW225470   6.095   3.545   2.581
 8191SOL     OW25471   5.907   5.026   1.571
 8191SOL    HW125472   5.812   5.007   1.548
 8191SOL    HW225473   5.943   4.954   1.630
 8192SOL     OW25474   1.339   2.515   0.952
 8192SOL    HW125475   1.356   2.421   0.923
 8192SOL    HW225476   1.406   2.576   0.909
 8193SOL     OW25477   4.194   6.800   5.625
 8193SOL    HW125478   4.102   6.839   5.617
 8193SOL    HW225479   4.208   6.765   5.717
 8194SOL     OW25480   1.829   0.832   2.330
 8194SOL    HW125481   1.896   0.762   2.303
 8194SOL    HW225482   1.829   0.842   2.429
 8195SOL     OW25483   5.740   1.295   2.050
 8195SOL    HW125484   5.810   1.364   2.036
 8195SOL    HW225485   5.764   1.212   2.001
 8196SOL     OW25486   1.781   0.944   0.825
 8196SOL    HW125487   1.681   0.948   0.818
 8196SOL    HW225488   1.809   0.968   0.918
 8197SOL     OW25489   0.562   0.121   0.858
 8197SOL    HW125490   0.588   0.206   0.904
 8197SOL    HW225491   0.493   0.140   0.789
 8198SOL     OW25492   3.304   1.080   2.695
 8198SOL    HW125493   3.235   1.078   2.767
 8198SOL    HW225494   3.361   0.997   2.701
 8199SOL     OW25495   5.756   4.486   1.401
 8199SOL    HW125496   5.748   4.585   1.414
 8199SOL    HW225497   5.853   4.461   1.400
 8200SOL     OW25498   4.327   3.866   1.589
 8200SOL    HW125499   4.346   3.768   1.576
 8200SOL    HW225500   4.262   3.896   1.520
 8201SOL     OW25501   0.771   1.154   5.077
 8201SOL    HW125502   0.843   1.095   5.114
 8201SOL    HW225503   0.696   1.098   5.042
 8202SOL     OW25504   1.937   3.675   4.221
 8202SOL    HW125505   1.892   3.764   4.216
 8202SOL    HW225506   1.995   3.671   4.302
 8203SOL     OW25507   6.433   4.451   6.476
 8203SOL    HW125508   6.351   4.492   6.437
 8203SOL    HW225509   6.462   4.374   6.419
 8204SOL     OW25510   3.560   0.296   0.562
 8204SOL    HW125511   3.491   0.242   0.610
 8204SOL    HW225512   3.631   0.324   0.628
 8205SOL     OW25513   3.942   6.749   3.235
 8205SOL    HW125514   3.873   6.732   3.164
 8205SOL    HW225515   4.033   6.749   3.194
 8206SOL     OW25516   3.722   1.946   4.611
 8206SOL    HW125517   3.740   1.980   4.703
 8206SOL    HW225518   3.721   1.846   4.612
 8207SOL     OW25519   2.990   5.772   6.792
 8207SOL    HW125520   3.080   5.779   6.835
 8207SOL    HW225521   2.987   5.834   6.713
 8208SOL     OW25522   1.614   5.540   0.535
 8208SOL    HW125523   1.554   5.485   0.593
 8208SOL    HW225524   1.709   5.513   0.551
 8209SOL     OW25525   1.018   5.561   5.408
 8209SOL    HW125526   0.933   5.592   5.366
 8209SOL    HW225527   1.025   5.462   5.402
 8210SOL     OW25528   2.275   0.856   0.736
 8210SOL    HW125529   2.315   0.886   0.650
 8210SOL    HW225530   2.190   0.907   0.753
 8211SOL     OW25531   3.661   4.161   3.982
 8211SOL    HW125532   3.708   4.146   4.069
 8211SOL    HW225533   3.680   4.254   3.950
 8212SOL     OW25534   4.553   4.455   6.670
 8212SOL    HW125535   4.455   4.443   6.654
 8212SOL    HW225536   4.567   4.504   6.756
 8213SOL     OW25537   4.781   4.442   1.837
 8213SOL    HW125538   4.683   4.458   1.849
 8213SOL    HW225539   4.796   4.353   1.794
 8214SOL     OW25540   4.125   5.682   3.562
 8214SOL    HW125541   4.206   5.646   3.609
 8214SOL    HW225542   4.043   5.641   3.602
 8215SOL     OW25543   2.918   6.239   6.219
 8215SOL    HW125544   2.990   6.170   6.227
 8215SOL    HW225545   2.829   6.194   6.210
 8216SOL     OW25546   5.559   5.176   0.601
 8216SOL    HW125547   5.464   5.194   0.627
 8216SOL    HW225548   5.595   5.256   0.552
 8217SOL     OW25549   3.122   6.590   3.382
 8217SOL    HW125550   3.114   6.511   3.443
 8217SOL    HW225551   3.176   6.565   3.302
 8218SOL     OW25552   1.670   6.783   4.088
 8218SOL    HW125553   1.704   6.689   4.077
 8218SOL    HW225554   1.580   6.791   4.046
 8219SOL     OW25555   3.864   3.190   3.259
 8219SOL    HW125556   3.953   3.235   3.252
 8219SOL    HW225557   3.810   3.210   3.177
 8220SOL     OW25558   4.282   4.338   5.831
 8220SOL    HW125559   4.259   4.258   5.886
 8220SOL    HW225560   4.210   4.407   5.840
 8221SOL     OW25561   6.802   3.868   3.348
 8221SOL    HW125562   6.867   3.851   3.422
 8221SOL    HW225563   6.838   3.830   3.262
 8222SOL     OW25564   5.293   2.184   5.695
 8222SOL    HW125565   5.279   2.256   5.763
 8222SOL    HW225566   5.216   2.184   5.631
 8223SOL     OW25567   0.954   6.574   5.438
 8223SOL    HW125568   1.033   6.541   5.491
 8223SOL    HW225569   0.952   6.674   5.442
 8224SOL     OW25570   6.096   0.546   5.856
 8224SOL    HW125571   6.074   0.551   5.759
 8224SOL    HW225572   6.154   0.623   5.882
 8225SOL     OW25573   6.195   2.872   0.387
 8225SOL    HW125574   6.250   2.816   0.448
 8225SOL    HW225575   6.247   2.890   0.303
 8226SOL     OW25576   4.291   0.931   6.843
 8226SOL    HW125577   4.245   1.010   6.882
 8226SOL    HW225578   4.255   0.847   6.885
 8227SOL     OW25579   5.209   4.067   2.452
 8227SOL    HW125580   5.134   4.105   2.397
 8227SOL    HW225581   5.289   4.127   2.445
 8228SOL     OW25582   2.736   1.295   4.534
 8228SOL    HW125583   2.718   1.208   4.488
 8228SOL    HW225584   2.729   1.282   4.633
 8229SOL     OW25585   4.047   4.467   0.618
 8229SOL    HW125586   4.014   4.372   0.619
 8229SOL    HW225587   4.129   4.472   0.562
 8230SOL     OW25588   6.472   0.827   6.621
 8230SOL    HW125589   6.534   0.756   6.587
 8230SOL    HW225590   6.380   0.788   6.632
 8231SOL     OW25591   3.344   1.606   2.039
 8231SOL    HW125592   3.320   1.676   1.971
 8231SOL    HW225593   3.294   1.624   2.123
 8232SOL     OW25594   3.872   6.630   3.493
 8232SOL    HW125595   3.889   6.684   3.411
 8232SOL    HW225596   3.805   6.558   3.473
 8233SOL     OW25597   3.053   0.968   6.221
 8233SOL    HW125598   3.002   1.024   6.155
 8233SOL    HW225599   3.151   0.980   6.207
 8234SOL     OW25600   1.073   2.939   0.191
 8234SOL    HW125601   1.007   3.005   0.156
 8234SOL    HW225602   1.059   2.850   0.148
 8235SOL     OW25603   0.186   6.641   0.979
 8235SOL    HW125604   0.126   6.682   1.048
 8235SOL    HW225605   0.210   6.710   0.911
 8236SOL     OW25606   1.362   0.223   0.963
 8236SOL    HW125607   1.385   0.282   0.886
 8236SOL    HW225608   1.349   0.130   0.930
 8237SOL     OW25609   4.037   5.179   5.482
 8237SOL    HW125610   4.060   5.179   5.580
 8237SOL    HW225611   3.968   5.249   5.464
 8238SOL     OW25612   6.546   5.284   0.385
 8238SOL    HW125613   6.517   5.372   0.424
 8238SOL    HW225614   6.483   5.258   0.311
 8239SOL     OW25615   4.371   1.834   4.144
 8239SOL    HW125616   4.302   1.902   4.121
 8239SOL    HW225617   4.364   1.757   4.081
 8240SOL     OW25618   3.693   3.563   4.937
 8240SOL    HW125619   3.781   3.522   4.913
 8240SOL    HW225620   3.693   3.659   4.910
 8241SOL     OW25621   0.792   3.065   5.905
 8241SOL    HW125622   0.778   3.044   6.001
 8241SOL    HW225623   0.859   3.138   5.895
 8242SOL     OW25624   0.111   2.881   3.811
 8242SOL    HW125625   0.067   2.832   3.736
 8242SOL    HW225626   0.150   2.815   3.875
 8243SOL     OW25627   1.329   6.143   3.458
 8243SOL    HW125628   1.370   6.135   3.367
 8243SOL    HW225629   1.317   6.239   3.481
 8244SOL     OW25630   5.092   0.688   4.234
 8244SOL    HW125631   5.123   0.640   4.316
 8244SOL    HW225632   5.099   0.627   4.155
 8245SOL     OW25633   5.438   4.192   2.398
 8245SOL    HW125634   5.524   4.144   2.419
 8245SOL    HW225635   5.459   4.283   2.362
 8246SOL     OW25636   2.236   4.264   6.655
 8246SOL    HW125637   2.221   4.361   6.641
 8246SOL    HW225638   2.278   4.249   6.745
 8247SOL     OW25639   1.851   4.348   3.177
 8247SOL    HW125640   1.798   4.321   3.257
 8247SOL    HW225641   1.902   4.269   3.143
 8248SOL     OW25642   6.911   6.436   2.835
 8248SOL    HW125643   6.908   6.513   2.898
 8248SOL    HW225644   6.989   6.445   2.774
 8249SOL     OW25645   3.207   0.482   6.225
 8249SOL    HW125646   3.148   0.557   6.256
 8249SOL    HW225647   3.193   0.467   6.127
 8250SOL     OW25648   1.078   1.872   0.506
 8250SOL    HW125649   1.177   1.883   0.515
 8250SOL    HW225650   1.033   1.934   0.570
 8251SOL     OW25651   1.201   2.213   6.603
 8251SOL    HW125652   1.192   2.309   6.576
 8251SOL    HW225653   1.112   2.179   6.635
 8252SOL     OW25654   0.735   1.694   6.609
 8252SOL    HW125655   0.705   1.659   6.697
 8252SOL    HW225656   0.796   1.627   6.565
 8253SOL     OW25657   6.413   4.462   5.866
 8253SOL    HW125658   6.408   4.373   5.821
 8253SOL    HW225659   6.486   4.461   5.934
 8254SOL     OW25660   5.450   4.623   6.605
 8254SOL    HW125661   5.488   4.631   6.697
 8254SOL    HW225662   5.523   4.602   6.540
 8255SOL     OW25663   1.356   6.703   5.508
 8255SOL    HW125664   1.400   6.757   5.581
 8255SOL    HW225665   1.270   6.747   5.482
 8256SOL     OW25666   1.694   6.113   2.924
 8256SOL    HW125667   1.707   6.050   3.000
 8256SOL    HW225668   1.674   6.204   2.960
 8257SOL     OW25669   4.670   4.439   3.675
 8257SOL    HW125670   4.759   4.415   3.713
 8257SOL    HW225671   4.601   4.441   3.747
 8258SOL     OW25672   0.507   3.479   4.509
 8258SOL    HW125673   0.450   3.548   4.554
 8258SOL    HW225674   0.591   3.522   4.476
 8259SOL     OW25675   5.562   2.833   4.286
 8259SOL    HW125676   5.562   2.818   4.187
 8259SOL    HW225677   5.558   2.745   4.333
 8260SOL     OW25678   4.701   1.956   6.287
 8260SOL    HW125679   4.770   1.884   6.289
 8260SOL    HW225680   4.736   2.036   6.336
 8261SOL     OW25681   5.850   2.626   2.979
 8261SOL    HW125682   5.923   2.630   3.047
 8261SOL    HW225683   5.763   2.609   3.025
 8262SOL     OW25684   5.005   4.148   2.286
 8262SOL    HW125685   5.068   4.215   2.247
 8262SOL    HW225686   4.981   4.080   2.217
 8263SOL     OW25687   6.225   1.611   6.672
 8263SOL    HW125688   6.226   1.527   6.727
 8263SOL    HW225689   6.279   1.598   6.590
 8264SOL     OW25690   2.952   0.919   1.609
 8264SOL    HW125691   2.996   1.000   1.650
 8264SOL    HW225692   2.949   0.930   1.510
 8265SOL     OW25693   4.484   5.469   0.510
 8265SOL    HW125694   4.582   5.485   0.497
 8265SOL    HW225695   4.456   5.390   0.456
 8266SOL     OW25696   4.765   2.381   3.213
 8266SOL    HW125697   4.687   2.393   3.274
 8266SOL    HW225698   4.754   2.297   3.160
 8267SOL     OW25699   1.910   3.040   3.314
 8267SOL    HW125700   2.008   3.029   3.302
 8267SOL    HW225701   1.883   3.132   3.285
 8268SOL     OW25702   2.631   5.553   1.624
 8268SOL    HW125703   2.716   5.541   1.674
 8268SOL    HW225704   2.568   5.479   1.648
 8269SOL     OW25705   6.654   1.402   3.935
 8269SOL    HW125706   6.656   1.355   3.847
 8269SOL    HW225707   6.711   1.484   3.930
 8270SOL     OW25708   4.329   4.476   0.512
 8270SOL    HW125709   4.331   4.389   0.562
 8270SOL    HW225710   4.399   4.475   0.441
 8271SOL     OW25711   2.982   6.671   5.509
 8271SOL    HW125712   2.943   6.630   5.427
 8271SOL    HW225713   2.950   6.621   5.590
 8272SOL     OW25714   0.838   0.575   2.104
 8272SOL    HW125715   0.849   0.635   2.183
 8272SOL    HW225716   0.743   0.579   2.072
 8273SOL     OW25717   5.305   7.026   5.801
 8273SOL    HW125718   5.215   0.011   5.842
 8273SOL    HW225719   5.376   0.029   5.863
 8274SOL     OW25720   5.374   6.931   3.884
 8274SOL    HW125721   5.325   6.977   3.958
 8274SOL    HW225722   5.313   6.920   3.805
 8275SOL     OW25723   4.595   0.820   4.502
 8275SOL    HW125724   4.504   0.845   4.470
 8275SOL    HW225725   4.663   0.844   4.432
 8276SOL     OW25726   6.159   2.867   0.947
 8276SOL    HW125727   6.229   2.872   0.876
 8276SOL    HW225728   6.202   2.882   1.037
 8277SOL     OW25729   1.504   6.824   2.008
 8277SOL    HW125730   1.468   6.915   1.987
 8277SOL    HW225731   1.536   6.781   1.923
 8278SOL     OW25732   1.422   0.568   1.252
 8278SOL    HW125733   1.402   0.477   1.288
 8278SOL    HW225734   1.514   0.595   1.281
 8279SOL     OW25735   6.200   4.965   5.713
 8279SOL    HW125736   6.127   4.906   5.746
 8279SOL    HW225737   6.230   5.025   5.787
 8280SOL     OW25738   6.930   4.152   0.097
 8280SOL    HW125739   6.831   4.161   0.094
 8280SOL    HW225740   6.972   4.229   0.049
 8281SOL     OW25741   3.229   4.533   6.849
 8281SOL    HW125742   3.193   4.568   6.935
 8281SOL    HW225743   3.220   4.433   6.848
 8282SOL     OW25744   4.150   2.706   0.626
 8282SOL    HW125745   4.205   2.742   0.702
 8282SOL    HW225746   4.142   2.607   0.636
 8283SOL     OW25747   0.428   1.080   3.489
 8283SOL    HW125748   0.526   1.071   3.504
 8283SOL    HW225749   0.410   1.167   3.443
 8284SOL     OW25750   4.881   2.245   1.493
 8284SOL    HW125751   4.873   2.344   1.488
 8284SOL    HW225752   4.864   2.215   1.587
 8285SOL     OW25753   0.648   4.993   0.158
 8285SOL    HW125754   0.671   4.901   0.128
 8285SOL    HW225755   0.571   4.989   0.222
 8286SOL     OW25756   6.393   1.509   6.469
 8286SOL    HW125757   6.440   1.421   6.462
 8286SOL    HW225758   6.314   1.510   6.408
 8287SOL     OW25759   0.098   1.171   3.130
 8287SOL    HW125760   0.130   1.219   3.048
 8287SOL    HW225761   0.021   1.112   3.106
 8288SOL     OW25762   2.859   6.746   2.224
 8288SOL    HW125763   2.842   6.844   2.212
 8288SOL    HW225764   2.956   6.727   2.206
 8289SOL     OW25765   6.196   6.907   0.188
 8289SOL    HW125766   6.283   6.927   0.233
 8289SOL    HW225767   6.135   6.985   0.199
 8290SOL     OW25768   4.798   2.611   1.764
 8290SOL    HW125769   4.859   2.671   1.816
 8290SOL    HW225770   4.703   2.640   1.780
 8291SOL     OW25771   5.459   5.803   5.648
 8291SOL    HW125772   5.367   5.794   5.610
 8291SOL    HW225773   5.471   5.736   5.722
 8292SOL     OW25774   6.985   3.635   5.376
 8292SOL    HW125775   0.005   3.579   5.310
 8292SOL    HW225776   6.892   3.599   5.389
 8293SOL     OW25777   2.602   5.708   4.193
 8293SOL    HW125778   2.521   5.744   4.239
 8293SOL    HW225779   2.684   5.742   4.239
 8294SOL     OW25780   6.812   3.848   5.923
 8294SOL    HW125781   6.834   3.753   5.944
 8294SOL    HW225782   6.809   3.860   5.824
 8295SOL     OW25783   4.098   4.697   1.366
 8295SOL    HW125784   4.144   4.745   1.291
 8295SOL    HW225785   4.132   4.731   1.453
 8296SOL     OW25786   3.264   0.469   1.966
 8296SOL    HW125787   3.353   0.438   1.932
 8296SOL    HW225788   3.249   0.564   1.940
 8297SOL     OW25789   5.825   4.118   1.950
 8297SOL    HW125790   5.805   4.163   1.863
 8297SOL    HW225791   5.793   4.176   2.025
 8298SOL     OW25792   6.852   0.077   0.720
 8298SOL    HW125793   6.878   0.154   0.779
 8298SOL    HW225794   6.798   0.111   0.643
 8299SOL     OW25795   1.009   2.310   0.007
 8299SOL    HW125796   0.963   2.382   6.984
 8299SOL    HW225797   1.065   2.255   6.975
 8300SOL     OW25798   5.154   6.091   3.511
 8300SOL    HW125799   5.236   6.073   3.566
 8300SOL    HW225800   5.079   6.120   3.571
 8301SOL     OW25801   6.459   5.523   0.553
 8301SOL    HW125802   6.362   5.548   0.542
 8301SOL    HW225803   6.474   5.493   0.647
 8302SOL     OW25804   3.568   6.611   5.596
 8302SOL    HW125805   3.477   6.573   5.584
 8302SOL    HW225806   3.595   6.661   5.514
 8303SOL     OW25807   1.123   4.943   3.505
 8303SOL    HW125808   1.151   4.847   3.506
 8303SOL    HW225809   1.199   5.000   3.533
 8304SOL     OW25810   5.458   2.777   3.579
 8304SOL    HW125811   5.553   2.785   3.608
 8304SOL    HW225812   5.453   2.774   3.479
 8305SOL     OW25813   4.689   6.227   4.752
 8305SOL    HW125814   4.764   6.275   4.797
 8305SOL    HW225815   4.603   6.273   4.772
 8306SOL     OW25816   4.652   1.200   4.276
 8306SOL    HW125817   4.564   1.247   4.271
 8306SOL    HW225818   4.726   1.266   4.264
 8307SOL     OW25819   6.976   4.963   4.129
 8307SOL    HW125820   7.015   5.048   4.095
 8307SOL    HW225821   6.897   4.982   4.186
 8308SOL     OW25822   1.896   5.498   0.567
 8308SOL    HW125823   1.926   5.466   0.477
 8308SOL    HW225824   1.950   5.454   0.638
 8309SOL     OW25825   6.054   5.174   2.504
 8309SOL    HW125826   6.128   5.108   2.489
 8309SOL    HW225827   6.086   5.266   2.480
 8310SOL     OW25828   1.570   6.257   3.126
 8310SOL    HW125829   1.545   6.283   3.219
 8310SOL    HW225830   1.498   6.285   3.063
 8311SOL     OW25831   4.662   6.276   1.789
 8311SOL    HW125832   4.746   6.279   1.843
 8311SOL    HW225833   4.660   6.354   1.727
 8312SOL     OW25834   6.277   1.296   0.471
 8312SOL    HW125835   6.198   1.235   0.472
 8312SOL    HW225836   6.342   1.269   0.542
 8313SOL     OW25837   4.897   2.229   6.023
 8313SOL    HW125838   4.957   2.247   5.945
 8313SOL    HW225839   4.949   2.185   6.096
 8314SOL     OW25840   4.804   5.556   4.161
 8314SOL    HW125841   4.844   5.532   4.073
 8314SOL    HW225842   4.875   5.559   4.231
 8315SOL     OW25843   3.328   1.747   0.307
 8315SOL    HW125844   3.310   1.825   0.367
 8315SOL    HW225845   3.241   1.706   0.279
 8316SOL     OW25846   1.652   1.518   4.758
 8316SOL    HW125847   1.592   1.467   4.820
 8316SOL    HW225848   1.629   1.615   4.760
 8317SOL     OW25849   1.850   1.870   6.240
 8317SOL    HW125850   1.841   1.969   6.250
 8317SOL    HW225851   1.882   1.849   6.147
 8318SOL     OW25852   4.368   6.388   5.321
 8318SOL    HW125853   4.449   6.336   5.346
 8318SOL    HW225854   4.333   6.436   5.401
 8319SOL     OW25855   2.935   5.814   6.399
 8319SOL    HW125856   2.841   5.835   6.372
 8319SOL    HW225857   2.975   5.749   6.334
 8320SOL     OW25858   3.982   4.912   5.469
 8320SOL    HW125859   3.891   4.899   5.508
 8320SOL    HW225860   4.016   5.003   5.492
 8321SOL     OW25861   0.193   0.612   0.830
 8321SOL    HW125862   0.183   0.523   0.874
 8321SOL    HW225863   0.282   0.652   0.853
 8322SOL     OW25864   2.190   0.607   1.235
 8322SOL    HW125865   2.189   0.513   1.268
 8322SOL    HW225866   2.147   0.612   1.145
 8323SOL     OW25867   6.054   5.206   6.648
 8323SOL    HW125868   6.026   5.298   6.620
 8323SOL    HW225869   6.154   5.202   6.651
 8324SOL     OW25870   5.743   6.395   6.199
 8324SOL    HW125871   5.794   6.330   6.142
 8324SOL    HW225872   5.651   6.361   6.214
 8325SOL     OW25873   1.617   6.376   4.538
 8325SOL    HW125874   1.708   6.362   4.577
 8325SOL    HW225875   1.598   6.304   4.472
 8326SOL     OW25876   1.931   1.699   6.768
 8326SOL    HW125877   2.025   1.728   6.782
 8326SOL    HW225878   1.921   1.661   6.676
 8327SOL     OW25879   0.484   5.774   4.987
 8327SOL    HW125880   0.449   5.814   4.902
 8327SOL    HW225881   0.540   5.841   5.034
 8328SOL     OW25882   1.120   0.510   0.342
 8328SOL    HW125883   1.151   0.427   0.296
 8328SOL    HW225884   1.020   0.511   0.345
 8329SOL     OW25885   1.662   2.474   5.221
 8329SOL    HW125886   1.750   2.488   5.266
 8329SOL    HW225887   1.606   2.413   5.277
 8330SOL     OW25888   2.988   6.974   0.324
 8330SOL    HW125889   2.997   6.953   0.421
 8330SOL    HW225890   3.013   6.894   0.270
 8331SOL     OW25891   2.139   2.188   6.219
 8331SOL    HW125892   2.203   2.171   6.294
 8331SOL    HW225893   2.046   2.162   6.247
 8332SOL     OW25894   5.531   3.916   0.888
 8332SOL    HW125895   5.446   3.908   0.940
 8332SOL    HW225896   5.605   3.874   0.940
 8333SOL     OW25897   2.848   4.764   6.329
 8333SOL    HW125898   2.870   4.788   6.235
 8333SOL    HW225899   2.758   4.720   6.332
 8334SOL     OW25900   3.315   2.615   5.367
 8334SOL    HW125901   3.274   2.570   5.288
 8334SOL    HW225902   3.301   2.559   5.448
 8335SOL     OW25903   5.633   3.390   6.192
 8335SOL    HW125904   5.534   3.388   6.181
 8335SOL    HW225905   5.665   3.485   6.196
 8336SOL     OW25906   1.395   4.727   3.838
 8336SOL    HW125907   1.446   4.731   3.753
 8336SOL    HW225908   1.386   4.632   3.868
 8337SOL     OW25909   6.226   0.457   4.284
 8337SOL    HW125910   6.280   0.406   4.218
 8337SOL    HW225911   6.269   0.546   4.300
 8338SOL     OW25912   2.440   5.819   1.384
 8338SOL    HW125913   2.408   5.909   1.353
 8338SOL    HW225914   2.508   5.784   1.319
 8339SOL     OW25915   6.557   0.682   2.137
 8339SOL    HW125916   6.469   0.636   2.125
 8339SOL    HW225917   6.630   0.614   2.139
 8340SOL     OW25918   5.890   2.513   6.348
 8340SOL    HW125919   5.895   2.435   6.410
 8340SOL    HW225920   5.888   2.598   6.400
 8341SOL     OW25921   3.370   0.139   0.963
 8341SOL    HW125922   3.307   0.211   0.991
 8341SOL    HW225923   3.451   0.141   1.022
 8342SOL     OW25924   4.460   1.258   1.006
 8342SOL    HW125925   4.464   1.287   1.102
 8342SOL    HW225926   4.395   1.317   0.957
 8343SOL     OW25927   4.732   5.991   2.799
 8343SOL    HW125928   4.727   6.079   2.846
 8343SOL    HW225929   4.707   6.002   2.703
 8344SOL     OW25930   2.099   4.256   5.950
 8344SOL    HW125931   2.118   4.187   5.881
 8344SOL    HW225932   2.133   4.345   5.918
 8345SOL     OW25933   6.503   0.221   4.405
 8345SOL    HW125934   6.514   0.127   4.371
 8345SOL    HW225935   6.451   0.274   4.339
 8346SOL     OW25936   6.176   4.052   3.256
 8346SOL    HW125937   6.084   4.014   3.266
 8346SOL    HW225938   6.176   4.148   3.284
 8347SOL     OW25939   1.122   1.659   6.431
 8347SOL    HW125940   1.202   1.606   6.400
 8347SOL    HW225941   1.153   1.749   6.462
 8348SOL     OW25942   3.502   5.673   1.033
 8348SOL    HW125943   3.531   5.616   1.109
 8348SOL    HW225944   3.403   5.671   1.024
 8349SOL     OW25945   4.531   5.274   1.437
 8349SOL    HW125946   4.575   5.333   1.370
 8349SOL    HW225947   4.540   5.314   1.529
 8350SOL     OW25948   2.320   0.918   6.694
 8350SOL    HW125949   2.336   0.824   6.664
 8350SOL    HW225950   2.375   0.938   6.775
 8351SOL     OW25951   6.759   2.861   3.130
 8351SOL    HW125952   6.722   2.942   3.084
 8351SOL    HW225953   6.803   2.889   3.215
 8352SOL     OW25954   2.787   6.641   6.483
 8352SOL    HW125955   2.850   6.572   6.449
 8352SOL    HW225956   2.822   6.732   6.461
 8353SOL     OW25957   0.531   5.763   2.847
 8353SOL    HW125958   0.601   5.780   2.777
 8353SOL    HW225959   0.488   5.674   2.829
 8354SOL     OW25960   4.714   2.334   3.671
 8354SOL    HW125961   4.808   2.335   3.637
 8354SOL    HW225962   4.691   2.243   3.706
 8355SOL     OW25963   3.078   4.967   6.378
 8355SOL    HW125964   3.059   4.994   6.472
 8355SOL    HW225965   3.008   4.902   6.347
 8356SOL     OW25966   3.016   3.516   1.641
 8356SOL    HW125967   2.935   3.475   1.600
 8356SOL    HW225968   3.062   3.573   1.574
 8357SOL     OW25969   2.943   6.893   4.699
 8357SOL    HW125970   2.950   6.876   4.797
 8357SOL    HW225971   3.005   6.968   4.674
 8358SOL     OW25972   6.952   0.038   4.645
 8358SOL    HW125973   6.905   0.122   4.618
 8358SOL    HW225974   0.017   0.040   4.609
 8359SOL     OW25975   5.016   1.820   5.163
 8359SOL    HW125976   5.081   1.756   5.122
 8359SOL    HW225977   5.050   1.850   5.252
 8360SOL     OW25978   2.830   0.385   2.009
 8360SOL    HW125979   2.900   0.332   2.056
 8360SOL    HW225980   2.828   0.360   1.912
 8361SOL     OW25981   4.859   0.983   0.187
 8361SOL    HW125982   4.845   1.034   0.102
 8361SOL    HW225983   4.814   1.030   0.262
 8362SOL     OW25984   0.738   4.289   1.604
 8362SOL    HW125985   0.752   4.339   1.519
 8362SOL    HW225986   0.765   4.348   1.681
 8363SOL     OW25987   2.273   2.236   1.070
 8363SOL    HW125988   2.276   2.270   1.164
 8363SOL    HW225989   2.179   2.210   1.047
 8364SOL     OW25990   0.304   1.329   3.684
 8364SOL    HW125991   0.375   1.308   3.752
 8364SOL    HW225992   0.221   1.358   3.731
 8365SOL     OW25993   2.011   3.242   0.954
 8365SOL    HW125994   2.038   3.147   0.942
 8365SOL    HW225995   2.030   3.271   1.048
 8366SOL     OW25996   5.159   5.694   1.807
 8366SOL    HW125997   5.131   5.604   1.840
 8366SOL    HW225998   5.079   5.746   1.781
 8367SOL     OW25999   1.876   4.483   3.500
 8367SOL    HW126000   1.862   4.582   3.496
 8367SOL    HW226001   1.952   4.462   3.562
 8368SOL     OW26002   0.661   3.629   6.457
 8368SOL    HW126003   0.570   3.589   6.450
 8368SOL    HW226004   0.672   3.671   6.548
 8369SOL     OW26005   1.002   0.139   0.229
 8369SOL    HW126006   1.043   0.145   0.320
 8369SOL    HW226007   0.982   0.043   0.209
 8370SOL     OW26008   3.049   2.818   0.614
 8370SOL    HW126009   3.103   2.800   0.532
 8370SOL    HW226010   3.087   2.898   0.662
 8371SOL     OW26011   2.960   4.158   5.507
 8371SOL    HW126012   2.922   4.233   5.562
 8371SOL    HW226013   2.979   4.192   5.415
 8372SOL     OW26014   1.668   6.880   2.442
 8372SOL    HW126015   1.654   6.938   2.522
 8372SOL    HW226016   1.583   6.875   2.389
 8373SOL     OW26017   5.350   0.761   3.989
 8373SOL    HW126018   5.311   0.777   4.080
 8373SOL    HW226019   5.354   0.663   3.971
 8374SOL     OW26020   0.857   1.771   3.511
 8374SOL    HW126021   0.918   1.812   3.443
 8374SOL    HW226022   0.839   1.838   3.584
 8375SOL     OW26023   1.851   2.804   5.524
 8375SOL    HW126024   1.842   2.720   5.577
 8375SOL    HW226025   1.929   2.795   5.462
 8376SOL     OW26026   0.602   1.373   4.210
 8376SOL    HW126027   0.697   1.404   4.202
 8376SOL    HW226028   0.541   1.450   4.193
 8377SOL     OW26029   3.068   5.283   1.233
 8377SOL    HW126030   3.142   5.237   1.282
 8377SOL    HW226031   3.070   5.255   1.137
 8378SOL     OW26032   4.099   5.397   4.692
 8378SOL    HW126033   4.105   5.314   4.746
 8378SOL    HW226034   4.096   5.477   4.753
 8379SOL     OW26035   5.713   2.945   2.161
 8379SOL    HW126036   5.749   3.015   2.100
 8379SOL    HW226037   5.618   2.924   2.135
 8380SOL     OW26038   1.544   5.575   2.820
 8380SOL    HW126039   1.487   5.492   2.814
 8380SOL    HW226040   1.488   5.655   2.799
 8381SOL     OW26041   1.255   2.034   2.930
 8381SOL    HW126042   1.241   2.079   3.018
 8381SOL    HW226043   1.341   2.066   2.890
 8382SOL     OW26044   0.972   6.801   1.688
 8382SOL    HW126045   0.925   6.719   1.656
 8382SOL    HW226046   0.997   6.858   1.610
 8383SOL     OW26047   2.305   0.164   4.894
 8383SOL    HW126048   2.308   0.251   4.944
 8383SOL    HW226049   2.336   0.179   4.800
 8384SOL     OW26050   0.251   3.293   3.724
 8384SOL    HW126051   0.196   3.265   3.645
 8384SOL    HW226052   0.230   3.389   3.747
 8385SOL     OW26053   4.378   2.402   2.360
 8385SOL    HW126054   4.295   2.354   2.330
 8385SOL    HW226055   4.363   2.439   2.452
 8386SOL     OW26056   0.266   5.113   1.910
 8386SOL    HW126057   0.336   5.042   1.914
 8386SOL    HW226058   0.209   5.099   1.829
 8387SOL     OW26059   0.542   2.074   3.568
 8387SOL    HW126060   0.638   2.074   3.542
 8387SOL    HW226061   0.502   2.163   3.546
 8388SOL     OW26062   3.719   5.786   1.553
 8388SOL    HW126063   3.639   5.726   1.557
 8388SOL    HW226064   3.704   5.866   1.611
 8389SOL     OW26065   1.744   2.567   4.518
 8389SOL    HW126066   1.728   2.663   4.494
 8389SOL    HW226067   1.690   2.543   4.598
 8390SOL     OW26068   2.617   0.151   6.164
 8390SOL    HW126069   2.544   0.087   6.144
 8390SOL    HW226070   2.588   0.213   6.237
 8391SOL     OW26071   4.833   6.095   0.829
 8391SOL    HW126072   4.825   6.194   0.839
 8391SOL    HW226073   4.755   6.050   0.873
 8392SOL     OW26074   3.972   5.531   0.489
 8392SOL    HW126075   3.878   5.555   0.514
 8392SOL    HW226076   3.976   5.435   0.462
 8393SOL     OW26077   1.389   6.015   1.837
 8393SOL    HW126078   1.409   6.100   1.789
 8393SOL    HW226079   1.467   5.989   1.894
 8394SOL     OW26080   1.681   1.547   3.551
 8394SOL    HW126081   1.758   1.520   3.609
 8394SOL    HW226082   1.605   1.577   3.609
 8395SOL     OW26083   2.253   6.055   6.413
 8395SOL    HW126084   2.176   5.991   6.421
 8395SOL    HW226085   2.219   6.149   6.423
 8396SOL     OW26086   4.314   2.455   1.104
 8396SOL    HW126087   4.285   2.476   1.010
 8396SOL    HW226088   4.412   2.437   1.105
 8397SOL     OW26089   1.163   4.622   3.189
 8397SOL    HW126090   1.231   4.557   3.153
 8397SOL    HW226091   1.177   4.633   3.287
 8398SOL     OW26092   5.436   1.475   6.789
 8398SOL    HW126093   5.439   1.390   6.843
 8398SOL    HW226094   5.364   1.467   6.720
 8399SOL     OW26095   5.699   6.394   5.382
 8399SOL    HW126096   5.688   6.493   5.372
 8399SOL    HW226097   5.617   6.349   5.348
 8400SOL     OW26098   6.077   6.234   3.772
 8400SOL    HW126099   6.166   6.242   3.816
 8400SOL    HW226100   6.044   6.325   3.746
 8401SOL     OW26101   2.929   3.809   4.950
 8401SOL    HW126102   2.922   3.710   4.937
 8401SOL    HW226103   2.990   3.848   4.881
 8402SOL     OW26104   4.911   0.951   5.472
 8402SOL    HW126105   4.817   0.920   5.486
 8402SOL    HW226106   4.974   0.879   5.499
 8403SOL     OW26107   0.855   2.645   5.891
 8403SOL    HW126108   0.786   2.605   5.831
 8403SOL    HW226109   0.820   2.648   5.984
 8404SOL     OW26110   4.529   5.358   5.841
 8404SOL    HW126111   4.589   5.429   5.805
 8404SOL    HW226112   4.557   5.336   5.935
 8405SOL     OW26113   1.507   2.565   5.790
 8405SOL    HW126114   1.463   2.609   5.868
 8405SOL    HW226115   1.438   2.539   5.723
 8406SOL     OW26116   5.683   3.621   1.604
 8406SOL    HW126117   5.604   3.635   1.663
 8406SOL    HW226118   5.757   3.682   1.633
 8407SOL     OW26119   4.983   3.557   2.647
 8407SOL    HW126120   4.977   3.632   2.581
 8407SOL    HW226121   4.940   3.584   2.733
 8408SOL     OW26122   4.788   4.077   3.964
 8408SOL    HW126123   4.821   3.996   4.014
 8408SOL    HW226124   4.744   4.140   4.028
 8409SOL     OW26125   1.757   1.671   4.138
 8409SOL    HW126126   1.818   1.619   4.078
 8409SOL    HW226127   1.761   1.767   4.114
 8410SOL     OW26128   2.126   5.299   2.496
 8410SOL    HW126129   2.162   5.338   2.581
 8410SOL    HW226130   2.184   5.223   2.467
 8411SOL     OW26131   1.553   3.151   3.319
 8411SOL    HW126132   1.518   3.244   3.332
 8411SOL    HW226133   1.482   3.093   3.279
 8412SOL     OW26134   6.078   2.658   2.194
 8412SOL    HW126135   6.009   2.725   2.223
 8412SOL    HW226136   6.153   2.706   2.148
 8413SOL     OW26137   2.171   5.189   1.024
 8413SOL    HW126138   2.202   5.278   0.991
 8413SOL    HW226139   2.133   5.136   0.948
 8414SOL     OW26140   5.358   0.488   3.988
 8414SOL    HW126141   5.402   0.424   3.925
 8414SOL    HW226142   5.413   0.496   4.071
 8415SOL     OW26143   0.214   4.947   0.919
 8415SOL    HW126144   0.123   4.972   0.952
 8415SOL    HW226145   0.281   5.013   0.952
 8416SOL     OW26146   4.511   4.650   2.986
 8416SOL    HW126147   4.594   4.595   2.996
 8416SOL    HW226148   4.472   4.635   2.896
 8417SOL     OW26149   1.098   5.490   0.102
 8417SOL    HW126150   1.138   5.560   0.161
 8417SOL    HW226151   1.084   5.527   0.011
 8418SOL     OW26152   5.479   5.592   2.577
 8418SOL    HW126153   5.418   5.670   2.559
 8418SOL    HW226154   5.432   5.525   2.633
 8419SOL     OW26155   3.931   0.783   3.784
 8419SOL    HW126156   3.945   0.881   3.798
 8419SOL    HW226157   3.837   0.759   3.810
 8420SOL     OW26158   4.570   1.852   5.379
 8420SOL    HW126159   4.589   1.947   5.402
 8420SOL    HW226160   4.655   1.805   5.355
 8421SOL     OW26161   0.884   1.265   0.695
 8421SOL    HW126162   0.956   1.320   0.652
 8421SOL    HW226163   0.855   1.310   0.780
 8422SOL     OW26164   2.415   0.459   1.884
 8422SOL    HW126165   2.457   0.460   1.975
 8422SOL    HW226166   2.386   0.366   1.862
 8423SOL     OW26167   2.351   4.689   0.601
 8423SOL    HW126168   2.367   4.705   0.503
 8423SOL    HW226169   2.363   4.591   0.620
 8424SOL     OW26170   3.113   2.443   1.685
 8424SOL    HW126171   3.074   2.442   1.777
 8424SOL    HW226172   3.209   2.417   1.690
 8425SOL     OW26173   0.535   4.366   5.993
 8425SOL    HW126174   0.557   4.275   5.959
 8425SOL    HW226175   0.482   4.357   6.078
 8426SOL     OW26176   3.456   3.270   2.504
 8426SOL    HW126177   3.442   3.362   2.468
 8426SOL    HW226178   3.453   3.204   2.429
 8427SOL     OW26179   2.335   1.915   6.869
 8427SOL    HW126180   2.316   1.994   6.811
 8427SOL    HW226181   2.421   1.930   6.919
 8428SOL     OW26182   6.307   3.993   0.570
 8428SOL    HW126183   6.307   4.008   0.669
 8428SOL    HW226184   6.338   3.900   0.550
 8429SOL     OW26185   1.220   6.797   2.976
 8429SOL    HW126186   1.180   6.874   2.925
 8429SOL    HW226187   1.274   6.833   3.052
 8430SOL     OW26188   4.140   5.449   2.779
 8430SOL    HW126189   4.090   5.533   2.799
 8430SOL    HW226190   4.143   5.434   2.680
 8431SOL     OW26191   2.896   3.634   2.373
 8431SOL    HW126192   2.913   3.576   2.293
 8431SOL    HW226193   2.931   3.588   2.455
 8432SOL     OW26194   4.940   6.388   0.029
 8432SOL    HW126195   4.916   6.370   6.963
 8432SOL    HW226196   4.875   6.342   0.090
 8433SOL     OW26197   6.939   1.247   3.855
 8433SOL    HW126198   6.923   1.318   3.786
 8433SOL    HW226199   6.904   1.277   3.943
 8434SOL     OW26200   5.698   0.006   6.369
 8434SOL    HW126201   5.796   7.023   6.378
 8434SOL    HW226202   5.672   0.007   6.273
 8435SOL     OW26203   4.528   2.701   1.151
 8435SOL    HW126204   4.539   2.620   1.094
 8435SOL    HW226205   4.615   2.725   1.192
 8436SOL     OW26206   3.120   4.387   1.714
 8436SOL    HW126207   3.046   4.421   1.772
 8436SOL    HW226208   3.116   4.432   1.625
 8437SOL     OW26209   0.016   2.563   1.287
 8437SOL    HW126210   0.001   2.562   1.386
 8437SOL    HW226211   6.968   2.519   1.241
 8438SOL     OW26212   2.234   5.718   1.138
 8438SOL    HW126213   2.202   5.765   1.220
 8438SOL    HW226214   2.292   5.641   1.164
 8439SOL     OW26215   5.577   0.413   1.800
 8439SOL    HW126216   5.573   0.495   1.743
 8439SOL    HW226217   5.484   0.382   1.819
 8440SOL     OW26218   1.267   3.254   4.190
 8440SOL    HW126219   1.329   3.286   4.118
 8440SOL    HW226220   1.311   3.267   4.279
 8441SOL     OW26221   4.182   6.070   1.143
 8441SOL    HW126222   4.270   6.059   1.191
 8441SOL    HW226223   4.109   6.079   1.210
 8442SOL     OW26224   2.269   2.425   0.846
 8442SOL    HW126225   2.306   2.512   0.879
 8442SOL    HW226226   2.288   2.354   0.914
 8443SOL     OW26227   6.905   2.040   1.443
 8443SOL    HW126228   6.984   2.023   1.501
 8443SOL    HW226229   6.928   2.110   1.375
 8444SOL     OW26230   5.075   1.867   3.114
 8444SOL    HW126231   5.017   1.839   3.038
 8444SOL    HW226232   5.089   1.966   3.110
 8445SOL     OW26233   5.079   5.442   1.917
 8445SOL    HW126234   5.179   5.443   1.918
 8445SOL    HW226235   5.046   5.380   1.988
 8446SOL     OW26236   6.495   3.728   3.065
 8446SOL    HW126237   6.523   3.807   3.010
 8446SOL    HW226238   6.547   3.647   3.035
 8447SOL     OW26239   4.828   4.411   1.529
 8447SOL    HW126240   4.809   4.498   1.574
 8447SOL    HW226241   4.796   4.336   1.587
 8448SOL     OW26242   2.132   4.068   5.758
 8448SOL    HW126243   2.213   4.021   5.722
 8448SOL    HW226244   2.057   4.003   5.766
 8449SOL     OW26245   1.103   0.388   5.136
 8449SOL    HW126246   1.050   0.303   5.134
 8449SOL    HW226247   1.055   0.457   5.190
 8450SOL     OW26248   1.695   5.566   0.946
 8450SOL    HW126249   1.718   5.663   0.961
 8450SOL    HW226250   1.605   5.560   0.904
 8451SOL     OW26251   3.052   3.979   0.583
 8451SOL    HW126252   3.041   3.993   0.681
 8451SOL    HW226253   3.038   4.066   0.535
 8452SOL     OW26254   0.193   6.067   1.764
 8452SOL    HW126255   0.106   6.038   1.803
 8452SOL    HW226256   0.257   6.089   1.837
 8453SOL     OW26257   6.948   4.839   5.144
 8453SOL    HW126258   7.009   4.901   5.193
 8453SOL    HW226259   6.973   4.838   5.047
 8454SOL     OW26260   2.082   0.014   4.955
 8454SOL    HW126261   2.168   0.061   4.940
 8454SOL    HW226262   2.072   6.968   4.889
 8455SOL     OW26263   6.446   3.186   0.730
 8455SOL    HW126264   6.507   3.221   0.659
 8455SOL    HW226265   6.385   3.260   0.759
 8456SOL     OW26266   5.457   5.234   3.768
 8456SOL    HW126267   5.520   5.175   3.718
 8456SOL    HW226268   5.509   5.287   3.836
 8457SOL     OW26269   6.316   6.050   5.859
 8457SOL    HW126270   6.285   6.146   5.859
 8457SOL    HW226271   6.394   6.040   5.920
 8458SOL     OW26272   1.522   2.025   1.150
 8458SOL    HW126273   1.442   1.969   1.171
 8458SOL    HW226274   1.591   1.968   1.103
 8459SOL     OW26275   2.514   5.166   3.397
 8459SOL    HW126276   2.587   5.147   3.462
 8459SOL    HW226277   2.543   5.135   3.306
 8460SOL     OW26278   3.545   1.361   1.773
 8460SOL    HW126279   3.562   1.335   1.678
 8460SOL    HW226280   3.588   1.293   1.834
 8461SOL     OW26281   5.382   4.160   3.339
 8461SOL    HW126282   5.397   4.159   3.240
 8461SOL    HW226283   5.407   4.071   3.378
 8462SOL     OW26284   1.793   3.661   0.587
 8462SOL    HW126285   1.825   3.719   0.662
 8462SOL    HW226286   1.760   3.574   0.625
 8463SOL     OW26287   0.427   0.038   1.275
 8463SOL    HW126288   0.424   7.008   1.355
 8463SOL    HW226289   0.512   0.021   1.225
 8464SOL     OW26290   0.154   3.144   6.594
 8464SOL    HW126291   0.182   3.075   6.660
 8464SOL    HW226292   0.058   3.168   6.609
 8465SOL     OW26293   5.408   4.820   0.940
 8465SOL    HW126294   5.362   4.803   1.027
 8465SOL    HW226295   5.417   4.734   0.890
 8466SOL     OW26296   0.409   1.505   5.183
 8466SOL    HW126297   0.360   1.501   5.095
 8466SOL    HW226298   0.494   1.453   5.176
 8467SOL     OW26299   3.266   1.244   0.416
 8467SOL    HW126300   3.217   1.301   0.351
 8467SOL    HW226301   3.228   1.258   0.508
 8468SOL     OW26302   5.660   4.109   0.519
 8468SOL    HW126303   5.585   4.068   0.571
 8468SOL    HW226304   5.689   4.045   0.448
 8469SOL     OW26305   3.654   2.937   5.128
 8469SOL    HW126306   3.719   2.929   5.052
 8469SOL    HW226307   3.574   2.988   5.097
 8470SOL     OW26308   1.685   5.386   1.384
 8470SOL    HW126309   1.736   5.372   1.299
 8470SOL    HW226310   1.692   5.304   1.441
 8471SOL     OW26311   4.194   1.375   3.405
 8471SOL    HW126312   4.165   1.306   3.338
 8471SOL    HW226313   4.259   1.334   3.469
 8472SOL     OW26314   5.782   2.009   6.576
 8472SOL    HW126315   5.784   2.104   6.545
 8472SOL    HW226316   5.709   1.997   6.643
 8473SOL     OW26317   4.961   4.858   5.842
 8473SOL    HW126318   4.906   4.785   5.881
 8473SOL    HW226319   4.991   4.832   5.750
 8474SOL     OW26320   3.413   3.424   5.784
 8474SOL    HW126321   3.413   3.480   5.867
 8474SOL    HW226322   3.495   3.367   5.783
 8475SOL     OW26323   0.482   2.420   2.724
 8475SOL    HW126324   0.470   2.489   2.653
 8475SOL    HW226325   0.412   2.431   2.794
 8476SOL     OW26326   6.520   1.112   2.355
 8476SOL    HW126327   6.595   1.174   2.378
 8476SOL    HW226328   6.538   1.070   2.266
 8477SOL     OW26329   5.469   0.184   1.108
 8477SOL    HW126330   5.557   0.142   1.131
 8477SOL    HW226331   5.427   0.133   1.033
 8478SOL     OW26332   1.380   6.899   6.386
 8478SOL    HW126333   1.401   6.842   6.306
 8478SOL    HW226334   1.446   6.879   6.459
 8479SOL     OW26335   1.165   2.672   0.081
 8479SOL    HW126336   1.153   2.590   0.137
 8479SOL    HW226337   1.148   2.650   7.014
 8480SOL     OW26338   3.081   4.515   1.446
 8480SOL    HW126339   3.029   4.589   1.489
 8480SOL    HW226340   3.019   4.450   1.404
 8481SOL     OW26341   4.911   3.279   2.637
 8481SOL    HW126342   4.906   3.370   2.677
 8481SOL    HW226343   4.998   3.269   2.589
 8482SOL     OW26344   4.894   0.414   5.932
 8482SOL    HW126345   4.843   0.436   5.849
 8482SOL    HW226346   4.830   0.404   6.009
 8483SOL     OW26347   4.161   4.981   3.290
 8483SOL    HW126348   4.140   4.890   3.327
 8483SOL    HW226349   4.260   4.989   3.277
 8484SOL     OW26350   6.623   6.635   5.083
 8484SOL    HW126351   6.680   6.664   5.006
 8484SOL    HW226352   6.607   6.537   5.078
 8485SOL     OW26353   4.100   0.678   5.854
 8485SOL    HW126354   4.021   0.732   5.826
 8485SOL    HW226355   4.088   0.649   5.949
 8486SOL     OW26356   4.843   2.147   4.107
 8486SOL    HW126357   4.769   2.187   4.161
 8486SOL    HW226358   4.838   2.047   4.114
 8487SOL     OW26359   6.874   2.012   6.612
 8487SOL    HW126360   6.777   2.005   6.593
 8487SOL    HW226361   6.909   2.099   6.577
 8488SOL     OW26362   4.088   4.855   2.521
 8488SOL    HW126363   4.008   4.815   2.475
 8488SOL    HW226364   4.094   4.820   2.614
 8489SOL     OW26365   6.657   1.910   2.159
 8489SOL    HW126366   6.705   1.998   2.154
 8489SOL    HW226367   6.561   1.926   2.184
 8490SOL     OW26368   3.363   6.662   0.534
 8490SOL    HW126369   3.443   6.643   0.592
 8490SOL    HW226370   3.328   6.576   0.498
 8491SOL     OW26371   3.565   5.928   2.357
 8491SOL    HW126372   3.530   5.835   2.343
 8491SOL    HW226373   3.489   5.993   2.356
 8492SOL     OW26374   5.587   6.427   4.056
 8492SOL    HW126375   5.639   6.501   4.013
 8492SOL    HW226376   5.645   6.377   4.120
 8493SOL     OW26377   5.325   0.636   5.465
 8493SOL    HW126378   5.366   0.687   5.389
 8493SOL    HW226379   5.350   0.540   5.459
 8494SOL     OW26380   0.156   3.248   2.194
 8494SOL    HW126381   0.149   3.287   2.102
 8494SOL    HW226382   0.069   3.257   2.241
 8495SOL     OW26383   5.482   6.107   5.489
 8495SOL    HW126384   5.478   6.188   5.431
 8495SOL    HW226385   5.557   6.048   5.458
 8496SOL     OW26386   4.245   1.798   2.750
 8496SOL    HW126387   4.284   1.710   2.776
 8496SOL    HW226388   4.307   1.871   2.777
 8497SOL     OW26389   6.151   0.733   2.960
 8497SOL    HW126390   6.133   0.663   2.891
 8497SOL    HW226391   6.204   0.693   3.034
 8498SOL     OW26392   4.702   6.386   3.873
 8498SOL    HW126393   4.792   6.393   3.832
 8498SOL    HW226394   4.709   6.339   3.961
 8499SOL     OW26395   6.251   6.945   5.370
 8499SOL    HW126396   6.311   6.952   5.290
 8499SOL    HW226397   6.162   6.985   5.348
 8500SOL     OW26398   1.350   0.494   6.547
 8500SOL    HW126399   1.339   0.588   6.514
 8500SOL    HW226400   1.435   0.487   6.598
 8501SOL     OW26401   3.685   1.022   5.233
 8501SOL    HW126402   3.698   1.019   5.134
 8501SOL    HW226403   3.626   0.945   5.260
 8502SOL     OW26404   6.703   2.998   0.089
 8502SOL    HW126405   6.648   3.017   0.171
 8502SOL    HW226406   6.783   3.058   0.088
 8503SOL     OW26407   4.655   1.860   5.714
 8503SOL    HW126408   4.565   1.883   5.677
 8503SOL    HW226409   4.717   1.938   5.703
 8504SOL     OW26410   1.249   0.426   3.515
 8504SOL    HW126411   1.156   0.391   3.530
 8504SOL    HW226412   1.250   0.525   3.533
 8505SOL     OW26413   5.717   2.223   2.295
 8505SOL    HW126414   5.649   2.239   2.224
 8505SOL    HW226415   5.745   2.310   2.335
 8506SOL     OW26416   1.948   0.738   5.208
 8506SOL    HW126417   1.915   0.743   5.303
 8506SOL    HW226418   1.954   0.642   5.181
 8507SOL     OW26419   4.382   4.742   6.011
 8507SOL    HW126420   4.424   4.660   5.972
 8507SOL    HW226421   4.443   4.820   5.999
 8508SOL     OW26422   3.775   0.365   6.624
 8508SOL    HW126423   3.834   0.406   6.554
 8508SOL    HW226424   3.692   0.421   6.635
 8509SOL     OW26425   4.475   2.107   2.545
 8509SOL    HW126426   4.543   2.128   2.475
 8509SOL    HW226427   4.437   2.192   2.582
 8510SOL     OW26428   0.919   2.116   4.942
 8510SOL    HW126429   0.938   2.051   5.015
 8510SOL    HW226430   0.823   2.142   4.945
 8511SOL     OW26431   5.639   2.023   4.146
 8511SOL    HW126432   5.561   2.015   4.084
 8511SOL    HW226433   5.620   2.093   4.215
 8512SOL     OW26434   1.896   6.365   5.714
 8512SOL    HW126435   1.853   6.455   5.706
 8512SOL    HW226436   1.828   6.294   5.693
 8513SOL     OW26437   4.695   5.097   6.831
 8513SOL    HW126438   4.657   5.089   6.738
 8513SOL    HW226439   4.792   5.120   6.825
 8514SOL     OW26440   3.868   6.057   4.766
 8514SOL    HW126441   3.775   6.025   4.744
 8514SOL    HW226442   3.913   6.087   4.682
 8515SOL     OW26443   5.392   3.048   1.555
 8515SOL    HW126444   5.452   3.101   1.496
 8515SOL    HW226445   5.336   3.111   1.611
 8516SOL     OW26446   6.914   1.553   1.341
 8516SOL    HW126447   6.987   1.527   1.278
 8516SOL    HW226448   6.904   1.653   1.342
 8517SOL     OW26449   1.254   3.995   4.425
 8517SOL    HW126450   1.195   4.049   4.485
 8517SOL    HW226451   1.204   3.973   4.341
 8518SOL     OW26452   3.332   5.974   1.001
 8518SOL    HW126453   3.312   6.072   1.004
 8518SOL    HW226454   3.377   5.947   1.086
 8519SOL     OW26455   2.768   5.549   3.485
 8519SOL    HW126456   2.833   5.617   3.518
 8519SOL    HW226457   2.811   5.493   3.414
 8520SOL     OW26458   3.871   6.111   6.549
 8520SOL    HW126459   3.787   6.069   6.585
 8520SOL    HW226460   3.946   6.045   6.554
 8521SOL     OW26461   1.327   0.962   2.432
 8521SOL    HW126462   1.348   1.060   2.425
 8521SOL    HW226463   1.335   0.933   2.527
 8522SOL     OW26464   1.989   6.416   4.473
 8522SOL    HW126465   1.971   6.459   4.384
 8522SOL    HW226466   2.070   6.459   4.514
 8523SOL     OW26467   1.919   6.045   6.937
 8523SOL    HW126468   1.978   6.109   6.985
 8523SOL    HW226469   1.885   6.088   6.854
 8524SOL     OW26470   1.677   1.562   0.233
 8524SOL    HW126471   1.631   1.475   0.217
 8524SOL    HW226472   1.740   1.581   0.157
 8525SOL     OW26473   5.418   4.240   4.205
 8525SOL    HW126474   5.517   4.244   4.208
 8525SOL    HW226475   5.379   4.308   4.267
 8526SOL     OW26476   0.846   3.692   1.989
 8526SOL    HW126477   0.799   3.743   2.062
 8526SOL    HW226478   0.830   3.594   2.002
 8527SOL     OW26479   4.852   0.319   4.631
 8527SOL    HW126480   4.915   0.379   4.681
 8527SOL    HW226481   4.759   0.335   4.663
 8528SOL     OW26482   5.445   0.748   0.421
 8528SOL    HW126483   5.457   0.789   0.331
 8528SOL    HW226484   5.458   0.649   0.415
 8529SOL     OW26485   6.988   6.890   4.886
 8529SOL    HW126486   0.045   6.838   4.882
 8529SOL    HW226487   6.987   6.958   4.812
 8530SOL     OW26488   1.959   4.442   6.277
 8530SOL    HW126489   1.939   4.354   6.234
 8530SOL    HW226490   1.980   4.510   6.207
 8531SOL     OW26491   3.915   5.525   2.145
 8531SOL    HW126492   3.846   5.452   2.149
 8531SOL    HW226493   3.888   5.593   2.077
 8532SOL     OW26494   1.418   4.243   6.988
 8532SOL    HW126495   1.483   4.179   0.000
 8532SOL    HW226496   1.381   4.203   6.904
 8533SOL     OW26497   3.231   6.735   5.415
 8533SOL    HW126498   3.300   6.702   5.479
 8533SOL    HW226499   3.140   6.719   5.453
 8534SOL     OW26500   2.277   1.922   0.641
 8534SOL    HW126501   2.328   1.987   0.697
 8534SOL    HW226502   2.182   1.919   0.670
 8535SOL     OW26503   0.380   3.240   6.017
 8535SOL    HW126504   0.373   3.257   5.919
 8535SOL    HW226505   0.350   3.322   6.067
 8536SOL     OW26506   6.407   0.429   6.044
 8536SOL    HW126507   6.483   0.374   6.078
 8536SOL    HW226508   6.364   0.383   5.967
 8537SOL     OW26509   3.961   6.419   2.946
 8537SOL    HW126510   3.917   6.405   3.035
 8537SOL    HW226511   3.996   6.332   2.912
 8538SOL     OW26512   4.538   0.395   5.347
 8538SOL    HW126513   4.623   0.403   5.296
 8538SOL    HW226514   4.460   0.406   5.285
 8539SOL     OW26515   0.489   3.239   3.600
 8539SOL    HW126516   0.397   3.231   3.638
 8539SOL    HW226517   0.556   3.244   3.674
 8540SOL     OW26518   4.829   6.264   6.230
 8540SOL    HW126519   4.744   6.235   6.186
 8540SOL    HW226520   4.878   6.326   6.168
 8541SOL     OW26521   3.013   6.064   5.645
 8541SOL    HW126522   2.948   5.988   5.644
 8541SOL    HW226523   3.102   6.031   5.676
 8542SOL     OW26524   1.917   4.667   6.115
 8542SOL    HW126525   1.843   4.698   6.175
 8542SOL    HW226526   1.889   4.680   6.020
 8543SOL     OW26527   3.430   1.919   5.632
 8543SOL    HW126528   3.417   1.862   5.552
 8543SOL    HW226529   3.466   2.008   5.604
 8544SOL     OW26530   5.487   3.466   5.453
 8544SOL    HW126531   5.534   3.382   5.476
 8544SOL    HW226532   5.484   3.476   5.353
 8545SOL     OW26533   2.273   0.464   5.822
 8545SOL    HW126534   2.270   0.547   5.878
 8545SOL    HW226535   2.211   0.474   5.745
 8546SOL     OW26536   3.035   1.309   3.507
 8546SOL    HW126537   2.952   1.276   3.462
 8546SOL    HW226538   3.106   1.325   3.439
 8547SOL     OW26539   5.768   5.807   5.739
 8547SOL    HW126540   5.803   5.778   5.650
 8547SOL    HW226541   5.671   5.831   5.730
 8548SOL     OW26542   1.277   4.456   3.927
 8548SOL    HW126543   1.208   4.386   3.909
 8548SOL    HW226544   1.323   4.437   4.013
 8549SOL     OW26545   3.090   0.480   3.725
 8549SOL    HW126546   2.993   0.473   3.750
 8549SOL    HW226547   3.110   0.573   3.694
 8550SOL     OW26548   0.273   3.901   5.043
 8550SOL    HW126549   0.294   3.861   4.954
 8550SOL    HW226550   0.355   3.943   5.081
 8551SOL     OW26551   3.913   1.562   3.903
 8551SOL    HW126552   3.854   1.549   3.823
 8551SOL    HW226553   3.863   1.610   3.974
 8552SOL     OW26554   4.104   1.628   1.993
 8552SOL    HW126555   4.014   1.641   2.034
 8552SOL    HW226556   4.093   1.592   1.900
 8553SOL     OW26557   5.395   3.740   0.235
 8553SOL    HW126558   5.460   3.710   0.305
 8553SOL    HW226559   5.439   3.807   0.175
 8554SOL     OW26560   1.059   1.477   6.643
 8554SOL    HW126561   1.099   1.520   6.723
 8554SOL    HW226562   1.060   1.541   6.566
 8555SOL     OW26563   3.345   1.605   3.496
 8555SOL    HW126564   3.349   1.622   3.397
 8555SOL    HW226565   3.327   1.691   3.543
 8556SOL     OW26566   0.421   4.641   5.262
 8556SOL    HW126567   0.323   4.631   5.246
 8556SOL    HW226568   0.444   4.608   5.354
 8557SOL     OW26569   6.406   0.854   0.656
 8557SOL    HW126570   6.334   0.919   0.680
 8557SOL    HW226571   6.385   0.764   0.695
 8558SOL     OW26572   2.756   6.557   3.392
 8558SOL    HW126573   2.784   6.566   3.488
 8558SOL    HW226574   2.803   6.478   3.351
 8559SOL     OW26575   1.142   3.159   3.420
 8559SOL    HW126576   1.198   3.172   3.502
 8559SOL    HW226577   1.081   3.238   3.408
 8560SOL     OW26578   3.397   4.256   1.354
 8560SOL    HW126579   3.447   4.169   1.355
 8560SOL    HW226580   3.361   4.276   1.445
 8561SOL     OW26581   4.255   1.070   2.131
 8561SOL    HW126582   4.207   1.016   2.200
 8561SOL    HW226583   4.341   1.025   2.108
 8562SOL     OW26584   5.226   2.647   6.606
 8562SOL    HW126585   5.167   2.694   6.672
 8562SOL    HW226586   5.286   2.713   6.562
 8563SOL     OW26587   0.980   4.598   2.902
 8563SOL    HW126588   1.063   4.545   2.894
 8563SOL    HW226589   0.998   4.682   2.954
 8564SOL     OW26590   3.921   6.199   0.154
 8564SOL    HW126591   3.940   6.192   0.056
 8564SOL    HW226592   3.998   6.245   0.199
 8565SOL     OW26593   1.451   4.702   1.632
 8565SOL    HW126594   1.394   4.686   1.713
 8565SOL    HW226595   1.401   4.758   1.567
 8566SOL     OW26596   2.841   1.222   3.342
 8566SOL    HW126597   2.838   1.277   3.258
 8566SOL    HW226598   2.748   1.200   3.371
 8567SOL     OW26599   1.719   3.196   0.871
 8567SOL    HW126600   1.682   3.106   0.849
 8567SOL    HW226601   1.816   3.199   0.847
 8568SOL     OW26602   5.671   6.467   5.730
 8568SOL    HW126603   5.753   6.506   5.689
 8568SOL    HW226604   5.592   6.523   5.705
 8569SOL     OW26605   4.827   1.299   6.407
 8569SOL    HW126606   4.844   1.386   6.454
 8569SOL    HW226607   4.874   1.299   6.319
 8570SOL     OW26608   1.843   1.972   4.082
 8570SOL    HW126609   1.893   2.025   4.015
 8570SOL    HW226610   1.746   1.970   4.058
 8571SOL     OW26611   1.183   1.141   3.669
 8571SOL    HW126612   1.111   1.084   3.629
 8571SOL    HW226613   1.171   1.145   3.768
 8572SOL     OW26614   2.836   3.573   5.604
 8572SOL    HW126615   2.859   3.543   5.511
 8572SOL    HW226616   2.811   3.670   5.603
 8573SOL     OW26617   1.718   6.024   6.419
 8573SOL    HW126618   1.696   5.926   6.425
 8573SOL    HW226619   1.723   6.050   6.323
 8574SOL     OW26620   5.577   1.879   5.410
 8574SOL    HW126621   5.656   1.830   5.447
 8574SOL    HW226622   5.606   1.971   5.381
 8575SOL     OW26623   2.710   6.256   4.443
 8575SOL    HW126624   2.799   6.228   4.407
 8575SOL    HW226625   2.696   6.353   4.424
 8576SOL     OW26626   1.453   3.891   4.977
 8576SOL    HW126627   1.474   3.986   4.956
 8576SOL    HW226628   1.355   3.876   4.970
 8577SOL     OW26629   1.580   1.000   0.562
 8577SOL    HW126630   1.643   1.078   0.567
 8577SOL    HW226631   1.623   0.926   0.511
 8578SOL     OW26632   1.141   0.225   5.816
 8578SOL    HW126633   1.138   0.268   5.726
 8578SOL    HW226634   1.065   0.160   5.825
 8579SOL     OW26635   3.526   6.727   2.104
 8579SOL    HW126636   3.611   6.776   2.082
 8579SOL    HW226637   3.450   6.771   2.056
 8580SOL     OW26638   1.984   0.656   1.942
 8580SOL    HW126639   1.952   0.658   1.847
 8580SOL    HW226640   1.977   0.563   1.977
 8581SOL     OW26641   4.024   3.593   3.303
 8581SOL    HW126642   4.000   3.598   3.206
 8581SOL    HW226643   4.046   3.498   3.327
 8582SOL     OW26644   4.254   5.666   5.786
 8582SOL    HW126645   4.198   5.625   5.714
 8582SOL    HW226646   4.338   5.702   5.745
 8583SOL     OW26647   3.389   6.876   2.992
 8583SOL    HW126648   3.484   6.881   2.963
 8583SOL    HW226649   3.375   6.933   3.073
 8584SOL     OW26650   5.983   2.432   5.203
 8584SOL    HW126651   5.912   2.365   5.226
 8584SOL    HW226652   5.942   2.509   5.153
 8585SOL     OW26653   4.775   2.444   2.813
 8585SOL    HW126654   4.744   2.539   2.804
 8585SOL    HW226655   4.696   2.383   2.813
 8586SOL     OW26656   6.936   6.579   5.355
 8586SOL    HW126657   6.897   6.585   5.447
 8586SOL    HW226658   6.938   6.670   5.313
 8587SOL     OW26659   6.632   0.748   0.991
 8587SOL    HW126660   6.697   0.767   0.917
 8587SOL    HW226661   6.644   0.815   1.064
 8588SOL     OW26662   1.364   1.260   5.619
 8588SOL    HW126663   1.335   1.262   5.714
 8588SOL    HW226664   1.288   1.287   5.560
 8589SOL     OW26665   5.839   3.280   6.616
 8589SOL    HW126666   5.792   3.307   6.532
 8589SOL    HW226667   5.782   3.302   6.695
 8590SOL     OW26668   1.006   1.004   3.014
 8590SOL    HW126669   1.031   1.021   3.109
 8590SOL    HW226670   1.066   1.056   2.954
 8591SOL     OW26671   1.230   4.366   5.377
 8591SOL    HW126672   1.135   4.346   5.400
 8591SOL    HW226673   1.287   4.359   5.458
 8592SOL     OW26674   0.383   2.447   5.129
 8592SOL    HW126675   0.449   2.521   5.136
 8592SOL    HW226676   0.348   2.442   5.036
 8593SOL     OW26677   6.426   1.343   0.256
 8593SOL    HW126678   6.473   1.258   0.229
 8593SOL    HW226679   6.392   1.334   0.349
 8594SOL     OW26680   5.927   4.111   6.568
 8594SOL    HW126681   5.863   4.041   6.601
 8594SOL    HW226682   5.876   4.184   6.524
 8595SOL     OW26683   5.492   6.502   2.524
 8595SOL    HW126684   5.469   6.548   2.437
 8595SOL    HW226685   5.509   6.571   2.594
 8596SOL     OW26686   0.325   2.165   5.890
 8596SOL    HW126687   0.263   2.118   5.952
 8596SOL    HW226688   0.391   2.219   5.943
 8597SOL     OW26689   6.058   2.327   5.531
 8597SOL    HW126690   6.008   2.240   5.530
 8597SOL    HW226691   6.002   2.398   5.488
 8598SOL     OW26692   6.999   0.739   6.242
 8598SOL    HW126693   0.035   0.695   6.180
 8598SOL    HW226694   7.001   0.838   6.228
 8599SOL     OW26695   5.664   4.018   4.957
 8599SOL    HW126696   5.587   3.975   5.005
 8599SOL    HW226697   5.659   4.117   4.969
 8600SOL     OW26698   4.166   3.071   1.753
 8600SOL    HW126699   4.257   3.082   1.712
 8600SOL    HW226700   4.158   2.979   1.792
 8601SOL     OW26701   4.657   5.573   2.434
 8601SOL    HW126702   4.732   5.517   2.398
 8601SOL    HW226703   4.627   5.637   2.363
 8602SOL     OW26704   2.150   6.262   5.055
 8602SOL    HW126705   2.067   6.230   5.102
 8602SOL    HW226706   2.159   6.213   4.968
 8603SOL     OW26707   0.870   1.288   6.707
 8603SOL    HW126708   0.920   1.369   6.678
 8603SOL    HW226709   0.901   1.259   6.798
 8604SOL     OW26710   1.491   5.394   6.336
 8604SOL    HW126711   1.459   5.300   6.346
 8604SOL    HW226712   1.445   5.452   6.403
 8605SOL     OW26713   6.609   4.465   4.114
 8605SOL    HW126714   6.527   4.409   4.124
 8605SOL    HW226715   6.629   4.512   4.200
 8606SOL     OW26716   1.130   0.333   6.511
 8606SOL    HW126717   1.136   0.234   6.500
 8606SOL    HW226718   1.220   0.374   6.492
 8607SOL     OW26719   2.859   3.063   1.585
 8607SOL    HW126720   2.933   3.006   1.550
 8607SOL    HW226721   2.853   3.147   1.530
 8608SOL     OW26722   2.204   5.748   1.733
 8608SOL    HW126723   2.234   5.837   1.697
 8608SOL    HW226724   2.186   5.686   1.657
 8609SOL     OW26725   5.313   2.107   4.566
 8609SOL    HW126726   5.235   2.045   4.552
 8609SOL    HW226727   5.398   2.059   4.545
 8610SOL     OW26728   6.780   5.398   2.411
 8610SOL    HW126729   6.717   5.474   2.395
 8610SOL    HW226730   6.774   5.333   2.336
 8611SOL     OW26731   1.976   1.609   5.390
 8611SOL    HW126732   1.984   1.680   5.461
 8611SOL    HW226733   2.067   1.583   5.359
 8612SOL     OW26734   3.337   3.248   5.536
 8612SOL    HW126735   3.262   3.208   5.589
 8612SOL    HW226736   3.351   3.343   5.564
 8613SOL     OW26737   2.994   3.165   3.187
 8613SOL    HW126738   3.062   3.116   3.241
 8613SOL    HW226739   3.014   3.156   3.090
 8614SOL     OW26740   0.567   2.513   4.084
 8614SOL    HW126741   0.653   2.547   4.120
 8614SOL    HW226742   0.571   2.413   4.075
 8615SOL     OW26743   3.757   0.900   5.510
 8615SOL    HW126744   3.667   0.903   5.465
 8615SOL    HW226745   3.815   0.832   5.464
 8616SOL     OW26746   6.045   4.048   5.470
 8616SOL    HW126747   5.960   4.100   5.478
 8616SOL    HW226748   6.095   4.054   5.557
 8617SOL     OW26749   0.973   6.921   3.197
 8617SOL    HW126750   0.958   7.007   3.149
 8617SOL    HW226751   0.890   6.894   3.245
 8618SOL     OW26752   6.331   4.766   0.817
 8618SOL    HW126753   6.287   4.676   0.821
 8618SOL    HW226754   6.344   4.793   0.722
 8619SOL     OW26755   5.298   5.595   6.556
 8619SOL    HW126756   5.301   5.677   6.612
 8619SOL    HW226757   5.247   5.523   6.604
 8620SOL     OW26758   1.408   6.818   3.931
 8620SOL    HW126759   1.337   6.887   3.943
 8620SOL    HW226760   1.367   6.727   3.927
 8621SOL     OW26761   6.463   3.445   1.394
 8621SOL    HW126762   6.412   3.488   1.320
 8621SOL    HW226763   6.417   3.361   1.423
 8622SOL     OW26764   1.131   5.418   1.490
 8622SOL    HW126765   1.137   5.518   1.480
 8622SOL    HW226766   1.104   5.378   1.403
 8623SOL     OW26767   2.132   2.095   3.253
 8623SOL    HW126768   2.034   2.093   3.276
 8623SOL    HW226769   2.175   2.011   3.285
 8624SOL     OW26770   3.535   3.702   5.295
 8624SOL    HW126771   3.465   3.652   5.244
 8624SOL    HW226772   3.531   3.674   5.391
 8625SOL     OW26773   4.668   3.177   6.111
 8625SOL    HW126774   4.653   3.274   6.093
 8625SOL    HW226775   4.600   3.123   6.061
 8626SOL     OW26776   5.179   2.079   1.107
 8626SOL    HW126777   5.145   2.065   1.200
 8626SOL    HW226778   5.185   1.992   1.059
 8627SOL     OW26779   0.101   6.784   2.808
 8627SOL    HW126780   0.094   6.769   2.710
 8627SOL    HW226781   0.018   6.830   2.841
 8628SOL     OW26782   1.399   6.889   0.582
 8628SOL    HW126783   1.469   6.953   0.551
 8628SOL    HW226784   1.413   6.868   0.679
 8629SOL     OW26785   0.085   0.568   4.481
 8629SOL    HW126786   0.073   0.484   4.429
 8629SOL    HW226787   0.149   0.553   4.556
 8630SOL     OW26788   5.045   3.144   1.443
 8630SOL    HW126789   4.959   3.113   1.403
 8630SOL    HW226790   5.101   3.064   1.466
 8631SOL     OW26791   1.581   6.267   6.895
 8631SOL    HW126792   1.650   6.224   6.837
 8631SOL    HW226793   1.515   6.316   6.837
 8632SOL     OW26794   6.291   6.047   4.050
 8632SOL    HW126795   6.195   6.039   4.077
 8632SOL    HW226796   6.302   6.126   3.989
 8633SOL     OW26797   6.775   3.040   5.172
 8633SOL    HW126798   6.784   3.067   5.076
 8633SOL    HW226799   6.713   3.103   5.219
 8634SOL     OW26800   5.022   4.693   6.285
 8634SOL    HW126801   4.924   4.690   6.304
 8634SOL    HW226802   5.039   4.743   6.201
 8635SOL     OW26803   5.343   1.872   5.872
 8635SOL    HW126804   5.344   1.775   5.848
 8635SOL    HW226805   5.377   1.926   5.795
 8636SOL     OW26806   3.918   6.069   0.942
 8636SOL    HW126807   3.989   5.998   0.938
 8636SOL    HW226808   3.869   6.073   0.855
 8637SOL     OW26809   2.915   2.466   0.604
 8637SOL    HW126810   2.833   2.503   0.649
 8637SOL    HW226811   2.996   2.500   0.651
 8638SOL     OW26812   5.345   2.654   5.021
 8638SOL    HW126813   5.315   2.747   5.000
 8638SOL    HW226814   5.271   2.589   5.001
 8639SOL     OW26815   3.323   4.032   0.422
 8639SOL    HW126816   3.313   3.936   0.448
 8639SOL    HW226817   3.371   4.081   0.495
 8640SOL     OW26818   3.377   2.235   6.822
 8640SOL    HW126819   3.379   2.266   6.917
 8640SOL    HW226820   3.446   2.284   6.769
 8641SOL     OW26821   3.365   5.070   3.459
 8641SOL    HW126822   3.341   5.005   3.387
 8641SOL    HW226823   3.463   5.090   3.455
 8642SOL     OW26824   2.365   6.194   3.046
 8642SOL    HW126825   2.432   6.180   2.974
 8642SOL    HW226826   2.406   6.249   3.119
 8643SOL     OW26827   3.915   6.453   1.260
 8643SOL    HW126828   4.003   6.429   1.299
 8643SOL    HW226829   3.897   6.397   1.179
 8644SOL     OW26830   5.640   2.540   6.232
 8644SOL    HW126831   5.716   2.482   6.263
 8644SOL    HW226832   5.657   2.635   6.259
 8645SOL     OW26833   4.870   5.085   2.811
 8645SOL    HW126834   4.947   5.136   2.850
 8645SOL    HW226835   4.902   4.997   2.778
 8646SOL     OW26836   6.962   1.810   4.643
 8646SOL    HW126837   6.890   1.815   4.711
 8646SOL    HW226838   6.989   1.903   4.616
 8647SOL     OW26839   1.806   4.775   1.744
 8647SOL    HW126840   1.749   4.853   1.770
 8647SOL    HW226841   1.858   4.745   1.824
 8648SOL     OW26842   5.425   5.271   6.301
 8648SOL    HW126843   5.459   5.359   6.270
 8648SOL    HW226844   5.475   5.198   6.254
 8649SOL     OW26845   5.402   2.134   1.911
 8649SOL    HW126846   5.474   2.093   1.855
 8649SOL    HW226847   5.313   2.120   1.867
 8650SOL     OW26848   1.340   0.733   5.083
 8650SOL    HW126849   1.272   0.796   5.045
 8650SOL    HW226850   1.432   0.771   5.068
 8651SOL     OW26851   4.712   2.075   1.981
 8651SOL    HW126852   4.629   2.131   1.979
 8651SOL    HW226853   4.690   1.984   2.015
 8652SOL     OW26854   6.441   2.467   4.216
 8652SOL    HW126855   6.362   2.419   4.256
 8652SOL    HW226856   6.476   2.415   4.139
 8653SOL     OW26857   5.559   0.772   0.841
 8653SOL    HW126858   5.540   0.755   0.938
 8653SOL    HW226859   5.473   0.788   0.793
 8654SOL     OW26860   0.241   4.479   2.651
 8654SOL    HW126861   0.223   4.499   2.554
 8654SOL    HW226862   0.339   4.486   2.668
 8655SOL     OW26863   1.079   6.926   4.972
 8655SOL    HW126864   1.035   6.930   4.882
 8655SOL    HW226865   1.144   7.002   4.980
 8656SOL     OW26866   4.133   5.899   0.947
 8656SOL    HW126867   4.156   5.962   1.021
 8656SOL    HW226868   4.216   5.856   0.913
 8657SOL     OW26869   3.304   1.820   2.670
 8657SOL    HW126870   3.351   1.907   2.679
 8657SOL    HW226871   3.276   1.807   2.575
 8658SOL     OW26872   6.305   4.048   0.843
 8658SOL    HW126873   6.358   4.004   0.916
 8658SOL    HW226874   6.338   4.141   0.830
 8659SOL     OW26875   3.409   0.390   3.069
 8659SOL    HW126876   3.334   0.421   3.126
 8659SOL    HW226877   3.492   0.382   3.124
 8660SOL     OW26878   6.994   3.815   1.532
 8660SOL    HW126879   6.927   3.741   1.538
 8660SOL    HW226880   7.015   3.834   1.437
 8661SOL     OW26881   6.077   3.408   2.192
 8661SOL    HW126882   6.102   3.379   2.100
 8661SOL    HW226883   6.074   3.329   2.253
 8662SOL     OW26884   1.782   2.473   2.967
 8662SOL    HW126885   1.879   2.483   2.942
 8662SOL    HW226886   1.730   2.549   2.928
 8663SOL     OW26887   3.315   4.897   2.783
 8663SOL    HW126888   3.234   4.907   2.724
 8663SOL    HW226889   3.286   4.900   2.878
 8664SOL     OW26890   3.334   6.066   4.170
 8664SOL    HW126891   3.237   6.044   4.168
 8664SOL    HW226892   3.388   5.981   4.173
 8665SOL     OW26893   0.175   3.678   6.444
 8665SOL    HW126894   0.255   3.622   6.424
 8665SOL    HW226895   0.203   3.774   6.452
 8666SOL     OW26896   4.800   0.267   2.740
 8666SOL    HW126897   4.900   0.266   2.749
 8666SOL    HW226898   4.760   0.210   2.812
 8667SOL     OW26899   5.266   2.617   1.981
 8667SOL    HW126900   5.197   2.580   1.919
 8667SOL    HW226901   5.259   2.717   1.982
 8668SOL     OW26902   3.899   2.192   3.456
 8668SOL    HW126903   3.958   2.200   3.536
 8668SOL    HW226904   3.803   2.205   3.483
 8669SOL     OW26905   0.567   6.252   5.866
 8669SOL    HW126906   0.570   6.157   5.834
 8669SOL    HW226907   0.474   6.287   5.858
 8670SOL     OW26908   0.454   5.496   4.959
 8670SOL    HW126909   0.511   5.490   4.877
 8670SOL    HW226910   0.431   5.591   4.977
 8671SOL     OW26911   6.967   3.333   3.894
 8671SOL    HW126912   6.966   3.359   3.797
 8671SOL    HW226913   7.027   3.254   3.906
 8672SOL     OW26914   6.371   1.373   2.540
 8672SOL    HW126915   6.439   1.433   2.583
 8672SOL    HW226916   6.418   1.306   2.483
 8673SOL     OW26917   0.733   1.197   1.418
 8673SOL    HW126918   0.675   1.139   1.475
 8673SOL    HW226919   0.760   1.278   1.470
 8674SOL     OW26920   0.186   3.557   3.761
 8674SOL    HW126921   0.093   3.588   3.743
 8674SOL    HW226922   0.242   3.634   3.792
 8675SOL     OW26923   4.832   2.552   4.998
 8675SOL    HW126924   4.832   2.467   5.050
 8675SOL    HW226925   4.746   2.600   5.012
 8676SOL     OW26926   4.519   2.511   0.646
 8676SOL    HW126927   4.515   2.593   0.704
 8676SOL    HW226928   4.575   2.442   0.691
 8677SOL     OW26929   3.105   0.842   6.984
 8677SOL    HW126930   3.182   0.857   0.017
 8677SOL    HW226931   3.090   0.744   6.973
 8678SOL     OW26932   3.071   1.671   0.212
 8678SOL    HW126933   2.977   1.639   0.224
 8678SOL    HW226934   3.078   1.719   0.124
 8679SOL     OW26935   1.739   2.147   6.979
 8679SOL    HW126936   1.815   2.118   6.921
 8679SOL    HW226937   1.759   2.238   7.016
 8680SOL     OW26938   7.029   0.257   1.227
 8680SOL    HW126939   7.002   0.343   1.184
 8680SOL    HW226940   6.983   0.248   1.315
 8681SOL     OW26941   5.561   5.606   0.777
 8681SOL    HW126942   5.463   5.604   0.799
 8681SOL    HW226943   5.573   5.646   0.686
 8682SOL     OW26944   1.833   1.435   2.770
 8682SOL    HW126945   1.861   1.343   2.796
 8682SOL    HW226946   1.773   1.474   2.839
 8683SOL     OW26947   2.450   4.534   4.118
 8683SOL    HW126948   2.547   4.554   4.106
 8683SOL    HW226949   2.405   4.610   4.163
 8684SOL     OW26950   2.360   4.182   3.423
 8684SOL    HW126951   2.353   4.281   3.411
 8684SOL    HW226952   2.447   4.150   3.386
 8685SOL     OW26953   5.167   3.109   5.535
 8685SOL    HW126954   5.182   3.193   5.587
 8685SOL    HW226955   5.197   3.123   5.440
 8686SOL     OW26956   1.657   4.601   2.810
 8686SOL    HW126957   1.568   4.569   2.841
 8686SOL    HW226958   1.660   4.600   2.710
 8687SOL     OW26959   5.901   4.233   5.603
 8687SOL    HW126960   5.871   4.267   5.514
 8687SOL    HW226961   5.823   4.193   5.651
 8688SOL     OW26962   0.534   3.973   5.163
 8688SOL    HW126963   0.551   4.046   5.229
 8688SOL    HW226964   0.594   3.895   5.183
 8689SOL     OW26965   4.996   3.433   0.903
 8689SOL    HW126966   4.939   3.403   0.827
 8689SOL    HW226967   5.086   3.460   0.869
 8690SOL     OW26968   1.861   2.216   2.842
 8690SOL    HW126969   1.905   2.168   2.918
 8690SOL    HW226970   1.806   2.291   2.878
 8691SOL     OW26971   3.243   1.082   6.923
 8691SOL    HW126972   3.283   1.115   7.008
 8691SOL    HW226973   3.195   0.996   6.940
 8692SOL     OW26974   5.187   1.705   4.329
 8692SOL    HW126975   5.272   1.755   4.312
 8692SOL    HW226976   5.117   1.735   4.264
 8693SOL     OW26977   0.716   0.426   5.740
 8693SOL    HW126978   0.721   0.445   5.838
 8693SOL    HW226979   0.765   0.497   5.690
 8694SOL     OW26980   4.460   3.935   5.382
 8694SOL    HW126981   4.533   3.999   5.357
 8694SOL    HW226982   4.428   3.954   5.475
 8695SOL     OW26983   4.335   4.532   1.189
 8695SOL    HW126984   4.281   4.462   1.236
 8695SOL    HW226985   4.283   4.618   1.187
 8696SOL     OW26986   2.941   5.975   6.608
 8696SOL    HW126987   2.958   5.913   6.531
 8696SOL    HW226988   3.020   6.036   6.619
 8697SOL     OW26989   1.601   3.377   4.780
 8697SOL    HW126990   1.548   3.315   4.838
 8697SOL    HW226991   1.596   3.470   4.818
 8698SOL     OW26992   5.736   4.121   6.842
 8698SOL    HW126993   5.800   4.198   6.847
 8698SOL    HW226994   5.760   4.054   6.912
 8699SOL     OW26995   2.819   2.397   1.382
 8699SOL    HW126996   2.885   2.429   1.314
 8699SOL    HW226997   2.731   2.442   1.366
 8700SOL     OW26998   0.042   1.680   4.441
 8700SOL    HW126999   7.004   1.623   4.394
 8700SOL    HW227000   7.027   1.725   4.518
 8701SOL     OW27001   2.232   3.000   6.778
 8701SOL    HW127002   2.163   2.991   6.706
 8701SOL    HW227003   2.274   2.911   6.795
 8702SOL     OW27004   5.243   3.928   0.998
 8702SOL    HW127005   5.150   3.963   1.011
 8702SOL    HW227006   5.303   3.966   1.069
 8703SOL     OW27007   2.238   5.127   2.212
 8703SOL    HW127008   2.156   5.158   2.164
 8703SOL    HW227009   2.222   5.036   2.251
 8704SOL     OW27010   5.987   0.975   3.852
 8704SOL    HW127011   5.972   1.072   3.869
 8704SOL    HW227012   6.020   0.962   3.758
 8705SOL     OW27013   3.727   2.129   0.214
 8705SOL    HW127014   3.673   2.211   0.235
 8705SOL    HW227015   3.797   2.116   0.284
 8706SOL     OW27016   4.889   3.029   5.547
 8706SOL    HW127017   4.881   2.957   5.478
 8706SOL    HW227018   4.974   3.079   5.534
 8707SOL     OW27019   0.813   0.962   3.959
 8707SOL    HW127020   0.742   0.905   3.999
 8707SOL    HW227021   0.789   1.059   3.972
 8708SOL     OW27022   5.950   2.494   0.706
 8708SOL    HW127023   6.016   2.551   0.755
 8708SOL    HW227024   5.858   2.527   0.723
 8709SOL     OW27025   6.263   6.417   4.193
 8709SOL    HW127026   6.359   6.400   4.214
 8709SOL    HW227027   6.251   6.513   4.167
 8710SOL     OW27028   2.024   2.733   4.199
 8710SOL    HW127029   2.058   2.810   4.252
 8710SOL    HW227030   1.935   2.704   4.236
 8711SOL     OW27031   0.863   1.688   1.924
 8711SOL    HW127032   0.894   1.637   1.844
 8711SOL    HW227033   0.881   1.786   1.911
 8712SOL     OW27034   1.262   3.763   3.991
 8712SOL    HW127035   1.199   3.826   4.037
 8712SOL    HW227036   1.229   3.745   3.898
 8713SOL     OW27037   0.057   4.489   3.405
 8713SOL    HW127038   7.011   4.425   3.423
 8713SOL    HW227039   0.029   4.581   3.432
 8714SOL     OW27040   0.239   4.350   6.389
 8714SOL    HW127041   0.185   4.413   6.333
 8714SOL    HW227042   0.299   4.402   6.449
 8715SOL     OW27043   2.421   5.217   1.447
 8715SOL    HW127044   2.417   5.184   1.353
 8715SOL    HW227045   2.472   5.153   1.503
 8716SOL     OW27046   5.725   0.316   2.501
 8716SOL    HW127047   5.743   0.388   2.435
 8716SOL    HW227048   5.722   0.228   2.454
 8717SOL     OW27049   3.619   2.430   6.931
 8717SOL    HW127050   3.591   2.411   6.837
 8717SOL    HW227051   3.697   2.371   6.955
 8718SOL     OW27052   2.719   5.374   5.953
 8718SOL    HW127053   2.779   5.453   5.965
 8718SOL    HW227054   2.772   5.296   5.922
 8719SOL     OW27055   2.989   2.258   4.494
 8719SOL    HW127056   3.079   2.261   4.539
 8719SOL    HW227057   2.918   2.281   4.560
 8720SOL     OW27058   0.417   6.563   4.902
 8720SOL    HW127059   0.473   6.613   4.968
 8720SOL    HW227060   0.431   6.601   4.810
 8721SOL     OW27061   1.123   0.806   1.362
 8721SOL    HW127062   1.158   0.816   1.455
 8721SOL    HW227063   1.195   0.828   1.296
 8722SOL     OW27064   4.249   1.530   0.402
 8722SOL    HW127065   4.243   1.489   0.311
 8722SOL    HW227066   4.334   1.500   0.446
 8723SOL     OW27067   4.115   6.426   2.635
 8723SOL    HW127068   4.071   6.357   2.692
 8723SOL    HW227069   4.063   6.511   2.638
 8724SOL     OW27070   3.566   0.082   5.277
 8724SOL    HW127071   3.468   0.101   5.281
 8724SOL    HW227072   3.584   0.014   5.205
 8725SOL     OW27073   6.358   0.938   2.516
 8725SOL    HW127074   6.387   0.949   2.611
 8725SOL    HW227075   6.400   1.009   2.459
 8726SOL     OW27076   6.919   1.471   0.549
 8726SOL    HW127077   6.834   1.420   0.561
 8726SOL    HW227078   6.995   1.420   0.590
 8727SOL     OW27079   5.023   5.434   6.434
 8727SOL    HW127080   4.958   5.407   6.363
 8727SOL    HW227081   5.104   5.376   6.429
 8728SOL     OW27082   5.950   6.550   4.583
 8728SOL    HW127083   5.870   6.604   4.608
 8728SOL    HW227084   5.932   6.502   4.497
 8729SOL     OW27085   5.991   6.272   5.677
 8729SOL    HW127086   5.963   6.185   5.718
 8729SOL    HW227087   6.078   6.301   5.718
 8730SOL     OW27088   4.086   4.563   1.738
 8730SOL    HW127089   4.126   4.472   1.748
 8730SOL    HW227090   4.116   4.622   1.813
 8731SOL     OW27091   0.038   2.039   4.546
 8731SOL    HW127092   0.122   2.050   4.493
 8731SOL    HW227093   6.999   2.105   4.514
 8732SOL     OW27094   5.180   6.374   5.426
 8732SOL    HW127095   5.173   6.281   5.462
 8732SOL    HW227096   5.134   6.438   5.488
 8733SOL     OW27097   5.812   4.677   1.963
 8733SOL    HW127098   5.773   4.654   2.052
 8733SOL    HW227099   5.844   4.593   1.918
 8734SOL     OW27100   0.762   5.678   1.208
 8734SOL    HW127101   0.710   5.600   1.242
 8734SOL    HW227102   0.750   5.756   1.269
 8735SOL     OW27103   1.232   2.486   6.514
 8735SOL    HW127104   1.183   2.428   6.449
 8735SOL    HW227105   1.210   2.582   6.495
 8736SOL     OW27106   1.494   6.254   3.792
 8736SOL    HW127107   1.481   6.349   3.766
 8736SOL    HW227108   1.406   6.215   3.822
 8737SOL     OW27109   0.510   5.337   6.809
 8737SOL    HW127110   0.501   5.364   6.713
 8737SOL    HW227111   0.419   5.322   6.848
 8738SOL     OW27112   2.427   2.519   2.337
 8738SOL    HW127113   2.394   2.613   2.341
 8738SOL    HW227114   2.433   2.480   2.429
 8739SOL     OW27115   4.236   4.656   3.235
 8739SOL    HW127116   4.207   4.651   3.139
 8739SOL    HW227117   4.301   4.582   3.253
 8740SOL     OW27118   2.617   1.012   3.669
 8740SOL    HW127119   2.529   0.967   3.653
 8740SOL    HW227120   2.690   0.943   3.675
 8741SOL     OW27121   2.269   2.330   2.974
 8741SOL    HW127122   2.337   2.404   2.971
 8741SOL    HW227123   2.306   2.255   3.029
 8742SOL     OW27124   1.502   3.629   1.501
 8742SOL    HW127125   1.512   3.688   1.420
 8742SOL    HW227126   1.458   3.543   1.475
 8743SOL     OW27127   1.324   3.258   0.161
 8743SOL    HW127128   1.307   3.175   0.107
 8743SOL    HW227129   1.297   3.243   0.256
 8744SOL     OW27130   2.946   4.146   5.905
 8744SOL    HW127131   2.884   4.198   5.963
 8744SOL    HW227132   2.925   4.048   5.913
 8745SOL     OW27133   5.635   1.692   6.749
 8745SOL    HW127134   5.564   1.623   6.759
 8745SOL    HW227135   5.593   1.781   6.732
 8746SOL     OW27136   4.990   4.684   4.560
 8746SOL    HW127137   5.021   4.664   4.653
 8746SOL    HW227138   5.000   4.603   4.503
 8747SOL     OW27139   0.580   0.009   1.607
 8747SOL    HW127140   0.637   7.028   1.689
 8747SOL    HW227141   0.545   0.102   1.602
 8748SOL     OW27142   5.936   1.352   4.464
 8748SOL    HW127143   5.869   1.278   4.473
 8748SOL    HW227144   5.892   1.432   4.422
 8749SOL     OW27145   3.043   1.606   3.729
 8749SOL    HW127146   2.994   1.601   3.816
 8749SOL    HW227147   3.132   1.563   3.738
 8750SOL     OW27148   3.741   3.376   1.750
 8750SOL    HW127149   3.740   3.382   1.651
 8750SOL    HW227150   3.827   3.412   1.786
 8751SOL     OW27151   2.183   6.998   0.065
 8751SOL    HW127152   2.225   6.975   0.153
 8751SOL    HW227153   2.186   6.918   0.005
 8752SOL     OW27154   0.567   3.141   6.575
 8752SOL    HW127155   0.659   3.106   6.558
 8752SOL    HW227156   0.554   3.158   6.672
 8753SOL     OW27157   2.068   1.846   0.998
 8753SOL    HW127158   2.116   1.866   1.083
 8753SOL    HW227159   1.970   1.859   1.011
 8754SOL     OW27160   1.649   6.076   6.116
 8754SOL    HW127161   1.562   6.119   6.140
 8754SOL    HW227162   1.632   5.987   6.073
 8755SOL     OW27163   0.671   2.186   1.752
 8755SOL    HW127164   0.620   2.232   1.824
 8755SOL    HW227165   0.616   2.113   1.713
 8756SOL     OW27166   1.638   1.582   2.428
 8756SOL    HW127167   1.682   1.643   2.494
 8756SOL    HW227168   1.643   1.622   2.337
 8757SOL     OW27169   5.079   5.703   4.569
 8757SOL    HW127170   5.178   5.696   4.579
 8757SOL    HW227171   5.053   5.800   4.558
 8758SOL     OW27172   3.619   5.049   6.417
 8758SOL    HW127173   3.655   5.000   6.337
 8758SOL    HW227174   3.522   5.027   6.428
 8759SOL     OW27175   6.814   1.494   1.781
 8759SOL    HW127176   6.889   1.471   1.719
 8759SOL    HW227177   6.745   1.421   1.779
 8760SOL     OW27178   1.453   2.959   4.472
 8760SOL    HW127179   1.452   3.041   4.414
 8760SOL    HW227180   1.524   2.967   4.541
 8761SOL     OW27181   5.077   2.659   3.531
 8761SOL    HW127182   4.995   2.711   3.555
 8761SOL    HW227183   5.062   2.611   3.444
 8762SOL     OW27184   4.160   6.134   2.441
 8762SOL    HW127185   4.141   6.212   2.381
 8762SOL    HW227186   4.190   6.166   2.530
 8763SOL     OW27187   6.992   1.790   5.538
 8763SOL    HW127188   0.020   1.780   5.621
 8763SOL    HW227189   6.991   1.704   5.488
 8764SOL     OW27190   3.089   5.279   6.133
 8764SOL    HW127191   3.134   5.229   6.207
 8764SOL    HW227192   3.080   5.219   6.054
 8765SOL     OW27193   4.340   0.011   3.387
 8765SOL    HW127194   4.400   6.998   3.319
 8765SOL    HW227195   4.387   0.016   3.475
 8766SOL     OW27196   6.273   0.030   4.564
 8766SOL    HW127197   6.277   6.981   4.626
 8766SOL    HW227198   6.345   0.095   4.589
 8767SOL     OW27199   1.850   1.115   4.435
 8767SOL    HW127200   1.842   1.185   4.506
 8767SOL    HW227201   1.806   1.031   4.465
 8768SOL     OW27202   0.016   1.790   1.021
 8768SOL    HW127203   0.007   1.709   0.963
 8768SOL    HW227204   6.999   1.868   0.977
 8769SOL     OW27205   6.484   6.947   6.611
 8769SOL    HW127206   6.491   7.017   6.540
 8769SOL    HW227207   6.477   6.990   6.701
 8770SOL     OW27208   4.942   1.687   0.742
 8770SOL    HW127209   4.990   1.710   0.656
 8770SOL    HW227210   4.992   1.614   0.789
 8771SOL     OW27211   0.815   3.086   6.473
 8771SOL    HW127212   0.894   3.032   6.445
 8771SOL    HW227213   0.789   3.148   6.398
 8772SOL     OW27214   0.824   6.562   3.437
 8772SOL    HW127215   0.826   6.462   3.427
 8772SOL    HW227216   0.905   6.601   3.394
 8773SOL     OW27217   6.509   1.273   4.118
 8773SOL    HW127218   6.420   1.310   4.093
 8773SOL    HW227219   6.579   1.310   4.056
 8774SOL     OW27220   1.515   2.313   0.098
 8774SOL    HW127221   1.504   2.379   0.025
 8774SOL    HW227222   1.606   2.323   0.139
 8775SOL     OW27223   5.326   2.301   2.519
 8775SOL    HW127224   5.242   2.352   2.500
 8775SOL    HW227225   5.308   2.203   2.509
 8776SOL     OW27226   5.391   3.433   1.700
 8776SOL    HW127227   5.315   3.369   1.688
 8776SOL    HW227228   5.471   3.401   1.649
 8777SOL     OW27229   6.494   2.307   4.021
 8777SOL    HW127230   6.406   2.304   3.972
 8777SOL    HW227231   6.522   2.214   4.044
 8778SOL     OW27232   1.584   4.000   6.508
 8778SOL    HW127233   1.644   4.008   6.428
 8778SOL    HW227234   1.634   3.956   6.582
 8779SOL     OW27235   4.088   6.217   2.829
 8779SOL    HW127236   4.012   6.153   2.821
 8779SOL    HW227237   4.168   6.180   2.781
 8780SOL     OW27238   1.002   3.693   4.316
 8780SOL    HW127239   1.034   3.688   4.410
 8780SOL    HW227240   0.971   3.603   4.286
 8781SOL     OW27241   3.806   1.732   2.063
 8781SOL    HW127242   3.759   1.814   2.094
 8781SOL    HW227243   3.756   1.693   1.986
 8782SOL     OW27244   6.594   2.822   0.447
 8782SOL    HW127245   6.595   2.749   0.378
 8782SOL    HW227246   6.603   2.910   0.402
 8783SOL     OW27247   4.026   3.861   5.589
 8783SOL    HW127248   4.031   3.945   5.534
 8783SOL    HW227249   3.943   3.863   5.645
 8784SOL     OW27250   4.404   1.321   5.849
 8784SOL    HW127251   4.486   1.278   5.812
 8784SOL    HW227252   4.330   1.317   5.780
 8785SOL     OW27253   0.078   5.972   6.508
 8785SOL    HW127254   0.072   5.879   6.471
 8785SOL    HW227255   0.100   6.036   6.434
 8786SOL     OW27256   5.673   2.408   3.087
 8786SOL    HW127257   5.651   2.416   3.184
 8786SOL    HW227258   5.763   2.364   3.077
 8787SOL     OW27259   3.517   4.882   2.534
 8787SOL    HW127260   3.608   4.869   2.576
 8787SOL    HW227261   3.447   4.866   2.603
 8788SOL     OW27262   0.095   5.968   3.697
 8788SOL    HW127263   0.009   5.919   3.681
 8788SOL    HW227264   0.117   6.022   3.616
 8789SOL     OW27265   1.940   3.368   0.148
 8789SOL    HW127266   1.852   3.326   0.124
 8789SOL    HW227267   1.925   3.438   0.218
 8790SOL     OW27268   5.187   3.137   5.255
 8790SOL    HW127269   5.204   3.216   5.196
 8790SOL    HW227270   5.089   3.126   5.268
 8791SOL     OW27271   4.208   6.358   4.784
 8791SOL    HW127272   4.162   6.311   4.859
 8791SOL    HW227273   4.219   6.295   4.707
 8792SOL     OW27274   5.725   4.764   0.663
 8792SOL    HW127275   5.807   4.709   0.676
 8792SOL    HW227276   5.734   4.817   0.578
 8793SOL     OW27277   6.445   0.032   6.053
 8793SOL    HW127278   6.491   7.010   6.126
 8793SOL    HW227279   6.404   0.114   6.091
 8794SOL     OW27280   0.008   2.755   3.552
 8794SOL    HW127281   0.107   2.759   3.541
 8794SOL    HW227282   6.993   2.770   3.464
 8795SOL     OW27283   1.320   0.559   6.977
 8795SOL    HW127284   1.348   0.623   6.905
 8795SOL    HW227285   1.379   0.479   6.976
 8796SOL     OW27286   5.493   4.757   4.419
 8796SOL    HW127287   5.456   4.697   4.348
 8796SOL    HW227288   5.449   4.737   4.507
 8797SOL     OW27289   5.806   6.069   5.186
 8797SOL    HW127290   5.824   6.096   5.281
 8797SOL    HW227291   5.713   6.033   5.179
 8798SOL     OW27292   1.920   5.613   6.522
 8798SOL    HW127293   1.969   5.527   6.531
 8798SOL    HW227294   1.908   5.654   6.612
 8799SOL     OW27295   1.883   6.306   1.801
 8799SOL    HW127296   1.822   6.263   1.868
 8799SOL    HW227297   1.950   6.239   1.770
 8800SOL     OW27298   6.528   6.375   4.218
 8800SOL    HW127299   6.513   6.277   4.229
 8800SOL    HW227300   6.624   6.391   4.195
 8801SOL     OW27301   4.814   3.301   5.603
 8801SOL    HW127302   4.725   3.337   5.577
 8801SOL    HW227303   4.817   3.203   5.585
 8802SOL     OW27304   1.286   6.560   6.727
 8802SOL    HW127305   1.273   6.610   6.812
 8802SOL    HW227306   1.197   6.549   6.681
 8803SOL     OW27307   4.862   4.871   5.418
 8803SOL    HW127308   4.832   4.947   5.477
 8803SOL    HW227309   4.931   4.904   5.354
 8804SOL     OW27310   2.215   6.418   1.646
 8804SOL    HW127311   2.191   6.515   1.654
 8804SOL    HW227312   2.211   6.375   1.736
 8805SOL     OW27313   4.399   5.034   1.550
 8805SOL    HW127314   4.402   5.050   1.649
 8805SOL    HW227315   4.431   5.116   1.503
 8806SOL     OW27316   1.546   1.359   2.018
 8806SOL    HW127317   1.466   1.413   2.043
 8806SOL    HW227318   1.593   1.402   1.941
 8807SOL     OW27319   6.116   2.080   2.032
 8807SOL    HW127320   6.016   2.089   2.027
 8807SOL    HW227321   6.141   1.984   2.033
 8808SOL     OW27322   1.516   1.744   0.820
 8808SOL    HW127323   1.463   1.660   0.812
 8808SOL    HW227324   1.561   1.747   0.909
 8809SOL     OW27325   0.924   3.357   3.113
 8809SOL    HW127326   0.947   3.259   3.110
 8809SOL    HW227327   1.000   3.410   3.078
 8810SOL     OW27328   6.199   2.324   4.268
 8810SOL    HW127329   6.103   2.327   4.296
 8810SOL    HW227330   6.207   2.277   4.180
 8811SOL     OW27331   3.905   5.531   2.420
 8811SOL    HW127332   3.896   5.574   2.330
 8811SOL    HW227333   3.849   5.448   2.423
 8812SOL     OW27334   5.686   0.740   0.570
 8812SOL    HW127335   5.668   0.727   0.668
 8812SOL    HW227336   5.616   0.799   0.531
 8813SOL     OW27337   1.642   2.859   1.761
 8813SOL    HW127338   1.610   2.949   1.790
 8813SOL    HW227339   1.609   2.790   1.826
 8814SOL     OW27340   5.639   6.801   5.044
 8814SOL    HW127341   5.592   6.864   4.982
 8814SOL    HW227342   5.634   6.708   5.007
 8815SOL     OW27343   5.148   0.741   1.086
 8815SOL    HW127344   5.238   0.779   1.109
 8815SOL    HW227345   5.159   0.673   1.013
 8816SOL     OW27346   6.942   0.922   3.109
 8816SOL    HW127347   7.012   0.865   3.067
 8816SOL    HW227348   6.874   0.864   3.153
 8817SOL     OW27349   0.879   2.369   4.090
 8817SOL    HW127350   0.975   2.348   4.111
 8817SOL    HW227351   0.842   2.427   4.162
 8818SOL     OW27352   1.354   5.841   6.441
 8818SOL    HW127353   1.332   5.873   6.349
 8818SOL    HW227354   1.284   5.873   6.505
 8819SOL     OW27355   5.224   5.957   6.147
 8819SOL    HW127356   5.313   5.998   6.130
 8819SOL    HW227357   5.194   5.979   6.240
 8820SOL     OW27358   3.803   6.530   5.732
 8820SOL    HW127359   3.873   6.498   5.669
 8820SOL    HW227360   3.719   6.551   5.681
 8821SOL     OW27361   1.169   5.741   5.618
 8821SOL    HW127362   1.100   5.705   5.555
 8821SOL    HW227363   1.239   5.791   5.566
 8822SOL     OW27364   6.666   0.443   4.902
 8822SOL    HW127365   6.662   0.477   4.996
 8822SOL    HW227366   6.673   0.521   4.840
 8823SOL     OW27367   4.417   2.033   3.384
 8823SOL    HW127368   4.390   1.995   3.296
 8823SOL    HW227369   4.355   2.000   3.455
 8824SOL     OW27370   1.643   0.352   4.235
 8824SOL    HW127371   1.566   0.394   4.188
 8824SOL    HW227372   1.657   0.260   4.200
 8825SOL     OW27373   1.621   6.831   0.287
 8825SOL    HW127374   1.620   6.842   0.387
 8825SOL    HW227375   1.602   6.735   0.265
 8826SOL     OW27376   0.489   3.836   0.446
 8826SOL    HW127377   0.402   3.878   0.470
 8826SOL    HW227378   0.553   3.845   0.522
 8827SOL     OW27379   5.101   5.871   3.762
 8827SOL    HW127380   5.125   5.842   3.669
 8827SOL    HW227381   5.002   5.864   3.775
 8828SOL     OW27382   5.404   2.527   5.585
 8828SOL    HW127383   5.405   2.432   5.614
 8828SOL    HW227384   5.374   2.533   5.490
 8829SOL     OW27385   6.391   1.174   2.839
 8829SOL    HW127386   6.416   1.082   2.808
 8829SOL    HW227387   6.300   1.172   2.881
 8830SOL     OW27388   3.120   0.849   2.643
 8830SOL    HW127389   3.189   0.914   2.674
 8830SOL    HW227390   3.107   0.858   2.544
 8831SOL     OW27391   0.666   2.756   2.990
 8831SOL    HW127392   0.747   2.702   2.970
 8831SOL    HW227393   0.584   2.702   2.969
 8832SOL     OW27394   6.027   0.039   4.473
 8832SOL    HW127395   6.124   0.052   4.496
 8832SOL    HW227396   5.983   7.015   4.545
 8833SOL     OW27397   4.527   2.971   1.100
 8833SOL    HW127398   4.515   2.875   1.125
 8833SOL    HW227399   4.607   2.979   1.039
 8834SOL     OW27400   6.025   4.291   5.920
 8834SOL    HW127401   5.981   4.212   5.878
 8834SOL    HW227402   6.119   4.269   5.944
 8835SOL     OW27403   6.441   1.357   5.458
 8835SOL    HW127404   6.413   1.377   5.364
 8835SOL    HW227405   6.537   1.383   5.470
 8836SOL     OW27406   4.407   1.637   1.069
 8836SOL    HW127407   4.404   1.635   0.969
 8836SOL    HW227408   4.340   1.573   1.106
 8837SOL     OW27409   5.658   5.026   7.008
 8837SOL    HW127410   5.662   5.090   6.931
 8837SOL    HW227411   5.602   5.064   0.052
 8838SOL     OW27412   1.962   3.752   2.618
 8838SOL    HW127413   1.894   3.789   2.555
 8838SOL    HW227414   1.931   3.766   2.712
 8839SOL     OW27415   4.574   4.391   1.409
 8839SOL    HW127416   4.525   4.410   1.494
 8839SOL    HW227417   4.663   4.436   1.411
 8840SOL     OW27418   0.041   0.496   1.709
 8840SOL    HW127419   0.018   0.592   1.696
 8840SOL    HW227420   0.087   0.461   1.627
 8841SOL     OW27421   4.494   1.943   0.492
 8841SOL    HW127422   4.434   1.930   0.571
 8841SOL    HW227423   4.580   1.894   0.506
 8842SOL     OW27424   3.253   3.009   3.632
 8842SOL    HW127425   3.240   2.980   3.727
 8842SOL    HW227426   3.324   2.953   3.589
 8843SOL     OW27427   2.577   6.172   5.293
 8843SOL    HW127428   2.589   6.151   5.390
 8843SOL    HW227429   2.569   6.087   5.241
 8844SOL     OW27430   4.018   2.791   5.320
 8844SOL    HW127431   4.079   2.712   5.309
 8844SOL    HW227432   4.067   2.874   5.294
 8845SOL     OW27433   0.402   3.558   2.517
 8845SOL    HW127434   0.442   3.570   2.608
 8845SOL    HW227435   0.352   3.471   2.514
 8846SOL     OW27436   5.735   5.442   4.585
 8846SOL    HW127437   5.645   5.462   4.625
 8846SOL    HW227438   5.734   5.465   4.488
 8847SOL     OW27439   0.939   2.567   3.805
 8847SOL    HW127440   1.009   2.610   3.748
 8847SOL    HW227441   0.969   2.568   3.901
 8848SOL     OW27442   5.747   2.039   0.768
 8848SOL    HW127443   5.718   2.110   0.832
 8848SOL    HW227444   5.840   2.057   0.737
 8849SOL     OW27445   3.449   5.145   4.309
 8849SOL    HW127446   3.471   5.240   4.287
 8849SOL    HW227447   3.400   5.142   4.396
 8850SOL     OW27448   3.946   2.231   0.958
 8850SOL    HW127449   3.956   2.226   1.058
 8850SOL    HW227450   3.928   2.325   0.931
 8851SOL     OW27451   0.113   5.522   3.034
 8851SOL    HW127452   0.183   5.450   3.040
 8851SOL    HW227453   0.104   5.551   2.939
 8852SOL     OW27454   5.207   3.612   4.729
 8852SOL    HW127455   5.297   3.613   4.773
 8852SOL    HW227456   5.217   3.580   4.635
 8853SOL     OW27457   4.742   1.796   4.396
 8853SOL    HW127458   4.794   1.861   4.451
 8853SOL    HW227459   4.721   1.715   4.451
 8854SOL     OW27460   3.179   0.361   5.994
 8854SOL    HW127461   3.257   0.358   5.931
 8854SOL    HW227462   3.173   0.274   6.043
 8855SOL     OW27463   6.306   4.618   6.307
 8855SOL    HW127464   6.229   4.649   6.363
 8855SOL    HW227465   6.280   4.534   6.258
 8856SOL     OW27466   5.303   1.614   5.382
 8856SOL    HW127467   5.398   1.624   5.355
 8856SOL    HW227468   5.292   1.528   5.433
 8857SOL     OW27469   2.119   3.622   4.701
 8857SOL    HW127470   2.128   3.706   4.755
 8857SOL    HW227471   2.036   3.574   4.728
 8858SOL     OW27472   0.567   3.607   5.531
 8858SOL    HW127473   0.527   3.536   5.590
 8858SOL    HW227474   0.665   3.614   5.548
 8859SOL     OW27475   2.354   6.770   5.467
 8859SOL    HW127476   2.428   6.745   5.529
 8859SOL    HW227477   2.273   6.715   5.488
 8860SOL     OW27478   2.070   1.440   1.626
 8860SOL    HW127479   2.152   1.448   1.571
 8860SOL    HW227480   2.088   1.473   1.719
 8861SOL     OW27481   1.975   1.851   0.335
 8861SOL    HW127482   1.984   1.753   0.353
 8861SOL    HW227483   1.978   1.867   0.237
 8862SOL     OW27484   0.092   2.680   4.297
 8862SOL    HW127485   0.122   2.672   4.202
 8862SOL    HW227486   0.172   2.694   4.356
 8863SOL     OW27487   2.106   5.753   5.341
 8863SOL    HW127488   2.052   5.672   5.362
 8863SOL    HW227489   2.203   5.734   5.359
 8864SOL     OW27490   1.872   4.533   5.839
 8864SOL    HW127491   1.831   4.446   5.867
 8864SOL    HW227492   1.971   4.521   5.830
 8865SOL     OW27493   2.799   1.909   5.745
 8865SOL    HW127494   2.716   1.963   5.747
 8865SOL    HW227495   2.846   1.916   5.833
 8866SOL     OW27496   4.967   0.306   5.496
 8866SOL    HW127497   4.896   0.268   5.556
 8866SOL    HW227498   4.969   0.406   5.506
 8867SOL     OW27499   6.161   0.650   3.575
 8867SOL    HW127500   6.105   0.629   3.655
 8867SOL    HW227501   6.126   0.598   3.496
 8868SOL     OW27502   5.780   3.283   0.544
 8868SOL    HW127503   5.811   3.376   0.563
 8868SOL    HW227504   5.807   3.257   0.451
 8869SOL     OW27505   3.012   1.856   3.124
 8869SOL    HW127506   3.040   1.776   3.177
 8869SOL    HW227507   3.079   1.929   3.138
 8870SOL     OW27508   4.918   0.260   1.789
 8870SOL    HW127509   4.932   0.208   1.873
 8870SOL    HW227510   4.981   0.227   1.718
 8871SOL     OW27511   1.104   2.328   4.242
 8871SOL    HW127512   1.142   2.418   4.223
 8871SOL    HW227513   1.130   2.299   4.334
 8872SOL     OW27514   1.061   1.696   2.483
 8872SOL    HW127515   1.108   1.728   2.565
 8872SOL    HW227516   1.048   1.597   2.489
 8873SOL     OW27517   6.934   5.682   5.127
 8873SOL    HW127518   6.970   5.590   5.133
 8873SOL    HW227519   6.939   5.714   5.032
 8874SOL     OW27520   1.261   1.441   6.349
 8874SOL    HW127521   1.260   1.390   6.263
 8874SOL    HW227522   1.205   1.393   6.417
 8875SOL     OW27523   1.234   1.063   3.971
 8875SOL    HW127524   1.319   1.055   3.921
 8875SOL    HW227525   1.251   1.107   4.059
 8876SOL     OW27526   2.286   1.251   4.869
 8876SOL    HW127527   2.246   1.319   4.929
 8876SOL    HW227528   2.385   1.264   4.864
 8877SOL     OW27529   3.325   6.832   4.464
 8877SOL    HW127530   3.247   6.786   4.507
 8877SOL    HW227531   3.293   6.890   4.390
 8878SOL     OW27532   6.152   4.624   5.044
 8878SOL    HW127533   6.156   4.695   4.973
 8878SOL    HW227534   6.117   4.539   5.004
 8879SOL     OW27535   5.105   5.320   4.592
 8879SOL    HW127536   5.187   5.282   4.635
 8879SOL    HW227537   5.097   5.417   4.614
 8880SOL     OW27538   1.158   6.872   5.241
 8880SOL    HW127539   1.256   6.886   5.250
 8880SOL    HW227540   1.131   6.883   5.145
 8881SOL     OW27541   0.141   2.165   2.732
 8881SOL    HW127542   0.228   2.119   2.753
 8881SOL    HW227543   0.147   2.208   2.642
 8882SOL     OW27544   5.529   2.739   0.481
 8882SOL    HW127545   5.591   2.699   0.414
 8882SOL    HW227546   5.581   2.765   0.563
 8883SOL     OW27547   5.538   1.591   5.718
 8883SOL    HW127548   5.596   1.664   5.755
 8883SOL    HW227549   5.589   1.541   5.647
 8884SOL     OW27550   0.112   1.225   6.516
 8884SOL    HW127551   0.090   1.274   6.601
 8884SOL    HW227552   0.208   1.240   6.493
 8885SOL     OW27553   5.730   3.808   1.069
 8885SOL    HW127554   5.807   3.846   1.119
 8885SOL    HW227555   5.673   3.755   1.132
 8886SOL     OW27556   2.967   5.501   5.903
 8886SOL    HW127557   3.014   5.567   5.845
 8886SOL    HW227558   3.028   5.424   5.923
 8887SOL     OW27559   1.614   1.366   0.876
 8887SOL    HW127560   1.589   1.298   0.944
 8887SOL    HW227561   1.534   1.420   0.850
 8888SOL     OW27562   2.628   2.414   3.052
 8888SOL    HW127563   2.611   2.317   3.067
 8888SOL    HW227564   2.719   2.426   3.012
 8889SOL     OW27565   3.320   1.187   4.713
 8889SOL    HW127566   3.297   1.272   4.762
 8889SOL    HW227567   3.284   1.192   4.620
 8890SOL     OW27568   6.452   4.718   3.381
 8890SOL    HW127569   6.408   4.654   3.318
 8890SOL    HW227570   6.406   4.713   3.470
 8891SOL     OW27571   3.541   1.336   6.386
 8891SOL    HW127572   3.629   1.318   6.342
 8891SOL    HW227573   3.477   1.262   6.366
 8892SOL     OW27574   0.979   0.169   3.009
 8892SOL    HW127575   0.986   0.267   3.024
 8892SOL    HW227576   1.053   0.138   2.949
 8893SOL     OW27577   0.377   1.373   0.526
 8893SOL    HW127578   0.296   1.355   0.470
 8893SOL    HW227579   0.389   1.298   0.592
 8894SOL     OW27580   4.674   2.078   5.942
 8894SOL    HW127581   4.632   2.108   6.027
 8894SOL    HW227582   4.766   2.116   5.935
 8895SOL     OW27583   1.511   1.293   3.014
 8895SOL    HW127584   1.419   1.271   3.048
 8895SOL    HW227585   1.523   1.392   3.013
 8896SOL     OW27586   1.509   4.291   5.231
 8896SOL    HW127587   1.479   4.306   5.325
 8896SOL    HW227588   1.576   4.217   5.228
 8897SOL     OW27589   1.105   2.381   2.322
 8897SOL    HW127590   1.029   2.446   2.326
 8897SOL    HW227591   1.098   2.317   2.399
 8898SOL     OW27592   0.138   2.724   5.251
 8898SOL    HW127593   0.101   2.631   5.262
 8898SOL    HW227594   0.063   2.790   5.256
 8899SOL     OW27595   3.579   5.582   1.752
 8899SOL    HW127596   3.661   5.536   1.718
 8899SOL    HW227597   3.501   5.520   1.746
 8900SOL     OW27598   6.612   1.971   3.654
 8900SOL    HW127599   6.649   1.894   3.706
 8900SOL    HW227600   6.601   2.050   3.715
 8901SOL     OW27601   1.892   0.080   1.896
 8901SOL    HW127602   1.801   0.099   1.857
 8901SOL    HW227603   1.946   0.027   1.831
 8902SOL     OW27604   3.973   6.440   5.525
 8902SOL    HW127605   3.932   6.349   5.534
 8902SOL    HW227606   3.945   6.480   5.438
 8903SOL     OW27607   6.590   1.098   3.134
 8903SOL    HW127608   6.513   1.151   3.170
 8903SOL    HW227609   6.665   1.160   3.110
 8904SOL     OW27610   1.283   4.030   3.660
 8904SOL    HW127611   1.303   3.946   3.711
 8904SOL    HW227612   1.185   4.039   3.646
 8905SOL     OW27613   2.000   4.223   4.913
 8905SOL    HW127614   2.050   4.169   4.846
 8905SOL    HW227615   2.004   4.177   5.002
 8906SOL     OW27616   2.743   5.427   4.841
 8906SOL    HW127617   2.826   5.428   4.897
 8906SOL    HW227618   2.675   5.489   4.881
 8907SOL     OW27619   3.568   2.378   6.675
 8907SOL    HW127620   3.654   2.405   6.632
 8907SOL    HW227621   3.491   2.418   6.624
 8908SOL     OW27622   0.642   3.353   3.027
 8908SOL    HW127623   0.636   3.269   3.080
 8908SOL    HW227624   0.727   3.400   3.050
 8909SOL     OW27625   3.452   6.955   5.575
 8909SOL    HW127626   3.498   6.939   5.488
 8909SOL    HW227627   3.356   6.974   5.559
 8910SOL     OW27628   4.319   2.897   0.116
 8910SOL    HW127629   4.348   2.993   0.119
 8910SOL    HW227630   4.283   2.877   0.025
 8911SOL     OW27631   5.274   2.558   3.993
 8911SOL    HW127632   5.268   2.608   3.907
 8911SOL    HW227633   5.199   2.587   4.054
 8912SOL     OW27634   4.484   1.141   6.888
 8912SOL    HW127635   4.491   1.046   6.858
 8912SOL    HW227636   4.392   1.175   6.870
 8913SOL     OW27637   4.322   4.218   0.636
 8913SOL    HW127638   4.340   4.132   0.587
 8913SOL    HW227639   4.318   4.200   0.734
 8914SOL     OW27640   4.999   2.330   3.610
 8914SOL    HW127641   5.009   2.283   3.697
 8914SOL    HW227642   5.053   2.414   3.611
 8915SOL     OW27643   0.645   5.257   2.366
 8915SOL    HW127644   0.597   5.311   2.435
 8915SOL    HW227645   0.706   5.317   2.314
 8916SOL     OW27646   6.142   3.125   1.871
 8916SOL    HW127647   6.201   3.155   1.946
 8916SOL    HW227648   6.066   3.189   1.862
 8917SOL     OW27649   5.186   4.408   5.515
 8917SOL    HW127650   5.199   4.315   5.549
 8917SOL    HW227651   5.266   4.435   5.461
 8918SOL     OW27652   4.963   3.810   6.063
 8918SOL    HW127653   4.949   3.887   6.001
 8918SOL    HW227654   4.941   3.725   6.017
 8919SOL     OW27655   2.062   3.417   1.720
 8919SOL    HW127656   2.033   3.380   1.632
 8919SOL    HW227657   1.985   3.419   1.783
 8920SOL     OW27658   6.282   5.487   6.033
 8920SOL    HW127659   6.241   5.436   5.958
 8920SOL    HW227660   6.336   5.563   5.996
 8921SOL     OW27661   1.190   5.752   3.706
 8921SOL    HW127662   1.232   5.681   3.649
 8921SOL    HW227663   1.201   5.729   3.802
 8922SOL     OW27664   0.505   3.162   6.838
 8922SOL    HW127665   0.506   3.256   6.874
 8922SOL    HW227666   0.521   3.098   6.913
 8923SOL     OW27667   2.503   5.183   4.212
 8923SOL    HW127668   2.547   5.148   4.130
 8923SOL    HW227669   2.473   5.106   4.269
 8924SOL     OW27670   2.276   6.656   4.461
 8924SOL    HW127671   2.258   6.609   4.548
 8924SOL    HW227672   2.220   6.614   4.389
 8925SOL     OW27673   4.307   5.453   0.976
 8925SOL    HW127674   4.314   5.545   0.938
 8925SOL    HW227675   4.212   5.431   0.995
 8926SOL     OW27676   5.762   6.991   6.788
 8926SOL    HW127677   5.804   6.996   6.878
 8926SOL    HW227678   5.755   6.895   6.760
 8927SOL     OW27679   2.894   1.913   4.837
 8927SOL    HW127680   2.945   1.842   4.788
 8927SOL    HW227681   2.941   2.001   4.825
 8928SOL     OW27682   0.849   0.577   5.577
 8928SOL    HW127683   0.936   0.606   5.616
 8928SOL    HW227684   0.864   0.507   5.508
 8929SOL     OW27685   5.056   4.594   2.839
 8929SOL    HW127686   5.152   4.583   2.864
 8929SOL    HW227687   5.017   4.505   2.815
 8930SOL     OW27688   0.291   5.576   5.309
 8930SOL    HW127689   0.266   5.660   5.356
 8930SOL    HW227690   0.385   5.551   5.333
 8931SOL     OW27691   4.471   1.010   1.628
 8931SOL    HW127692   4.411   1.038   1.553
 8931SOL    HW227693   4.541   1.081   1.642
 8932SOL     OW27694   4.795   0.778   0.382
 8932SOL    HW127695   4.864   0.817   0.321
 8932SOL    HW227696   4.815   0.807   0.476
 8933SOL     OW27697   1.527   6.592   5.181
 8933SOL    HW127698   1.564   6.508   5.141
 8933SOL    HW227699   1.427   6.592   5.173
 8934SOL     OW27700   3.580   6.657   4.087
 8934SOL    HW127701   3.609   6.746   4.122
 8934SOL    HW227702   3.661   6.605   4.059
 8935SOL     OW27703   5.949   1.756   2.645
 8935SOL    HW127704   6.000   1.686   2.595
 8935SOL    HW227705   6.013   1.822   2.684
 8936SOL     OW27706   1.393   4.052   2.263
 8936SOL    HW127707   1.485   4.068   2.226
 8936SOL    HW227708   1.378   3.953   2.271
 8937SOL     OW27709   3.232   6.622   4.958
 8937SOL    HW127710   3.173   6.702   4.975
 8937SOL    HW227711   3.272   6.591   5.044
 8938SOL     OW27712   5.073   6.585   1.899
 8938SOL    HW127713   5.164   6.552   1.923
 8938SOL    HW227714   5.072   6.685   1.900
 8939SOL     OW27715   6.676   2.774   4.206
 8939SOL    HW127716   6.748   2.764   4.138
 8939SOL    HW227717   6.592   2.733   4.172
 8940SOL     OW27718   6.138   3.224   2.409
 8940SOL    HW127719   6.072   3.178   2.468
 8940SOL    HW227720   6.168   3.309   2.452
 8941SOL     OW27721   5.683   2.214   3.448
 8941SOL    HW127722   5.603   2.175   3.495
 8941SOL    HW227723   5.656   2.298   3.401
 8942SOL     OW27724   4.863   5.445   3.916
 8942SOL    HW127725   4.865   5.507   3.837
 8942SOL    HW227726   4.768   5.420   3.936
 8943SOL     OW27727   4.033   3.598   0.415
 8943SOL    HW127728   3.949   3.641   0.448
 8943SOL    HW227729   4.111   3.657   0.437
 8944SOL     OW27730   4.667   6.006   4.968
 8944SOL    HW127731   4.663   6.063   4.886
 8944SOL    HW227732   4.637   6.059   5.047
 8945SOL     OW27733   6.414   4.929   1.800
 8945SOL    HW127734   6.315   4.919   1.795
 8945SOL    HW227735   6.457   4.867   1.735
 8946SOL     OW27736   3.056   2.005   4.456
 8946SOL    HW127737   3.006   2.091   4.467
 8946SOL    HW227738   3.153   2.021   4.471
 8947SOL     OW27739   2.636   5.128   0.482
 8947SOL    HW127740   2.564   5.153   0.547
 8947SOL    HW227741   2.595   5.091   0.399
 8948SOL     OW27742   5.434   0.620   2.521
 8948SOL    HW127743   5.341   0.582   2.516
 8948SOL    HW227744   5.442   0.694   2.455
 8949SOL     OW27745   4.165   6.547   0.589
 8949SOL    HW127746   4.231   6.600   0.536
 8949SOL    HW227747   4.078   6.596   0.592
 8950SOL     OW27748   3.337   4.136   3.744
 8950SOL    HW127749   3.434   4.155   3.729
 8950SOL    HW227750   3.308   4.177   3.831
 8951SOL     OW27751   0.546   0.619   3.830
 8951SOL    HW127752   0.523   0.664   3.744
 8951SOL    HW227753   0.478   0.643   3.899
 8952SOL     OW27754   1.416   3.866   4.628
 8952SOL    HW127755   1.372   3.909   4.550
 8952SOL    HW227756   1.462   3.937   4.683
 8953SOL     OW27757   0.636   5.507   0.541
 8953SOL    HW127758   0.703   5.530   0.612
 8953SOL    HW227759   0.544   5.518   0.577
 8954SOL     OW27760   2.403   4.333   5.568
 8954SOL    HW127761   2.424   4.429   5.552
 8954SOL    HW227762   2.474   4.276   5.525
 8955SOL     OW27763   5.970   3.278   5.734
 8955SOL    HW127764   5.964   3.191   5.783
 8955SOL    HW227765   6.050   3.278   5.674
 8956SOL     OW27766   0.990   6.313   1.083
 8956SOL    HW127767   0.969   6.375   1.159
 8956SOL    HW227768   1.003   6.366   0.999
 8957SOL     OW27769   0.655   0.002   3.831
 8957SOL    HW127770   0.720   6.955   3.828
 8957SOL    HW227771   0.639   0.036   3.739
 8958SOL     OW27772   0.027   3.347   4.950
 8958SOL    HW127773   0.107   3.318   5.001
 8958SOL    HW227774   0.001   3.439   4.978
 8959SOL     OW27775   4.832   1.372   3.910
 8959SOL    HW127776   4.743   1.346   3.947
 8959SOL    HW227777   4.890   1.290   3.903
 8960SOL     OW27778   4.577   5.731   2.219
 8960SOL    HW127779   4.659   5.724   2.161
 8960SOL    HW227780   4.498   5.754   2.163
 8961SOL     OW27781   2.436   1.833   5.691
 8961SOL    HW127782   2.409   1.928   5.675
 8961SOL    HW227783   2.471   1.823   5.784
 8962SOL     OW27784   0.006   6.258   1.482
 8962SOL    HW127785   6.959   6.311   1.521
 8962SOL    HW227786   0.080   6.320   1.457
 8963SOL     OW27787   2.289   5.353   5.725
 8963SOL    HW127788   2.207   5.322   5.678
 8963SOL    HW227789   2.357   5.279   5.725
 8964SOL     OW27790   1.230   2.669   4.248
 8964SOL    HW127791   1.311   2.613   4.268
 8964SOL    HW227792   1.249   2.726   4.168
 8965SOL     OW27793   3.204   5.701   0.030
 8965SOL    HW127794   3.122   5.752   0.055
 8965SOL    HW227795   3.209   5.616   0.081
 8966SOL     OW27796   4.888   0.062   5.739
 8966SOL    HW127797   4.878   6.997   5.771
 8966SOL    HW227798   4.803   0.092   5.695
 8967SOL     OW27799   2.560   0.614   3.280
 8967SOL    HW127800   2.568   0.661   3.192
 8967SOL    HW227801   2.640   0.635   3.337
 8968SOL     OW27802   2.979   5.260   2.233
 8968SOL    HW127803   2.929   5.212   2.161
 8968SOL    HW227804   3.075   5.269   2.206
 8969SOL     OW27805   6.924   1.165   2.722
 8969SOL    HW127806   7.021   1.143   2.733
 8969SOL    HW227807   6.911   1.263   2.734
 8970SOL     OW27808   2.141   1.752   4.593
 8970SOL    HW127809   2.113   1.848   4.603
 8970SOL    HW227810   2.225   1.747   4.540
 8971SOL     OW27811   3.377   4.871   1.333
 8971SOL    HW127812   3.426   4.819   1.402
 8971SOL    HW227813   3.325   4.809   1.274
 8972SOL     OW27814   6.191   3.856   6.048
 8972SOL    HW127815   6.200   3.891   6.141
 8972SOL    HW227816   6.162   3.761   6.050
 8973SOL     OW27817   2.570   1.749   3.547
 8973SOL    HW127818   2.626   1.666   3.546
 8973SOL    HW227819   2.584   1.797   3.634
 8974SOL     OW27820   1.854   4.609   5.233
 8974SOL    HW127821   1.892   4.563   5.313
 8974SOL    HW227822   1.764   4.572   5.212
 8975SOL     OW27823   0.728   3.657   6.189
 8975SOL    HW127824   0.704   3.576   6.135
 8975SOL    HW227825   0.663   3.666   6.264
 8976SOL     OW27826   6.164   0.463   1.566
 8976SOL    HW127827   6.171   0.364   1.561
 8976SOL    HW227828   6.076   0.492   1.529
 8977SOL     OW27829   0.210   5.041   5.876
 8977SOL    HW127830   0.208   5.127   5.824
 8977SOL    HW227831   0.160   4.971   5.826
 8978SOL     OW27832   6.540   5.302   5.364
 8978SOL    HW127833   6.555   5.221   5.420
 8978SOL    HW227834   6.481   5.278   5.286
 8979SOL     OW27835   1.522   4.421   3.720
 8979SOL    HW127836   1.483   4.341   3.765
 8979SOL    HW227837   1.532   4.403   3.622
 8980SOL     OW27838   4.895   0.680   0.861
 8980SOL    HW127839   4.877   0.583   0.880
 8980SOL    HW227840   4.892   0.731   0.947
 8981SOL     OW27841   3.911   2.368   6.972
 8981SOL    HW127842   3.845   2.293   6.980
 8981SOL    HW227843   4.004   2.330   6.965
 8982SOL     OW27844   0.514   0.758   2.490
 8982SOL    HW127845   0.523   0.814   2.408
 8982SOL    HW227846   0.581   0.787   2.558
 8983SOL     OW27847   1.354   6.530   2.677
 8983SOL    HW127848   1.407   6.603   2.720
 8983SOL    HW227849   1.257   6.553   2.680
 8984SOL     OW27850   5.978   1.248   3.856
 8984SOL    HW127851   5.917   1.289   3.788
 8984SOL    HW227852   5.941   1.262   3.948
 8985SOL     OW27853   5.327   0.043   1.826
 8985SOL    HW127854   5.388   0.013   1.753
 8985SOL    HW227855   5.312   0.142   1.818
 8986SOL     OW27856   0.659   6.598   6.723
 8986SOL    HW127857   0.639   6.505   6.691
 8986SOL    HW227858   0.717   6.593   6.805
 8987SOL     OW27859   3.272   6.335   2.199
 8987SOL    HW127860   3.319   6.247   2.208
 8987SOL    HW227861   3.238   6.344   2.105
 8988SOL     OW27862   2.392   6.997   0.730
 8988SOL    HW127863   2.367   0.062   0.709
 8988SOL    HW227864   2.485   6.994   0.768
 8989SOL     OW27865   6.264   0.848   2.056
 8989SOL    HW127866   6.263   0.939   2.097
 8989SOL    HW227867   6.320   0.849   1.973
 8990SOL     OW27868   3.862   1.245   2.841
 8990SOL    HW127869   3.823   1.312   2.778
 8990SOL    HW227870   3.908   1.292   2.916
 8991SOL     OW27871   1.177   2.099   0.851
 8991SOL    HW127872   1.213   2.149   0.773
 8991SOL    HW227873   1.122   2.159   0.909
 8992SOL     OW27874   1.054   5.253   5.444
 8992SOL    HW127875   1.056   5.160   5.408
 8992SOL    HW227876   1.080   5.251   5.541
 8993SOL     OW27877   5.454   4.149   3.938
 8993SOL    HW127878   5.502   4.061   3.944
 8993SOL    HW227879   5.446   4.189   4.030
 8994SOL     OW27880   1.719   5.989   1.714
 8994SOL    HW127881   1.649   6.034   1.770
 8994SOL    HW227882   1.803   5.979   1.768
 8995SOL     OW27883   2.172   4.112   3.605
 8995SOL    HW127884   2.171   4.131   3.703
 8995SOL    HW227885   2.262   4.134   3.568
 8996SOL     OW27886   2.817   3.679   1.080
 8996SOL    HW127887   2.867   3.738   1.016
 8996SOL    HW227888   2.740   3.730   1.118
 8997SOL     OW27889   4.632   1.788   4.792
 8997SOL    HW127890   4.664   1.881   4.777
 8997SOL    HW227891   4.704   1.735   4.836
 8998SOL     OW27892   1.004   1.582   0.074
 8998SOL    HW127893   1.070   1.596   0.148
 8998SOL    HW227894   0.934   1.517   0.103
 8999SOL     OW27895   5.691   2.869   5.478
 8999SOL    HW127896   5.608   2.916   5.508
 8999SOL    HW227897   5.686   2.853   5.379
 9000SOL     OW27898   4.740   4.783   1.291
 9000SOL    HW127899   4.678   4.731   1.231
 9000SOL    HW227900   4.692   4.807   1.375
 9001SOL     OW27901   0.969   3.270   4.053
 9001SOL    HW127902   1.039   3.246   4.119
 9001SOL    HW227903   1.011   3.295   3.966
 9002SOL     OW27904   5.065   2.433   5.346
 9002SOL    HW127905   5.099   2.461   5.436
 9002SOL    HW227906   4.967   2.453   5.340
 9003SOL     OW27907   6.908   3.112   6.664
 9003SOL    HW127908   6.907   3.017   6.634
 9003SOL    HW227909   6.831   3.161   6.623
 9004SOL     OW27910   4.722   5.646   0.235
 9004SOL    HW127911   4.663   5.592   0.175
 9004SOL    HW227912   4.725   5.603   0.326
 9005SOL     OW27913   4.880   3.513   4.009
 9005SOL    HW127914   4.975   3.496   3.985
 9005SOL    HW227915   4.826   3.521   3.925
 9006SOL     OW27916   3.077   6.403   1.724
 9006SOL    HW127917   3.146   6.440   1.787
 9006SOL    HW227918   3.114   6.406   1.631
 9007SOL     OW27919   1.701   6.204   5.604
 9007SOL    HW127920   1.632   6.182   5.673
 9007SOL    HW227921   1.658   6.212   5.514
 9008SOL     OW27922   0.093   4.423   2.268
 9008SOL    HW127923   0.174   4.412   2.325
 9008SOL    HW227924   0.107   4.376   2.180
 9009SOL     OW27925   4.171   6.392   0.026
 9009SOL    HW127926   4.130   6.447   0.098
 9009SOL    HW227927   4.105   6.324   7.023
 9010SOL     OW27928   6.886   5.847   4.585
 9010SOL    HW127929   6.944   5.922   4.554
 9010SOL    HW227930   6.942   5.767   4.606
 9011SOL     OW27931   4.357   2.503   1.799
 9011SOL    HW127932   4.383   2.436   1.870
 9011SOL    HW227933   4.394   2.592   1.823
 9012SOL     OW27934   4.453   4.858   2.636
 9012SOL    HW127935   4.434   4.896   2.546
 9012SOL    HW227936   4.461   4.932   2.703
 9013SOL     OW27937   4.007   5.727   1.780
 9013SOL    HW127938   4.067   5.686   1.711
 9013SOL    HW227939   3.938   5.661   1.808
 9014SOL     OW27940   2.368   0.986   1.901
 9014SOL    HW127941   2.324   1.021   1.818
 9014SOL    HW227942   2.341   0.891   1.915
 9015SOL     OW27943   6.444   2.229   4.724
 9015SOL    HW127944   6.402   2.237   4.634
 9015SOL    HW227945   6.376   2.198   4.790
 9016SOL     OW27946   0.097   5.937   6.969
 9016SOL    HW127947   0.143   5.885   0.012
 9016SOL    HW227948   0.006   5.965   7.001
 9017SOL     OW27949   6.308   2.989   2.624
 9017SOL    HW127950   6.210   2.973   2.609
 9017SOL    HW227951   6.339   3.062   2.562
 9018SOL     OW27952   4.610   1.661   6.830
 9018SOL    HW127953   4.635   1.637   6.923
 9018SOL    HW227954   4.580   1.579   6.781
 9019SOL     OW27955   1.918   5.163   0.123
 9019SOL    HW127956   1.838   5.117   0.084
 9019SOL    HW227957   1.930   5.252   0.079
 9020SOL     OW27958   1.040   5.024   4.561
 9020SOL    HW127959   1.082   4.936   4.541
 9020SOL    HW227960   1.106   5.097   4.547
 9021SOL     OW27961   6.146   5.267   5.670
 9021SOL    HW127962   6.191   5.353   5.694
 9021SOL    HW227963   6.185   5.231   5.585
 9022SOL     OW27964   1.928   6.897   6.194
 9022SOL    HW127965   1.897   6.992   6.182
 9022SOL    HW227966   2.024   6.897   6.221
 9023SOL     OW27967   3.498   4.149   4.226
 9023SOL    HW127968   3.496   4.249   4.233
 9023SOL    HW227969   3.404   4.115   4.216
 9024SOL     OW27970   1.188   0.159   6.895
 9024SOL    HW127971   1.283   0.162   6.864
 9024SOL    HW227972   1.172   0.233   6.961
 9025SOL     OW27973   0.497   3.180   0.399
 9025SOL    HW127974   0.544   3.199   0.485
 9025SOL    HW227975   0.561   3.136   0.336
 9026SOL     OW27976   3.083   3.384   5.420
 9026SOL    HW127977   3.150   3.349   5.354
 9026SOL    HW227978   3.045   3.309   5.473
 9027SOL     OW27979   1.577   3.296   2.453
 9027SOL    HW127980   1.676   3.311   2.447
 9027SOL    HW227981   1.559   3.197   2.450
 9028SOL     OW27982   2.253   4.590   4.857
 9028SOL    HW127983   2.289   4.632   4.939
 9028SOL    HW227984   2.164   4.549   4.877
 9029SOL     OW27985   5.333   5.196   2.963
 9029SOL    HW127986   5.308   5.103   2.936
 9029SOL    HW227987   5.368   5.195   3.057
 9030SOL     OW27988   4.637   2.642   3.068
 9030SOL    HW127989   4.700   2.718   3.079
 9030SOL    HW227990   4.656   2.572   3.137
 9031SOL     OW27991   2.316   1.241   2.010
 9031SOL    HW127992   2.281   1.156   1.971
 9031SOL    HW227993   2.391   1.221   2.072
 9032SOL     OW27994   0.249   3.322   2.502
 9032SOL    HW127995   0.211   3.293   2.414
 9032SOL    HW227996   0.176   3.358   2.560
 9033SOL     OW27997   1.199   3.666   2.816
 9033SOL    HW127998   1.162   3.637   2.727
 9033SOL    HW227999   1.212   3.765   2.816
 9034SOL     OW28000   1.815   6.756   6.698
 9034SOL    HW128001   1.780   6.811   6.773
 9034SOL    HW228002   1.858   6.816   6.630
 9035SOL     OW28003   6.350   0.988   4.287
 9035SOL    HW128004   6.427   1.037   4.326
 9035SOL    HW228005   6.273   1.051   4.276
 9036SOL     OW28006   0.525   1.685   4.938
 9036SOL    HW128007   0.549   1.588   4.935
 9036SOL    HW228008   0.426   1.695   4.937
 9037SOL     OW28009   2.441   4.191   5.818
 9037SOL    HW128010   2.383   4.124   5.773
 9037SOL    HW228011   2.451   4.271   5.760
 9038SOL     OW28012   4.262   5.432   5.528
 9038SOL    HW128013   4.279   5.349   5.476
 9038SOL    HW228014   4.338   5.496   5.517
 9039SOL     OW28015   2.825   4.708   0.123
 9039SOL    HW128016   2.847   4.746   0.213
 9039SOL    HW228017   2.762   4.769   0.075
 9040SOL     OW28018   3.320   1.131   2.396
 9040SOL    HW128019   3.311   1.161   2.491
 9040SOL    HW228020   3.254   1.057   2.379
 9041SOL     OW28021   2.459   2.378   5.883
 9041SOL    HW128022   2.435   2.456   5.825
 9041SOL    HW228023   2.431   2.396   5.977
 9042SOL     OW28024   1.778   5.583   2.433
 9042SOL    HW128025   1.779   5.683   2.445
 9042SOL    HW228026   1.871   5.552   2.413
 9043SOL     OW28027   0.367   1.734   6.870
 9043SOL    HW128028   0.402   1.796   6.940
 9043SOL    HW228029   0.293   1.678   6.909
 9044SOL     OW28030   0.891   4.325   0.528
 9044SOL    HW128031   0.943   4.400   0.570
 9044SOL    HW228032   0.929   4.305   0.438
 9045SOL     OW28033   2.446   5.074   4.845
 9045SOL    HW128034   2.485   5.155   4.801
 9045SOL    HW228035   2.447   5.087   4.944
 9046SOL     OW28036   3.466   4.240   6.154
 9046SOL    HW128037   3.496   4.232   6.059
 9046SOL    HW228038   3.416   4.158   6.180
 9047SOL     OW28039   0.916   4.122   4.582
 9047SOL    HW128040   0.820   4.111   4.555
 9047SOL    HW228041   0.945   4.216   4.564
 9048SOL     OW28042   1.651   2.689   5.038
 9048SOL    HW128043   1.603   2.772   5.067
 9048SOL    HW228044   1.648   2.622   5.112
 9049SOL     OW28045   4.740   6.406   5.875
 9049SOL    HW128046   4.830   6.369   5.855
 9049SOL    HW228047   4.677   6.386   5.799
 9050SOL     OW28048   6.801   4.311   5.901
 9050SOL    HW128049   6.886   4.313   5.955
 9050SOL    HW228050   6.755   4.399   5.909
 9051SOL     OW28051   6.492   6.450   6.398
 9051SOL    HW128052   6.546   6.396   6.333
 9051SOL    HW228053   6.400   6.413   6.404
 9052SOL     OW28054   3.036   5.210   4.610
 9052SOL    HW128055   3.117   5.217   4.668
 9052SOL    HW228056   3.037   5.123   4.561
 9053SOL     OW28057   2.145   1.093   2.614
 9053SOL    HW128058   2.230   1.144   2.601
 9053SOL    HW228059   2.081   1.114   2.541
 9054SOL     OW28060   1.457   0.097   1.514
 9054SOL    HW128061   1.360   0.116   1.529
 9054SOL    HW228062   1.493   0.042   1.589
 9055SOL     OW28063   1.345   2.329   5.126
 9055SOL    HW128064   1.376   2.424   5.118
 9055SOL    HW228065   1.421   2.272   5.158
 9056SOL     OW28066   5.447   2.305   1.581
 9056SOL    HW128067   5.507   2.314   1.661
 9056SOL    HW228068   5.489   2.353   1.503
 9057SOL     OW28069   3.711   6.741   6.983
 9057SOL    HW128070   3.673   6.815   6.929
 9057SOL    HW228071   3.658   6.657   6.968
 9058SOL     OW28072   2.201   2.190   4.137
 9058SOL    HW128073   2.164   2.163   4.226
 9058SOL    HW228074   2.238   2.282   4.144
 9059SOL     OW28075   6.975   0.758   2.470
 9059SOL    HW128076   0.039   0.721   2.471
 9059SOL    HW228077   6.909   0.685   2.485
 9060SOL     OW28078   6.630   5.035   7.021
 9060SOL    HW128079   6.682   5.070   6.943
 9060SOL    HW228080   6.547   4.991   6.988
 9061SOL     OW28081   4.604   4.357   2.451
 9061SOL    HW128082   4.588   4.397   2.361
 9061SOL    HW228083   4.634   4.262   2.441
 9062SOL     OW28084   0.299   5.690   3.158
 9062SOL    HW128085   0.225   5.628   3.133
 9062SOL    HW228086   0.310   5.759   3.086
 9063SOL     OW28087   5.439   6.811   1.024
 9063SOL    HW128088   5.516   6.789   0.964
 9063SOL    HW228089   5.392   6.893   0.991
 9064SOL     OW28090   1.308   5.664   2.996
 9064SOL    HW128091   1.242   5.705   3.058
 9064SOL    HW228092   1.401   5.687   3.025
 9065SOL     OW28093   3.235   4.273   6.701
 9065SOL    HW128094   3.291   4.247   6.622
 9065SOL    HW228095   3.279   4.241   6.785
 9066SOL     OW28096   5.138   4.846   3.684
 9066SOL    HW128097   5.063   4.858   3.619
 9066SOL    HW228098   5.186   4.761   3.663
 9067SOL     OW28099   2.192   6.620   3.989
 9067SOL    HW128100   2.238   6.707   3.976
 9067SOL    HW228101   2.163   6.610   4.084
 9068SOL     OW28102   5.138   0.356   5.789
 9068SOL    HW128103   5.048   0.355   5.833
 9068SOL    HW228104   5.131   0.310   5.700
 9069SOL     OW28105   4.738   2.488   2.064
 9069SOL    HW128106   4.702   2.419   2.127
 9069SOL    HW228107   4.666   2.516   2.001
 9070SOL     OW28108   1.316   0.738   6.424
 9070SOL    HW128109   1.250   0.808   6.397
 9070SOL    HW228110   1.364   0.704   6.344
 9071SOL     OW28111   5.053   2.702   7.014
 9071SOL    HW128112   5.136   2.647   7.023
 9071SOL    HW228113   5.055   2.749   6.926
 9072SOL     OW28114   6.574   0.963   2.120
 9072SOL    HW128115   6.571   0.865   2.141
 9072SOL    HW228116   6.668   0.990   2.101
 9073SOL     OW28117   4.705   2.375   6.165
 9073SOL    HW128118   4.787   2.336   6.124
 9073SOL    HW228119   4.638   2.302   6.180
 9074SOL     OW28120   2.053   1.265   3.509
 9074SOL    HW128121   2.141   1.217   3.519
 9074SOL    HW228122   2.005   1.264   3.597
 9075SOL     OW28123   4.987   5.464   0.557
 9075SOL    HW128124   5.068   5.497   0.606
 9075SOL    HW228125   4.986   5.364   0.558
 9076SOL     OW28126   1.574   5.933   2.305
 9076SOL    HW128127   1.663   5.912   2.345
 9076SOL    HW228128   1.559   6.032   2.304
 9077SOL     OW28129   6.269   1.380   5.939
 9077SOL    HW128130   6.203   1.446   5.904
 9077SOL    HW228131   6.343   1.428   5.986
 9078SOL     OW28132   5.203   6.861   6.704
 9078SOL    HW128133   5.173   6.826   6.793
 9078SOL    HW228134   5.176   6.957   6.696
 9079SOL     OW28135   1.422   1.374   6.625
 9079SOL    HW128136   1.425   1.383   6.724
 9079SOL    HW228137   1.333   1.335   6.598
 9080SOL     OW28138   6.351   4.322   1.232
 9080SOL    HW128139   6.284   4.248   1.240
 9080SOL    HW228140   6.340   4.368   1.144
 9081SOL     OW28141   5.286   1.556   0.204
 9081SOL    HW128142   5.332   1.560   0.115
 9081SOL    HW228143   5.279   1.649   0.241
 9082SOL     OW28144   3.329   4.847   6.685
 9082SOL    HW128145   3.231   4.832   6.671
 9082SOL    HW228146   3.379   4.762   6.670
 9083SOL     OW28147   4.131   0.795   1.022
 9083SOL    HW128148   4.222   0.759   1.043
 9083SOL    HW228149   4.120   0.885   1.065
 9084SOL     OW28150   6.908   4.591   4.371
 9084SOL    HW128151   6.968   4.520   4.409
 9084SOL    HW228152   6.907   4.582   4.271
 9085SOL     OW28153   2.996   4.741   1.249
 9085SOL    HW128154   2.978   4.743   1.347
 9085SOL    HW228155   2.945   4.667   1.207
 9086SOL     OW28156   6.593   2.476   0.777
 9086SOL    HW128157   6.532   2.419   0.722
 9086SOL    HW228158   6.656   2.524   0.717
 9087SOL     OW28159   4.839   1.052   1.493
 9087SOL    HW128160   4.805   1.061   1.399
 9087SOL    HW228161   4.795   1.119   1.552
 9088SOL     OW28162   5.514   6.390   6.507
 9088SOL    HW128163   5.513   6.396   6.607
 9088SOL    HW228164   5.571   6.463   6.470
 9089SOL     OW28165   5.187   5.501   2.625
 9089SOL    HW128166   5.117   5.494   2.554
 9089SOL    HW228167   5.154   5.458   2.709
 9090SOL     OW28168   6.247   5.836   5.439
 9090SOL    HW128169   6.234   5.862   5.344
 9090SOL    HW228170   6.158   5.831   5.485
 9091SOL     OW28171   2.529   1.942   1.725
 9091SOL    HW128172   2.551   2.038   1.706
 9091SOL    HW228173   2.609   1.885   1.706
 9092SOL     OW28174   2.759   1.908   5.062
 9092SOL    HW128175   2.671   1.956   5.065
 9092SOL    HW228176   2.786   1.894   4.967
 9093SOL     OW28177   2.168   3.615   0.704
 9093SOL    HW128178   2.204   3.550   0.638
 9093SOL    HW228179   2.085   3.577   0.747
 9094SOL     OW28180   6.361   2.754   0.570
 9094SOL    HW128181   6.446   2.795   0.537
 9094SOL    HW228182   6.382   2.682   0.636
 9095SOL     OW28183   1.908   2.650   0.089
 9095SOL    HW128184   1.872   2.740   0.113
 9095SOL    HW228185   1.965   2.615   0.163
 9096SOL     OW28186   6.600   4.935   2.971
 9096SOL    HW128187   6.558   4.913   3.059
 9096SOL    HW228188   6.530   4.965   2.907
 9097SOL     OW28189   6.328   5.881   6.284
 9097SOL    HW128190   6.276   5.826   6.218
 9097SOL    HW228191   6.314   5.844   6.376
 9098SOL     OW28192   3.969   3.214   4.962
 9098SOL    HW128193   3.873   3.225   4.986
 9098SOL    HW228194   3.988   3.117   4.946
 9099SOL     OW28195   1.798   2.416   7.003
 9099SOL    HW128196   1.710   2.449   6.968
 9099SOL    HW228197   1.847   2.491   0.017
 9100SOL     OW28198   1.520   2.668   0.807
 9100SOL    HW128199   1.460   2.700   0.734
 9100SOL    HW228200   1.609   2.642   0.769
 9101SOL     OW28201   2.172   2.095   0.062
 9101SOL    HW128202   2.180   2.150   0.145
 9101SOL    HW228203   2.254   2.040   0.049
 9102SOL     OW28204   4.487   6.373   1.993
 9102SOL    HW128205   4.539   6.337   2.071
 9102SOL    HW228206   4.535   6.350   1.908
 9103SOL     OW28207   0.857   4.336   6.200
 9103SOL    HW128208   0.908   4.390   6.267
 9103SOL    HW228209   0.779   4.292   6.245
 9104SOL     OW28210   4.736   0.417   3.050
 9104SOL    HW128211   4.786   0.412   2.963
 9104SOL    HW228212   4.671   0.493   3.046
 9105SOL     OW28213   3.028   2.013   6.246
 9105SOL    HW128214   2.985   2.082   6.304
 9105SOL    HW228215   3.022   1.924   6.289
 9106SOL     OW28216   6.470   5.630   1.784
 9106SOL    HW128217   6.568   5.648   1.799
 9106SOL    HW228218   6.424   5.716   1.760
 9107SOL     OW28219   5.044   6.277   6.426
 9107SOL    HW128220   5.113   6.349   6.432
 9107SOL    HW228221   4.989   6.290   6.343
 9108SOL     OW28222   3.447   5.847   0.223
 9108SOL    HW128223   3.388   5.909   0.275
 9108SOL    HW228224   3.392   5.796   0.158
 9109SOL     OW28225   3.170   1.533   4.017
 9109SOL    HW128226   3.204   1.599   4.084
 9109SOL    HW228227   3.246   1.499   3.962
 9110SOL     OW28228   1.037   3.726   3.236
 9110SOL    HW128229   1.015   3.776   3.153
 9110SOL    HW228230   1.008   3.631   3.226
 9111SOL     OW28231   4.142   3.945   1.405
 9111SOL    HW128232   4.149   4.044   1.395
 9111SOL    HW228233   4.050   3.915   1.379
 9112SOL     OW28234   0.891   5.742   2.353
 9112SOL    HW128235   0.801   5.753   2.312
 9112SOL    HW228236   0.961   5.782   2.293
 9113SOL     OW28237   2.568   5.580   6.907
 9113SOL    HW128238   2.572   5.569   6.808
 9113SOL    HW228239   2.505   5.654   6.930
 9114SOL     OW28240   2.655   3.705   1.720
 9114SOL    HW128241   2.588   3.771   1.755
 9114SOL    HW228242   2.622   3.612   1.737
 9115SOL     OW28243   1.926   4.219   4.585
 9115SOL    HW128244   1.930   4.141   4.648
 9115SOL    HW228245   2.004   4.280   4.603
 9116SOL     OW28246   2.665   1.835   6.397
 9116SOL    HW128247   2.717   1.918   6.377
 9116SOL    HW228248   2.728   1.762   6.423
 9117SOL     OW28249   0.534   3.563   0.410
 9117SOL    HW128250   0.528   3.508   0.494
 9117SOL    HW228251   0.475   3.644   0.420
 9118SOL     OW28252   0.886   6.248   1.732
 9118SOL    HW128253   0.954   6.315   1.761
 9118SOL    HW228254   0.885   6.172   1.798
 9119SOL     OW28255   6.089   0.231   0.979
 9119SOL    HW128256   6.107   0.143   0.934
 9119SOL    HW228257   6.144   0.238   1.062
 9120SOL     OW28258   6.220   0.683   6.650
 9120SOL    HW128259   6.139   0.640   6.689
 9120SOL    HW228260   6.241   0.641   6.561
 9121SOL     OW28261   1.463   1.762   6.687
 9121SOL    HW128262   1.552   1.737   6.727
 9121SOL    HW228263   1.446   1.705   6.606
 9122SOL     OW28264   0.803   2.897   1.389
 9122SOL    HW128265   0.834   2.882   1.296
 9122SOL    HW228266   0.747   2.820   1.419
 9123SOL     OW28267   2.209   6.535   6.751
 9123SOL    HW128268   2.264   6.470   6.698
 9123SOL    HW228269   2.212   6.510   6.848
 9124SOL     OW28270   6.958   4.593   5.663
 9124SOL    HW128271   6.879   4.639   5.703
 9124SOL    HW228272   6.929   4.506   5.623
 9125SOL     OW28273   4.542   5.700   1.049
 9125SOL    HW128274   4.602   5.749   1.112
 9125SOL    HW228275   4.562   5.602   1.052
 9126SOL     OW28276   5.698   6.994   3.058
 9126SOL    HW128277   5.711   0.043   2.996
 9126SOL    HW228278   5.739   6.912   3.018
 9127SOL     OW28279   5.487   5.604   5.832
 9127SOL    HW128280   5.577   5.582   5.872
 9127SOL    HW228281   5.434   5.657   5.898
 9128SOL     OW28282   4.792   2.469   5.425
 9128SOL    HW128283   4.727   2.464   5.350
 9128SOL    HW228284   4.742   2.466   5.512
 9129SOL     OW28285   2.332   1.552   6.835
 9129SOL    HW128286   2.427   1.573   6.814
 9129SOL    HW228287   2.287   1.634   6.871
 9130SOL     OW28288   6.180   5.947   1.102
 9130SOL    HW128289   6.176   5.999   1.187
 9130SOL    HW228290   6.201   5.851   1.122
 9131SOL     OW28291   1.542   4.589   4.047
 9131SOL    HW128292   1.521   4.508   4.103
 9131SOL    HW228293   1.597   4.652   4.101
 9132SOL     OW28294   1.554   3.146   4.249
 9132SOL    HW128295   1.644   3.152   4.292
 9132SOL    HW228296   1.555   3.196   4.162
 9133SOL     OW28297   1.949   4.975   1.592
 9133SOL    HW128298   1.992   4.920   1.521
 9133SOL    HW228299   1.896   4.916   1.653
 9134SOL     OW28300   2.653   4.826   5.975
 9134SOL    HW128301   2.652   4.821   5.875
 9134SOL    HW228302   2.747   4.817   6.008
 9135SOL     OW28303   1.043   6.552   4.252
 9135SOL    HW128304   1.127   6.564   4.305
 9135SOL    HW228305   0.999   6.640   4.238
 9136SOL     OW28306   3.503   5.507   5.148
 9136SOL    HW128307   3.452   5.568   5.087
 9136SOL    HW228308   3.529   5.557   5.231
 9137SOL     OW28309   3.959   0.718   1.668
 9137SOL    HW128310   3.959   0.720   1.768
 9137SOL    HW228311   3.875   0.758   1.633
 9138SOL     OW28312   2.979   4.286   0.971
 9138SOL    HW128313   2.896   4.240   0.940
 9138SOL    HW228314   2.980   4.380   0.935
 9139SOL     OW28315   3.426   0.696   5.847
 9139SOL    HW128316   3.362   0.645   5.790
 9139SOL    HW228317   3.469   0.634   5.913
 9140SOL     OW28318   6.681   2.759   3.653
 9140SOL    HW128319   6.705   2.855   3.663
 9140SOL    HW228320   6.619   2.748   3.576
 9141SOL     OW28321   5.761   0.505   5.638
 9141SOL    HW128322   5.757   0.453   5.724
 9141SOL    HW228323   5.704   0.587   5.646
 9142SOL     OW28324   1.106   4.399   6.872
 9142SOL    HW128325   1.025   4.347   6.900
 9142SOL    HW228326   1.127   4.377   6.777
 9143SOL     OW28327   5.683   4.364   0.911
 9143SOL    HW128328   5.666   4.403   1.001
 9143SOL    HW228329   5.603   4.311   0.882
 9144SOL     OW28330   1.418   5.221   4.657
 9144SOL    HW128331   1.506   5.182   4.687
 9144SOL    HW228332   1.353   5.218   4.732
 9145SOL     OW28333   0.551   3.972   6.266
 9145SOL    HW128334   0.596   3.957   6.178
 9145SOL    HW228335   0.452   3.963   6.254
 9146SOL     OW28336   0.687   1.957   1.242
 9146SOL    HW128337   0.774   1.980   1.199
 9146SOL    HW228338   0.618   1.940   1.172
 9147SOL     OW28339   4.453   5.924   5.928
 9147SOL    HW128340   4.453   5.972   5.840
 9147SOL    HW228341   4.375   5.956   5.983
 9148SOL     OW28342   3.479   5.277   3.064
 9148SOL    HW128343   3.514   5.366   3.035
 9148SOL    HW228344   3.396   5.290   3.118
 9149SOL     OW28345   6.359   2.923   4.764
 9149SOL    HW128346   6.395   2.901   4.673
 9149SOL    HW228347   6.434   2.953   4.823
 9150SOL     OW28348   4.355   1.557   2.785
 9150SOL    HW128349   4.263   1.529   2.759
 9150SOL    HW228350   4.371   1.534   2.881
 9151SOL     OW28351   0.975   3.260   2.006
 9151SOL    HW128352   0.887   3.266   1.958
 9151SOL    HW228353   0.973   3.184   2.071
 9152SOL     OW28354   2.233   5.089   3.425
 9152SOL    HW128355   2.198   5.096   3.332
 9152SOL    HW228356   2.272   5.176   3.453
 9153SOL     OW28357   1.607   2.939   7.014
 9153SOL    HW128358   1.562   2.872   0.043
 9153SOL    HW228359   1.598   2.911   6.918
 9154SOL     OW28360   1.399   5.329   0.673
 9154SOL    HW128361   1.331   5.319   0.601
 9154SOL    HW228362   1.483   5.283   0.646
 9155SOL     OW28363   1.702   4.417   6.813
 9155SOL    HW128364   1.718   4.443   6.908
 9155SOL    HW228365   1.603   4.413   6.796
 9156SOL     OW28366   5.066   2.736   1.622
 9156SOL    HW128367   4.971   2.750   1.650
 9156SOL    HW228368   5.091   2.640   1.635
 9157SOL     OW28369   5.338   3.565   5.672
 9157SOL    HW128370   5.376   3.559   5.580
 9157SOL    HW228371   5.383   3.641   5.721
 9158SOL     OW28372   0.697   3.803   3.432
 9158SOL    HW128373   0.784   3.808   3.480
 9158SOL    HW228374   0.622   3.814   3.497
 9159SOL     OW28375   6.853   4.685   2.427
 9159SOL    HW128376   6.866   4.676   2.328
 9159SOL    HW228377   6.785   4.619   2.457
 9160SOL     OW28378   0.195   0.165   0.865
 9160SOL    HW128379   0.102   0.148   0.833
 9160SOL    HW228380   0.255   0.180   0.787
 9161SOL     OW28381   5.036   4.057   2.665
 9161SOL    HW128382   5.116   4.060   2.604
 9161SOL    HW228383   5.030   4.142   2.717
 9162SOL     OW28384   5.301   2.654   2.656
 9162SOL    HW128385   5.370   2.632   2.588
 9162SOL    HW228386   5.210   2.644   2.616
 9163SOL     OW28387   3.298   0.962   5.102
 9163SOL    HW128388   3.358   1.031   5.061
 9163SOL    HW228389   3.257   0.999   5.185
 9164SOL     OW28390   2.857   0.355   1.001
 9164SOL    HW128391   2.814   0.368   1.089
 9164SOL    HW228392   2.951   0.323   1.014
 9165SOL     OW28393   4.573   5.871   0.159
 9165SOL    HW128394   4.478   5.839   0.156
 9165SOL    HW228395   4.632   5.797   0.191
 9166SOL     OW28396   2.840   5.739   1.537
 9166SOL    HW128397   2.882   5.759   1.626
 9166SOL    HW228398   2.765   5.675   1.550
 9167SOL     OW28399   0.154   3.961   4.634
 9167SOL    HW128400   0.058   3.982   4.616
 9167SOL    HW228401   0.164   3.862   4.649
 9168SOL     OW28402   3.425   0.464   0.153
 9168SOL    HW128403   3.507   0.406   0.152
 9168SOL    HW228404   3.451   0.558   0.178
 9169SOL     OW28405   0.566   6.859   3.548
 9169SOL    HW128406   0.620   6.857   3.632
 9169SOL    HW228407   0.490   6.795   3.556
 9170SOL     OW28408   6.208   5.991   6.983
 9170SOL    HW128409   6.216   5.913   6.921
 9170SOL    HW228410   6.222   5.961   0.048
 9171SOL     OW28411   3.147   5.930   5.421
 9171SOL    HW128412   3.112   5.869   5.350
 9171SOL    HW228413   3.076   5.997   5.444
 9172SOL     OW28414   2.522   2.341   4.236
 9172SOL    HW128415   2.598   2.306   4.291
 9172SOL    HW228416   2.472   2.264   4.196
 9173SOL     OW28417   0.802   5.193   4.989
 9173SOL    HW128418   0.875   5.252   4.955
 9173SOL    HW228419   0.754   5.152   4.912
 9174SOL     OW28420   0.541   5.944   6.711
 9174SOL    HW128421   0.443   5.960   6.697
 9174SOL    HW228422   0.569   5.987   6.796
 9175SOL     OW28423   1.629   6.652   5.441
 9175SOL    HW128424   1.635   6.644   5.341
 9175SOL    HW228425   1.537   6.681   5.467
 9176SOL     OW28426   1.500   1.952   5.797
 9176SOL    HW128427   1.548   2.023   5.849
 9176SOL    HW228428   1.566   1.899   5.744
 9177SOL     OW28429   1.066   4.822   3.060
 9177SOL    HW128430   1.017   4.882   3.123
 9177SOL    HW228431   1.106   4.746   3.110
 9178SOL     OW28432   2.098   4.270   0.567
 9178SOL    HW128433   2.087   4.197   0.499
 9178SOL    HW228434   2.022   4.267   0.631
 9179SOL     OW28435   2.483   4.946   5.239
 9179SOL    HW128436   2.560   5.007   5.254
 9179SOL    HW228437   2.486   4.871   5.304
 9180SOL     OW28438   5.500   2.353   2.882
 9180SOL    HW128439   5.443   2.435   2.894
 9180SOL    HW228440   5.571   2.352   2.953
 9181SOL     OW28441   3.973   1.326   2.134
 9181SOL    HW128442   3.967   1.276   2.220
 9181SOL    HW228443   3.994   1.261   2.060
 9182SOL     OW28444   2.543   6.792   2.031
 9182SOL    HW128445   2.553   6.883   2.070
 9182SOL    HW228446   2.466   6.746   2.074
 9183SOL     OW28447   5.194   5.507   6.073
 9183SOL    HW128448   5.275   5.544   6.117
 9183SOL    HW228449   5.217   5.476   5.981
 9184SOL     OW28450   4.932   6.701   6.990
 9184SOL    HW128451   5.031   6.713   6.997
 9184SOL    HW228452   4.909   6.605   7.006
 9185SOL     OW28453   4.421   1.375   4.568
 9185SOL    HW128454   4.455   1.469   4.559
 9185SOL    HW228455   4.358   1.369   4.645
 9186SOL     OW28456   5.129   0.133   6.568
 9186SOL    HW128457   5.144   0.097   6.476
 9186SOL    HW228458   5.216   0.158   6.610
 9187SOL     OW28459   2.550   6.440   2.449
 9187SOL    HW128460   2.592   6.508   2.389
 9187SOL    HW228461   2.621   6.387   2.495
 9188SOL     OW28462   2.231   6.065   0.968
 9188SOL    HW128463   2.133   6.056   0.954
 9188SOL    HW228464   2.264   5.990   1.026
 9189SOL     OW28465   5.256   5.306   1.723
 9189SOL    HW128466   5.346   5.307   1.678
 9189SOL    HW228467   5.259   5.244   1.801
 9190SOL     OW28468   0.917   5.931   0.639
 9190SOL    HW128469   0.979   5.853   0.640
 9190SOL    HW228470   0.964   6.012   0.674
 9191SOL     OW28471   6.891   0.450   6.061
 9191SOL    HW128472   6.935   0.447   5.971
 9191SOL    HW228473   6.894   0.543   6.097
 9192SOL     OW28474   1.168   3.646   4.922
 9192SOL    HW128475   1.199   3.604   4.837
 9192SOL    HW228476   1.090   3.594   4.958
 9193SOL     OW28477   2.641   3.841   0.341
 9193SOL    HW128478   2.630   3.755   0.291
 9193SOL    HW228479   2.695   3.826   0.423
 9194SOL     OW28480   2.994   0.565   4.639
 9194SOL    HW128481   3.024   0.618   4.560
 9194SOL    HW228482   3.042   0.477   4.641
 9195SOL     OW28483   1.763   1.150   3.974
 9195SOL    HW128484   1.850   1.100   3.969
 9195SOL    HW228485   1.721   1.136   4.064
 9196SOL     OW28486   4.831   1.376   5.696
 9196SOL    HW128487   4.810   1.411   5.787
 9196SOL    HW228488   4.825   1.450   5.630
 9197SOL     OW28489   2.681   4.027   0.618
 9197SOL    HW128490   2.695   4.088   0.540
 9197SOL    HW228491   2.744   3.950   0.612
 9198SOL     OW28492   0.884   4.937   4.010
 9198SOL    HW128493   0.805   4.888   4.047
 9198SOL    HW228494   0.958   4.872   3.992
 9199SOL     OW28495   5.919   3.952   5.058
 9199SOL    HW128496   5.828   3.962   5.017
 9199SOL    HW228497   5.946   4.038   5.101
 9200SOL     OW28498   3.160   0.442   0.267
 9200SOL    HW128499   3.114   0.357   0.241
 9200SOL    HW228500   3.246   0.450   0.218
 9201SOL     OW28501   1.889   4.528   0.845
 9201SOL    HW128502   1.836   4.497   0.766
 9201SOL    HW228503   1.845   4.497   0.929
 9202SOL     OW28504   2.422   0.844   3.948
 9202SOL    HW128505   2.482   0.780   3.899
 9202SOL    HW228506   2.360   0.793   4.008
 9203SOL     OW28507   6.466   6.879   0.546
 9203SOL    HW128508   6.540   6.822   0.583
 9203SOL    HW228509   6.496   6.921   0.461
 9204SOL     OW28510   6.071   0.184   4.963
 9204SOL    HW128511   6.081   0.248   4.887
 9204SOL    HW228512   6.157   0.180   5.015
 9205SOL     OW28513   0.231   5.391   2.005
 9205SOL    HW128514   0.133   5.383   2.024
 9205SOL    HW228515   0.261   5.314   1.949
 9206SOL     OW28516   3.618   6.707   0.209
 9206SOL    HW128517   3.646   6.735   0.117
 9206SOL    HW228518   3.533   6.655   0.204
 9207SOL     OW28519   5.343   5.710   6.157
 9207SOL    HW128520   5.362   5.692   6.254
 9207SOL    HW228521   5.273   5.781   6.150
 9208SOL     OW28522   1.256   3.934   2.736
 9208SOL    HW128523   1.345   3.900   2.707
 9208SOL    HW228524   1.263   4.030   2.763
 9209SOL     OW28525   2.258   6.793   6.852
 9209SOL    HW128526   2.331   6.775   6.918
 9209SOL    HW228527   2.247   6.714   6.791
 9210SOL     OW28528   6.319   0.800   3.952
 9210SOL    HW128529   6.322   0.897   3.975
 9210SOL    HW228530   6.379   0.782   3.874
 9211SOL     OW28531   0.630   1.752   2.676
 9211SOL    HW128532   0.600   1.825   2.614
 9211SOL    HW228533   0.551   1.697   2.702
 9212SOL     OW28534   3.714   5.516   4.416
 9212SOL    HW128535   3.783   5.551   4.353
 9212SOL    HW228536   3.644   5.467   4.365
 9213SOL     OW28537   6.219   4.514   6.733
 9213SOL    HW128538   6.286   4.473   6.671
 9213SOL    HW228539   6.129   4.513   6.689
 9214SOL     OW28540   6.997   5.205   0.335
 9214SOL    HW128541   6.966   5.288   0.291
 9214SOL    HW228542   0.065   5.190   0.314
 9215SOL     OW28543   1.195   1.637   1.024
 9215SOL    HW128544   1.132   1.606   1.096
 9215SOL    HW228545   1.287   1.602   1.043
 9216SOL     OW28546   2.181   0.264   3.759
 9216SOL    HW128547   2.151   0.246   3.666
 9216SOL    HW228548   2.262   0.323   3.758
 9217SOL     OW28549   0.613   2.738   0.711
 9217SOL    HW128550   0.544   2.681   0.756
 9217SOL    HW228551   0.570   2.789   0.637
 9218SOL     OW28552   2.167   1.065   0.510
 9218SOL    HW128553   2.188   0.990   0.447
 9218SOL    HW228554   2.119   1.137   0.461
 9219SOL     OW28555   6.430   1.932   0.513
 9219SOL    HW128556   6.505   1.928   0.578
 9219SOL    HW228557   6.386   1.843   0.507
 9220SOL     OW28558   3.587   6.162   0.812
 9220SOL    HW128559   3.652   6.137   0.741
 9220SOL    HW228560   3.494   6.158   0.775
 9221SOL     OW28561   2.755   4.804   4.856
 9221SOL    HW128562   2.809   4.760   4.928
 9221SOL    HW228563   2.672   4.750   4.841
 9222SOL     OW28564   2.790   2.099   6.482
 9222SOL    HW128565   2.804   2.043   6.564
 9222SOL    HW228566   2.778   2.195   6.508
 9223SOL     OW28567   2.911   3.149   5.130
 9223SOL    HW128568   2.831   3.120   5.077
 9223SOL    HW228569   2.905   3.247   5.148
 9224SOL     OW28570   2.159   4.667   5.577
 9224SOL    HW128571   2.138   4.752   5.625
 9224SOL    HW228572   2.161   4.684   5.478
 9225SOL     OW28573   1.825   6.429   0.451
 9225SOL    HW128574   1.791   6.383   0.369
 9225SOL    HW228575   1.781   6.390   0.532
 9226SOL     OW28576   4.747   6.594   0.608
 9226SOL    HW128577   4.837   6.622   0.575
 9226SOL    HW228578   4.693   6.675   0.631
 9227SOL     OW28579   1.460   6.636   2.214
 9227SOL    HW128580   1.484   6.713   2.155
 9227SOL    HW228581   1.538   6.575   2.222
 9228SOL     OW28582   0.806   6.830   6.839
 9228SOL    HW128583   0.763   6.806   6.752
 9228SOL    HW228584   0.896   6.872   6.822
 9229SOL     OW28585   0.590   5.718   5.512
 9229SOL    HW128586   0.516   5.711   5.579
 9229SOL    HW228587   0.604   5.629   5.469
 9230SOL     OW28588   4.967   1.107   3.520
 9230SOL    HW128589   4.996   1.149   3.606
 9230SOL    HW228590   4.933   1.178   3.458
 9231SOL     OW28591   2.132   3.535   3.656
 9231SOL    HW128592   2.221   3.570   3.683
 9231SOL    HW228593   2.122   3.540   3.557
 9232SOL     OW28594   3.991   5.057   0.826
 9232SOL    HW128595   4.052   5.081   0.902
 9232SOL    HW228596   4.022   5.103   0.743
 9233SOL     OW28597   5.216   4.482   0.619
 9233SOL    HW128598   5.208   4.562   0.678
 9233SOL    HW228599   5.313   4.460   0.607
 9234SOL     OW28600   1.722   6.143   3.752
 9234SOL    HW128601   1.626   6.165   3.768
 9234SOL    HW228602   1.742   6.053   3.790
 9235SOL     OW28603   0.769   2.461   3.618
 9235SOL    HW128604   0.760   2.534   3.551
 9235SOL    HW228605   0.837   2.486   3.686
 9236SOL     OW28606   4.157   2.650   5.957
 9236SOL    HW128607   4.073   2.659   6.010
 9236SOL    HW228608   4.178   2.554   5.943
 9237SOL     OW28609   1.553   3.925   3.225
 9237SOL    HW128610   1.468   3.872   3.230
 9237SOL    HW228611   1.603   3.915   3.311
 9238SOL     OW28612   4.371   3.257   6.612
 9238SOL    HW128613   4.400   3.237   6.706
 9238SOL    HW228614   4.405   3.185   6.551
 9239SOL     OW28615   1.309   3.456   6.384
 9239SOL    HW128616   1.390   3.493   6.339
 9239SOL    HW228617   1.262   3.529   6.433
 9240SOL     OW28618   4.790   1.019   1.921
 9240SOL    HW128619   4.691   1.033   1.915
 9240SOL    HW228620   4.829   1.081   1.989
 9241SOL     OW28621   0.801   5.298   6.240
 9241SOL    HW128622   0.733   5.367   6.264
 9241SOL    HW228623   0.785   5.266   6.147
 9242SOL     OW28624   5.890   5.967   1.536
 9242SOL    HW128625   5.897   5.952   1.438
 9242SOL    HW228626   5.801   6.008   1.557
 9243SOL     OW28627   5.476   6.623   4.235
 9243SOL    HW128628   5.510   6.543   4.187
 9243SOL    HW228629   5.502   6.706   4.185
 9244SOL     OW28630   3.496   5.599   0.759
 9244SOL    HW128631   3.518   5.628   0.852
 9244SOL    HW228632   3.474   5.502   0.759
 9245SOL     OW28633   0.406   6.873   1.467
 9245SOL    HW128634   0.426   6.775   1.452
 9245SOL    HW228635   0.472   6.910   1.532
 9246SOL     OW28636   6.678   5.064   3.874
 9246SOL    HW128637   6.654   5.016   3.790
 9246SOL    HW228638   6.677   5.163   3.858
 9247SOL     OW28639   1.604   0.073   3.644
 9247SOL    HW128640   1.621   0.058   3.547
 9247SOL    HW228641   1.507   0.093   3.659
 9248SOL     OW28642   3.919   1.921   6.079
 9248SOL    HW128643   4.016   1.919   6.101
 9248SOL    HW228644   3.887   1.828   6.061
 9249SOL     OW28645   4.214   6.455   3.211
 9249SOL    HW128646   4.122   6.455   3.249
 9249SOL    HW228647   4.253   6.547   3.217
 9250SOL     OW28648   5.163   3.885   3.247
 9250SOL    HW128649   5.064   3.869   3.240
 9250SOL    HW228650   5.181   3.982   3.230
 9251SOL     OW28651   3.861   2.186   3.039
 9251SOL    HW128652   3.879   2.213   2.944
 9251SOL    HW228653   3.771   2.144   3.045
 9252SOL     OW28654   1.447   6.936   4.270
 9252SOL    HW128655   1.547   6.938   4.268
 9252SOL    HW228656   1.413   6.909   4.180
 9253SOL     OW28657   1.734   6.572   5.680
 9253SOL    HW128658   1.657   6.510   5.667
 9253SOL    HW228659   1.713   6.661   5.641
 9254SOL     OW28660   5.358   2.500   1.243
 9254SOL    HW128661   5.447   2.500   1.290
 9254SOL    HW228662   5.371   2.471   1.149
 9255SOL     OW28663   6.994   5.442   0.571
 9255SOL    HW128664   6.904   5.437   0.614
 9255SOL    HW228665   7.003   5.530   0.524
 9256SOL     OW28666   3.721   5.329   2.147
 9256SOL    HW128667   3.686   5.321   2.054
 9256SOL    HW228668   3.751   5.239   2.179
 9257SOL     OW28669   0.943   3.655   0.885
 9257SOL    HW128670   0.947   3.691   0.978
 9257SOL    HW228671   1.025   3.601   0.867
 9258SOL     OW28672   3.023   3.141   3.618
 9258SOL    HW128673   3.116   3.103   3.623
 9258SOL    HW228674   2.956   3.069   3.636
 9259SOL     OW28675   1.306   2.497   0.457
 9259SOL    HW128676   1.405   2.505   0.441
 9259SOL    HW228677   1.257   2.513   0.371
 9260SOL     OW28678   6.351   3.930   0.036
 9260SOL    HW128679   6.400   3.861   0.089
 9260SOL    HW228680   6.253   3.910   0.038
 9261SOL     OW28681   3.599   6.854   6.087
 9261SOL    HW128682   3.596   6.775   6.025
 9261SOL    HW228683   3.601   6.938   6.032
 9262SOL     OW28684   5.559   0.681   5.785
 9262SOL    HW128685   5.469   0.638   5.786
 9262SOL    HW228686   5.588   0.701   5.879
 9263SOL     OW28687   6.122   4.116   1.883
 9263SOL    HW128688   6.181   4.039   1.909
 9263SOL    HW228689   6.032   4.103   1.924
 9264SOL     OW28690   6.007   2.372   6.980
 9264SOL    HW128691   5.953   2.325   6.911
 9264SOL    HW228692   6.101   2.338   6.977
 9265SOL     OW28693   1.660   1.609   5.735
 9265SOL    HW128694   1.729   1.543   5.707
 9265SOL    HW228695   1.653   1.681   5.666
 9266SOL     OW28696   2.929   6.310   2.035
 9266SOL    HW128697   2.909   6.403   2.065
 9266SOL    HW228698   2.847   6.269   1.996
 9267SOL     OW28699   2.648   5.181   5.393
 9267SOL    HW128700   2.707   5.101   5.387
 9267SOL    HW228701   2.605   5.197   5.304
 9268SOL     OW28702   0.700   1.576   3.188
 9268SOL    HW128703   0.782   1.626   3.217
 9268SOL    HW228704   0.726   1.484   3.159
 9269SOL     OW28705   4.319   1.766   5.372
 9269SOL    HW128706   4.251   1.824   5.416
 9269SOL    HW228707   4.410   1.808   5.381
 9270SOL     OW28708   1.404   0.191   5.909
 9270SOL    HW128709   1.317   0.154   5.877
 9270SOL    HW228710   1.419   0.281   5.868
 9271SOL     OW28711   0.846   4.985   5.844
 9271SOL    HW128712   0.885   4.920   5.778
 9271SOL    HW228713   0.770   5.035   5.802
 9272SOL     OW28714   2.189   4.884   6.530
 9272SOL    HW128715   2.287   4.869   6.538
 9272SOL    HW228716   2.141   4.826   6.596
 9273SOL     OW28717   4.003   5.610   5.582
 9273SOL    HW128718   4.013   5.676   5.507
 9273SOL    HW228719   4.041   5.522   5.553
 9274SOL     OW28720   5.608   2.344   1.803
 9274SOL    HW128721   5.561   2.429   1.825
 9274SOL    HW228722   5.643   2.302   1.887
 9275SOL     OW28723   0.203   0.446   6.258
 9275SOL    HW128724   0.195   0.513   6.185
 9275SOL    HW228725   0.112   0.426   6.296
 9276SOL     OW28726   4.679   6.568   3.573
 9276SOL    HW128727   4.758   6.516   3.541
 9276SOL    HW228728   4.596   6.530   3.532
 9277SOL     OW28729   3.648   2.726   0.530
 9277SOL    HW128730   3.580   2.797   0.548
 9277SOL    HW228731   3.729   2.741   0.587
 9278SOL     OW28732   1.790   2.638   1.440
 9278SOL    HW128733   1.789   2.581   1.359
 9278SOL    HW228734   1.721   2.605   1.505
 9279SOL     OW28735   1.970   6.348   0.813
 9279SOL    HW128736   2.017   6.384   0.893
 9279SOL    HW228737   1.993   6.403   0.733
 9280SOL     OW28738   1.685   0.547   2.889
 9280SOL    HW128739   1.767   0.489   2.893
 9280SOL    HW228740   1.625   0.524   2.965
 9281SOL     OW28741   2.487   2.642   0.499
 9281SOL    HW128742   2.579   2.660   0.535
 9281SOL    HW228743   2.454   2.555   0.536
 9282SOL     OW28744   4.520   1.003   6.544
 9282SOL    HW128745   4.485   0.913   6.568
 9282SOL    HW228746   4.444   1.064   6.522
 9283SOL     OW28747   5.341   2.670   2.935
 9283SOL    HW128748   5.321   2.670   2.837
 9283SOL    HW228749   5.425   2.723   2.952
 9284SOL     OW28750   3.640   3.887   1.811
 9284SOL    HW128751   3.601   3.976   1.837
 9284SOL    HW228752   3.729   3.901   1.769
 9285SOL     OW28753   6.237   2.384   6.780
 9285SOL    HW128754   6.271   2.313   6.841
 9285SOL    HW228755   6.256   2.358   6.685
 9286SOL     OW28756   5.508   5.501   5.159
 9286SOL    HW128757   5.456   5.582   5.133
 9286SOL    HW228758   5.604   5.525   5.170
 9287SOL     OW28759   2.587   0.067   2.057
 9287SOL    HW128760   2.508   0.107   2.102
 9287SOL    HW228761   2.585   0.088   1.960
 9288SOL     OW28762   5.017   1.840   6.087
 9288SOL    HW128763   5.037   1.803   5.996
 9288SOL    HW228764   5.070   1.923   6.102
 9289SOL     OW28765   5.705   4.044   2.807
 9289SOL    HW128766   5.717   4.083   2.898
 9289SOL    HW228767   5.693   3.945   2.814
 9290SOL     OW28768   4.367   1.804   4.463
 9290SOL    HW128769   4.385   1.822   4.367
 9290SOL    HW228770   4.441   1.749   4.501
 9291SOL     OW28771   1.045   1.456   4.872
 9291SOL    HW128772   1.003   1.514   4.942
 9291SOL    HW228773   1.016   1.361   4.886
 9292SOL     OW28774   0.226   3.702   0.307
 9292SOL    HW128775   0.294   3.726   0.376
 9292SOL    HW228776   0.134   3.722   0.342
 9293SOL     OW28777   6.511   3.891   6.310
 9293SOL    HW128778   6.414   3.913   6.302
 9293SOL    HW228779   6.544   3.854   6.223
 9294SOL     OW28780   5.504   5.955   6.358
 9294SOL    HW128781   5.594   5.986   6.387
 9294SOL    HW228782   5.439   5.964   6.433
 9295SOL     OW28783   4.689   2.015   3.397
 9295SOL    HW128784   4.593   1.987   3.395
 9295SOL    HW228785   4.703   2.092   3.334
 9296SOL     OW28786   6.854   6.810   5.166
 9296SOL    HW128787   6.834   6.890   5.109
 9296SOL    HW228788   6.795   6.734   5.141
 9297SOL     OW28789   0.631   0.526   1.666
 9297SOL    HW128790   0.731   0.520   1.662
 9297SOL    HW228791   0.600   0.601   1.608
 9298SOL     OW28792   0.504   6.108   4.707
 9298SOL    HW128793   0.543   6.186   4.757
 9298SOL    HW228794   0.418   6.081   4.748
 9299SOL     OW28795   1.679   3.219   3.552
 9299SOL    HW128796   1.685   3.140   3.492
 9299SOL    HW228797   1.620   3.288   3.509
 9300SOL     OW28798   5.707   4.463   3.836
 9300SOL    HW128799   5.692   4.382   3.779
 9300SOL    HW228800   5.792   4.508   3.807
 9301SOL     OW28801   6.467   4.309   1.530
 9301SOL    HW128802   6.560   4.344   1.541
 9301SOL    HW228803   6.449   4.292   1.433
 9302SOL     OW28804   2.112   2.054   2.552
 9302SOL    HW128805   2.164   2.118   2.608
 9302SOL    HW228806   2.105   2.089   2.459
 9303SOL     OW28807   4.931   4.549   0.696
 9303SOL    HW128808   4.986   4.467   0.706
 9303SOL    HW228809   4.957   4.597   0.612
 9304SOL     OW28810   4.466   3.610   0.224
 9304SOL    HW128811   4.559   3.574   0.219
 9304SOL    HW228812   4.435   3.635   0.132
 9305SOL     OW28813   4.852   3.941   2.114
 9305SOL    HW128814   4.821   3.877   2.043
 9305SOL    HW228815   4.813   4.032   2.096
 9306SOL     OW28816   6.008   5.100   4.400
 9306SOL    HW128817   5.914   5.091   4.431
 9306SOL    HW228818   6.069   5.106   4.479
 9307SOL     OW28819   2.045   0.746   5.975
 9307SOL    HW128820   2.133   0.702   5.959
 9307SOL    HW228821   2.013   0.725   6.067
 9308SOL     OW28822   6.871   2.281   0.557
 9308SOL    HW128823   6.813   2.334   0.495
 9308SOL    HW228824   6.827   2.276   0.647
 9309SOL     OW28825   4.973   2.780   6.500
 9309SOL    HW128826   5.026   2.695   6.493
 9309SOL    HW228827   5.015   2.850   6.443
 9310SOL     OW28828   4.470   6.317   0.901
 9310SOL    HW128829   4.547   6.371   0.866
 9310SOL    HW228830   4.466   6.229   0.853
 9311SOL     OW28831   6.947   3.125   1.823
 9311SOL    HW128832   6.949   3.039   1.771
 9311SOL    HW228833   6.859   3.170   1.808
 9312SOL     OW28834   2.020   4.485   4.960
 9312SOL    HW128835   1.949   4.509   5.026
 9312SOL    HW228836   1.998   4.396   4.919
 9313SOL     OW28837   6.188   6.593   2.440
 9313SOL    HW128838   6.111   6.531   2.433
 9313SOL    HW228839   6.156   6.688   2.433
 9314SOL     OW28840   6.068   4.135   0.114
 9314SOL    HW128841   5.994   4.165   0.174
 9314SOL    HW228842   6.153   4.180   0.140
 9315SOL     OW28843   0.544   6.648   6.484
 9315SOL    HW128844   0.541   6.568   6.424
 9315SOL    HW228845   0.602   6.629   6.563
 9316SOL     OW28846   3.617   5.965   4.660
 9316SOL    HW128847   3.629   5.880   4.609
 9316SOL    HW228848   3.554   6.025   4.610
 9317SOL     OW28849   4.689   4.059   5.387
 9317SOL    HW128850   4.781   4.097   5.374
 9317SOL    HW228851   4.643   4.110   5.460
 9318SOL     OW28852   6.937   6.614   6.104
 9318SOL    HW128853   6.956   6.600   6.007
 9318SOL    HW228854   6.870   6.547   6.135
 9319SOL     OW28855   6.462   2.848   4.424
 9319SOL    HW128856   6.456   2.854   4.325
 9319SOL    HW228857   6.534   2.910   4.456
 9320SOL     OW28858   3.974   2.660   6.470
 9320SOL    HW128859   3.941   2.752   6.491
 9320SOL    HW228860   4.072   2.663   6.447
 9321SOL     OW28861   5.539   5.953   4.077
 9321SOL    HW128862   5.448   5.980   4.109
 9321SOL    HW228863   5.530   5.879   4.010
 9322SOL     OW28864   0.988   6.763   0.461
 9322SOL    HW128865   1.087   6.763   0.448
 9322SOL    HW228866   0.967   6.781   0.557
 9323SOL     OW28867   0.590   1.373   6.584
 9323SOL    HW128868   0.658   1.381   6.511
 9323SOL    HW228869   0.636   1.377   6.673
 9324SOL     OW28870   1.731   5.147   6.694
 9324SOL    HW128871   1.710   5.179   6.602
 9324SOL    HW228872   1.648   5.151   6.750
 9325SOL     OW28873   0.251   2.844   0.666
 9325SOL    HW128874   0.197   2.776   0.616
 9325SOL    HW228875   0.348   2.826   0.651
 9326SOL     OW28876   2.126   5.528   1.560
 9326SOL    HW128877   2.062   5.463   1.518
 9326SOL    HW228878   2.214   5.524   1.512
 9327SOL     OW28879   3.494   0.968   3.585
 9327SOL    HW128880   3.462   1.009   3.671
 9327SOL    HW228881   3.533   1.039   3.527
 9328SOL     OW28882   2.868   0.636   1.968
 9328SOL    HW128883   2.790   0.696   1.986
 9328SOL    HW228884   2.844   0.541   1.990
 9329SOL     OW28885   1.107   4.127   1.947
 9329SOL    HW128886   1.199   4.165   1.960
 9329SOL    HW228887   1.043   4.173   2.009
 9330SOL     OW28888   5.576   6.830   6.554
 9330SOL    HW128889   5.655   6.805   6.611
 9330SOL    HW228890   5.609   6.880   6.473
 9331SOL     OW28891   0.516   1.949   6.981
 9331SOL    HW128892   0.536   2.025   0.014
 9331SOL    HW228893   0.577   1.955   6.901
 9332SOL     OW28894   3.786   3.759   5.164
 9332SOL    HW128895   3.795   3.661   5.181
 9332SOL    HW228896   3.696   3.790   5.195
 9333SOL     OW28897   5.318   5.632   0.848
 9333SOL    HW128898   5.246   5.562   0.854
 9333SOL    HW228899   5.279   5.722   0.867
 9334SOL     OW28900   2.687   7.008   4.734
 9334SOL    HW128901   2.662   0.058   4.678
 9334SOL    HW228902   2.763   6.959   4.690
 9335SOL     OW28903   0.816   1.057   2.044
 9335SOL    HW128904   0.908   1.019   2.041
 9335SOL    HW228905   0.765   1.030   1.963
 9336SOL     OW28906   3.296   0.013   5.303
 9336SOL    HW128907   3.265   6.947   5.303
 9336SOL    HW228908   3.253   0.062   5.228
 9337SOL     OW28909   4.519   6.987   2.791
 9337SOL    HW128910   4.535   6.893   2.762
 9337SOL    HW228911   4.491   0.013   2.712
 9338SOL     OW28912   3.327   6.645   1.810
 9338SOL    HW128913   3.345   6.673   1.716
 9338SOL    HW228914   3.322   6.725   1.869
 9339SOL     OW28915   3.445   5.547   1.405
 9339SOL    HW128916   3.416   5.630   1.453
 9339SOL    HW228917   3.385   5.530   1.326
 9340SOL     OW28918   6.280   3.359   0.886
 9340SOL    HW128919   6.282   3.457   0.863
 9340SOL    HW228920   6.191   3.335   0.923
 9341SOL     OW28921   6.904   4.316   5.630
 9341SOL    HW128922   6.938   4.242   5.572
 9341SOL    HW228923   6.860   4.277   5.711
 9342SOL     OW28924   1.497   0.176   6.443
 9342SOL    HW128925   1.549   0.091   6.451
 9342SOL    HW228926   1.434   0.169   6.366
 9343SOL     OW28927   5.737   6.285   4.217
 9343SOL    HW128928   5.824   6.328   4.240
 9343SOL    HW228929   5.753   6.208   4.155
 9344SOL     OW28930   5.060   6.510   1.203
 9344SOL    HW128931   5.156   6.539   1.197
 9344SOL    HW228932   5.050   6.444   1.277
 9345SOL     OW28933   0.690   3.244   0.821
 9345SOL    HW128934   0.717   3.148   0.818
 9345SOL    HW228935   0.667   3.269   0.915
 9346SOL     OW28936   5.953   0.879   0.588
 9346SOL    HW128937   5.884   0.845   0.524
 9346SOL    HW228938   6.017   0.938   0.541
 9347SOL     OW28939   2.417   6.528   1.913
 9347SOL    HW128940   2.493   6.593   1.903
 9347SOL    HW228941   2.331   6.578   1.913
 9348SOL     OW28942   3.049   5.029   0.434
 9348SOL    HW128943   2.992   5.105   0.405
 9348SOL    HW228944   3.113   5.006   0.360
 9349SOL     OW28945   1.825   5.873   2.444
 9349SOL    HW128946   1.817   5.935   2.522
 9349SOL    HW228947   1.917   5.834   2.441
 9350SOL     OW28948   6.982   2.748   5.926
 9350SOL    HW128949   6.960   2.845   5.923
 9350SOL    HW228950   0.025   2.728   5.860
 9351SOL     OW28951   3.045   0.754   6.575
 9351SOL    HW128952   3.072   0.744   6.479
 9351SOL    HW228953   2.971   0.691   6.596
 9352SOL     OW28954   2.485   5.006   5.782
 9352SOL    HW128955   2.486   5.089   5.836
 9352SOL    HW228956   2.417   4.942   5.819
 9353SOL     OW28957   5.740   1.014   1.079
 9353SOL    HW128958   5.774   0.970   0.996
 9353SOL    HW228959   5.785   1.103   1.091
 9354SOL     OW28960   0.781   1.424   6.386
 9354SOL    HW128961   0.771   1.487   6.309
 9354SOL    HW228962   0.860   1.364   6.369
 9355SOL     OW28963   0.690   1.383   5.158
 9355SOL    HW128964   0.715   1.287   5.152
 9355SOL    HW228965   0.681   1.422   5.067
 9356SOL     OW28966   4.477   0.054   3.627
 9356SOL    HW128967   4.548   7.024   3.666
 9356SOL    HW228968   4.479   0.143   3.672
 9357SOL     OW28969   1.266   2.179   0.413
 9357SOL    HW128970   1.320   2.257   0.382
 9357SOL    HW228971   1.305   2.094   0.375
 9358SOL     OW28972   1.234   2.294   1.298
 9358SOL    HW128973   1.171   2.371   1.307
 9358SOL    HW228974   1.191   2.220   1.247
 9359SOL     OW28975   0.828   0.399   5.372
 9359SOL    HW128976   0.795   0.385   5.279
 9359SOL    HW228977   0.860   0.311   5.409
 9360SOL     OW28978   0.397   0.677   6.305
 9360SOL    HW128979   0.333   0.664   6.381
 9360SOL    HW228980   0.490   0.689   6.342
 9361SOL     OW28981   2.480   5.618   4.523
 9361SOL    HW128982   2.515   5.541   4.470
 9361SOL    HW228983   2.444   5.688   4.461
 9362SOL     OW28984   2.052   0.703   2.252
 9362SOL    HW128985   2.063   0.650   2.168
 9362SOL    HW228986   2.091   0.652   2.329
 9363SOL     OW28987   1.908   3.091   2.294
 9363SOL    HW128988   1.935   3.158   2.225
 9363SOL    HW228989   1.860   3.015   2.250
 9364SOL     OW28990   6.878   2.303   0.214
 9364SOL    HW128991   6.966   2.285   0.257
 9364SOL    HW228992   6.837   2.385   0.255
 9365SOL     OW28993   2.212   0.781   5.394
 9365SOL    HW128994   2.191   0.832   5.310
 9365SOL    HW228995   2.311   0.781   5.408
 9366SOL     OW28996   3.876   6.562   2.347
 9366SOL    HW128997   3.944   6.618   2.298
 9366SOL    HW228998   3.812   6.522   2.281
 9367SOL     OW28999   6.882   0.588   1.341
 9367SOL    HW129000   6.869   0.548   1.250
 9367SOL    HW229001   6.817   0.548   1.405
 9368SOL     OW29002   2.358   0.719   2.656
 9368SOL    HW129003   2.267   0.706   2.696
 9368SOL    HW229004   2.415   0.771   2.719
 9369SOL     OW29005   3.488   4.987   0.796
 9369SOL    HW129006   3.569   5.005   0.851
 9369SOL    HW229007   3.479   5.057   0.725
 9370SOL     OW29008   4.416   2.350   5.065
 9370SOL    HW129009   4.329   2.372   5.108
 9370SOL    HW229010   4.410   2.262   5.018
 9371SOL     OW29011   4.300   4.606   0.750
 9371SOL    HW129012   4.335   4.576   0.661
 9371SOL    HW229013   4.203   4.626   0.743
 9372SOL     OW29014   4.210   6.291   0.986
 9372SOL    HW129015   4.181   6.206   1.031
 9372SOL    HW229016   4.308   6.286   0.966
 9373SOL     OW29017   0.386   2.445   1.745
 9373SOL    HW129018   0.373   2.354   1.786
 9373SOL    HW229019   0.432   2.505   1.810
 9374SOL     OW29020   6.988   5.444   6.340
 9374SOL    HW129021   6.964   5.382   6.265
 9374SOL    HW229022   0.020   5.396   6.403
 9375SOL     OW29023   1.300   1.192   0.042
 9375SOL    HW129024   1.281   1.205   0.139
 9375SOL    HW229025   1.307   1.094   0.022
 9376SOL     OW29026   2.682   3.534   0.682
 9376SOL    HW129027   2.744   3.572   0.613
 9376SOL    HW229028   2.652   3.607   0.743
 9377SOL     OW29029   0.828   0.750   3.340
 9377SOL    HW129030   0.850   0.746   3.243
 9377SOL    HW229031   0.909   0.775   3.392
 9378SOL     OW29032   3.461   1.149   4.951
 9378SOL    HW129033   3.416   1.166   4.864
 9378SOL    HW229034   3.553   1.114   4.935
 9379SOL     OW29035   4.027   0.694   4.376
 9379SOL    HW129036   4.087   0.773   4.362
 9379SOL    HW229037   4.010   0.650   4.287
 9380SOL     OW29038   4.664   5.667   0.727
 9380SOL    HW129039   4.758   5.660   0.760
 9380SOL    HW229040   4.606   5.602   0.777
 9381SOL     OW29041   5.680   0.669   4.973
 9381SOL    HW129042   5.654   0.743   4.911
 9381SOL    HW229043   5.724   0.706   5.054
 9382SOL     OW29044   3.378   5.702   6.169
 9382SOL    HW129045   3.355   5.611   6.135
 9382SOL    HW229046   3.441   5.746   6.105
 9383SOL     OW29047   5.839   3.891   1.653
 9383SOL    HW129048   5.783   3.882   1.735
 9383SOL    HW229049   5.799   3.959   1.592
 9384SOL     OW29050   4.095   0.164   0.919
 9384SOL    HW129051   4.101   0.110   1.003
 9384SOL    HW229052   4.185   0.169   0.876
 9385SOL     OW29053   4.167   2.247   3.951
 9385SOL    HW129054   4.259   2.251   3.912
 9385SOL    HW229055   4.160   2.313   4.026
 9386SOL     OW29056   5.535   6.854   1.329
 9386SOL    HW129057   5.589   6.902   1.260
 9386SOL    HW229058   5.442   6.892   1.330
 9387SOL     OW29059   2.078   2.026   6.546
 9387SOL    HW129060   2.000   2.075   6.508
 9387SOL    HW229061   2.083   1.934   6.507
 9388SOL     OW29062   2.796   0.050   4.406
 9388SOL    HW129063   2.757   0.079   4.493
 9388SOL    HW229064   2.723   0.023   4.344
 9389SOL     OW29065   2.246   4.118   2.039
 9389SOL    HW129066   2.338   4.126   2.001
 9389SOL    HW229067   2.246   4.049   2.112
 9390SOL     OW29068   5.758   4.812   3.969
 9390SOL    HW129069   5.658   4.809   3.960
 9390SOL    HW229070   5.788   4.907   3.977
 9391SOL     OW29071   1.666   4.332   4.562
 9391SOL    HW129072   1.745   4.271   4.570
 9391SOL    HW229073   1.591   4.298   4.619
 9392SOL     OW29074   4.772   4.625   2.420
 9392SOL    HW129075   4.719   4.543   2.396
 9392SOL    HW229076   4.823   4.656   2.340
 9393SOL     OW29077   1.797   5.026   6.282
 9393SOL    HW129078   1.822   5.044   6.187
 9393SOL    HW229079   1.786   5.113   6.330
 9394SOL     OW29080   4.838   7.026   0.603
 9394SOL    HW129081   4.846   0.080   0.547
 9394SOL    HW229082   4.914   6.964   0.581
 9395SOL     OW29083   1.358   1.537   1.536
 9395SOL    HW129084   1.435   1.477   1.518
 9395SOL    HW229085   1.338   1.590   1.454
 9396SOL     OW29086   0.796   0.878   6.183
 9396SOL    HW129087   0.753   0.813   6.246
 9396SOL    HW229088   0.818   0.831   6.098
 9397SOL     OW29089   2.782   1.214   4.790
 9397SOL    HW129090   2.701   1.213   4.848
 9397SOL    HW229091   2.850   1.149   4.825
 9398SOL     OW29092   6.920   1.569   0.123
 9398SOL    HW129093   7.008   1.591   0.166
 9398SOL    HW229094   6.847   1.575   0.192
 9399SOL     OW29095   1.284   2.048   4.952
 9399SOL    HW129096   1.363   1.989   4.968
 9399SOL    HW229097   1.290   2.127   5.013
 9400SOL     OW29098   5.664   1.734   1.350
 9400SOL    HW129099   5.659   1.783   1.263
 9400SOL    HW229100   5.753   1.690   1.359
 9401SOL     OW29101   0.366   2.248   3.760
 9401SOL    HW129102   0.334   2.335   3.798
 9401SOL    HW229103   0.386   2.260   3.662
 9402SOL     OW29104   3.565   6.225   5.359
 9402SOL    HW129105   3.545   6.141   5.309
 9402SOL    HW229106   3.530   6.304   5.309
 9403SOL     OW29107   5.686   2.273   0.951
 9403SOL    HW129108   5.735   2.244   1.034
 9403SOL    HW229109   5.591   2.295   0.974
 9404SOL     OW29110   2.101   3.005   0.886
 9404SOL    HW129111   2.188   2.984   0.930
 9404SOL    HW229112   2.108   2.986   0.788
 9405SOL     OW29113   6.227   5.960   5.197
 9405SOL    HW129114   6.169   5.920   5.126
 9405SOL    HW229115   6.313   5.991   5.157
 9406SOL     OW29116   1.666   1.797   1.070
 9406SOL    HW129117   1.715   1.711   1.056
 9406SOL    HW229118   1.724   1.873   1.041
 9407SOL     OW29119   1.727   4.252   4.881
 9407SOL    HW129120   1.825   4.240   4.896
 9407SOL    HW229121   1.698   4.341   4.918
 9408SOL     OW29122   5.719   4.176   4.176
 9408SOL    HW129123   5.763   4.147   4.091
 9408SOL    HW229124   5.700   4.096   4.233
 9409SOL     OW29125   5.685   5.689   1.292
 9409SOL    HW129126   5.684   5.589   1.291
 9409SOL    HW229127   5.650   5.722   1.379
 9410SOL     OW29128   4.539   0.170   1.261
 9410SOL    HW129129   4.551   0.205   1.354
 9410SOL    HW229130   4.558   0.243   1.195
 9411SOL     OW29131   3.104   3.997   3.631
 9411SOL    HW129132   3.148   3.908   3.634
 9411SOL    HW229133   3.166   4.066   3.668
 9412SOL     OW29134   4.288   0.196   1.535
 9412SOL    HW129135   4.245   0.251   1.463
 9412SOL    HW229136   4.231   0.116   1.554
 9413SOL     OW29137   3.703   4.917   3.267
 9413SOL    HW129138   3.796   4.901   3.236
 9413SOL    HW229139   3.644   4.934   3.188
 9414SOL     OW29140   2.174   1.715   2.239
 9414SOL    HW129141   2.087   1.667   2.237
 9414SOL    HW229142   2.241   1.665   2.183
 9415SOL     OW29143   5.371   0.239   1.363
 9415SOL    HW129144   5.319   0.319   1.395
 9415SOL    HW229145   5.389   0.249   1.265
 9416SOL     OW29146   6.035   5.121   5.384
 9416SOL    HW129147   6.081   5.096   5.470
 9416SOL    HW229148   5.951   5.068   5.375
 9417SOL     OW29149   3.752   6.169   2.404
 9417SOL    HW129150   3.788   6.084   2.443
 9417SOL    HW229151   3.673   6.199   2.457
 9418SOL     OW29152   3.007   2.168   4.811
 9418SOL    HW129153   3.040   2.167   4.906
 9418SOL    HW229154   3.084   2.181   4.749
 9419SOL     OW29155   2.092   2.459   6.166
 9419SOL    HW129156   2.183   2.478   6.129
 9419SOL    HW229157   2.090   2.367   6.205
 9420SOL     OW29158   5.651   3.633   5.833
 9420SOL    HW129159   5.700   3.718   5.851
 9420SOL    HW229160   5.717   3.558   5.820
 9421SOL     OW29161   4.185   6.578   6.794
 9421SOL    HW129162   4.190   6.481   6.816
 9421SOL    HW229163   4.180   6.589   6.694
 9422SOL     OW29164   2.205   6.616   5.809
 9422SOL    HW129165   2.172   6.532   5.851
 9422SOL    HW229166   2.161   6.628   5.720
 9423SOL     OW29167   4.335   5.036   1.236
 9423SOL    HW129168   4.364   5.132   1.227
 9423SOL    HW229169   4.341   5.008   1.331
 9424SOL     OW29170   6.520   0.325   3.989
 9424SOL    HW129171   6.482   0.418   3.996
 9424SOL    HW229172   6.447   0.261   3.967
 9425SOL     OW29173   0.105   5.317   0.746
 9425SOL    HW129174   0.051   5.367   0.678
 9425SOL    HW229175   0.150   5.382   0.807
 9426SOL     OW29176   4.225   2.629   6.377
 9426SOL    HW129177   4.285   2.648   6.299
 9426SOL    HW229178   4.280   2.629   6.461
 9427SOL     OW29179   3.852   5.517   1.646
 9427SOL    HW129180   3.896   5.429   1.630
 9427SOL    HW229181   3.873   5.579   1.571
 9428SOL     OW29182   0.631   6.330   5.542
 9428SOL    HW129183   0.550   6.279   5.512
 9428SOL    HW229184   0.697   6.335   5.467
 9429SOL     OW29185   2.996   2.219   3.933
 9429SOL    HW129186   2.989   2.245   4.030
 9429SOL    HW229187   3.088   2.182   3.915
 9430SOL     OW29188   1.118   0.231   4.283
 9430SOL    HW129189   1.171   0.169   4.226
 9430SOL    HW229190   1.175   0.310   4.308
 9431SOL     OW29191   1.446   4.985   4.834
 9431SOL    HW129192   1.532   5.023   4.799
 9431SOL    HW229193   1.410   5.044   4.907
 9432SOL     OW29194   6.782   1.182   3.466
 9432SOL    HW129195   6.734   1.223   3.389
 9432SOL    HW229196   6.881   1.195   3.454
 9433SOL     OW29197   4.526   5.357   1.707
 9433SOL    HW129198   4.429   5.381   1.715
 9433SOL    HW229199   4.543   5.268   1.748
 9434SOL     OW29200   4.347   6.066   4.944
 9434SOL    HW129201   4.431   6.108   4.979
 9434SOL    HW229202   4.272   6.084   5.007
 9435SOL     OW29203   6.389   4.207   0.113
 9435SOL    HW129204   6.370   4.122   0.064
 9435SOL    HW229205   6.367   4.195   0.210
 9436SOL     OW29206   3.125   1.127   2.893
 9436SOL    HW129207   3.188   1.131   2.970
 9436SOL    HW229208   3.039   1.086   2.922
 9437SOL     OW29209   5.085   1.082   4.350
 9437SOL    HW129210   5.092   1.171   4.395
 9437SOL    HW229211   5.128   1.087   4.260
 9438SOL     OW29212   5.038   0.384   2.410
 9438SOL    HW129213   5.070   0.330   2.332
 9438SOL    HW229214   4.949   0.424   2.388
 9439SOL     OW29215   2.268   4.810   0.851
 9439SOL    HW129216   2.174   4.791   0.878
 9439SOL    HW229217   2.289   4.764   0.765
 9440SOL     OW29218   2.120   5.441   5.303
 9440SOL    HW129219   2.041   5.385   5.278
 9440SOL    HW229220   2.143   5.427   5.399
 9441SOL     OW29221   0.133   6.130   4.316
 9441SOL    HW129222   0.232   6.121   4.318
 9441SOL    HW229223   0.103   6.137   4.221
 9442SOL     OW29224   6.280   2.907   1.193
 9442SOL    HW129225   6.366   2.927   1.147
 9442SOL    HW229226   6.291   2.827   1.252
 9443SOL     OW29227   2.667   4.539   1.404
 9443SOL    HW129228   2.735   4.524   1.333
 9443SOL    HW229229   2.712   4.542   1.493
 9444SOL     OW29230   1.995   5.350   6.483
 9444SOL    HW129231   2.025   5.269   6.533
 9444SOL    HW229232   2.003   5.334   6.384
 9445SOL     OW29233   0.408   0.684   4.228
 9445SOL    HW129234   0.418   0.605   4.168
 9445SOL    HW229235   0.443   0.662   4.319
 9446SOL     OW29236   5.729   4.924   4.543
 9446SOL    HW129237   5.676   4.847   4.506
 9446SOL    HW229238   5.666   4.994   4.577
 9447SOL     OW29239   5.657   5.381   1.908
 9447SOL    HW129240   5.686   5.429   1.991
 9447SOL    HW229241   5.714   5.300   1.896
 9448SOL     OW29242   4.998   2.370   6.781
 9448SOL    HW129243   5.088   2.402   6.749
 9448SOL    HW229244   5.011   2.303   6.854
 9449SOL     OW29245   4.961   6.231   2.726
 9449SOL    HW129246   4.944   6.231   2.824
 9449SOL    HW229247   5.058   6.213   2.709
 9450SOL     OW29248   0.987   0.433   2.300
 9450SOL    HW129249   0.972   0.493   2.221
 9450SOL    HW229250   1.085   0.426   2.318
 9451SOL     OW29251   4.028   5.268   0.378
 9451SOL    HW129252   4.084   5.226   0.450
 9451SOL    HW229253   3.952   5.207   0.355
 9452SOL     OW29254   6.014   3.684   6.208
 9452SOL    HW129255   5.964   3.747   6.267
 9452SOL    HW229256   6.003   3.590   6.241
 9453SOL     OW29257   6.965   4.997   2.319
 9453SOL    HW129258   6.992   5.006   2.223
 9453SOL    HW229259   0.010   5.031   2.378
 9454SOL     OW29260   5.191   5.378   0.324
 9454SOL    HW129261   5.123   5.451   0.333
 9454SOL    HW229262   5.278   5.409   0.361
 9455SOL     OW29263   4.471   0.547   1.448
 9455SOL    HW129264   4.519   0.633   1.464
 9455SOL    HW229265   4.526   0.489   1.388
 9456SOL     OW29266   6.874   2.632   2.561
 9456SOL    HW129267   6.901   2.712   2.616
 9456SOL    HW229268   6.862   2.659   2.466
 9457SOL     OW29269   6.588   6.523   4.426
 9457SOL    HW129270   6.553   6.466   4.351
 9457SOL    HW229271   6.661   6.581   4.392
 9458SOL     OW29272   6.483   3.726   0.206
 9458SOL    HW129273   6.561   3.782   0.236
 9458SOL    HW229274   6.418   3.717   0.282
 9459SOL     OW29275   5.351   4.545   5.079
 9459SOL    HW129276   5.408   4.463   5.073
 9459SOL    HW229277   5.262   4.527   5.038
 9460SOL     OW29278   1.869   2.865   3.000
 9460SOL    HW129279   1.906   2.795   2.940
 9460SOL    HW229280   1.923   2.949   2.991
 9461SOL     OW29281   2.752   1.777   1.711
 9461SOL    HW129282   2.795   1.792   1.622
 9461SOL    HW229283   2.703   1.690   1.710
 9462SOL     OW29284   0.020   1.430   5.677
 9462SOL    HW129285   6.980   1.422   5.749
 9462SOL    HW229286   0.080   1.350   5.679
 9463SOL     OW29287   6.748   4.867   0.748
 9463SOL    HW129288   6.837   4.911   0.757
 9463SOL    HW229289   6.713   4.880   0.655
 9464SOL     OW29290   1.410   6.907   1.708
 9464SOL    HW129291   1.334   6.844   1.695
 9464SOL    HW229292   1.495   6.856   1.718
 9465SOL     OW29293   6.582   5.795   0.517
 9465SOL    HW129294   6.535   5.708   0.533
 9465SOL    HW229295   6.552   5.833   0.429
 9466SOL     OW29296   4.332   3.973   5.630
 9466SOL    HW129297   4.367   3.904   5.692
 9466SOL    HW229298   4.235   3.954   5.611
 9467SOL     OW29299   1.246   3.877   0.958
 9467SOL    HW129300   1.232   3.800   1.020
 9467SOL    HW229301   1.265   3.960   1.012
 9468SOL     OW29302   6.066   1.496   1.196
 9468SOL    HW129303   5.978   1.455   1.220
 9468SOL    HW229304   6.125   1.497   1.276
 9469SOL     OW29305   6.527   6.879   2.045
 9469SOL    HW129306   6.596   6.876   1.973
 9469SOL    HW229307   6.494   6.972   2.057
 9470SOL     OW29308   3.144   2.793   0.925
 9470SOL    HW129309   3.229   2.743   0.909
 9470SOL    HW229310   3.093   2.749   0.998
 9471SOL     OW29311   6.294   3.165   4.475
 9471SOL    HW129312   6.290   3.222   4.557
 9471SOL    HW229313   6.260   3.074   4.496
 9472SOL     OW29314   2.185   3.407   6.591
 9472SOL    HW129315   2.161   3.344   6.517
 9472SOL    HW229316   2.142   3.377   6.675
 9473SOL     OW29317   2.775   3.433   1.546
 9473SOL    HW129318   2.754   3.474   1.458
 9473SOL    HW229319   2.692   3.430   1.603
 9474SOL     OW29320   5.790   4.342   0.651
 9474SOL    HW129321   5.767   4.357   0.747
 9474SOL    HW229322   5.776   4.245   0.628
 9475SOL     OW29323   6.045   3.656   6.632
 9475SOL    HW129324   6.097   3.576   6.661
 9475SOL    HW229325   5.984   3.631   6.557
 9476SOL     OW29326   4.167   3.914   0.854
 9476SOL    HW129327   4.130   3.914   0.947
 9476SOL    HW229328   4.181   4.009   0.824
 9477SOL     OW29329   1.475   4.989   0.465
 9477SOL    HW129330   1.405   4.995   0.536
 9477SOL    HW229331   1.452   5.050   0.390
 9478SOL     OW29332   6.821   3.135   5.533
 9478SOL    HW129333   6.829   3.204   5.604
 9478SOL    HW229334   6.904   3.134   5.477
 9479SOL     OW29335   4.224   0.726   1.951
 9479SOL    HW129336   4.307   0.704   2.002
 9479SOL    HW229337   4.229   0.820   1.918
 9480SOL     OW29338   5.869   0.011   0.982
 9480SOL    HW129339   5.807   0.022   0.904
 9480SOL    HW229340   5.963   0.023   0.951
 9481SOL     OW29341   4.756   0.094   3.476
 9481SOL    HW129342   4.778   0.125   3.384
 9481SOL    HW229343   4.657   0.080   3.483
 9482SOL     OW29344   6.019   4.592   5.284
 9482SOL    HW129345   6.092   4.627   5.343
 9482SOL    HW229346   6.056   4.572   5.193
 9483SOL     OW29347   5.987   4.781   6.828
 9483SOL    HW129348   6.048   4.714   6.871
 9483SOL    HW229349   5.972   4.857   6.892
 9484SOL     OW29350   1.807   6.496   4.038
 9484SOL    HW129351   1.729   6.466   4.093
 9484SOL    HW229352   1.836   6.421   3.978
 9485SOL     OW29353   0.345   1.092   5.037
 9485SOL    HW129354   0.384   1.179   5.005
 9485SOL    HW229355   0.252   1.082   5.000
 9486SOL     OW29356   6.605   5.651   0.156
 9486SOL    HW129357   6.543   5.591   0.107
 9486SOL    HW229358   6.553   5.724   0.200
 9487SOL     OW29359   3.234   3.484   3.428
 9487SOL    HW129360   3.327   3.504   3.459
 9487SOL    HW229361   3.180   3.451   3.505
 9488SOL     OW29362   1.583   1.089   2.026
 9488SOL    HW129363   1.612   1.045   1.941
 9488SOL    HW229364   1.569   1.186   2.010
 9489SOL     OW29365   6.615   4.473   6.942
 9489SOL    HW129366   6.589   4.439   6.852
 9489SOL    HW229367   6.644   4.397   6.999
 9490SOL     OW29368   5.741   3.690   4.754
 9490SOL    HW129369   5.650   3.731   4.755
 9490SOL    HW229370   5.788   3.717   4.670
 9491SOL     OW29371   5.373   0.261   2.441
 9491SOL    HW129372   5.354   0.318   2.361
 9491SOL    HW229373   5.342   0.307   2.524
 9492SOL     OW29374   4.678   2.741   4.122
 9492SOL    HW129375   4.772   2.748   4.089
 9492SOL    HW229376   4.665   2.804   4.199
 9493SOL     OW29377   3.041   6.096   2.279
 9493SOL    HW129378   2.999   6.152   2.207
 9493SOL    HW229379   3.041   6.000   2.251
 9494SOL     OW29380   4.800   2.814   2.454
 9494SOL    HW129381   4.753   2.776   2.374
 9494SOL    HW229382   4.808   2.913   2.443
 9495SOL     OW29383   5.194   3.210   1.213
 9495SOL    HW129384   5.223   3.122   1.174
 9495SOL    HW229385   5.142   3.194   1.297
 9496SOL     OW29386   5.783   3.083   1.414
 9496SOL    HW129387   5.773   2.984   1.403
 9496SOL    HW229388   5.862   3.114   1.361
 9497SOL     OW29389   5.044   4.630   5.275
 9497SOL    HW129390   4.951   4.649   5.307
 9497SOL    HW229391   5.108   4.642   5.350
 9498SOL     OW29392   0.848   5.566   5.984
 9498SOL    HW129393   0.873   5.623   6.062
 9498SOL    HW229394   0.771   5.608   5.935
 9499SOL     OW29395   5.335   6.376   4.128
 9499SOL    HW129396   5.308   6.292   4.080
 9499SOL    HW229397   5.433   6.393   4.113
 9500SOL     OW29398   3.024   1.447   0.751
 9500SOL    HW129399   2.940   1.405   0.786
 9500SOL    HW229400   3.024   1.444   0.652
 9501SOL     OW29401   1.662   3.529   5.171
 9501SOL    HW129402   1.733   3.472   5.132
 9501SOL    HW229403   1.634   3.492   5.260
 9502SOL     OW29404   5.516   4.919   3.403
 9502SOL    HW129405   5.493   4.822   3.409
 9502SOL    HW229406   5.481   4.967   3.484
 9503SOL     OW29407   5.659   1.324   0.338
 9503SOL    HW129408   5.675   1.301   0.434
 9503SOL    HW229409   5.721   1.397   0.310
 9504SOL     OW29410   6.262   5.745   2.523
 9504SOL    HW129411   6.312   5.766   2.439
 9504SOL    HW229412   6.166   5.773   2.513
 9505SOL     OW29413   4.681   3.326   6.621
 9505SOL    HW129414   4.777   3.331   6.595
 9505SOL    HW229415   4.631   3.267   6.557
 9506SOL     OW29416   3.011   1.577   1.892
 9506SOL    HW129417   3.095   1.538   1.855
 9506SOL    HW229418   3.008   1.675   1.872
 9507SOL     OW29419   0.076   6.149   1.148
 9507SOL    HW129420   0.140   6.225   1.135
 9507SOL    HW229421   0.092   6.106   1.236
 9508SOL     OW29422   5.293   1.165   1.897
 9508SOL    HW129423   5.304   1.257   1.934
 9508SOL    HW229424   5.235   1.169   1.816
 9509SOL     OW29425   5.989   1.591   4.051
 9509SOL    HW129426   6.001   1.604   3.953
 9509SOL    HW229427   5.894   1.565   4.070
 9510SOL     OW29428   1.568   3.330   2.774
 9510SOL    HW129429   1.662   3.362   2.776
 9510SOL    HW229430   1.518   3.377   2.701
 9511SOL     OW29431   1.082   1.850   1.353
 9511SOL    HW129432   1.030   1.774   1.392
 9511SOL    HW229433   1.024   1.904   1.293
 9512SOL     OW29434   6.476   2.344   1.525
 9512SOL    HW129435   6.515   2.432   1.500
 9512SOL    HW229436   6.485   2.329   1.623
 9513SOL     OW29437   4.795   4.071   5.108
 9513SOL    HW129438   4.810   4.031   5.198
 9513SOL    HW229439   4.727   4.145   5.115
 9514SOL     OW29440   3.891   2.983   1.452
 9514SOL    HW129441   3.798   3.005   1.422
 9514SOL    HW229442   3.913   3.036   1.534
 9515SOL     OW29443   6.925   5.930   2.777
 9515SOL    HW129444   6.892   6.024   2.786
 9515SOL    HW229445   6.873   5.871   2.839
 9516SOL     OW29446   0.162   4.088   5.737
 9516SOL    HW129447   0.226   4.020   5.773
 9516SOL    HW229448   0.187   4.179   5.771
 9517SOL     OW29449   1.335   5.684   1.797
 9517SOL    HW129450   1.435   5.682   1.796
 9517SOL    HW229451   1.304   5.764   1.848
 9518SOL     OW29452   0.886   0.820   1.116
 9518SOL    HW129453   0.842   0.734   1.093
 9518SOL    HW229454   0.852   0.853   1.204
 9519SOL     OW29455   1.761   2.336   5.583
 9519SOL    HW129456   1.674   2.330   5.633
 9519SOL    HW229457   1.807   2.421   5.606
 9520SOL     OW29458   4.599   6.895   1.564
 9520SOL    HW129459   4.525   6.841   1.603
 9520SOL    HW229460   4.642   6.950   1.635
 9521SOL     OW29461   5.336   4.500   2.883
 9521SOL    HW129462   5.332   4.411   2.836
 9521SOL    HW229463   5.398   4.492   2.961
 9522SOL     OW29464   3.039   5.130   5.644
 9522SOL    HW129465   2.985   5.159   5.565
 9522SOL    HW229466   3.112   5.069   5.614
 9523SOL     OW29467   1.871   6.973   5.129
 9523SOL    HW129468   1.935   7.017   5.066
 9523SOL    HW229469   1.900   6.878   5.145
 9524SOL     OW29470   5.960   3.377   0.079
 9524SOL    HW129471   5.919   3.324   0.152
 9524SOL    HW229472   6.054   3.400   0.103
 9525SOL     OW29473   3.828   0.476   4.609
 9525SOL    HW129474   3.799   0.445   4.519
 9525SOL    HW229475   3.856   0.572   4.604
 9526SOL     OW29476   5.067   5.188   0.576
 9526SOL    HW129477   5.121   5.104   0.572
 9526SOL    HW229478   5.015   5.189   0.662
 9527SOL     OW29479   0.145   2.273   0.317
 9527SOL    HW129480   0.233   2.232   0.291
 9527SOL    HW229481   0.110   2.227   0.399
 9528SOL     OW29482   6.499   1.089   1.854
 9528SOL    HW129483   6.573   1.080   1.788
 9528SOL    HW229484   6.535   1.074   1.946
 9529SOL     OW29485   1.933   2.155   5.490
 9529SOL    HW129486   1.856   2.210   5.523
 9529SOL    HW229487   2.019   2.204   5.505
 9530SOL     OW29488   2.467   1.108   3.936
 9530SOL    HW129489   2.546   1.108   3.875
 9530SOL    HW229490   2.430   1.016   3.943
 9531SOL     OW29491   2.711   6.672   3.788
 9531SOL    HW129492   2.782   6.742   3.798
 9531SOL    HW229493   2.688   6.634   3.877
 9532SOL     OW29494   3.271   1.468   1.803
 9532SOL    HW129495   3.276   1.503   1.897
 9532SOL    HW229496   3.363   1.452   1.769
 9533SOL     OW29497   0.230   1.805   4.239
 9533SOL    HW129498   0.209   1.872   4.168
 9533SOL    HW229499   0.151   1.796   4.300
 9534SOL     OW29500   5.792   1.535   4.232
 9534SOL    HW129501   5.718   1.600   4.216
 9534SOL    HW229502   5.876   1.584   4.254
 9535SOL     OW29503   2.859   1.474   4.820
 9535SOL    HW129504   2.768   1.513   4.808
 9535SOL    HW229505   2.857   1.376   4.800
 9536SOL     OW29506   2.116   6.313   6.451
 9536SOL    HW129507   2.180   6.386   6.477
 9536SOL    HW229508   2.054   6.294   6.527
 9537SOL     OW29509   1.676   0.798   0.435
 9537SOL    HW129510   1.707   0.731   0.502
 9537SOL    HW229511   1.753   0.827   0.377
 9538SOL     OW29512   6.015   3.961   2.596
 9538SOL    HW129513   5.982   4.053   2.579
 9538SOL    HW229514   6.067   3.959   2.681
 9539SOL     OW29515   0.291   3.576   6.886
 9539SOL    HW129516   0.215   3.515   6.906
 9539SOL    HW229517   0.259   3.671   6.884
 9540SOL     OW29518   5.794   3.449   5.666
 9540SOL    HW129519   5.858   3.381   5.701
 9540SOL    HW229520   5.702   3.409   5.662
 9541SOL     OW29521   6.402   2.161   3.523
 9541SOL    HW129522   6.334   2.162   3.450
 9541SOL    HW229523   6.435   2.067   3.536
 9542SOL     OW29524   4.910   4.032   4.429
 9542SOL    HW129525   4.813   4.050   4.446
 9542SOL    HW229526   4.937   3.949   4.477
 9543SOL     OW29527   3.967   2.155   0.639
 9543SOL    HW129528   4.023   2.217   0.694
 9543SOL    HW229529   3.872   2.186   0.641
 9544SOL     OW29530   5.110   0.465   1.201
 9544SOL    HW129531   5.056   0.548   1.187
 9544SOL    HW229532   5.203   0.481   1.169
 9545SOL     OW29533   1.416   0.094   4.647
 9545SOL    HW129534   1.322   0.103   4.614
 9545SOL    HW229535   1.475   0.159   4.600
 9546SOL     OW29536   2.677   4.184   1.686
 9546SOL    HW129537   2.617   4.209   1.762
 9546SOL    HW229538   2.642   4.102   1.641
 9547SOL     OW29539   5.342   6.301   2.935
 9547SOL    HW129540   5.257   6.346   2.963
 9547SOL    HW229541   5.388   6.263   3.016
 9548SOL     OW29542   5.484   6.643   2.283
 9548SOL    HW129543   5.583   6.654   2.284
 9548SOL    HW229544   5.448   6.669   2.193
 9549SOL     OW29545   1.992   5.405   0.053
 9549SOL    HW129546   1.929   5.482   0.048
 9549SOL    HW229547   2.079   5.430   0.010
 9550SOL     OW29548   1.919   0.792   0.311
 9550SOL    HW129549   1.903   0.866   0.246
 9550SOL    HW229550   2.017   0.785   0.330
 9551SOL     OW29551   1.467   5.780   5.108
 9551SOL    HW129552   1.375   5.773   5.148
 9551SOL    HW229553   1.528   5.717   5.156
 9552SOL     OW29554   6.861   5.545   2.613
 9552SOL    HW129555   6.771   5.586   2.630
 9552SOL    HW229556   6.856   5.487   2.532
 9553SOL     OW29557   5.485   4.340   6.416
 9553SOL    HW129558   5.515   4.270   6.351
 9553SOL    HW229559   5.542   4.421   6.407
 9554SOL     OW29560   2.063   2.122   2.272
 9554SOL    HW129561   2.151   2.120   2.225
 9554SOL    HW229562   1.992   2.084   2.213
 9555SOL     OW29563   6.570   2.449   6.406
 9555SOL    HW129564   6.632   2.500   6.346
 9555SOL    HW229565   6.511   2.514   6.454
 9556SOL     OW29566   6.357   0.784   0.993
 9556SOL    HW129567   6.454   0.763   1.002
 9556SOL    HW229568   6.346   0.876   0.955
 9557SOL     OW29569   4.873   1.322   1.668
 9557SOL    HW129570   4.895   1.255   1.739
 9557SOL    HW229571   4.957   1.354   1.625
 9558SOL     OW29572   6.905   3.943   1.146
 9558SOL    HW129573   6.905   3.992   1.058
 9558SOL    HW229574   6.820   3.891   1.156
 9559SOL     OW29575   0.504   4.517   2.860
 9559SOL    HW129576   0.595   4.476   2.852
 9559SOL    HW229577   0.449   4.463   2.924
 9560SOL     OW29578   3.659   1.931   5.801
 9560SOL    HW129579   3.574   1.907   5.755
 9560SOL    HW229580   3.681   1.861   5.869
 9561SOL     OW29581   3.455   4.895   0.166
 9561SOL    HW129582   3.554   4.881   0.167
 9561SOL    HW229583   3.420   4.874   0.075
 9562SOL     OW29584   6.613   5.481   4.084
 9562SOL    HW129585   6.681   5.472   4.156
 9562SOL    HW229586   6.636   5.560   4.026
 9563SOL     OW29587   0.719   6.980   6.564
 9563SOL    HW129588   0.692   0.013   6.638
 9563SOL    HW229589   0.655   6.988   6.488
 9564SOL     OW29590   0.866   0.744   5.928
 9564SOL    HW129591   0.947   0.719   5.876
 9564SOL    HW229592   0.812   0.662   5.949
 9565SOL     OW29593   2.862   5.852   5.540
 9565SOL    HW129594   2.900   5.760   5.545
 9565SOL    HW229595   2.763   5.846   5.526
 9566SOL     OW29596   2.617   5.957   5.097
 9566SOL    HW129597   2.710   5.982   5.068
 9566SOL    HW229598   2.554   5.967   5.020
 9567SOL     OW29599   5.525   5.099   4.700
 9567SOL    HW129600   5.572   5.147   4.774
 9567SOL    HW229601   5.438   5.062   4.735
 9568SOL     OW29602   5.943   3.389   5.454
 9568SOL    HW129603   5.881   3.429   5.522
 9568SOL    HW229604   5.952   3.453   5.376
 9569SOL     OW29605   5.326   6.773   1.540
 9569SOL    HW129606   5.372   6.843   1.593
 9569SOL    HW229607   5.281   6.815   1.461
 9570SOL     OW29608   0.622   2.368   6.939
 9570SOL    HW129609   0.706   2.418   6.914
 9570SOL    HW229610   0.580   2.331   6.856
 9571SOL     OW29611   3.846   1.907   0.106
 9571SOL    HW129612   3.944   1.894   0.124
 9571SOL    HW229613   3.814   1.989   0.153
 9572SOL     OW29614   0.718   3.990   0.925
 9572SOL    HW129615   0.805   4.008   0.879
 9572SOL    HW229616   0.734   3.925   1.001
 9573SOL     OW29617   5.003   2.317   2.034
 9573SOL    HW129618   5.012   2.338   2.131
 9573SOL    HW229619   4.907   2.295   2.014
 9574SOL     OW29620   2.556   1.558   3.858
 9574SOL    HW129621   2.623   1.527   3.790
 9574SOL    HW229622   2.527   1.480   3.914
 9575SOL     OW29623   3.209   1.400   3.008
 9575SOL    HW129624   3.208   1.498   2.989
 9575SOL    HW229625   3.227   1.349   2.923
 9576SOL     OW29626   3.935   3.558   5.683
 9576SOL    HW129627   3.887   3.511   5.609
 9576SOL    HW229628   4.031   3.570   5.658
 9577SOL     OW29629   0.398   4.976   3.497
 9577SOL    HW129630   0.361   4.982   3.589
 9577SOL    HW229631   0.455   4.895   3.489
 9578SOL     OW29632   6.888   4.222   1.286
 9578SOL    HW129633   6.878   4.130   1.250
 9578SOL    HW229634   6.961   4.224   1.354
 9579SOL     OW29635   1.897   4.541   2.960
 9579SOL    HW129636   1.820   4.567   2.901
 9579SOL    HW229637   1.862   4.495   3.042
 9580SOL     OW29638   4.217   3.825   5.314
 9580SOL    HW129639   4.211   3.744   5.371
 9580SOL    HW229640   4.312   3.856   5.310
 9581SOL     OW29641   1.669   6.541   6.049
 9581SOL    HW129642   1.606   6.542   5.971
 9581SOL    HW229643   1.725   6.459   6.044
 9582SOL     OW29644   3.692   6.085   3.278
 9582SOL    HW129645   3.604   6.093   3.325
 9582SOL    HW229646   3.766   6.088   3.346
 9583SOL     OW29647   1.301   4.832   2.069
 9583SOL    HW129648   1.250   4.850   2.153
 9583SOL    HW229649   1.284   4.905   2.003
 9584SOL     OW29650   5.294   4.159   6.694
 9584SOL    HW129651   5.200   4.155   6.661
 9584SOL    HW229652   5.346   4.225   6.638
 9585SOL     OW29653   5.994   1.352   3.107
 9585SOL    HW129654   6.047   1.284   3.057
 9585SOL    HW229655   5.913   1.308   3.148
 9586SOL     OW29656   4.742   4.120   2.449
 9586SOL    HW129657   4.828   4.154   2.410
 9586SOL    HW229658   4.718   4.033   2.406
 9587SOL     OW29659   4.478   6.070   1.815
 9587SOL    HW129660   4.540   6.142   1.783
 9587SOL    HW229661   4.406   6.055   1.747
 9588SOL     OW29662   5.763   1.319   3.712
 9588SOL    HW129663   5.718   1.245   3.663
 9588SOL    HW229664   5.832   1.361   3.652
 9589SOL     OW29665   3.985   1.990   5.316
 9589SOL    HW129666   3.941   1.971   5.404
 9589SOL    HW229667   3.963   1.917   5.251
 9590SOL     OW29668   6.994   4.822   4.513
 9590SOL    HW129669   0.050   4.857   4.473
 9590SOL    HW229670   6.967   4.738   4.467
 9591SOL     OW29671   6.688   4.472   2.511
 9591SOL    HW129672   6.752   4.403   2.544
 9591SOL    HW229673   6.648   4.443   2.424
 9592SOL     OW29674   4.120   5.735   0.394
 9592SOL    HW129675   4.168   5.782   0.468
 9592SOL    HW229676   4.064   5.661   0.432
 9593SOL     OW29677   2.104   2.214   3.605
 9593SOL    HW129678   2.146   2.257   3.686
 9593SOL    HW229679   2.005   2.209   3.618
 9594SOL     OW29680   5.718   0.077   1.210
 9594SOL    HW129681   5.741   0.173   1.199
 9594SOL    HW229682   5.750   0.025   1.130
 9595SOL     OW29683   2.364   5.079   5.555
 9595SOL    HW129684   2.409   5.146   5.496
 9595SOL    HW229685   2.434   5.023   5.600
 9596SOL     OW29686   5.810   5.061   2.205
 9596SOL    HW129687   5.733   5.061   2.268
 9596SOL    HW229688   5.865   4.979   2.219
 9597SOL     OW29689   2.102   4.552   1.722
 9597SOL    HW129690   2.057   4.589   1.803
 9597SOL    HW229691   2.202   4.554   1.735
 9598SOL     OW29692   0.855   6.061   5.621
 9598SOL    HW129693   0.835   6.083   5.526
 9598SOL    HW229694   0.845   5.962   5.635
 9599SOL     OW29695   3.651   1.850   5.399
 9599SOL    HW129696   3.715   1.798   5.457
 9599SOL    HW229697   3.594   1.787   5.347
 9600SOL     OW29698   1.305   6.049   6.811
 9600SOL    HW129699   1.212   6.038   6.846
 9600SOL    HW229700   1.326   6.146   6.802
 9601SOL     OW29701   1.522   6.877   4.760
 9601SOL    HW129702   1.601   6.858   4.703
 9601SOL    HW229703   1.470   6.953   4.720
 9602SOL     OW29704   1.210   5.529   6.357
 9602SOL    HW129705   1.136   5.590   6.332
 9602SOL    HW229706   1.253   5.561   6.441
 9603SOL     OW29707   0.946   5.437   1.712
 9603SOL    HW129708   0.982   5.403   1.625
 9603SOL    HW229709   1.022   5.465   1.771
 9604SOL     OW29710   6.819   0.544   6.356
 9604SOL    HW129711   6.740   0.575   6.302
 9604SOL    HW229712   6.893   0.611   6.347
 9605SOL     OW29713   3.792   4.664   0.804
 9605SOL    HW129714   3.693   4.679   0.795
 9605SOL    HW229715   3.809   4.569   0.830
 9606SOL     OW29716   0.148   1.390   5.267
 9606SOL    HW129717   0.230   1.436   5.233
 9606SOL    HW229718   0.106   1.337   5.193
 9607SOL     OW29719   6.907   2.773   4.050
 9607SOL    HW129720   6.925   2.781   3.952
 9607SOL    HW229721   6.965   2.702   4.089
 9608SOL     OW29722   6.177   0.932   1.715
 9608SOL    HW129723   6.204   0.860   1.652
 9608SOL    HW229724   6.242   0.936   1.791
 9609SOL     OW29725   1.306   2.186   4.678
 9609SOL    HW129726   1.403   2.170   4.698
 9609SOL    HW229727   1.250   2.139   4.746
 9610SOL     OW29728   5.134   0.813   5.867
 9610SOL    HW129729   5.041   0.849   5.858
 9610SOL    HW229730   5.172   0.840   5.955
 9611SOL     OW29731   4.663   5.471   0.994
 9611SOL    HW129732   4.752   5.510   1.017
 9611SOL    HW229733   4.658   5.377   1.028
 9612SOL     OW29734   5.672   4.107   3.514
 9612SOL    HW129735   5.603   4.041   3.486
 9612SOL    HW229736   5.638   4.159   3.593
 9613SOL     OW29737   5.242   0.514   4.732
 9613SOL    HW129738   5.315   0.495   4.668
 9613SOL    HW229739   5.268   0.483   4.824
 9614SOL     OW29740   2.821   2.555   0.366
 9614SOL    HW129741   2.744   2.549   0.430
 9614SOL    HW229742   2.898   2.501   0.401
 9615SOL     OW29743   6.860   5.893   3.689
 9615SOL    HW129744   6.790   5.945   3.739
 9615SOL    HW229745   6.837   5.796   3.691
 9616SOL     OW29746   0.976   2.281   0.935
 9616SOL    HW129747   0.929   2.314   0.853
 9616SOL    HW229748   0.994   2.358   0.996
 9617SOL     OW29749   0.111   3.117   3.927
 9617SOL    HW129750   0.190   3.170   3.897
 9617SOL    HW229751   0.110   3.029   3.879
 9618SOL     OW29752   5.203   3.690   1.904
 9618SOL    HW129753   5.155   3.752   1.843
 9618SOL    HW229754   5.142   3.615   1.931
 9619SOL     OW29755   1.109   0.587   0.839
 9619SOL    HW129756   1.127   0.672   0.790
 9619SOL    HW229757   1.177   0.575   0.911
 9620SOL     OW29758   4.103   0.812   6.369
 9620SOL    HW129759   4.156   0.892   6.342
 9620SOL    HW229760   4.133   0.781   6.460
 9621SOL     OW29761   6.846   1.052   1.395
 9621SOL    HW129762   6.836   0.961   1.435
 9621SOL    HW229763   6.932   1.056   1.343
 9622SOL     OW29764   6.714   6.534   4.676
 9622SOL    HW129765   6.679   6.458   4.731
 9622SOL    HW229766   6.665   6.538   4.589
 9623SOL     OW29767   2.308   5.937   6.050
 9623SOL    HW129768   2.336   6.010   6.112
 9623SOL    HW229769   2.302   5.851   6.099
 9624SOL     OW29770   4.462   4.795   6.649
 9624SOL    HW129771   4.514   4.853   6.586
 9624SOL    HW229772   4.526   4.744   6.707
 9625SOL     OW29773   5.163   4.565   5.811
 9625SOL    HW129774   5.173   4.662   5.834
 9625SOL    HW229775   5.157   4.554   5.712
 9626SOL     OW29776   2.572   2.780   6.872
 9626SOL    HW129777   2.528   2.829   6.948
 9626SOL    HW229778   2.671   2.794   6.877
 9627SOL     OW29779   6.559   6.328   0.718
 9627SOL    HW129780   6.526   6.234   0.711
 9627SOL    HW229781   6.645   6.330   0.769
 9628SOL     OW29782   5.715   1.381   5.192
 9628SOL    HW129783   5.786   1.431   5.240
 9628SOL    HW229784   5.662   1.326   5.257
 9629SOL     OW29785   0.419   5.170   4.090
 9629SOL    HW129786   0.359   5.250   4.093
 9629SOL    HW229787   0.431   5.141   3.995
 9630SOL     OW29788   6.107   6.851   6.665
 9630SOL    HW129789   6.158   6.773   6.629
 9630SOL    HW229790   6.095   6.840   6.763
 9631SOL     OW29791   5.099   5.860   0.247
 9631SOL    HW129792   5.187   5.820   0.276
 9631SOL    HW229793   5.033   5.852   0.322
 9632SOL     OW29794   3.055   5.385   2.951
 9632SOL    HW129795   3.134   5.395   2.890
 9632SOL    HW229796   3.028   5.289   2.954
 9633SOL     OW29797   3.323   2.890   5.093
 9633SOL    HW129798   3.260   2.939   5.155
 9633SOL    HW229799   3.279   2.805   5.062
 9634SOL     OW29800   6.394   4.853   2.619
 9634SOL    HW129801   6.480   4.804   2.635
 9634SOL    HW229802   6.374   4.911   2.698
 9635SOL     OW29803   0.600   5.746   4.344
 9635SOL    HW129804   0.631   5.787   4.258
 9635SOL    HW229805   0.504   5.717   4.335
 9636SOL     OW29806   5.130   3.431   3.903
 9636SOL    HW129807   5.172   3.486   3.976
 9636SOL    HW229808   5.176   3.342   3.898
 9637SOL     OW29809   2.760   2.382   6.529
 9637SOL    HW129810   2.706   2.443   6.586
 9637SOL    HW229811   2.792   2.432   6.448
 9638SOL     OW29812   0.183   4.488   5.659
 9638SOL    HW129813   0.086   4.505   5.680
 9638SOL    HW229814   0.190   4.446   5.569
 9639SOL     OW29815   4.660   2.933   1.499
 9639SOL    HW129816   4.698   2.843   1.475
 9639SOL    HW229817   4.716   2.974   1.572
 9640SOL     OW29818   3.047   6.833   3.453
 9640SOL    HW129819   3.050   6.736   3.428
 9640SOL    HW229820   3.127   6.856   3.509
 9641SOL     OW29821   0.885   2.841   4.823
 9641SOL    HW129822   0.952   2.850   4.750
 9641SOL    HW229823   0.845   2.930   4.843
 9642SOL     OW29824   0.651   3.339   5.305
 9642SOL    HW129825   0.634   3.248   5.267
 9642SOL    HW229826   0.715   3.331   5.381
 9643SOL     OW29827   5.861   5.286   4.804
 9643SOL    HW129828   5.822   5.314   4.716
 9643SOL    HW229829   5.839   5.190   4.820
 9644SOL     OW29830   0.735   4.394   3.613
 9644SOL    HW129831   0.834   4.392   3.601
 9644SOL    HW229832   0.713   4.401   3.710
 9645SOL     OW29833   1.402   4.862   0.093
 9645SOL    HW129834   1.418   4.772   0.133
 9645SOL    HW229835   1.314   4.897   0.124
 9646SOL     OW29836   2.763   5.064   0.746
 9646SOL    HW129837   2.724   5.022   0.828
 9646SOL    HW229838   2.701   5.051   0.669
 9647SOL     OW29839   5.926   6.997   3.236
 9647SOL    HW129840   5.900   6.940   3.314
 9647SOL    HW229841   5.847   7.011   3.176
 9648SOL     OW29842   3.616   2.396   1.097
 9648SOL    HW129843   3.563   2.450   1.162
 9648SOL    HW229844   3.580   2.303   1.094
 9649SOL     OW29845   6.814   6.225   1.098
 9649SOL    HW129846   6.913   6.215   1.087
 9649SOL    HW229847   6.778   6.278   1.020
 9650SOL     OW29848   0.720   5.502   4.537
 9650SOL    HW129849   0.710   5.559   4.455
 9650SOL    HW229850   0.809   5.458   4.535
 9651SOL     OW29851   4.560   1.404   6.891
 9651SOL    HW129852   4.470   1.445   6.905
 9651SOL    HW229853   4.557   1.307   6.912
 9652SOL     OW29854   7.014   3.834   0.740
 9652SOL    HW129855   6.915   3.831   0.754
 9652SOL    HW229856   0.026   3.750   0.775
 9653SOL     OW29857   5.277   3.867   5.481
 9653SOL    HW129858   5.214   3.891   5.555
 9653SOL    HW229859   5.251   3.918   5.398
 9654SOL     OW29860   4.016   3.167   4.435
 9654SOL    HW129861   4.080   3.231   4.476
 9654SOL    HW229862   3.933   3.215   4.407
 9655SOL     OW29863   5.212   0.210   0.686
 9655SOL    HW129864   5.217   0.309   0.673
 9655SOL    HW229865   5.237   0.163   0.602
 9656SOL     OW29866   5.819   4.155   6.101
 9656SOL    HW129867   5.882   4.224   6.066
 9656SOL    HW229868   5.844   4.066   6.065
 9657SOL     OW29869   4.703   5.398   3.126
 9657SOL    HW129870   4.726   5.304   3.151
 9657SOL    HW229871   4.605   5.414   3.143
 9658SOL     OW29872   5.501   0.934   2.675
 9658SOL    HW129873   5.407   0.906   2.695
 9658SOL    HW229874   5.563   0.884   2.736
 9659SOL     OW29875   3.209   2.680   0.444
 9659SOL    HW129876   3.154   2.694   0.362
 9659SOL    HW229877   3.280   2.612   0.426
 9660SOL     OW29878   2.555   6.832   1.773
 9660SOL    HW129879   2.570   6.792   1.864
 9660SOL    HW229880   2.530   6.760   1.709
 9661SOL     OW29881   4.012   3.754   2.332
 9661SOL    HW129882   3.947   3.701   2.277
 9661SOL    HW229883   4.066   3.692   2.389
 9662SOL     OW29884   4.304   0.491   5.203
 9662SOL    HW129885   4.282   0.505   5.300
 9662SOL    HW229886   4.220   0.488   5.150
 9663SOL     OW29887   1.368   5.802   2.759
 9663SOL    HW129888   1.341   5.738   2.831
 9663SOL    HW229889   1.398   5.887   2.801
 9664SOL     OW29890   2.123   4.779   3.597
 9664SOL    HW129891   2.114   4.681   3.578
 9664SOL    HW229892   2.182   4.821   3.528
 9665SOL     OW29893   6.244   4.153   6.524
 9665SOL    HW129894   6.341   4.128   6.532
 9665SOL    HW229895   6.187   4.075   6.548
 9666SOL     OW29896   5.224   3.605   0.458
 9666SOL    HW129897   5.124   3.608   0.458
 9666SOL    HW229898   5.261   3.697   0.444
 9667SOL     OW29899   5.696   6.120   6.454
 9667SOL    HW129900   5.657   6.207   6.486
 9667SOL    HW229901   5.721   6.064   6.533
 9668SOL     OW29902   2.508   0.221   0.346
 9668SOL    HW129903   2.555   0.232   0.434
 9668SOL    HW229904   2.574   0.236   0.271
 9669SOL     OW29905   3.885   0.357   0.073
 9669SOL    HW129906   3.861   0.453   0.086
 9669SOL    HW229907   3.964   0.334   0.129
 9670SOL     OW29908   1.095   6.928   1.892
 9670SOL    HW129909   1.168   6.970   1.838
 9670SOL    HW229910   1.029   6.883   1.831
 9671SOL     OW29911   1.004   6.508   6.219
 9671SOL    HW129912   1.044   6.599   6.232
 9671SOL    HW229913   0.953   6.482   6.302
 9672SOL     OW29914   1.134   4.292   4.274
 9672SOL    HW129915   1.036   4.298   4.294
 9672SOL    HW229916   1.186   4.312   4.356
 9673SOL     OW29917   2.662   3.314   5.902
 9673SOL    HW129918   2.601   3.341   5.828
 9673SOL    HW229919   2.610   3.309   5.987
 9674SOL     OW29920   1.841   0.452   3.712
 9674SOL    HW129921   1.852   0.361   3.752
 9674SOL    HW229922   1.900   0.517   3.760
 9675SOL     OW29923   6.017   4.002   5.875
 9675SOL    HW129924   5.942   3.957   5.828
 9675SOL    HW229925   6.066   3.936   5.932
 9676SOL     OW29926   1.154   2.917   6.105
 9676SOL    HW129927   1.080   2.938   6.168
 9676SOL    HW229928   1.233   2.975   6.127
 9677SOL     OW29929   0.501   4.725   2.699
 9677SOL    HW129930   0.412   4.766   2.679
 9677SOL    HW229931   0.489   4.647   2.759
 9678SOL     OW29932   4.586   2.841   6.287
 9678SOL    HW129933   4.670   2.871   6.241
 9678SOL    HW229934   4.548   2.762   6.240
 9679SOL     OW29935   1.060   0.872   4.034
 9679SOL    HW129936   0.973   0.922   4.031
 9679SOL    HW229937   1.133   0.932   4.002
 9680SOL     OW29938   4.702   0.417   1.742
 9680SOL    HW129939   4.788   0.369   1.759
 9680SOL    HW229940   4.719   0.515   1.734
 9681SOL     OW29941   0.773   3.494   1.667
 9681SOL    HW129942   0.784   3.553   1.587
 9681SOL    HW229943   0.858   3.491   1.719
 9682SOL     OW29944   3.876   6.488   5.274
 9682SOL    HW129945   3.850   6.433   5.195
 9682SOL    HW229946   3.932   6.565   5.244
 9683SOL     OW29947   3.325   5.825   3.814
 9683SOL    HW129948   3.333   5.728   3.790
 9683SOL    HW229949   3.375   5.880   3.747
 9684SOL     OW29950   0.659   2.608   6.269
 9684SOL    HW129951   0.730   2.652   6.214
 9684SOL    HW229952   0.616   2.677   6.328
 9685SOL     OW29953   3.593   4.349   1.737
 9685SOL    HW129954   3.590   4.442   1.774
 9685SOL    HW229955   3.512   4.333   1.680
 9686SOL     OW29956   0.512   1.773   6.068
 9686SOL    HW129957   0.553   1.798   5.980
 9686SOL    HW229958   0.414   1.796   6.067
 9687SOL     OW29959   5.380   1.089   3.657
 9687SOL    HW129960   5.400   1.184   3.680
 9687SOL    HW229961   5.322   1.048   3.727
 9688SOL     OW29962   0.247   5.092   2.254
 9688SOL    HW129963   0.182   5.052   2.190
 9688SOL    HW229964   0.206   5.172   2.298
 9689SOL     OW29965   1.968   5.306   1.478
 9689SOL    HW129966   1.885   5.362   1.472
 9689SOL    HW229967   1.991   5.269   1.388
 9690SOL     OW29968   6.362   4.680   5.200
 9690SOL    HW129969   6.276   4.668   5.151
 9690SOL    HW229970   6.371   4.607   5.268
 9691SOL     OW29971   3.876   3.316   2.175
 9691SOL    HW129972   3.948   3.345   2.237
 9691SOL    HW229973   3.790   3.361   2.200
 9692SOL     OW29974   5.172   4.936   0.644
 9692SOL    HW129975   5.257   4.886   0.630
 9692SOL    HW229976   5.096   4.887   0.600
 9693SOL     OW29977   4.307   2.908   6.632
 9693SOL    HW129978   4.216   2.920   6.592
 9693SOL    HW229979   4.318   2.971   6.709
 9694SOL     OW29980   2.570   6.489   1.002
 9694SOL    HW129981   2.546   6.511   1.097
 9694SOL    HW229982   2.489   6.457   0.953
 9695SOL     OW29983   1.924   2.799   3.696
 9695SOL    HW129984   1.879   2.849   3.623
 9695SOL    HW229985   1.881   2.822   3.784
 9696SOL     OW29986   4.963   3.493   3.325
 9696SOL    HW129987   4.921   3.553   3.393
 9696SOL    HW229988   5.018   3.423   3.372
 9697SOL     OW29989   6.726   6.879   1.856
 9697SOL    HW129990   6.762   6.813   1.922
 9697SOL    HW229991   6.689   6.831   1.776
 9698SOL     OW29992   6.922   3.433   2.070
 9698SOL    HW129993   6.887   3.342   2.091
 9698SOL    HW229994   6.847   3.500   2.080
 9699SOL     OW29995   1.964   6.727   1.939
 9699SOL    HW129996   1.888   6.717   2.003
 9699SOL    HW229997   2.028   6.796   1.973
 9700SOL     OW29998   6.513   0.536   5.756
 9700SOL    HW129999   6.586   0.474   5.785
 9700SOL    HW230000   6.436   0.530   5.819
 9701SOL     OW30001   5.229   3.685   6.632
 9701SOL    HW130002   5.143   3.730   6.653
 9701SOL    HW230003   5.222   3.638   6.544
 9702SOL     OW30004   3.267   3.987   1.623
 9702SOL    HW130005   3.354   3.939   1.608
 9702SOL    HW230006   3.191   3.924   1.609
 9703SOL     OW30007   6.176   5.464   2.893
 9703SOL    HW130008   6.189   5.488   2.797
 9703SOL    HW230009   6.239   5.517   2.949
 9704SOL     OW30010   0.743   4.412   2.179
 9704SOL    HW130011   0.653   4.390   2.143
 9704SOL    HW230012   0.752   4.511   2.190
 9705SOL     OW30013   6.913   3.830   5.629
 9705SOL    HW130014   6.956   3.740   5.638
 9705SOL    HW230015   6.983   3.899   5.612
 9706SOL     OW30016   1.457   6.340   2.002
 9706SOL    HW130017   1.454   6.295   1.913
 9706SOL    HW230018   1.391   6.415   2.003
 9707SOL     OW30019   1.141   5.366   2.311
 9707SOL    HW130020   1.205   5.432   2.271
 9707SOL    HW230021   1.095   5.408   2.389
 9708SOL     OW30022   2.316   1.499   2.132
 9708SOL    HW130023   2.304   1.417   2.077
 9708SOL    HW230024   2.408   1.499   2.172
 9709SOL     OW30025   4.614   1.524   1.865
 9709SOL    HW130026   4.601   1.535   1.766
 9709SOL    HW230027   4.550   1.455   1.899
 9710SOL     OW30028   4.714   4.159   4.222
 9710SOL    HW130029   4.660   4.231   4.266
 9710SOL    HW230030   4.693   4.071   4.265
 9711SOL     OW30031   2.758   0.805   6.917
 9711SOL    HW130032   2.830   0.823   6.850
 9711SOL    HW230033   2.674   0.851   6.890
 9712SOL     OW30034   4.920   6.883   5.193
 9712SOL    HW130035   4.960   6.802   5.235
 9712SOL    HW230036   4.911   6.868   5.095
 9713SOL     OW30037   1.221   0.575   2.775
 9713SOL    HW130038   1.154   0.512   2.815
 9713SOL    HW230039   1.208   0.667   2.813
 9714SOL     OW30040   2.185   2.480   4.227
 9714SOL    HW130041   2.120   2.541   4.182
 9714SOL    HW230042   2.276   2.521   4.226
 9715SOL     OW30043   0.131   2.009   6.031
 9715SOL    HW130044   0.095   2.076   6.096
 9715SOL    HW230045   0.153   1.924   6.079
 9716SOL     OW30046   1.966   6.644   0.897
 9716SOL    HW130047   1.964   6.640   0.797
 9716SOL    HW230048   2.059   6.667   0.928
 9717SOL     OW30049   3.725   2.534   6.479
 9717SOL    HW130050   3.819   2.560   6.501
 9717SOL    HW230051   3.692   2.591   6.404
 9718SOL     OW30052   3.260   2.275   6.397
 9718SOL    HW130053   3.351   2.285   6.356
 9718SOL    HW230054   3.262   2.312   6.490
 9719SOL     OW30055   3.968   6.966   5.281
 9719SOL    HW130056   3.894   6.942   5.343
 9719SOL    HW230057   3.936   0.008   5.217
 9720SOL     OW30058   1.703   2.768   2.187
 9720SOL    HW130059   1.641   2.705   2.142
 9720SOL    HW230060   1.760   2.718   2.252
 9721SOL     OW30061   0.961   2.318   1.769
 9721SOL    HW130062   0.917   2.294   1.856
 9721SOL    HW230063   0.898   2.373   1.715
 9722SOL     OW30064   3.571   2.694   5.280
 9722SOL    HW130065   3.479   2.653   5.277
 9722SOL    HW230066   3.568   2.785   5.238
 9723SOL     OW30067   5.799   0.122   4.889
 9723SOL    HW130068   5.879   0.162   4.933
 9723SOL    HW230069   5.716   0.155   4.934
 9724SOL     OW30070   2.029   5.135   1.249
 9724SOL    HW130071   2.057   5.055   1.302
 9724SOL    HW230072   2.076   5.135   1.161
 9725SOL     OW30073   5.549   5.414   3.957
 9725SOL    HW130074   5.630   5.473   3.968
 9725SOL    HW230075   5.467   5.470   3.957
 9726SOL     OW30076   0.082   0.315   3.318
 9726SOL    HW130077   0.179   0.337   3.303
 9726SOL    HW230078   0.053   0.248   3.249
 9727SOL     OW30079   6.578   3.056   1.537
 9727SOL    HW130080   6.610   3.128   1.475
 9727SOL    HW230081   6.617   2.968   1.510
 9728SOL     OW30082   5.902   1.936   4.627
 9728SOL    HW130083   5.920   1.918   4.531
 9728SOL    HW230084   5.916   1.851   4.680
 9729SOL     OW30085   0.094   3.496   2.646
 9729SOL    HW130086   0.000   3.509   2.613
 9729SOL    HW230087   0.142   3.584   2.648
 9730SOL     OW30088   0.946   5.558   3.679
 9730SOL    HW130089   1.023   5.564   3.616
 9730SOL    HW230090   0.905   5.467   3.673
 9731SOL     OW30091   6.669   1.829   1.358
 9731SOL    HW130092   6.647   1.925   1.370
 9731SOL    HW230093   6.767   1.819   1.341
 9732SOL     OW30094   0.365   2.971   3.424
 9732SOL    HW130095   0.444   3.033   3.427
 9732SOL    HW230096   0.380   2.896   3.489
 9733SOL     OW30097   5.815   5.611   0.901
 9733SOL    HW130098   5.855   5.686   0.953
 9733SOL    HW230099   5.719   5.631   0.882
 9734SOL     OW30100   3.999   3.879   6.969
 9734SOL    HW130101   3.998   3.850   0.035
 9734SOL    HW230102   4.090   3.866   6.930
 9735SOL     OW30103   0.939   1.626   0.575
 9735SOL    HW130104   0.936   1.633   0.675
 9735SOL    HW230105   0.983   1.707   0.537
 9736SOL     OW30106   5.117   2.175   5.496
 9736SOL    HW130107   5.095   2.266   5.461
 9736SOL    HW230108   5.032   2.129   5.523
 9737SOL     OW30109   5.422   3.227   4.799
 9737SOL    HW130110   5.502   3.269   4.757
 9737SOL    HW230111   5.340   3.250   4.746
 9738SOL     OW30112   2.409   6.267   1.510
 9738SOL    HW130113   2.353   6.337   1.556
 9738SOL    HW230114   2.440   6.302   1.422
 9739SOL     OW30115   5.701   6.634   0.357
 9739SOL    HW130116   5.648   6.667   0.278
 9739SOL    HW230117   5.757   6.556   0.330
 9740SOL     OW30118   6.816   0.886   0.834
 9740SOL    HW130119   6.831   0.959   0.900
 9740SOL    HW230120   6.903   0.858   0.795
 9741SOL     OW30121   2.343   2.854   3.590
 9741SOL    HW130122   2.429   2.818   3.555
 9741SOL    HW230123   2.344   2.853   3.690
 9742SOL     OW30124   4.089   0.727   6.892
 9742SOL    HW130125   4.065   0.658   6.823
 9742SOL    HW230126   4.061   0.695   6.982
 9743SOL     OW30127   6.804   3.792   4.507
 9743SOL    HW130128   6.889   3.739   4.502
 9743SOL    HW230129   6.727   3.731   4.489
 9744SOL     OW30130   1.748   2.258   2.582
 9744SOL    HW130131   1.826   2.258   2.520
 9744SOL    HW230132   1.777   2.227   2.673
 9745SOL     OW30133   1.385   6.168   6.197
 9745SOL    HW130134   1.357   6.230   6.124
 9745SOL    HW230135   1.322   6.090   6.200
 9746SOL     OW30136   3.322   6.390   6.470
 9746SOL    HW130137   3.313   6.324   6.395
 9746SOL    HW230138   3.362   6.344   6.550
 9747SOL     OW30139   4.378   1.611   3.246
 9747SOL    HW130140   4.411   1.561   3.166
 9747SOL    HW230141   4.310   1.555   3.294
 9748SOL     OW30142   0.670   2.180   3.222
 9748SOL    HW130143   0.580   2.143   3.202
 9748SOL    HW230144   0.695   2.157   3.316
 9749SOL     OW30145   6.486   0.399   1.282
 9749SOL    HW130146   6.451   0.324   1.338
 9749SOL    HW230147   6.520   0.362   1.195
 9750SOL     OW30148   5.637   1.930   4.790
 9750SOL    HW130149   5.664   2.003   4.853
 9750SOL    HW230150   5.718   1.891   4.747
 9751SOL     OW30151   2.635   6.218   0.883
 9751SOL    HW130152   2.601   6.304   0.920
 9751SOL    HW230153   2.728   6.201   0.917
 9752SOL     OW30154   3.692   3.521   1.053
 9752SOL    HW130155   3.735   3.563   0.972
 9752SOL    HW230156   3.759   3.514   1.126
 9753SOL     OW30157   6.520   6.353   3.250
 9753SOL    HW130158   6.552   6.285   3.316
 9753SOL    HW230159   6.427   6.382   3.273
 9754SOL     OW30160   3.266   1.057   1.869
 9754SOL    HW130161   3.255   1.034   1.966
 9754SOL    HW230162   3.186   1.109   1.838
 9755SOL     OW30163   3.046   3.900   1.090
 9755SOL    HW130164   2.984   3.957   1.144
 9755SOL    HW230165   3.089   3.832   1.150
 9756SOL     OW30166   5.419   0.127   6.543
 9756SOL    HW130167   5.452   0.062   6.474
 9756SOL    HW230168   5.494   0.150   6.606
 9757SOL     OW30169   5.332   3.994   4.228
 9757SOL    HW130170   5.369   4.087   4.230
 9757SOL    HW230171   5.237   3.997   4.195
 9758SOL     OW30172   3.594   1.047   2.179
 9758SOL    HW130173   3.655   0.969   2.196
 9758SOL    HW230174   3.567   1.087   2.266
 9759SOL     OW30175   0.049   2.259   1.070
 9759SOL    HW130176   0.062   2.185   1.003
 9759SOL    HW230177   6.987   2.253   1.110
 9760SOL     OW30178   5.004   0.573   6.167
 9760SOL    HW130179   4.999   0.527   6.078
 9760SOL    HW230180   4.926   0.635   6.177
 9761SOL     OW30181   0.534   1.758   1.707
 9761SOL    HW130182   0.577   1.830   1.654
 9761SOL    HW230183   0.543   1.779   1.805
 9762SOL     OW30184   4.087   0.925   6.092
 9762SOL    HW130185   4.104   0.827   6.087
 9762SOL    HW230186   4.141   0.965   6.166
 9763SOL     OW30187   5.943   1.756   1.087
 9763SOL    HW130188   5.890   1.838   1.106
 9763SOL    HW230189   6.016   1.746   1.155
 9764SOL     OW30190   0.239   2.637   3.214
 9764SOL    HW130191   0.141   2.618   3.206
 9764SOL    HW230192   0.265   2.705   3.145
 9765SOL     OW30193   6.605   2.086   1.372
 9765SOL    HW130194   6.537   2.116   1.439
 9765SOL    HW230195   6.695   2.123   1.397
 9766SOL     OW30196   0.429   2.709   2.833
 9766SOL    HW130197   0.463   2.698   2.740
 9766SOL    HW230198   0.366   2.635   2.855
 9767SOL     OW30199   3.921   1.574   5.052
 9767SOL    HW130200   4.017   1.561   5.077
 9767SOL    HW230201   3.865   1.505   5.097
 9768SOL     OW30202   4.900   1.816   6.828
 9768SOL    HW130203   4.807   1.833   6.859
 9768SOL    HW230204   4.920   1.876   6.750
 9769SOL     OW30205   4.041   0.938   5.178
 9769SOL    HW130206   4.010   1.016   5.122
 9769SOL    HW230207   4.128   0.961   5.221
 9770SOL     OW30208   1.783   3.269   5.144
 9770SOL    HW130209   1.848   3.274   5.220
 9770SOL    HW230210   1.824   3.218   5.068
 9771SOL     OW30211   3.310   0.980   2.135
 9771SOL    HW130212   3.402   1.019   2.138
 9771SOL    HW230213   3.287   0.943   2.225
 9772SOL     OW30214   0.162   0.569   2.151
 9772SOL    HW130215   0.171   0.638   2.224
 9772SOL    HW230216   0.241   0.574   2.091
 9773SOL     OW30217   5.543   6.245   1.599
 9773SOL    HW130218   5.461   6.264   1.654
 9773SOL    HW230219   5.552   6.147   1.586
 9774SOL     OW30220   1.708   6.071   4.618
 9774SOL    HW130221   1.715   6.111   4.709
 9774SOL    HW230222   1.786   6.102   4.563
 9775SOL     OW30223   1.254   1.292   3.150
 9775SOL    HW130224   1.258   1.336   3.240
 9775SOL    HW230225   1.215   1.356   3.083
 9776SOL     OW30226   1.755   5.890   1.448
 9776SOL    HW130227   1.704   5.808   1.422
 9776SOL    HW230228   1.717   5.928   1.531
 9777SOL     OW30229   4.391   1.648   5.100
 9777SOL    HW130230   4.361   1.686   5.187
 9777SOL    HW230231   4.368   1.712   5.026
 9778SOL     OW30232   1.743   3.951   3.042
 9778SOL    HW130233   1.691   3.929   3.125
 9778SOL    HW230234   1.681   3.952   2.963
 9779SOL     OW30235   2.971   0.986   3.359
 9779SOL    HW130236   2.957   1.083   3.339
 9779SOL    HW230237   2.991   0.937   3.275
 9780SOL     OW30238   0.952   1.588   0.893
 9780SOL    HW130239   1.020   1.646   0.938
 9780SOL    HW230240   0.864   1.635   0.891
 9781SOL     OW30241   1.134   1.214   2.214
 9781SOL    HW130242   1.115   1.119   2.239
 9781SOL    HW230243   1.232   1.233   2.226
 9782SOL     OW30244   6.977   2.666   0.489
 9782SOL    HW130245   6.983   2.765   0.485
 9782SOL    HW230246   0.039   2.627   0.503
 9783SOL     OW30247   5.004   2.145   2.333
 9783SOL    HW130248   4.918   2.097   2.318
 9783SOL    HW230249   5.080   2.082   2.321
 9784SOL     OW30250   1.966   1.271   0.539
 9784SOL    HW130251   1.938   1.279   0.444
 9784SOL    HW230252   2.051   1.323   0.553
 9785SOL     OW30253   1.705   3.621   4.644
 9785SOL    HW130254   1.652   3.564   4.581
 9785SOL    HW230255   1.685   3.718   4.627
 9786SOL     OW30256   2.844   4.597   6.809
 9786SOL    HW130257   2.884   4.670   6.864
 9786SOL    HW230258   2.905   4.575   6.733
 9787SOL     OW30259   2.401   3.457   1.061
 9787SOL    HW130260   2.364   3.510   0.984
 9787SOL    HW230261   2.413   3.362   1.033
 9788SOL     OW30262   2.992   6.868   2.531
 9788SOL    HW130263   3.005   6.772   2.555
 9788SOL    HW230264   2.951   6.917   2.608
 9789SOL     OW30265   4.489   2.077   0.792
 9789SOL    HW130266   4.426   2.012   0.750
 9789SOL    HW230267   4.572   2.030   0.821
 9790SOL     OW30268   4.585   5.693   4.740
 9790SOL    HW130269   4.519   5.743   4.797
 9790SOL    HW230270   4.666   5.671   4.794
 9791SOL     OW30271   0.253   1.220   1.266
 9791SOL    HW130272   0.281   1.316   1.266
 9791SOL    HW230273   0.324   1.165   1.223
 9792SOL     OW30274   3.440   3.877   0.850
 9792SOL    HW130275   3.475   3.924   0.769
 9792SOL    HW230276   3.340   3.871   0.845
 9793SOL     OW30277   6.073   0.997   2.450
 9793SOL    HW130278   6.032   1.005   2.359
 9793SOL    HW230279   6.083   1.088   2.490
 9794SOL     OW30280   4.043   5.357   4.393
 9794SOL    HW130281   4.015   5.263   4.370
 9794SOL    HW230282   4.075   5.359   4.488
 9795SOL     OW30283   1.954   4.092   3.159
 9795SOL    HW130284   1.890   4.024   3.122
 9795SOL    HW230285   2.016   4.047   3.223
 9796SOL     OW30286   3.409   3.712   4.612
 9796SOL    HW130287   3.431   3.739   4.706
 9796SOL    HW230288   3.412   3.793   4.553
 9797SOL     OW30289   3.494   5.435   6.841
 9797SOL    HW130290   3.563   5.479   6.898
 9797SOL    HW230291   3.515   5.338   6.830
 9798SOL     OW30292   0.011   4.374   6.044
 9798SOL    HW130293   0.054   4.433   6.112
 9798SOL    HW230294   0.080   4.321   5.997
 9799SOL     OW30295   4.148   6.298   6.708
 9799SOL    HW130296   4.091   6.307   6.626
 9799SOL    HW230297   4.226   6.238   6.689
 9800SOL     OW30298   6.758   4.643   5.085
 9800SOL    HW130299   6.842   4.695   5.097
 9800SOL    HW230300   6.780   4.546   5.069
 9801SOL     OW30301   4.208   0.363   0.527
 9801SOL    HW130302   4.120   0.316   0.516
 9801SOL    HW230303   4.282   0.296   0.532
 9802SOL     OW30304   4.086   3.328   0.389
 9802SOL    HW130305   4.086   3.418   0.346
 9802SOL    HW230306   4.034   3.331   0.474
 9803SOL     OW30307   2.581   3.587   0.246
 9803SOL    HW130308   2.512   3.604   0.317
 9803SOL    HW230309   2.590   3.489   0.230
 9804SOL     OW30310   1.325   4.535   2.833
 9804SOL    HW130311   1.326   4.613   2.895
 9804SOL    HW230312   1.330   4.567   2.738
 9805SOL     OW30313   0.261   5.617   4.741
 9805SOL    HW130314   0.163   5.602   4.731
 9805SOL    HW230315   0.311   5.547   4.690
 9806SOL     OW30316   3.594   1.172   6.853
 9806SOL    HW130317   3.676   1.225   6.831
 9806SOL    HW230318   3.539   1.159   6.771
 9807SOL     OW30319   3.632   3.206   3.766
 9807SOL    HW130320   3.721   3.233   3.804
 9807SOL    HW230321   3.590   3.284   3.720
 9808SOL     OW30322   3.285   5.957   2.587
 9808SOL    HW130323   3.366   5.990   2.637
 9808SOL    HW230324   3.285   5.857   2.587
 9809SOL     OW30325   5.863   2.468   1.283
 9809SOL    HW130326   5.882   2.491   1.188
 9809SOL    HW230327   5.936   2.505   1.342
 9810SOL     OW30328   2.853   2.850   0.838
 9810SOL    HW130329   2.931   2.819   0.891
 9810SOL    HW230330   2.865   2.826   0.742
 9811SOL     OW30331   5.184   3.796   4.039
 9811SOL    HW130332   5.212   3.702   4.060
 9811SOL    HW230333   5.246   3.835   3.971
 9812SOL     OW30334   3.575   5.460   6.432
 9812SOL    HW130335   3.484   5.423   6.451
 9812SOL    HW230336   3.637   5.434   6.506
 9813SOL     OW30337   4.391   1.284   2.136
 9813SOL    HW130338   4.355   1.369   2.173
 9813SOL    HW230339   4.322   1.212   2.145
 9814SOL     OW30340   6.771   2.027   6.170
 9814SOL    HW130341   6.673   2.048   6.179
 9814SOL    HW230342   6.786   1.930   6.191
 9815SOL     OW30343   5.056   2.414   4.534
 9815SOL    HW130344   5.041   2.496   4.479
 9815SOL    HW230345   5.030   2.333   4.482
 9816SOL     OW30346   3.359   0.869   0.087
 9816SOL    HW130347   3.395   0.962   0.094
 9816SOL    HW230348   3.363   0.825   0.177
 9817SOL     OW30349   6.893   0.256   1.462
 9817SOL    HW130350   6.824   0.328   1.470
 9817SOL    HW230351   6.864   0.176   1.513
 9818SOL     OW30352   3.674   2.143   5.348
 9818SOL    HW130353   3.592   2.169   5.298
 9818SOL    HW230354   3.674   2.044   5.363
 9819SOL     OW30355   2.574   0.510   1.672
 9819SOL    HW130356   2.640   0.582   1.695
 9819SOL    HW230357   2.511   0.497   1.748
 9820SOL     OW30358   3.850   2.680   0.117
 9820SOL    HW130359   3.807   2.614   0.055
 9820SOL    HW230360   3.895   2.751   0.063
 9821SOL     OW30361   6.785   5.537   0.343
 9821SOL    HW130362   6.747   5.474   0.411
 9821SOL    HW230363   6.717   5.553   0.271
 9822SOL     OW30364   0.200   0.664   2.407
 9822SOL    HW130365   0.254   0.744   2.433
 9822SOL    HW230366   0.231   0.585   2.460
 9823SOL     OW30367   3.717   6.611   1.753
 9823SOL    HW130368   3.661   6.564   1.821
 9823SOL    HW230369   3.666   6.616   1.667
 9824SOL     OW30370   1.971   3.831   5.825
 9824SOL    HW130371   1.879   3.866   5.842
 9824SOL    HW230372   1.966   3.733   5.805
 9825SOL     OW30373   4.138   5.608   4.848
 9825SOL    HW130374   4.135   5.550   4.929
 9825SOL    HW230375   4.118   5.702   4.873
 9826SOL     OW30376   5.970   6.424   5.343
 9826SOL    HW130377   5.878   6.406   5.376
 9826SOL    HW230378   6.010   6.338   5.310
 9827SOL     OW30379   1.248   5.227   4.857
 9827SOL    HW130380   1.249   5.314   4.906
 9827SOL    HW230381   1.174   5.169   4.892
 9828SOL     OW30382   2.626   1.749   6.995
 9828SOL    HW130383   2.611   1.841   0.000
 9828SOL    HW230384   2.599   1.744   6.899
 9829SOL     OW30385   2.435   4.310   1.525
 9829SOL    HW130386   2.384   4.396   1.524
 9829SOL    HW230387   2.515   4.318   1.467
 9830SOL     OW30388   6.337   1.276   1.203
 9830SOL    HW130389   6.335   1.229   1.291
 9830SOL    HW230390   6.301   1.368   1.213
 9831SOL     OW30391   6.077   6.570   1.111
 9831SOL    HW130392   6.000   6.544   1.169
 9831SOL    HW230393   6.150   6.607   1.168
 9832SOL     OW30394   3.640   4.228   0.946
 9832SOL    HW130395   3.732   4.219   0.907
 9832SOL    HW230396   3.580   4.272   0.878
 9833SOL     OW30397   4.640   4.395   6.216
 9833SOL    HW130398   4.576   4.471   6.232
 9833SOL    HW230399   4.589   4.314   6.188
 9834SOL     OW30400   2.256   1.981   3.947
 9834SOL    HW130401   2.253   2.057   4.011
 9834SOL    HW230402   2.178   1.986   3.884
 9835SOL     OW30403   5.607   1.388   4.769
 9835SOL    HW130404   5.547   1.424   4.840
 9835SOL    HW230405   5.698   1.372   4.808
 9836SOL     OW30406   5.082   5.217   1.153
 9836SOL    HW130407   5.171   5.262   1.156
 9836SOL    HW230408   5.088   5.136   1.094
 9837SOL     OW30409   2.607   6.028   5.949
 9837SOL    HW130410   2.535   5.982   5.898
 9837SOL    HW230411   2.636   6.110   5.900
 9838SOL     OW30412   6.657   5.747   4.803
 9838SOL    HW130413   6.617   5.665   4.763
 9838SOL    HW230414   6.637   5.750   4.901
 9839SOL     OW30415   5.941   3.034   2.526
 9839SOL    HW130416   5.845   3.049   2.500
 9839SOL    HW230417   5.950   3.035   2.625
 9840SOL     OW30418   5.764   0.556   0.391
 9840SOL    HW130419   5.739   0.625   0.460
 9840SOL    HW230420   5.776   0.601   0.302
 9841SOL     OW30421   2.170   2.944   4.615
 9841SOL    HW130422   2.133   3.037   4.614
 9841SOL    HW230423   2.224   2.930   4.698
 9842SOL     OW30424   3.358   3.483   3.771
 9842SOL    HW130425   3.438   3.503   3.828
 9842SOL    HW230426   3.380   3.409   3.708
 9843SOL     OW30427   5.861   4.929   3.008
 9843SOL    HW130428   5.859   5.003   2.941
 9843SOL    HW230429   5.801   4.855   2.977
 9844SOL     OW30430   4.947   0.124   2.019
 9844SOL    HW130431   5.004   0.174   2.084
 9844SOL    HW230432   4.983   0.031   2.008
 9845SOL     OW30433   1.502   1.902   3.638
 9845SOL    HW130434   1.440   1.826   3.618
 9845SOL    HW230435   1.453   1.975   3.684
 9846SOL     OW30436   2.949   3.704   3.594
 9846SOL    HW130437   2.938   3.605   3.604
 9846SOL    HW230438   2.920   3.748   3.679
 9847SOL     OW30439   2.257   4.381   5.149
 9847SOL    HW130440   2.212   4.403   5.062
 9847SOL    HW230441   2.214   4.300   5.189
 9848SOL     OW30442   5.786   3.524   0.302
 9848SOL    HW130443   5.705   3.573   0.270
 9848SOL    HW230444   5.776   3.426   0.281
 9849SOL     OW30445   6.765   6.182   5.478
 9849SOL    HW130446   6.848   6.127   5.470
 9849SOL    HW230447   6.771   6.260   5.416
 9850SOL     OW30448   4.422   0.305   2.988
 9850SOL    HW130449   4.497   0.239   2.991
 9850SOL    HW230450   4.456   0.396   3.010
 9851SOL     OW30451   5.271   2.659   5.357
 9851SOL    HW130452   5.257   2.741   5.411
 9851SOL    HW230453   5.195   2.648   5.292
 9852SOL     OW30454   5.681   1.611   4.587
 9852SOL    HW130455   5.673   1.531   4.647
 9852SOL    HW230456   5.605   1.611   4.522
 9853SOL     OW30457   0.647   4.795   1.403
 9853SOL    HW130458   0.722   4.745   1.449
 9853SOL    HW230459   0.639   4.886   1.444
 9854SOL     OW30460   3.735   6.612   3.713
 9854SOL    HW130461   3.796   6.611   3.634
 9854SOL    HW230462   3.773   6.555   3.786
 9855SOL     OW30463   1.806   4.289   1.015
 9855SOL    HW130464   1.737   4.268   0.945
 9855SOL    HW230465   1.778   4.370   1.066
 9856SOL     OW30466   3.655   3.092   1.368
 9856SOL    HW130467   3.585   3.054   1.428
 9856SOL    HW230468   3.634   3.071   1.273
 9857SOL     OW30469   6.383   4.745   2.933
 9857SOL    HW130470   6.293   4.744   2.889
 9857SOL    HW230471   6.381   4.807   3.012
 9858SOL     OW30472   3.498   1.557   1.310
 9858SOL    HW130473   3.402   1.575   1.287
 9858SOL    HW230474   3.531   1.626   1.374
 9859SOL     OW30475   0.168   0.109   1.522
 9859SOL    HW130476   0.134   0.025   1.479
 9859SOL    HW230477   0.267   0.112   1.515
 9860SOL     OW30478   0.721   0.803   2.709
 9860SOL    HW130479   0.716   0.885   2.766
 9860SOL    HW230480   0.808   0.801   2.660
 9861SOL     OW30481   2.934   6.399   4.326
 9861SOL    HW130482   2.976   6.367   4.411
 9861SOL    HW230483   2.870   6.473   4.346
 9862SOL     OW30484   0.434   2.292   1.077
 9862SOL    HW130485   0.376   2.349   1.134
 9862SOL    HW230486   0.388   2.273   0.990
 9863SOL     OW30487   3.641   6.930   0.358
 9863SOL    HW130488   3.624   6.833   0.342
 9863SOL    HW230489   3.623   6.981   0.273
 9864SOL     OW30490   4.614   6.053   3.272
 9864SOL    HW130491   4.634   6.138   3.320
 9864SOL    HW230492   4.538   6.067   3.208
 9865SOL     OW30493   1.786   2.826   3.918
 9865SOL    HW130494   1.709   2.888   3.909
 9865SOL    HW230495   1.768   2.760   3.991
 9866SOL     OW30496   3.231   5.132   3.674
 9866SOL    HW130497   3.227   5.067   3.749
 9866SOL    HW230498   3.273   5.089   3.594
 9867SOL     OW30499   4.020   6.931   6.578
 9867SOL    HW130500   4.030   6.964   6.484
 9867SOL    HW230501   4.062   6.996   6.641
 9868SOL     OW30502   1.159   5.219   5.689
 9868SOL    HW130503   1.164   5.165   5.773
 9868SOL    HW230504   1.244   5.210   5.638
 9869SOL     OW30505   1.194   4.315   3.071
 9869SOL    HW130506   1.234   4.338   2.983
 9869SOL    HW230507   1.176   4.216   3.075
 9870SOL     OW30508   4.273   4.760   1.853
 9870SOL    HW130509   4.346   4.695   1.875
 9870SOL    HW230510   4.249   4.811   1.936
 9871SOL     OW30511   1.684   2.134   5.794
 9871SOL    HW130512   1.780   2.110   5.785
 9871SOL    HW230513   1.670   2.182   5.881
 9872SOL     OW30514   1.316   4.070   3.382
 9872SOL    HW130515   1.301   4.070   3.481
 9872SOL    HW230516   1.413   4.084   3.363
 9873SOL     OW30517   1.613   1.763   0.392
 9873SOL    HW130518   1.641   1.692   0.327
 9873SOL    HW230519   1.685   1.775   0.460
 9874SOL     OW30520   1.097   3.682   4.584
 9874SOL    HW130521   1.183   3.653   4.626
 9874SOL    HW230522   1.072   3.772   4.618
 9875SOL     OW30523   0.761   1.284   2.866
 9875SOL    HW130524   0.766   1.378   2.831
 9875SOL    HW230525   0.775   1.285   2.965
 9876SOL     OW30526   0.155   5.338   2.336
 9876SOL    HW130527   0.199   5.407   2.278
 9876SOL    HW230528   0.135   5.379   2.426
 9877SOL     OW30529   3.666   6.943   1.353
 9877SOL    HW130530   3.761   6.920   1.333
 9877SOL    HW230531   3.647   6.924   1.450
 9878SOL     OW30532   0.335   0.427   5.040
 9878SOL    HW130533   0.253   0.379   5.006
 9878SOL    HW230534   0.410   0.414   4.975
 9879SOL     OW30535   5.576   5.939   5.185
 9879SOL    HW130536   5.586   5.909   5.280
 9879SOL    HW230537   5.482   5.970   5.169
 9880SOL     OW30538   1.588   1.392   3.964
 9880SOL    HW130539   1.651   1.318   3.990
 9880SOL    HW230540   1.639   1.479   3.961
 9881SOL     OW30541   0.105   1.385   6.249
 9881SOL    HW130542   0.093   1.347   6.340
 9881SOL    HW230543   0.202   1.396   6.229
 9882SOL     OW30544   2.230   2.326   3.392
 9882SOL    HW130545   2.204   2.260   3.322
 9882SOL    HW230546   2.175   2.311   3.474
 9883SOL     OW30547   2.911   1.048   2.248
 9883SOL    HW130548   2.961   1.098   2.178
 9883SOL    HW230549   2.858   1.112   2.303
 9884SOL     OW30550   3.247   0.399   4.379
 9884SOL    HW130551   3.247   0.499   4.373
 9884SOL    HW230552   3.214   0.360   4.293
 9885SOL     OW30553   6.661   4.169   4.180
 9885SOL    HW130554   6.619   4.079   4.175
 9885SOL    HW230555   6.660   4.212   4.090
 9886SOL     OW30556   1.040   3.423   1.773
 9886SOL    HW130557   1.111   3.489   1.798
 9886SOL    HW230558   1.042   3.346   1.836
 9887SOL     OW30559   4.267   6.606   5.905
 9887SOL    HW130560   4.264   6.572   5.999
 9887SOL    HW230561   4.255   6.530   5.842
 9888SOL     OW30562   6.392   5.255   6.920
 9888SOL    HW130563   6.360   5.280   6.828
 9888SOL    HW230564   6.371   5.159   6.937
 9889SOL     OW30565   0.273   5.344   0.234
 9889SOL    HW130566   0.352   5.384   0.189
 9889SOL    HW230567   0.280   5.356   0.333
 9890SOL     OW30568   1.285   3.203   0.426
 9890SOL    HW130569   1.271   3.104   0.432
 9890SOL    HW230570   1.225   3.249   0.491
 9891SOL     OW30571   4.981   1.830   1.975
 9891SOL    HW130572   5.028   1.904   1.927
 9891SOL    HW230573   4.934   1.867   2.055
 9892SOL     OW30574   0.910   6.566   6.874
 9892SOL    HW130575   0.945   6.653   6.838
 9892SOL    HW230576   0.986   6.514   6.915
 9893SOL     OW30577   2.145   1.512   0.469
 9893SOL    HW130578   2.138   1.549   0.376
 9893SOL    HW230579   2.230   1.542   0.511
 9894SOL     OW30580   2.063   0.951   1.267
 9894SOL    HW130581   2.051   1.010   1.347
 9894SOL    HW230582   2.160   0.928   1.257
 9895SOL     OW30583   4.434   2.883   5.361
 9895SOL    HW130584   4.431   2.832   5.448
 9895SOL    HW230585   4.469   2.975   5.378
 9896SOL     OW30586   6.953   6.252   6.139
 9896SOL    HW130587   6.986   6.330   6.087
 9896SOL    HW230588   6.894   6.195   6.080
 9897SOL     OW30589   5.265   4.981   4.765
 9897SOL    HW130590   5.180   5.034   4.770
 9897SOL    HW230591   5.255   4.910   4.695
 9898SOL     OW30592   2.452   6.622   5.679
 9898SOL    HW130593   2.534   6.637   5.734
 9898SOL    HW230594   2.373   6.615   5.740
 9899SOL     OW30595   0.206   5.289   6.828
 9899SOL    HW130596   0.143   5.253   6.760
 9899SOL    HW230597   0.183   5.384   6.849
 9900SOL     OW30598   2.401   4.344   3.875
 9900SOL    HW130599   2.388   4.420   3.939
 9900SOL    HW230600   2.344   4.267   3.902
 9901SOL     OW30601   2.349   3.212   5.748
 9901SOL    HW130602   2.273   3.277   5.753
 9901SOL    HW230603   2.406   3.233   5.669
 9902SOL     OW30604   2.500   4.466   0.673
 9902SOL    HW130605   2.455   4.385   0.636
 9902SOL    HW230606   2.535   4.522   0.598
 9903SOL     OW30607   5.483   0.721   4.494
 9903SOL    HW130608   5.441   0.631   4.479
 9903SOL    HW230609   5.552   0.738   4.423
 9904SOL     OW30610   5.891   2.226   0.590
 9904SOL    HW130611   5.888   2.325   0.605
 9904SOL    HW230612   5.978   2.190   0.624
 9905SOL     OW30613   5.342   0.447   0.379
 9905SOL    HW130614   5.247   0.420   0.360
 9905SOL    HW230615   5.403   0.400   0.315
 9906SOL     OW30616   3.453   3.031   4.904
 9906SOL    HW130617   3.392   2.967   4.951
 9906SOL    HW230618   3.508   2.981   4.837
 9907SOL     OW30619   1.432   6.544   1.666
 9907SOL    HW130620   1.351   6.600   1.682
 9907SOL    HW230621   1.510   6.581   1.716
 9908SOL     OW30622   4.944   3.775   2.319
 9908SOL    HW130623   4.939   3.810   2.412
 9908SOL    HW230624   4.888   3.832   2.259
 9909SOL     OW30625   2.005   0.345   4.927
 9909SOL    HW130626   2.087   0.384   4.885
 9909SOL    HW230627   2.010   0.245   4.924
 9910SOL     OW30628   0.068   5.195   3.702
 9910SOL    HW130629   0.132   5.218   3.629
 9910SOL    HW230630   7.024   5.138   3.665
 9911SOL     OW30631   2.933   5.349   2.473
 9911SOL    HW130632   2.938   5.302   2.385
 9911SOL    HW230633   3.018   5.333   2.523
 9912SOL     OW30634   4.854   0.792   6.705
 9912SOL    HW130635   4.910   0.715   6.736
 9912SOL    HW230636   4.911   0.854   6.651
 9913SOL     OW30637   4.736   3.549   0.170
 9913SOL    HW130638   4.815   3.526   0.227
 9913SOL    HW230639   4.768   3.571   0.077
 9914SOL     OW30640   0.040   4.363   4.419
 9914SOL    HW130641   7.016   4.292   4.371
 9914SOL    HW230642   0.136   4.357   4.391
 9915SOL     OW30643   5.358   1.059   3.395
 9915SOL    HW130644   5.379   1.069   3.492
 9915SOL    HW230645   5.271   1.104   3.375
 9916SOL     OW30646   1.403   3.136   2.084
 9916SOL    HW130647   1.431   3.078   2.160
 9916SOL    HW230648   1.472   3.134   2.012
 9917SOL     OW30649   6.085   4.389   4.923
 9917SOL    HW130650   6.110   4.326   4.850
 9917SOL    HW230651   6.040   4.339   4.997
 9918SOL     OW30652   5.030   2.784   2.189
 9918SOL    HW130653   4.987   2.833   2.265
 9918SOL    HW230654   5.129   2.782   2.201
 9919SOL     OW30655   5.838   6.059   0.712
 9919SOL    HW130656   5.925   6.029   0.674
 9919SOL    HW230657   5.817   6.151   0.679
 9920SOL     OW30658   5.071   1.886   2.560
 9920SOL    HW130659   5.168   1.908   2.566
 9920SOL    HW230660   5.018   1.970   2.547
 9921SOL     OW30661   3.333   4.973   6.266
 9921SOL    HW130662   3.241   4.977   6.305
 9921SOL    HW230663   3.384   4.899   6.308
 9922SOL     OW30664   0.161   5.507   0.940
 9922SOL    HW130665   0.252   5.517   0.980
 9922SOL    HW230666   0.107   5.589   0.957
 9923SOL     OW30667   5.610   4.463   1.156
 9923SOL    HW130668   5.666   4.472   1.238
 9923SOL    HW230669   5.536   4.530   1.158
 9924SOL     OW30670   1.153   3.376   4.646
 9924SOL    HW130671   1.142   3.475   4.643
 9924SOL    HW230672   1.143   3.345   4.741
 9925SOL     OW30673   5.514   1.927   3.344
 9925SOL    HW130674   5.490   1.891   3.434
 9925SOL    HW230675   5.609   1.905   3.324
 9926SOL     OW30676   2.868   5.214   0.377
 9926SOL    HW130677   2.798   5.186   0.442
 9926SOL    HW230678   2.838   5.193   0.284
 9927SOL     OW30679   4.957   0.302   3.982
 9927SOL    HW130680   4.884   0.278   4.046
 9927SOL    HW230681   4.925   0.290   3.888
 9928SOL     OW30682   4.964   4.856   2.240
 9928SOL    HW130683   5.041   4.858   2.303
 9928SOL    HW230684   4.997   4.858   2.146
 9929SOL     OW30685   1.316   4.624   2.575
 9929SOL    HW130686   1.220   4.619   2.549
 9929SOL    HW230687   1.372   4.633   2.492
 9930SOL     OW30688   5.689   0.708   3.511
 9930SOL    HW130689   5.695   0.608   3.508
 9930SOL    HW230690   5.689   0.739   3.606
 9931SOL     OW30691   0.486   5.015   5.877
 9931SOL    HW130692   0.387   5.020   5.861
 9931SOL    HW230693   0.531   5.090   5.829
 9932SOL     OW30694   0.673   6.783   5.380
 9932SOL    HW130695   0.675   6.864   5.321
 9932SOL    HW230696   0.646   6.703   5.326
 9933SOL     OW30697   0.376   6.110   1.963
 9933SOL    HW130698   0.350   6.023   2.006
 9933SOL    HW230699   0.375   6.183   2.032
 9934SOL     OW30700   6.978   2.035   5.103
 9934SOL    HW130701   6.950   2.090   5.023
 9934SOL    HW230702   0.048   2.042   5.114
 9935SOL     OW30703   2.790   0.564   6.164
 9935SOL    HW130704   2.730   0.584   6.087
 9935SOL    HW230705   2.809   0.466   6.168
 9936SOL     OW30706   1.209   4.172   4.037
 9936SOL    HW130707   1.203   4.211   4.129
 9936SOL    HW230708   1.130   4.112   4.021
 9937SOL     OW30709   6.709   2.678   6.073
 9937SOL    HW130710   6.749   2.642   6.157
 9937SOL    HW230711   6.667   2.604   6.022
 9938SOL     OW30712   6.852   6.227   2.521
 9938SOL    HW130713   6.833   6.212   2.618
 9938SOL    HW230714   6.798   6.164   2.466
 9939SOL     OW30715   3.241   3.342   2.908
 9939SOL    HW130716   3.234   3.337   3.008
 9939SOL    HW230717   3.193   3.424   2.875
 9940SOL     OW30718   0.202   0.871   1.054
 9940SOL    HW130719   0.165   0.871   0.961
 9940SOL    HW230720   0.292   0.827   1.054
 9941SOL     OW30721   3.369   5.554   4.555
 9941SOL    HW130722   3.450   5.612   4.560
 9941SOL    HW230723   3.350   5.533   4.459
 9942SOL     OW30724   2.324   5.793   3.942
 9942SOL    HW130725   2.346   5.697   3.958
 9942SOL    HW230726   2.229   5.801   3.912
 9943SOL     OW30727   0.500   0.085   5.022
 9943SOL    HW130728   0.515   0.167   4.967
 9943SOL    HW230729   0.419   0.037   4.988
 9944SOL     OW30730   1.749   4.216   6.608
 9944SOL    HW130731   1.728   4.286   6.677
 9944SOL    HW230732   1.664   4.174   6.577
 9945SOL     OW30733   0.284   6.015   0.243
 9945SOL    HW130734   0.348   5.938   0.253
 9945SOL    HW230735   0.331   6.100   0.267
 9946SOL     OW30736   5.877   1.703   4.767
 9946SOL    HW130737   5.863   1.663   4.858
 9946SOL    HW230738   5.802   1.677   4.707
 9947SOL     OW30739   5.903   4.598   2.983
 9947SOL    HW130740   5.964   4.565   3.054
 9947SOL    HW230741   5.835   4.528   2.961
 9948SOL     OW30742   5.515   3.411   4.186
 9948SOL    HW130743   5.592   3.359   4.149
 9948SOL    HW230744   5.520   3.411   4.286
 9949SOL     OW30745   6.171   5.219   1.928
 9949SOL    HW130746   6.260   5.261   1.909
 9949SOL    HW230747   6.126   5.267   2.003
 9950SOL     OW30748   3.156   6.174   6.652
 9950SOL    HW130749   3.248   6.211   6.644
 9950SOL    HW230750   3.089   6.245   6.631
 9951SOL     OW30751   6.455   2.583   2.906
 9951SOL    HW130752   6.375   2.627   2.864
 9951SOL    HW230753   6.532   2.586   2.842
 9952SOL     OW30754   6.685   4.780   6.108
 9952SOL    HW130755   6.638   4.742   6.188
 9952SOL    HW230756   6.621   4.790   6.033
 9953SOL     OW30757   5.652   2.866   3.740
 9953SOL    HW130758   5.708   2.929   3.793
 9953SOL    HW230759   5.699   2.777   3.732
 9954SOL     OW30760   3.857   0.769   4.598
 9954SOL    HW130761   3.905   0.748   4.683
 9954SOL    HW230762   3.917   0.748   4.520
 9955SOL     OW30763   0.783   4.780   4.292
 9955SOL    HW130764   0.836   4.864   4.299
 9955SOL    HW230765   0.703   4.795   4.234
 9956SOL     OW30766   1.158   6.130   0.360
 9956SOL    HW130767   1.205   6.159   0.443
 9956SOL    HW230768   1.065   6.168   0.360
 9957SOL     OW30769   5.474   5.672   2.182
 9957SOL    HW130770   5.495   5.675   2.085
 9957SOL    HW230771   5.383   5.709   2.198
 9958SOL     OW30772   3.064   4.531   0.918
 9958SOL    HW130773   3.157   4.533   0.881
 9958SOL    HW230774   3.018   4.617   0.896
 9959SOL     OW30775   3.519   3.963   1.402
 9959SOL    HW130776   3.480   3.944   1.312
 9959SOL    HW230777   3.522   3.879   1.455
 9960SOL     OW30778   0.669   1.216   2.359
 9960SOL    HW130779   0.600   1.288   2.356
 9960SOL    HW230780   0.752   1.247   2.312
 9961SOL     OW30781   2.138   3.860   4.877
 9961SOL    HW130782   2.085   3.804   4.940
 9961SOL    HW230783   2.213   3.905   4.927
 9962SOL     OW30784   4.938   6.982   4.162
 9962SOL    HW130785   4.884   6.898   4.162
 9962SOL    HW230786   4.983   6.992   4.251
 9963SOL     OW30787   3.557   1.185   0.975
 9963SOL    HW130788   3.594   1.150   0.889
 9963SOL    HW230789   3.468   1.141   0.992
 9964SOL     OW30790   5.152   6.378   4.941
 9964SOL    HW130791   5.113   6.459   4.897
 9964SOL    HW230792   5.144   6.300   4.879
 9965SOL     OW30793   5.322   6.775   0.189
 9965SOL    HW130794   5.301   6.760   0.286
 9965SOL    HW230795   5.243   6.816   0.144
 9966SOL     OW30796   6.074   0.985   3.131
 9966SOL    HW130797   6.110   0.907   3.082
 9966SOL    HW230798   6.133   1.006   3.210
 9967SOL     OW30799   1.001   5.091   0.585
 9967SOL    HW130800   0.913   5.134   0.564
 9967SOL    HW230801   0.996   4.993   0.566
 9968SOL     OW30802   3.311   3.815   2.747
 9968SOL    HW130803   3.228   3.784   2.701
 9968SOL    HW230804   3.303   3.913   2.767
 9969SOL     OW30805   1.348   3.391   1.467
 9969SOL    HW130806   1.265   3.345   1.497
 9969SOL    HW230807   1.403   3.329   1.411
 9970SOL     OW30808   6.332   4.676   1.936
 9970SOL    HW130809   6.238   4.697   1.908
 9970SOL    HW230810   6.375   4.619   1.866
 9971SOL     OW30811   2.869   6.943   6.688
 9971SOL    HW130812   2.809   6.868   6.715
 9971SOL    HW230813   2.943   6.953   6.754
 9972SOL     OW30814   6.672   5.146   1.528
 9972SOL    HW130815   6.750   5.086   1.509
 9972SOL    HW230816   6.595   5.120   1.469
 9973SOL     OW30817   5.506   6.989   3.586
 9973SOL    HW130818   5.407   6.985   3.602
 9973SOL    HW230819   5.527   6.947   3.498
 9974SOL     OW30820   2.568   0.287   4.276
 9974SOL    HW130821   2.569   0.188   4.262
 9974SOL    HW230822   2.661   0.320   4.293
 9975SOL     OW30823   0.151   4.367   0.904
 9975SOL    HW130824   0.230   4.343   0.848
 9975SOL    HW230825   0.067   4.339   0.858
 9976SOL     OW30826   2.830   6.395   5.061
 9976SOL    HW130827   2.732   6.381   5.076
 9976SOL    HW230828   2.881   6.318   5.102
 9977SOL     OW30829   6.152   4.581   3.585
 9977SOL    HW130830   6.076   4.518   3.599
 9977SOL    HW230831   6.238   4.535   3.606
 9978SOL     OW30832   6.714   2.224   4.675
 9978SOL    HW130833   6.619   2.255   4.681
 9978SOL    HW230834   6.766   2.286   4.617
 9979SOL     OW30835   0.840   3.925   4.944
 9979SOL    HW130836   0.911   3.914   4.874
 9979SOL    HW230837   0.836   3.844   5.001
 9980SOL     OW30838   2.351   6.280   5.832
 9980SOL    HW130839   2.314   6.266   5.924
 9980SOL    HW230840   2.449   6.301   5.838
 9981SOL     OW30841   4.045   2.157   3.698
 9981SOL    HW130842   4.098   2.187   3.778
 9981SOL    HW230843   3.953   2.130   3.727
 9982SOL     OW30844   6.531   6.668   3.016
 9982SOL    HW130845   6.440   6.649   3.050
 9982SOL    HW230846   6.533   6.655   2.917
 9983SOL     OW30847   6.416   1.111   1.007
 9983SOL    HW130848   6.488   1.054   1.048
 9983SOL    HW230849   6.406   1.195   1.061
 9984SOL     OW30850   3.194   1.147   6.569
 9984SOL    HW130851   3.192   1.175   6.665
 9984SOL    HW230852   3.108   1.101   6.546
 9985SOL     OW30853   2.395   1.764   1.569
 9985SOL    HW130854   2.440   1.802   1.650
 9985SOL    HW230855   2.426   1.670   1.555
 9986SOL     OW30856   4.748   4.176   4.811
 9986SOL    HW130857   4.754   4.149   4.907
 9986SOL    HW230858   4.756   4.095   4.753
 9987SOL     OW30859   0.481   4.324   5.369
 9987SOL    HW130860   0.544   4.384   5.419
 9987SOL    HW230861   0.391   4.367   5.364
 9988SOL     OW30862   6.551   0.548   4.406
 9988SOL    HW130863   6.589   0.477   4.347
 9988SOL    HW230864   6.603   0.551   4.492
 9989SOL     OW30865   1.615   3.020   4.702
 9989SOL    HW130866   1.566   3.032   4.788
 9989SOL    HW230867   1.682   3.093   4.691
 9990SOL     OW30868   1.530   4.963   1.772
 9990SOL    HW130869   1.504   5.059   1.780
 9990SOL    HW230870   1.468   4.917   1.708
 9991SOL     OW30871   4.071   1.859   3.288
 9991SOL    HW130872   4.091   1.918   3.210
 9991SOL    HW230873   4.085   1.910   3.373
 9992SOL     OW30874   6.363   5.335   6.267
 9992SOL    HW130875   6.268   5.351   6.295
 9992SOL    HW230876   6.381   5.381   6.180
 9993SOL     OW30877   1.403   0.301   1.724
 9993SOL    HW130878   1.415   0.364   1.647
 9993SOL    HW230879   1.492   0.275   1.761
 9994SOL     OW30880   6.383   4.908   3.162
 9994SOL    HW130881   6.320   4.972   3.205
 9994SOL    HW230882   6.445   4.871   3.232
 9995SOL     OW30883   5.197   1.117   4.701
 9995SOL    HW130884   5.248   1.051   4.645
 9995SOL    HW230885   5.099   1.106   4.684
 9996SOL     OW30886   2.841   3.007   0.126
 9996SOL    HW130887   2.797   2.932   0.177
 9996SOL    HW230888   2.772   3.054   0.071
 9997SOL     OW30889   2.124   0.904   4.252
 9997SOL    HW130890   2.060   0.833   4.282
 9997SOL    HW230891   2.216   0.866   4.246
 9998SOL     OW30892   5.786   6.005   4.881
 9998SOL    HW130893   5.802   5.908   4.865
 9998SOL    HW230894   5.763   6.019   4.977
 9999SOL     OW30895   0.132   0.890   5.079
 9999SOL    HW130896   0.177   0.943   5.151
 9999SOL    HW230897   0.192   0.816   5.050
10000SOL     OW30898   6.984   4.697   0.448
10000SOL    HW130899   0.040   4.650   0.470
10000SOL    HW230900   6.994   4.795   0.465
10001SOL     OW30901   3.987   0.260   3.304
10001SOL    HW130902   4.072   0.231   3.261
10001SOL    HW230903   4.007   0.314   3.385
10002SOL     OW30904   1.341   2.118   1.604
10002SOL    HW130905   1.421   2.117   1.543
10002SOL    HW230906   1.339   2.034   1.658
10003SOL     OW30907   5.227   3.510   2.821
10003SOL    HW130908   5.223   3.516   2.921
10003SOL    HW230909   5.148   3.558   2.782
10004SOL     OW30910   6.701   3.244   3.939
10004SOL    HW130911   6.632   3.287   3.997
10004SOL    HW230912   6.775   3.309   3.920
10005SOL     OW30913   4.514   0.316   3.718
10005SOL    HW130914   4.554   0.327   3.808
10005SOL    HW230915   4.549   0.387   3.657
10006SOL     OW30916   4.535   1.980   4.012
10006SOL    HW130917   4.478   1.930   4.077
10006SOL    HW230918   4.632   1.966   4.035
10007SOL     OW30919   5.695   4.565   4.094
10007SOL    HW130920   5.736   4.495   4.036
10007SOL    HW230921   5.733   4.655   4.070
10008SOL     OW30922   3.242   6.969   3.907
10008SOL    HW130923   3.221   6.874   3.883
10008SOL    HW230924   3.287   7.015   3.831
10009SOL     OW30925   2.446   4.435   1.242
10009SOL    HW130926   2.358   4.482   1.256
10009SOL    HW230927   2.516   4.480   1.296
10010SOL     OW30928   6.050   0.898   6.456
10010SOL    HW130929   5.960   0.890   6.499
10010SOL    HW230930   6.051   0.844   6.372
10011SOL     OW30931   6.817   6.323   3.579
10011SOL    HW130932   6.893   6.384   3.602
10011SOL    HW230933   6.845   6.261   3.506
10012SOL     OW30934   5.394   0.388   4.542
10012SOL    HW130935   5.366   0.300   4.505
10012SOL    HW230936   5.493   0.388   4.557
10013SOL     OW30937   1.540   0.527   1.628
10013SOL    HW130938   1.547   0.580   1.543
10013SOL    HW230939   1.620   0.468   1.637
10014SOL     OW30940   1.371   4.588   5.941
10014SOL    HW130941   1.395   4.504   5.990
10014SOL    HW230942   1.392   4.576   5.844
10015SOL     OW30943   2.377   5.776   6.316
10015SOL    HW130944   2.279   5.777   6.337
10015SOL    HW230945   2.392   5.728   6.230
10016SOL     OW30946   2.194   1.444   5.076
10016SOL    HW130947   2.204   1.517   5.009
10016SOL    HW230948   2.097   1.432   5.097
10017SOL     OW30949   0.459   1.842   3.743
10017SOL    HW130950   0.496   1.901   3.671
10017SOL    HW230951   0.418   1.761   3.702
10018SOL     OW30952   5.057   6.715   5.899
10018SOL    HW130953   5.092   6.637   5.847
10018SOL    HW230954   4.958   6.709   5.906
10019SOL     OW30955   0.903   0.735   3.042
10019SOL    HW130956   0.926   0.832   3.032
10019SOL    HW230957   0.808   0.721   3.015
10020SOL     OW30958   0.253   3.313   0.348
10020SOL    HW130959   0.345   3.297   0.385
10020SOL    HW230960   0.256   3.306   0.248
10021SOL     OW30961   4.811   3.098   1.327
10021SOL    HW130962   4.737   3.057   1.379
10021SOL    HW230963   4.775   3.144   1.246
10022SOL     OW30964   1.660   0.760   6.090
10022SOL    HW130965   1.680   0.818   6.012
10022SOL    HW230966   1.746   0.722   6.126
10023SOL     OW30967   0.623   3.539   0.924
10023SOL    HW130968   0.704   3.595   0.905
10023SOL    HW230969   0.608   3.536   1.023
10024SOL     OW30970   0.976   3.868   3.002
10024SOL    HW130971   0.979   3.967   2.996
10024SOL    HW230972   0.882   3.837   2.989
10025SOL     OW30973   0.549   1.291   0.927
10025SOL    HW130974   0.528   1.215   0.989
10025SOL    HW230975   0.642   1.323   0.944
10026SOL     OW30976   6.618   0.594   4.688
10026SOL    HW130977   6.586   0.688   4.674
10026SOL    HW230978   6.540   0.537   4.715
10027SOL     OW30979   5.972   2.884   5.582
10027SOL    HW130980   6.046   2.873   5.515
10027SOL    HW230981   5.886   2.856   5.541
10028SOL     OW30982   1.705   1.488   1.862
10028SOL    HW130983   1.656   1.574   1.877
10028SOL    HW230984   1.803   1.504   1.868
10029SOL     OW30985   3.534   1.242   4.161
10029SOL    HW130986   3.437   1.234   4.184
10029SOL    HW230987   3.580   1.296   4.231
10030SOL     OW30988   1.149   1.132   2.794
10030SOL    HW130989   1.207   1.059   2.757
10030SOL    HW230990   1.184   1.221   2.763
10031SOL     OW30991   6.813   4.895   3.643
10031SOL    HW130992   6.835   4.978   3.592
10031SOL    HW230993   6.810   4.817   3.581
10032SOL     OW30994   3.910   1.858   5.095
10032SOL    HW130995   3.897   1.759   5.088
10032SOL    HW230996   3.821   1.903   5.100
10033SOL     OW30997   5.545   3.197   3.826
10033SOL    HW130998   5.539   3.225   3.730
10033SOL    HW230999   5.632   3.149   3.841
10034SOL     OW31000   4.250   6.398   5.718
10034SOL    HW131001   4.227   6.453   5.638
10034SOL    HW231002   4.174   6.336   5.739
10035SOL     OW31003   0.816   6.818   3.719
10035SOL    HW131004   0.910   6.840   3.691
10035SOL    HW231005   0.796   6.723   3.695
10036SOL     OW31006   6.068   0.755   0.274
10036SOL    HW131007   6.101   0.675   0.323
10036SOL    HW231008   6.145   0.814   0.251
10037SOL     OW31009   6.911   6.921   1.514
10037SOL    HW131010   6.906   6.987   1.588
10037SOL    HW231011   7.006   6.909   1.486
10038SOL     OW31012   6.282   0.154   1.183
10038SOL    HW131013   6.344   0.103   1.123
10038SOL    HW231014   6.322   0.160   1.275
10039SOL     OW31015   4.110   0.981   2.520
10039SOL    HW131016   4.182   0.912   2.511
10039SOL    HW231017   4.027   0.938   2.556
10040SOL     OW31018   1.080   2.639   0.769
10040SOL    HW131019   1.089   2.562   0.706
10040SOL    HW231020   1.085   2.606   0.863
10041SOL     OW31021   1.309   0.042   0.306
10041SOL    HW131022   1.383   0.012   0.365
10041SOL    HW231023   1.274   6.994   0.253
10042SOL     OW31024   6.158   1.841   3.686
10042SOL    HW131025   6.100   1.800   3.615
10042SOL    HW231026   6.102   1.869   3.763
10043SOL     OW31027   1.767   2.601   5.686
10043SOL    HW131028   1.827   2.621   5.764
10043SOL    HW231029   1.672   2.601   5.716
10044SOL     OW31030   4.629   0.868   6.873
10044SOL    HW131031   4.661   0.819   6.954
10044SOL    HW231032   4.701   0.868   6.804
10045SOL     OW31033   2.350   0.912   1.212
10045SOL    HW131034   2.443   0.939   1.237
10045SOL    HW231035   2.354   0.837   1.146
10046SOL     OW31036   0.466   5.819   0.325
10046SOL    HW131037   0.546   5.762   0.345
10046SOL    HW231038   0.383   5.768   0.346
10047SOL     OW31039   1.446   3.450   0.755
10047SOL    HW131040   1.361   3.450   0.703
10047SOL    HW231041   1.522   3.477   0.696
10048SOL     OW31042   5.926   3.665   1.908
10048SOL    HW131043   5.849   3.728   1.916
10048SOL    HW231044   5.911   3.585   1.965
10049SOL     OW31045   6.526   1.706   5.019
10049SOL    HW131046   6.492   1.755   5.099
10049SOL    HW231047   6.508   1.760   4.937
10050SOL     OW31048   6.827   2.520   6.299
10050SOL    HW131049   6.906   2.553   6.351
10050SOL    HW231050   6.839   2.424   6.275
10051SOL     OW31051   1.858   0.989   3.572
10051SOL    HW131052   1.823   1.079   3.598
10051SOL    HW231053   1.799   0.948   3.503
10052SOL     OW31054   0.902   0.508   3.782
10052SOL    HW131055   0.884   0.583   3.845
10052SOL    HW231056   0.816   0.465   3.755
10053SOL     OW31057   6.197   5.802   2.881
10053SOL    HW131058   6.251   5.795   2.965
10053SOL    HW231059   6.257   5.828   2.805
10054SOL     OW31060   5.863   4.027   3.689
10054SOL    HW131061   5.909   3.940   3.667
10054SOL    HW231062   5.783   4.038   3.631
10055SOL     OW31063   1.891   1.631   0.026
10055SOL    HW131064   1.896   1.731   0.024
10055SOL    HW231065   1.906   1.595   6.963
10056SOL     OW31066   5.361   2.053   4.018
10056SOL    HW131067   5.296   1.984   3.987
10056SOL    HW231068   5.323   2.144   4.004
10057SOL     OW31069   5.989   4.234   5.139
10057SOL    HW131070   6.074   4.191   5.170
10057SOL    HW231071   5.928   4.248   5.217
10058SOL     OW31072   6.382   3.968   3.533
10058SOL    HW131073   6.426   3.926   3.454
10058SOL    HW231074   6.433   3.945   3.616
10059SOL     OW31075   5.043   5.731   6.139
10059SOL    HW131076   5.094   5.649   6.113
10059SOL    HW231077   5.038   5.737   6.239
10060SOL     OW31078   2.758   1.826   2.226
10060SOL    HW131079   2.684   1.764   2.253
10060SOL    HW231080   2.825   1.832   2.300
10061SOL     OW31081   3.617   6.887   3.194
10061SOL    HW131082   3.660   6.806   3.154
10061SOL    HW231083   3.635   6.966   3.135
10062SOL     OW31084   6.538   6.877   4.688
10062SOL    HW131085   6.599   6.900   4.763
10062SOL    HW231086   6.496   6.787   4.705
10063SOL     OW31087   3.562   2.009   4.331
10063SOL    HW131088   3.585   2.056   4.245
10063SOL    HW231089   3.641   2.010   4.392
10064SOL     OW31090   3.069   6.527   2.257
10064SOL    HW131091   3.123   6.443   2.250
10064SOL    HW231092   3.073   6.562   2.351
10065SOL     OW31093   6.938   1.837   1.833
10065SOL    HW131094   6.975   1.927   1.811
10065SOL    HW231095   6.864   1.815   1.770
10066SOL     OW31096   5.948   3.909   3.381
10066SOL    HW131097   5.997   3.926   3.466
10066SOL    HW231098   5.883   3.834   3.394
10067SOL     OW31099   5.455   3.450   5.188
10067SOL    HW131100   5.366   3.405   5.179
10067SOL    HW231101   5.528   3.385   5.166
10068SOL     OW31102   2.116   3.332   2.720
10068SOL    HW131103   2.103   3.414   2.664
10068SOL    HW231104   2.199   3.284   2.691
10069SOL     OW31105   2.934   5.080   2.004
10069SOL    HW131106   2.929   4.987   2.040
10069SOL    HW231107   3.029   5.101   1.981
10070SOL     OW31108   5.073   6.894   0.549
10070SOL    HW131109   5.108   6.807   0.585
10070SOL    HW231110   5.149   6.958   0.538
10071SOL     OW31111   5.081   0.501   5.243
10071SOL    HW131112   5.131   0.532   5.324
10071SOL    HW231113   5.067   0.578   5.181
10072SOL     OW31114   5.517   3.265   2.335
10072SOL    HW131115   5.489   3.360   2.321
10072SOL    HW231116   5.464   3.206   2.273
10073SOL     OW31117   5.956   5.903   5.473
10073SOL    HW131118   5.915   5.988   5.443
10073SOL    HW231119   5.925   5.828   5.415
10074SOL     OW31120   1.713   4.504   1.164
10074SOL    HW131121   1.699   4.600   1.187
10074SOL    HW231122   1.645   4.448   1.211
10075SOL     OW31123   1.171   3.172   2.371
10075SOL    HW131124   1.194   3.088   2.322
10075SOL    HW231125   1.234   3.183   2.449
10076SOL     OW31126   5.763   4.577   3.344
10076SOL    HW131127   5.743   4.577   3.442
10076SOL    HW231128   5.858   4.607   3.330
10077SOL     OW31129   4.129   3.608   6.481
10077SOL    HW131130   4.170   3.517   6.486
10077SOL    HW231131   4.199   3.677   6.495
10078SOL     OW31132   5.807   5.449   4.119
10078SOL    HW131133   5.831   5.356   4.147
10078SOL    HW231134   5.890   5.498   4.092
10079SOL     OW31135   5.661   5.288   2.831
10079SOL    HW131136   5.641   5.371   2.780
10079SOL    HW231137   5.680   5.310   2.926
10080SOL     OW31138   5.680   2.771   5.224
10080SOL    HW131139   5.702   2.732   5.135
10080SOL    HW231140   5.586   2.806   5.224
10081SOL     OW31141   1.632   5.062   0.880
10081SOL    HW131142   1.660   5.105   0.794
10081SOL    HW231143   1.642   4.963   0.871
10082SOL     OW31144   0.835   4.689   1.616
10082SOL    HW131145   0.762   4.646   1.670
10082SOL    HW231146   0.887   4.751   1.675
10083SOL     OW31147   3.006   6.356   2.690
10083SOL    HW131148   3.085   6.309   2.651
10083SOL    HW231149   2.923   6.331   2.640
10084SOL     OW31150   1.799   2.953   5.170
10084SOL    HW131151   1.806   2.873   5.111
10084SOL    HW231152   1.864   3.023   5.139
10085SOL     OW31153   3.917   6.865   1.299
10085SOL    HW131154   3.923   6.777   1.347
10085SOL    HW231155   4.008   6.906   1.294
10086SOL     OW31156   3.096   0.821   3.114
10086SOL    HW131157   3.116   0.777   3.026
10086SOL    HW231158   3.153   0.903   3.123
10087SOL     OW31159   1.822   5.067   6.001
10087SOL    HW131160   1.819   4.977   5.959
10087SOL    HW231161   1.881   5.127   5.946
10088SOL     OW31162   5.887   1.648   0.837
10088SOL    HW131163   5.879   1.548   0.845
10088SOL    HW231164   5.886   1.689   0.927
10089SOL     OW31165   3.743   6.884   2.067
10089SOL    HW131166   3.743   6.959   2.132
10089SOL    HW231167   3.825   6.888   2.011
10090SOL     OW31168   3.111   5.571   1.949
10090SOL    HW131169   3.191   5.560   2.008
10090SOL    HW231170   3.034   5.519   1.988
10091SOL     OW31171   5.675   6.029   2.737
10091SOL    HW131172   5.579   6.015   2.759
10091SOL    HW231173   5.689   6.017   2.638
10092SOL     OW31174   0.246   1.063   2.497
10092SOL    HW131175   0.163   1.109   2.468
10092SOL    HW231176   0.249   1.058   2.597
10093SOL     OW31177   4.499   4.226   6.011
10093SOL    HW131178   4.417   4.169   6.001
10093SOL    HW231179   4.476   4.321   5.990
10094SOL     OW31180   3.659   2.476   0.834
10094SOL    HW131181   3.642   2.450   0.928
10094SOL    HW231182   3.716   2.559   0.832
10095SOL     OW31183   4.405   2.649   5.217
10095SOL    HW131184   4.314   2.609   5.202
10095SOL    HW231185   4.395   2.744   5.247
10096SOL     OW31186   6.618   4.969   1.972
10096SOL    HW131187   6.615   5.059   2.017
10096SOL    HW231188   6.531   4.952   1.926
10097SOL     OW31189   1.215   1.244   1.075
10097SOL    HW131190   1.178   1.153   1.098
10097SOL    HW231191   1.197   1.307   1.151
10098SOL     OW31192   4.244   5.236   0.199
10098SOL    HW131193   4.164   5.253   0.257
10098SOL    HW231194   4.235   5.285   0.113
10099SOL     OW31195   6.893   6.137   3.411
10099SOL    HW131196   6.858   6.111   3.321
10099SOL    HW231197   6.991   6.119   3.415
10100SOL     OW31198   5.011   5.224   3.960
10100SOL    HW131199   4.954   5.304   3.941
10100SOL    HW231200   5.058   5.238   4.048
10101SOL     OW31201   0.006   2.622   7.024
10101SOL    HW131202   7.007   2.578   6.939
10101SOL    HW231203   0.071   2.563   0.043
10102SOL     OW31204   6.926   4.908   3.077
10102SOL    HW131205   6.988   4.833   3.099
10102SOL    HW231206   6.980   4.991   3.060
10103SOL     OW31207   0.171   6.937   7.002
10103SOL    HW131208   0.160   0.006   6.982
10103SOL    HW231209   0.234   6.897   6.935
10104SOL     OW31210   2.182   1.724   4.876
10104SOL    HW131211   2.260   1.780   4.850
10104SOL    HW231212   2.137   1.687   4.794
10105SOL     OW31213   2.975   1.375   4.394
10105SOL    HW131214   2.903   1.361   4.462
10105SOL    HW231215   2.937   1.360   4.302
10106SOL     OW31216   5.987   3.873   1.186
10106SOL    HW131217   6.033   3.853   1.272
10106SOL    HW231218   6.030   3.823   1.111
10107SOL     OW31219   5.081   5.958   5.884
10107SOL    HW131220   5.139   6.033   5.851
10107SOL    HW231221   5.116   5.926   5.972
10108SOL     OW31222   2.493   2.020   5.055
10108SOL    HW131223   2.469   2.015   4.958
10108SOL    HW231224   2.410   2.028   5.110
10109SOL     OW31225   0.886   3.152   1.403
10109SOL    HW131226   0.907   3.189   1.312
10109SOL    HW231227   0.849   3.060   1.393
10110SOL     OW31228   5.945   6.716   1.959
10110SOL    HW131229   5.983   6.625   1.976
10110SOL    HW231230   5.846   6.711   1.955
10111SOL     OW31231   0.216   2.920   1.665
10111SOL    HW131232   0.180   2.827   1.677
10111SOL    HW231233   0.213   2.945   1.569
10112SOL     OW31234   6.960   3.035   4.134
10112SOL    HW131235   6.924   2.945   4.111
10112SOL    HW231236   6.999   3.077   4.052
10113SOL     OW31237   7.012   6.314   6.402
10113SOL    HW131238   6.970   6.279   6.319
10113SOL    HW231239   6.942   6.357   6.459
10114SOL     OW31240   5.236   4.083   1.526
10114SOL    HW131241   5.218   4.162   1.585
10114SOL    HW231242   5.328   4.048   1.544
10115SOL     OW31243   3.977   1.515   6.621
10115SOL    HW131244   3.880   1.510   6.599
10115SOL    HW231245   4.027   1.445   6.569
10116SOL     OW31246   0.470   0.087   6.535
10116SOL    HW131247   0.531   0.164   6.555
10116SOL    HW231248   0.428   0.054   6.620
10117SOL     OW31249   0.217   4.428   1.333
10117SOL    HW131250   0.250   4.521   1.324
10117SOL    HW231251   0.117   4.429   1.343
10118SOL     OW31252   4.338   5.276   3.474
10118SOL    HW131253   4.297   5.226   3.550
10118SOL    HW231254   4.311   5.372   3.479
10119SOL     OW31255   5.779   6.236   6.708
10119SOL    HW131256   5.724   6.264   6.787
10119SOL    HW231257   5.796   6.138   6.712
10120SOL     OW31258   2.449   2.602   3.152
10120SOL    HW131259   2.446   2.571   3.247
10120SOL    HW231260   2.519   2.552   3.102
10121SOL     OW31261   6.748   5.619   1.365
10121SOL    HW131262   6.780   5.647   1.274
10121SOL    HW231263   6.660   5.572   1.356
10122SOL     OW31264   1.742   0.366   3.406
10122SOL    HW131265   1.693   0.279   3.398
10122SOL    HW231266   1.689   0.428   3.464
10123SOL     OW31267   6.172   6.383   6.754
10123SOL    HW131268   6.093   6.410   6.700
10123SOL    HW231269   6.239   6.456   6.755
10124SOL     OW31270   0.953   4.468   3.266
10124SOL    HW131271   0.937   4.385   3.212
10124SOL    HW231272   1.030   4.519   3.227
10125SOL     OW31273   1.802   1.828   4.799
10125SOL    HW131274   1.823   1.924   4.779
10125SOL    HW231275   1.853   1.798   4.880
10126SOL     OW31276   6.686   6.141   4.569
10126SOL    HW131277   6.684   6.204   4.646
10126SOL    HW231278   6.745   6.178   4.497
10127SOL     OW31279   2.161   1.006   4.972
10127SOL    HW131280   2.070   1.018   4.932
10127SOL    HW231281   2.214   1.090   4.962
10128SOL     OW31282   3.267   0.970   0.345
10128SOL    HW131283   3.289   1.067   0.351
10128SOL    HW231284   3.179   0.959   0.297
10129SOL     OW31285   6.574   2.048   5.549
10129SOL    HW131286   6.599   2.054   5.452
10129SOL    HW231287   6.477   2.026   5.557
10130SOL     OW31288   1.325   2.673   3.164
10130SOL    HW131289   1.407   2.616   3.151
10130SOL    HW231290   1.345   2.743   3.233
10131SOL     OW31291   2.082   0.984   5.249
10131SOL    HW131292   2.133   0.993   5.164
10131SOL    HW231293   1.989   0.952   5.230
10132SOL     OW31294   6.065   0.575   2.152
10132SOL    HW131295   6.057   0.614   2.060
10132SOL    HW231296   6.122   0.636   2.209
10133SOL     OW31297   4.640   5.187   1.182
10133SOL    HW131298   4.550   5.226   1.162
10133SOL    HW231299   4.642   5.091   1.152
10134SOL     OW31300   6.397   0.338   3.112
10134SOL    HW131301   6.408   0.353   3.014
10134SOL    HW231302   6.391   0.426   3.158
10135SOL     OW31303   6.138   6.641   3.340
10135SOL    HW131304   6.061   6.702   3.355
10135SOL    HW231305   6.186   6.626   3.427
10136SOL     OW31306   4.622   0.969   2.866
10136SOL    HW131307   4.707   0.985   2.915
10136SOL    HW231308   4.603   1.046   2.805
10137SOL     OW31309   6.532   5.878   2.861
10137SOL    HW131310   6.469   5.814   2.905
10137SOL    HW231311   6.546   5.957   2.920
10138SOL     OW31312   0.241   1.905   2.454
10138SOL    HW131313   0.191   1.821   2.433
10138SOL    HW231314   0.183   1.984   2.433
10139SOL     OW31315   4.014   2.530   1.118
10139SOL    HW131316   3.980   2.459   1.179
10139SOL    HW231317   4.114   2.527   1.117
10140SOL     OW31318   5.988   6.741   4.146
10140SOL    HW131319   5.962   6.812   4.211
10140SOL    HW231320   5.960   6.767   4.054
10141SOL     OW31321   0.899   2.147   4.656
10141SOL    HW131322   0.893   2.117   4.751
10141SOL    HW231323   0.820   2.113   4.605
10142SOL     OW31324   4.305   6.088   1.607
10142SOL    HW131325   4.216   6.043   1.606
10142SOL    HW231326   4.306   6.163   1.540
10143SOL     OW31327   6.447   3.501   6.823
10143SOL    HW131328   6.374   3.556   6.864
10143SOL    HW231329   6.437   3.406   6.851
10144SOL     OW31330   4.025   0.973   1.382
10144SOL    HW131331   4.052   1.036   1.309
10144SOL    HW231332   3.939   0.929   1.358
10145SOL     OW31333   6.298   0.197   5.112
10145SOL    HW131334   6.355   0.226   5.188
10145SOL    HW231335   6.350   0.136   5.052
10146SOL     OW31336   1.587   1.321   5.430
10146SOL    HW131337   1.542   1.319   5.519
10146SOL    HW231338   1.627   1.231   5.411
10147SOL     OW31339   3.181   4.811   0.615
10147SOL    HW131340   3.270   4.841   0.580
10147SOL    HW231341   3.112   4.881   0.594
10148SOL     OW31342   0.239   5.641   6.293
10148SOL    HW131343   0.154   5.678   6.330
10148SOL    HW231344   0.257   5.551   6.334
10149SOL     OW31345   3.004   3.417   3.641
10149SOL    HW131346   2.996   3.321   3.615
10149SOL    HW231347   3.041   3.424   3.733
10150SOL     OW31348   5.856   4.197   0.309
10150SOL    HW131349   5.809   4.123   0.358
10150SOL    HW231350   5.908   4.252   0.374
10151SOL     OW31351   0.462   1.009   0.420
10151SOL    HW131352   0.363   0.993   0.413
10151SOL    HW231353   0.482   1.055   0.507
10152SOL     OW31354   3.226   6.485   3.710
10152SOL    HW131355   3.198   6.424   3.784
10152SOL    HW231356   3.144   6.515   3.659
10153SOL     OW31357   4.838   4.037   1.229
10153SOL    HW131358   4.771   4.110   1.220
10153SOL    HW231359   4.792   3.951   1.252
10154SOL     OW31360   4.788   5.254   5.930
10154SOL    HW131361   4.846   5.335   5.932
10154SOL    HW231362   4.795   5.210   5.840
10155SOL     OW31363   4.761   2.400   4.604
10155SOL    HW131364   4.854   2.378   4.572
10155SOL    HW231365   4.702   2.415   4.525
10156SOL     OW31366   3.427   1.513   6.845
10156SOL    HW131367   3.478   1.503   6.931
10156SOL    HW231368   3.454   1.599   6.800
10157SOL     OW31369   0.663   4.966   1.669
10157SOL    HW131370   0.659   5.062   1.695
10157SOL    HW231371   0.738   4.921   1.718
10158SOL     OW31372   6.352   4.885   6.578
10158SOL    HW131373   6.388   4.978   6.573
10158SOL    HW231374   6.354   4.853   6.673
10159SOL     OW31375   3.889   3.125   1.698
10159SOL    HW131376   3.839   3.208   1.726
10159SOL    HW231377   3.987   3.142   1.704
10160SOL     OW31378   6.850   4.246   2.566
10160SOL    HW131379   6.945   4.276   2.571
10160SOL    HW231380   6.833   4.202   2.477
10161SOL     OW31381   6.595   3.074   0.344
10161SOL    HW131382   6.650   3.153   0.317
10161SOL    HW231383   6.502   3.104   0.367
10162SOL     OW31384   2.399   2.345   1.826
10162SOL    HW131385   2.303   2.325   1.810
10162SOL    HW231386   2.412   2.373   1.921
10163SOL     OW31387   3.311   5.621   4.850
10163SOL    HW131388   3.405   5.653   4.845
10163SOL    HW231389   3.286   5.577   4.764
10164SOL     OW31390   0.291   0.742   3.895
10164SOL    HW131391   0.219   0.674   3.894
10164SOL    HW231392   0.266   0.817   3.834
10165SOL     OW31393   2.123   3.356   4.043
10165SOL    HW131394   2.094   3.332   3.950
10165SOL    HW231395   2.133   3.456   4.050
10166SOL     OW31396   2.799   6.355   3.190
10166SOL    HW131397   2.896   6.376   3.198
10166SOL    HW231398   2.788   6.255   3.184
10167SOL     OW31399   4.072   1.433   6.853
10167SOL    HW131400   4.030   1.440   6.943
10167SOL    HW231401   4.013   1.479   6.786
10168SOL     OW31402   0.768   1.000   6.705
10168SOL    HW131403   0.777   0.952   6.792
10168SOL    HW231404   0.759   1.098   6.721
10169SOL     OW31405   4.537   5.042   2.821
10169SOL    HW131406   4.481   5.019   2.901
10169SOL    HW231407   4.629   5.005   2.834
10170SOL     OW31408   5.054   6.104   6.822
10170SOL    HW131409   5.014   6.099   6.914
10170SOL    HW231410   5.030   6.192   6.781
10171SOL     OW31411   1.565   4.210   3.254
10171SOL    HW131412   1.595   4.135   3.194
10171SOL    HW231413   1.597   4.193   3.347
10172SOL     OW31414   0.345   1.424   3.396
10172SOL    HW131415   0.312   1.392   3.485
10172SOL    HW231416   0.409   1.357   3.358
10173SOL     OW31417   4.594   2.667   5.001
10173SOL    HW131418   4.508   2.659   5.052
10173SOL    HW231419   4.577   2.711   4.913
10174SOL     OW31420   4.931   4.608   1.202
10174SOL    HW131421   4.994   4.555   1.259
10174SOL    HW231422   4.868   4.659   1.260
10175SOL     OW31423   6.259   0.151   3.427
10175SOL    HW131424   6.336   0.137   3.364
10175SOL    HW231425   6.294   0.170   3.518
10176SOL     OW31426   6.769   1.326   4.989
10176SOL    HW131427   6.835   1.306   4.917
10176SOL    HW231428   6.744   1.423   4.985
10177SOL     OW31429   2.996   1.004   4.335
10177SOL    HW131430   2.976   1.102   4.336
10177SOL    HW231431   2.910   0.953   4.343
10178SOL     OW31432   6.929   1.530   2.534
10178SOL    HW131433   6.994   1.603   2.553
10178SOL    HW231434   6.899   1.537   2.438
10179SOL     OW31435   0.311   5.985   0.764
10179SOL    HW131436   0.386   6.038   0.803
10179SOL    HW231437   0.224   6.022   0.796
10180SOL     OW31438   2.183   0.027   6.351
10180SOL    HW131439   2.177   0.119   6.389
10180SOL    HW231440   2.142   6.991   6.414
10181SOL     OW31441   6.804   4.107   2.237
10181SOL    HW131442   6.774   4.078   2.146
10181SOL    HW231443   6.734   4.084   2.304
10182SOL     OW31444   3.168   6.857   6.568
10182SOL    HW131445   3.147   6.760   6.562
10182SOL    HW231446   3.124   6.896   6.649
10183SOL     OW31447   3.866   5.951   6.268
10183SOL    HW131448   3.901   5.953   6.361
10183SOL    HW231449   3.826   5.861   6.249
10184SOL     OW31450   4.832   2.466   4.039
10184SOL    HW131451   4.733   2.476   4.039
10184SOL    HW231452   4.857   2.369   4.046
10185SOL     OW31453   2.995   4.811   2.031
10185SOL    HW131454   2.922   4.747   2.057
10185SOL    HW231455   3.007   4.809   1.932
10186SOL     OW31456   3.407   2.773   1.744
10186SOL    HW131457   3.505   2.772   1.766
10186SOL    HW231458   3.356   2.810   1.821
10187SOL     OW31459   1.731   3.744   5.665
10187SOL    HW131460   1.639   3.705   5.670
10187SOL    HW231461   1.747   3.803   5.744
10188SOL     OW31462   2.516   0.241   6.599
10188SOL    HW131463   2.466   0.204   6.677
10188SOL    HW231464   2.570   0.169   6.555
10189SOL     OW31465   2.041   1.973   5.215
10189SOL    HW131466   2.118   1.940   5.270
10189SOL    HW231467   2.049   2.072   5.203
10190SOL     OW31468   3.171   3.878   0.860
10190SOL    HW131469   3.128   3.896   0.949
10190SOL    HW231470   3.137   3.791   0.824
10191SOL     OW31471   5.839   0.691   0.136
10191SOL    HW131472   5.928   0.717   0.174
10191SOL    HW231473   5.809   0.763   0.073
10192SOL     OW31474   2.894   0.321   4.352
10192SOL    HW131475   2.952   0.242   4.372
10192SOL    HW231476   2.889   0.379   4.433
10193SOL     OW31477   3.905   3.268   3.822
10193SOL    HW131478   3.937   3.190   3.768
10193SOL    HW231479   3.978   3.299   3.883
10194SOL     OW31480   3.186   5.729   3.495
10194SOL    HW131481   3.189   5.767   3.402
10194SOL    HW231482   3.268   5.756   3.545
10195SOL     OW31483   5.143   0.217   2.196
10195SOL    HW131484   5.220   0.274   2.166
10195SOL    HW231485   5.176   0.145   2.257
10196SOL     OW31486   4.379   4.694   3.727
10196SOL    HW131487   4.453   4.701   3.660
10196SOL    HW231488   4.408   4.634   3.802
10197SOL     OW31489   4.948   1.860   2.844
10197SOL    HW131490   4.856   1.821   2.839
10197SOL    HW231491   4.993   1.851   2.755
10198SOL     OW31492   3.414   1.857   1.963
10198SOL    HW131493   3.478   1.845   1.886
10198SOL    HW231494   3.364   1.942   1.951
10199SOL     OW31495   1.379   1.705   0.216
10199SOL    HW131496   1.461   1.710   0.273
10199SOL    HW231497   1.340   1.796   0.205
10200SOL     OW31498   5.640   6.981   3.895
10200SOL    HW131499   5.545   6.950   3.896
10200SOL    HW231500   5.663   7.016   3.805
10201SOL     OW31501   1.170   5.167   3.243
10201SOL    HW131502   1.082   5.177   3.196
10201SOL    HW231503   1.230   5.110   3.187
10202SOL     OW31504   1.413   2.257   3.421
10202SOL    HW131505   1.366   2.234   3.336
10202SOL    HW231506   1.455   2.347   3.414
10203SOL     OW31507   6.819   2.574   0.950
10203SOL    HW131508   6.786   2.486   0.918
10203SOL    HW231509   6.845   2.631   0.872
10204SOL     OW31510   1.848   6.084   4.143
10204SOL    HW131511   1.868   6.182   4.135
10204SOL    HW231512   1.933   6.032   4.143
10205SOL     OW31513   3.285   6.896   1.029
10205SOL    HW131514   3.297   6.986   0.987
10205SOL    HW231515   3.374   6.863   1.061
10206SOL     OW31516   5.713   6.365   6.932
10206SOL    HW131517   5.811   6.365   6.951
10206SOL    HW231518   5.666   6.313   7.003
10207SOL     OW31519   3.522   1.307   2.649
10207SOL    HW131520   3.473   1.220   2.645
10207SOL    HW231521   3.463   1.380   2.614
10208SOL     OW31522   0.355   2.708   6.445
10208SOL    HW131523   0.374   2.686   6.350
10208SOL    HW231524   0.327   2.625   6.493
10209SOL     OW31525   3.964   6.213   6.925
10209SOL    HW131526   3.882   6.160   6.903
10209SOL    HW231527   4.022   6.218   6.844
10210SOL     OW31528   4.613   6.413   6.664
10210SOL    HW131529   4.646   6.504   6.641
10210SOL    HW231530   4.625   6.397   6.762
10211SOL     OW31531   3.543   5.215   5.070
10211SOL    HW131532   3.569   5.312   5.071
10211SOL    HW231533   3.444   5.208   5.084
10212SOL     OW31534   6.391   5.875   5.675
10212SOL    HW131535   6.354   5.949   5.731
10212SOL    HW231536   6.342   5.872   5.587
10213SOL     OW31537   4.120   0.328   4.280
10213SOL    HW131538   4.182   0.257   4.246
10213SOL    HW231539   4.095   0.306   4.375
10214SOL     OW31540   0.224   0.906   0.381
10214SOL    HW131541   0.230   0.821   0.328
10214SOL    HW231542   0.130   0.939   0.381
10215SOL     OW31543   4.462   2.676   0.196
10215SOL    HW131544   4.431   2.761   0.155
10215SOL    HW231545   4.432   2.673   0.292
10216SOL     OW31546   5.204   0.605   2.366
10216SOL    HW131547   5.130   0.539   2.375
10216SOL    HW231548   5.190   0.660   2.283
10217SOL     OW31549   3.115   2.174   6.026
10217SOL    HW131550   3.075   2.179   5.935
10217SOL    HW231551   3.070   2.101   6.078
10218SOL     OW31552   3.995   0.533   6.542
10218SOL    HW131553   4.090   0.551   6.516
10218SOL    HW231554   3.941   0.617   6.534
10219SOL     OW31555   0.247   4.922   0.252
10219SOL    HW131556   0.278   4.957   0.164
10219SOL    HW231557   0.320   4.928   0.319
10220SOL     OW31558   4.069   2.552   6.860
10220SOL    HW131559   4.008   2.484   6.901
10220SOL    HW231560   4.111   2.513   6.777
10221SOL     OW31561   2.433   0.844   4.289
10221SOL    HW131562   2.444   0.938   4.321
10221SOL    HW231563   2.520   0.809   4.255
10222SOL     OW31564   2.461   4.509   5.284
10222SOL    HW131565   2.547   4.458   5.277
10222SOL    HW231566   2.391   4.464   5.228
10223SOL     OW31567   1.202   4.748   5.779
10223SOL    HW131568   1.249   4.714   5.860
10223SOL    HW231569   1.172   4.842   5.795
10224SOL     OW31570   3.301   5.737   5.563
10224SOL    HW131571   3.394   5.769   5.585
10224SOL    HW231572   3.244   5.816   5.541
10225SOL     OW31573   5.044   7.019   4.417
10225SOL    HW131574   5.068   6.922   4.429
10225SOL    HW231575   5.017   0.028   4.505
10226SOL     OW31576   0.043   2.609   6.466
10226SOL    HW131577   0.110   2.620   6.540
10226SOL    HW231578   0.075   2.658   6.385
10227SOL     OW31579   4.723   4.414   5.389
10227SOL    HW131580   4.625   4.433   5.398
10227SOL    HW231581   4.744   4.393   5.294
10228SOL     OW31582   1.016   2.688   1.606
10228SOL    HW131583   1.112   2.662   1.606
10228SOL    HW231584   1.007   2.783   1.639
10229SOL     OW31585   2.828   1.002   1.940
10229SOL    HW131586   2.808   0.910   1.973
10229SOL    HW231587   2.902   1.041   1.995
10230SOL     OW31588   5.554   6.964   3.281
10230SOL    HW131589   5.554   6.876   3.330
10230SOL    HW231590   5.600   6.953   3.193
10231SOL     OW31591   4.793   5.863   4.406
10231SOL    HW131592   4.892   5.879   4.403
10231SOL    HW231593   4.754   5.911   4.485
10232SOL     OW31594   4.306   2.288   3.369
10232SOL    HW131595   4.355   2.201   3.360
10232SOL    HW231596   4.208   2.272   3.359
10233SOL     OW31597   4.614   6.550   5.493
10233SOL    HW131598   4.688   6.611   5.522
10233SOL    HW231599   4.643   6.498   5.412
10234SOL     OW31600   4.306   4.415   0.942
10234SOL    HW131601   4.305   4.463   1.030
10234SOL    HW231602   4.306   4.481   0.867
10235SOL     OW31603   4.814   0.072   0.251
10235SOL    HW131604   4.801   0.114   0.341
10235SOL    HW231605   4.807   0.142   0.180
10236SOL     OW31606   1.328   4.903   1.480
10236SOL    HW131607   1.228   4.910   1.487
10236SOL    HW231608   1.365   4.993   1.456
10237SOL     OW31609   6.000   2.838   3.215
10237SOL    HW131610   5.923   2.896   3.187
10237SOL    HW231611   5.965   2.756   3.258
10238SOL     OW31612   4.918   5.274   6.257
10238SOL    HW131613   4.989   5.249   6.191
10238SOL    HW231614   4.829   5.243   6.224
10239SOL     OW31615   5.514   3.315   4.442
10239SOL    HW131616   5.551   3.352   4.527
10239SOL    HW231617   5.545   3.221   4.430
10240SOL     OW31618   4.910   3.747   2.844
10240SOL    HW131619   4.926   3.713   2.937
10240SOL    HW231620   4.902   3.847   2.847
10241SOL     OW31621   1.201   2.441   2.761
10241SOL    HW131622   1.269   2.498   2.714
10241SOL    HW231623   1.246   2.386   2.831
10242SOL     OW31624   1.180   5.388   6.637
10242SOL    HW131625   1.246   5.312   6.637
10242SOL    HW231626   1.110   5.371   6.568
10243SOL     OW31627   0.404   5.601   3.728
10243SOL    HW131628   0.310   5.578   3.705
10243SOL    HW231629   0.467   5.551   3.668
10244SOL     OW31630   2.453   5.834   6.914
10244SOL    HW131631   2.408   5.883   6.989
10244SOL    HW231632   2.545   5.872   6.900
10245SOL     OW31633   3.477   2.919   0.691
10245SOL    HW131634   3.509   2.868   0.770
10245SOL    HW231635   3.393   2.968   0.714
10246SOL     OW31636   3.677   4.173   4.961
10246SOL    HW131637   3.749   4.221   5.012
10246SOL    HW231638   3.700   4.173   4.864
10247SOL     OW31639   1.485   5.651   6.586
10247SOL    HW131640   1.472   5.693   6.676
10247SOL    HW231641   1.435   5.705   6.517
10248SOL     OW31642   5.761   0.825   3.752
10248SOL    HW131643   5.696   0.818   3.828
10248SOL    HW231644   5.854   0.836   3.789
10249SOL     OW31645   4.792   0.752   6.153
10249SOL    HW131646   4.707   0.796   6.181
10249SOL    HW231647   4.806   0.768   6.055
10250SOL     OW31648   4.351   5.708   0.865
10250SOL    HW131649   4.436   5.730   0.913
10250SOL    HW231650   4.365   5.717   0.767
10251SOL     OW31651   3.948   4.253   1.236
10251SOL    HW131652   3.881   4.178   1.243
10251SOL    HW231653   3.907   4.337   1.271
10252SOL     OW31654   0.288   3.785   0.911
10252SOL    HW131655   0.312   3.882   0.918
10252SOL    HW231656   0.194   3.772   0.943
10253SOL     OW31657   4.420   4.133   0.035
10253SOL    HW131658   4.454   4.090   0.118
10253SOL    HW231659   4.436   4.232   0.039
10254SOL     OW31660   2.895   2.058   5.271
10254SOL    HW131661   2.832   2.031   5.198
10254SOL    HW231662   2.906   1.983   5.336
10255SOL     OW31663   3.394   4.986   4.121
10255SOL    HW131664   3.309   4.933   4.129
10255SOL    HW231665   3.406   5.043   4.203
10256SOL     OW31666   5.410   6.020   6.943
10256SOL    HW131667   5.344   6.081   6.899
10256SOL    HW231668   5.360   5.957   7.004
10257SOL     OW31669   1.723   4.592   5.605
10257SOL    HW131670   1.806   4.580   5.550
10257SOL    HW231671   1.735   4.549   5.694
10258SOL     OW31672   4.678   1.394   2.515
10258SOL    HW131673   4.756   1.384   2.454
10258SOL    HW231674   4.651   1.490   2.521
10259SOL     OW31675   6.588   3.564   4.491
10259SOL    HW131676   6.513   3.567   4.424
10259SOL    HW231677   6.634   3.475   4.486
10260SOL     OW31678   0.551   5.514   2.128
10260SOL    HW131679   0.482   5.554   2.069
10260SOL    HW231680   0.568   5.419   2.099
10261SOL     OW31681   2.150   0.218   1.945
10261SOL    HW131682   2.091   0.138   1.934
10261SOL    HW231683   2.202   0.233   1.861
10262SOL     OW31684   0.035   6.236   4.083
10262SOL    HW131685   6.970   6.209   4.064
10262SOL    HW231686   0.038   6.334   4.105
10263SOL     OW31687   6.413   3.261   4.747
10263SOL    HW131688   6.395   3.183   4.808
10263SOL    HW231689   6.511   3.272   4.735
10264SOL     OW31690   0.766   0.773   0.416
10264SOL    HW131691   0.855   0.777   0.371
10264SOL    HW231692   0.766   0.833   0.496
10265SOL     OW31693   5.038   2.647   4.140
10265SOL    HW131694   5.036   2.670   4.237
10265SOL    HW231695   4.954   2.600   4.115
10266SOL     OW31696   3.556   3.771   0.139
10266SOL    HW131697   3.605   3.695   0.095
10266SOL    HW231698   3.460   3.746   0.151
10267SOL     OW31699   6.972   0.766   6.540
10267SOL    HW131700   6.966   0.854   6.588
10267SOL    HW231701   7.007   0.781   6.448
10268SOL     OW31702   6.798   4.098   0.438
10268SOL    HW131703   6.779   4.178   0.382
10268SOL    HW231704   6.892   4.069   0.422
10269SOL     OW31705   4.111   1.695   5.681
10269SOL    HW131706   4.055   1.657   5.755
10269SOL    HW231707   4.203   1.658   5.687
10270SOL     OW31708   3.824   6.106   2.827
10270SOL    HW131709   3.801   6.197   2.795
10270SOL    HW231710   3.755   6.076   2.894
10271SOL     OW31711   2.041   4.656   1.505
10271SOL    HW131712   2.071   4.633   1.598
10271SOL    HW231713   1.954   4.609   1.486
10272SOL     OW31714   1.828   3.087   4.042
10272SOL    HW131715   1.849   2.997   4.003
10272SOL    HW231716   1.847   3.158   3.975
10273SOL     OW31717   4.531   6.275   3.663
10273SOL    HW131718   4.447   6.330   3.666
10273SOL    HW231719   4.599   6.315   3.725
10274SOL     OW31720   2.375   4.426   6.439
10274SOL    HW131721   2.351   4.360   6.368
10274SOL    HW231722   2.416   4.379   6.517
10275SOL     OW31723   0.946   5.708   1.609
10275SOL    HW131724   1.039   5.736   1.584
10275SOL    HW231725   0.948   5.616   1.648
10276SOL     OW31726   1.332   0.285   0.137
10276SOL    HW131727   1.321   0.204   0.195
10276SOL    HW231728   1.408   0.340   0.171
10277SOL     OW31729   6.995   6.000   1.895
10277SOL    HW131730   7.005   6.028   1.990
10277SOL    HW231731   6.912   5.945   1.884
10278SOL     OW31732   6.262   1.093   5.493
10278SOL    HW131733   6.353   1.125   5.517
10278SOL    HW231734   6.211   1.167   5.448
10279SOL     OW31735   3.874   6.134   4.292
10279SOL    HW131736   3.914   6.225   4.297
10279SOL    HW231737   3.895   6.084   4.376
10280SOL     OW31738   2.699   2.792   0.277
10280SOL    HW131739   2.755   2.713   0.303
10280SOL    HW231740   2.603   2.774   0.298
10281SOL     OW31741   4.349   0.913   4.431
10281SOL    HW131742   4.273   0.898   4.368
10281SOL    HW231743   4.315   0.955   4.515
10282SOL     OW31744   1.740   3.489   4.265
10282SOL    HW131745   1.772   3.395   4.257
10282SOL    HW231746   1.815   3.552   4.242
10283SOL     OW31747   1.625   5.276   6.076
10283SOL    HW131748   1.664   5.185   6.061
10283SOL    HW231749   1.564   5.274   6.155
10284SOL     OW31750   5.149   2.934   0.313
10284SOL    HW131751   5.214   2.862   0.289
10284SOL    HW231752   5.057   2.908   0.283
10285SOL     OW31753   5.131   1.361   1.434
10285SOL    HW131754   5.113   1.419   1.355
10285SOL    HW231755   5.207   1.300   1.414
10286SOL     OW31756   3.621   0.138   3.978
10286SOL    HW131757   3.676   0.206   4.026
10286SOL    HW231758   3.583   0.178   3.894
10287SOL     OW31759   2.249   4.017   2.317
10287SOL    HW131760   2.318   4.004   2.389
10287SOL    HW231761   2.239   4.115   2.297
10288SOL     OW31762   4.135   6.056   4.124
10288SOL    HW131763   4.035   6.058   4.123
10288SOL    HW231764   4.170   6.071   4.031
10289SOL     OW31765   2.577   1.536   1.701
10289SOL    HW131766   2.539   1.457   1.748
10289SOL    HW231767   2.644   1.506   1.632
10290SOL     OW31768   3.195   3.047   3.320
10290SOL    HW131769   3.261   2.986   3.276
10290SOL    HW231770   3.188   3.024   3.417
10291SOL     OW31771   3.795   0.291   4.141
10291SOL    HW131772   3.796   0.356   4.216
10291SOL    HW231773   3.856   0.214   4.161
10292SOL     OW31774   6.646   2.556   3.978
10292SOL    HW131775   6.617   2.462   3.998
10292SOL    HW231776   6.743   2.566   4.000
10293SOL     OW31777   1.752   4.864   2.821
10293SOL    HW131778   1.713   4.779   2.855
10293SOL    HW231779   1.679   4.928   2.798
10294SOL     OW31780   5.667   0.633   3.198
10294SOL    HW131781   5.751   0.659   3.151
10294SOL    HW231782   5.688   0.571   3.274
10295SOL     OW31783   1.923   3.839   3.364
10295SOL    HW131784   1.887   3.870   3.452
10295SOL    HW231785   2.019   3.868   3.356
10296SOL     OW31786   6.015   3.319   1.577
10296SOL    HW131787   5.925   3.317   1.620
10296SOL    HW231788   6.006   3.351   1.482
10297SOL     OW31789   3.833   4.947   5.011
10297SOL    HW131790   3.782   4.932   4.926
10297SOL    HW231791   3.881   5.035   5.005
10298SOL     OW31792   5.922   3.262   3.172
10298SOL    HW131793   5.848   3.308   3.221
10298SOL    HW231794   5.957   3.322   3.101
10299SOL     OW31795   4.030   4.856   2.174
10299SOL    HW131796   4.121   4.829   2.206
10299SOL    HW231797   3.966   4.857   2.250
10300SOL     OW31798   0.268   6.108   2.273
10300SOL    HW131799   0.338   6.037   2.278
10300SOL    HW231800   0.221   6.115   2.361
10301SOL     OW31801   4.297   0.312   1.777
10301SOL    HW131802   4.212   0.285   1.822
10301SOL    HW231803   4.299   0.278   1.683
10302SOL     OW31804   0.778   3.610   3.252
10302SOL    HW131805   0.741   3.676   3.318
10302SOL    HW231806   0.756   3.640   3.159
10303SOL     OW31807   4.457   3.387   1.002
10303SOL    HW131808   4.508   3.326   0.941
10303SOL    HW231809   4.446   3.345   1.091
10304SOL     OW31810   5.649   5.570   3.454
10304SOL    HW131811   5.670   5.503   3.383
10304SOL    HW231812   5.638   5.661   3.413
10305SOL     OW31813   2.377   5.479   1.502
10305SOL    HW131814   2.392   5.381   1.493
10305SOL    HW231815   2.460   5.528   1.476
10306SOL     OW31816   4.879   3.714   6.994
10306SOL    HW131817   4.944   3.707   0.040
10306SOL    HW231818   4.796   3.761   7.025
10307SOL     OW31819   2.909   1.930   5.993
10307SOL    HW131820   2.912   1.959   6.088
10307SOL    HW231821   2.937   1.834   5.986
10308SOL     OW31822   3.065   5.154   4.202
10308SOL    HW131823   3.017   5.154   4.114
10308SOL    HW231824   3.088   5.061   4.227
10309SOL     OW31825   0.255   6.202   3.863
10309SOL    HW131826   0.178   6.233   3.919
10309SOL    HW231827   0.243   6.106   3.840
10310SOL     OW31828   3.722   4.183   4.672
10310SOL    HW131829   3.669   4.155   4.591
10310SOL    HW231830   3.819   4.186   4.649
10311SOL     OW31831   1.323   6.948   1.039
10311SOL    HW131832   1.274   6.980   1.121
10311SOL    HW231833   1.258   6.909   0.974
10312SOL     OW31834   2.866   4.787   0.420
10312SOL    HW131835   2.914   4.875   0.424
10312SOL    HW231836   2.848   4.754   0.513
10313SOL     OW31837   6.846   6.077   4.036
10313SOL    HW131838   6.817   6.074   3.940
10313SOL    HW231839   6.775   6.036   4.094
10314SOL     OW31840   0.045   5.459   5.170
10314SOL    HW131841   0.013   5.395   5.240
10314SOL    HW231842   0.101   5.530   5.212
10315SOL     OW31843   4.533   6.342   5.655
10315SOL    HW131844   4.554   6.421   5.598
10315SOL    HW231845   4.434   6.334   5.666
10316SOL     OW31846   0.632   3.526   4.214
10316SOL    HW131847   0.584   3.610   4.241
10316SOL    HW231848   0.566   3.452   4.206
10317SOL     OW31849   5.794   4.287   6.404
10317SOL    HW131850   5.762   4.381   6.417
10317SOL    HW231851   5.788   4.263   6.307
10318SOL     OW31852   5.242   4.938   2.953
10318SOL    HW131853   5.180   4.916   2.878
10318SOL    HW231854   5.333   4.902   2.933
10319SOL     OW31855   4.430   6.760   3.409
10319SOL    HW131856   4.449   6.803   3.320
10319SOL    HW231857   4.383   6.826   3.468
10320SOL     OW31858   4.021   6.490   1.720
10320SOL    HW131859   3.959   6.494   1.799
10320SOL    HW231860   4.114   6.473   1.752
10321SOL     OW31861   4.618   6.027   4.564
10321SOL    HW131862   4.651   6.097   4.627
10321SOL    HW231863   4.521   6.010   4.580
10322SOL     OW31864   6.732   1.519   6.640
10322SOL    HW131865   6.701   1.537   6.547
10322SOL    HW231866   6.813   1.574   6.659
10323SOL     OW31867   0.697   2.388   5.319
10323SOL    HW131868   0.641   2.305   5.313
10323SOL    HW231869   0.748   2.400   5.234
10324SOL     OW31870   3.098   3.263   4.322
10324SOL    HW131871   3.114   3.164   4.313
10324SOL    HW231872   3.015   3.278   4.376
10325SOL     OW31873   0.697   3.187   3.771
10325SOL    HW131874   0.632   3.167   3.844
10325SOL    HW231875   0.764   3.113   3.764
10326SOL     OW31876   5.633   1.903   1.549
10326SOL    HW131877   5.666   1.830   1.489
10326SOL    HW231878   5.553   1.946   1.508
10327SOL     OW31879   5.872   1.637   3.788
10327SOL    HW131880   5.814   1.718   3.797
10327SOL    HW231881   5.866   1.601   3.695
10328SOL     OW31882   0.029   3.799   2.284
10328SOL    HW131883   0.088   3.781   2.363
10328SOL    HW231884   6.981   3.736   2.284
10329SOL     OW31885   2.829   5.884   3.008
10329SOL    HW131886   2.791   5.827   3.081
10329SOL    HW231887   2.828   5.834   2.922
10330SOL     OW31888   3.112   3.496   1.072
10330SOL    HW131889   3.077   3.522   0.982
10330SOL    HW231890   3.036   3.482   1.135
10331SOL     OW31891   5.051   1.608   4.567
10331SOL    HW131892   5.092   1.696   4.545
10331SOL    HW231893   5.086   1.576   4.655
10332SOL     OW31894   1.545   2.529   6.948
10332SOL    HW131895   1.535   2.608   7.008
10332SOL    HW231896   1.493   2.544   6.864
10333SOL     OW31897   0.130   4.625   5.178
10333SOL    HW131898   0.065   4.586   5.243
10333SOL    HW231899   0.083   4.691   5.119
10334SOL     OW31900   0.685   5.171   5.352
10334SOL    HW131901   0.779   5.153   5.380
10334SOL    HW231902   0.685   5.210   5.260
10335SOL     OW31903   3.268   5.378   3.361
10335SOL    HW131904   3.224   5.419   3.441
10335SOL    HW231905   3.269   5.278   3.372
10336SOL     OW31906   4.328   6.973   2.975
10336SOL    HW131907   4.282   0.032   2.990
10336SOL    HW231908   4.387   6.979   2.895
10337SOL     OW31909   1.162   3.687   6.426
10337SOL    HW131910   1.150   3.681   6.525
10337SOL    HW231911   1.172   3.783   6.399
10338SOL     OW31912   2.607   4.628   2.726
10338SOL    HW131913   2.677   4.700   2.722
10338SOL    HW231914   2.552   4.631   2.642
10339SOL     OW31915   3.200   5.920   6.896
10339SOL    HW131916   3.225   5.834   6.939
10339SOL    HW231917   3.280   5.960   6.851
10340SOL     OW31918   1.694   6.673   0.870
10340SOL    HW131919   1.791   6.685   0.892
10340SOL    HW231920   1.675   6.577   0.853
10341SOL     OW31921   0.243   3.586   2.198
10341SOL    HW131922   0.190   3.583   2.113
10341SOL    HW231923   0.302   3.505   2.203
10342SOL     OW31924   3.071   5.721   4.145
10342SOL    HW131925   3.009   5.685   4.214
10342SOL    HW231926   3.124   5.646   4.105
10343SOL     OW31927   2.626   2.297   4.977
10343SOL    HW131928   2.567   2.236   5.029
10343SOL    HW231929   2.717   2.300   5.019
10344SOL     OW31930   4.741   3.805   1.289
10344SOL    HW131931   4.690   3.782   1.206
10344SOL    HW231932   4.815   3.740   1.302
10345SOL     OW31933   3.714   1.557   6.542
10345SOL    HW131934   3.664   1.614   6.607
10345SOL    HW231935   3.651   1.496   6.495
10346SOL     OW31936   6.213   5.863   0.189
10346SOL    HW131937   6.179   5.770   0.194
10346SOL    HW231938   6.175   5.917   0.265
10347SOL     OW31939   4.139   6.936   2.079
10347SOL    HW131940   4.100   6.992   2.006
10347SOL    HW231941   4.232   6.911   2.055
10348SOL     OW31942   0.044   3.926   5.306
10348SOL    HW131943   7.016   3.873   5.369
10348SOL    HW231944   7.028   3.931   5.217
10349SOL     OW31945   5.841   1.941   0.200
10349SOL    HW131946   5.820   1.876   0.273
10349SOL    HW231947   5.878   2.025   0.240
10350SOL     OW31948   2.135   4.950   4.450
10350SOL    HW131949   2.140   4.970   4.548
10350SOL    HW231950   2.042   4.922   4.426
10351SOL     OW31951   3.791   5.507   5.000
10351SOL    HW131952   3.868   5.537   4.945
10351SOL    HW231953   3.728   5.584   5.015
10352SOL     OW31954   0.378   1.093   1.612
10352SOL    HW131955   0.336   1.180   1.587
10352SOL    HW231956   0.326   1.018   1.571
10353SOL     OW31957   5.538   3.085   3.372
10353SOL    HW131958   5.464   3.042   3.322
10353SOL    HW231959   5.619   3.027   3.368
10354SOL     OW31960   0.050   2.689   1.742
10354SOL    HW131961   0.040   2.620   1.670
10354SOL    HW231962   0.074   2.643   1.828
10355SOL     OW31963   0.053   2.335   0.760
10355SOL    HW131964   7.014   2.293   0.820
10355SOL    HW231965   0.024   2.324   0.665
10356SOL     OW31966   5.917   2.579   6.764
10356SOL    HW131967   5.864   2.499   6.792
10356SOL    HW231968   5.999   2.549   6.714
10357SOL     OW31969   0.215   0.200   6.479
10357SOL    HW131970   0.253   0.287   6.450
10357SOL    HW231971   0.289   0.140   6.510
10358SOL     OW31972   1.003   2.685   4.098
10358SOL    HW131973   0.913   2.658   4.135
10358SOL    HW231974   1.074   2.664   4.165
10359SOL     OW31975   0.847   2.690   2.585
10359SOL    HW131976   0.900   2.772   2.604
10359SOL    HW231977   0.878   2.616   2.645
10360SOL     OW31978   6.099   4.588   1.155
10360SOL    HW131979   6.031   4.659   1.136
10360SOL    HW231980   6.190   4.630   1.155
10361SOL     OW31981   5.845   2.030   3.163
10361SOL    HW131982   5.788   2.100   3.119
10361SOL    HW231983   5.800   1.941   3.155
10362SOL     OW31984   0.431   6.320   1.416
10362SOL    HW131985   0.402   6.300   1.510
10362SOL    HW231986   0.531   6.320   1.411
10363SOL     OW31987   5.619   5.123   6.166
10363SOL    HW131988   5.697   5.186   6.164
10363SOL    HW231989   5.595   5.098   6.073
10364SOL     OW31990   6.221   5.273   1.553
10364SOL    HW131991   6.130   5.290   1.592
10364SOL    HW231992   6.286   5.337   1.594
10365SOL     OW31993   5.970   6.097   6.974
10365SOL    HW131994   5.984   6.188   7.014
10365SOL    HW231995   6.057   6.048   6.970
10366SOL     OW31996   2.820   0.335   3.216
10366SOL    HW131997   2.797   0.431   3.196
10366SOL    HW231998   2.746   0.276   3.182
10367SOL     OW31999   5.097   6.076   1.793
10367SOL    HW132000   5.176   6.017   1.801
10367SOL    HW232001   5.020   6.037   1.843
10368SOL     OW32002   1.570   5.610   1.639
10368SOL    HW132003   1.634   5.653   1.702
10368SOL    HW232004   1.597   5.631   1.545
10369SOL     OW32005   2.469   0.853   5.458
10369SOL    HW132006   2.509   0.935   5.501
10369SOL    HW232007   2.464   0.780   5.525
10370SOL     OW32008   1.893   2.127   6.292
10370SOL    HW132009   1.824   2.159   6.227
10370SOL    HW232010   1.882   2.175   6.379
10371SOL     OW32011   3.831   5.528   3.355
10371SOL    HW132012   3.845   5.549   3.258
10371SOL    HW232013   3.815   5.613   3.406
10372SOL     OW32014   1.194   6.186   1.513
10372SOL    HW132015   1.137   6.250   1.461
10372SOL    HW232016   1.276   6.164   1.460
10373SOL     OW32017   6.226   0.261   6.211
10373SOL    HW132018   6.269   0.338   6.163
10373SOL    HW232019   6.133   0.248   6.175
10374SOL     OW32020   2.864   4.872   3.210
10374SOL    HW132021   2.782   4.877   3.267
10374SOL    HW232022   2.843   4.820   3.127
10375SOL     OW32023   2.309   5.659   6.744
10375SOL    HW132024   2.348   5.595   6.678
10375SOL    HW232025   2.379   5.723   6.775
10376SOL     OW32026   1.908   4.858   4.262
10376SOL    HW132027   1.948   4.912   4.188
10376SOL    HW232028   1.952   4.768   4.266
10377SOL     OW32029   2.604   0.702   3.820
10377SOL    HW132030   2.619   0.617   3.871
10377SOL    HW232031   2.690   0.753   3.815
10378SOL     OW32032   0.391   6.887   5.856
10378SOL    HW132033   0.461   6.937   5.909
10378SOL    HW232034   0.431   6.853   5.771
10379SOL     OW32035   0.965   5.734   3.368
10379SOL    HW132036   0.895   5.795   3.332
10379SOL    HW232037   1.023   5.784   3.432
10380SOL     OW32038   2.862   1.216   4.145
10380SOL    HW132039   2.796   1.292   4.149
10380SOL    HW232040   2.933   1.237   4.078
10381SOL     OW32041   2.629   0.554   2.680
10381SOL    HW132042   2.623   0.464   2.724
10381SOL    HW232043   2.723   0.587   2.684
10382SOL     OW32044   4.210   5.518   2.125
10382SOL    HW132045   4.223   5.576   2.044
10382SOL    HW232046   4.113   5.506   2.142
10383SOL     OW32047   0.521   0.032   6.996
10383SOL    HW132048   0.478   6.980   0.008
10383SOL    HW232049   0.621   0.020   6.997
10384SOL     OW32050   4.931   4.936   1.167
10384SOL    HW132051   4.876   4.868   1.215
10384SOL    HW232052   4.957   5.009   1.231
10385SOL     OW32053   4.021   4.651   6.600
10385SOL    HW132054   3.971   4.735   6.578
10385SOL    HW232055   3.981   4.609   6.681
10386SOL     OW32056   0.170   0.285   2.159
10386SOL    HW132057   0.098   0.245   2.102
10386SOL    HW232058   0.175   0.384   2.143
10387SOL     OW32059   5.551   1.922   1.795
10387SOL    HW132060   5.555   1.834   1.841
10387SOL    HW232061   5.596   1.916   1.706
10388SOL     OW32062   1.115   0.315   4.847
10388SOL    HW132063   1.192   0.259   4.816
10388SOL    HW232064   1.104   0.306   4.946
10389SOL     OW32065   0.423   3.584   0.776
10389SOL    HW132066   0.507   3.556   0.821
10389SOL    HW232067   0.371   3.644   0.837
10390SOL     OW32068   2.316   2.163   2.079
10390SOL    HW132069   2.377   2.219   2.023
10390SOL    HW232070   2.364   2.079   2.107
10391SOL     OW32071   6.323   6.927   3.076
10391SOL    HW132072   6.359   6.947   2.985
10391SOL    HW232073   6.342   6.831   3.099
10392SOL     OW32074   6.404   3.758   4.015
10392SOL    HW132075   6.450   3.785   3.930
10392SOL    HW232076   6.307   3.783   4.010
10393SOL     OW32077   1.788   2.349   2.097
10393SOL    HW132078   1.826   2.256   2.092
10393SOL    HW232079   1.843   2.410   2.039
10394SOL     OW32080   2.814   6.435   3.645
10394SOL    HW132081   2.760   6.491   3.708
10394SOL    HW232082   2.785   6.339   3.652
10395SOL     OW32083   1.015   1.090   1.651
10395SOL    HW132084   1.008   1.001   1.696
10395SOL    HW232085   0.925   1.132   1.647
10396SOL     OW32086   3.432   2.182   5.241
10396SOL    HW132087   3.392   2.271   5.217
10396SOL    HW232088   3.361   2.122   5.278
10397SOL     OW32089   5.016   1.487   4.059
10397SOL    HW132090   5.111   1.470   4.031
10397SOL    HW232091   4.954   1.452   3.990
10398SOL     OW32092   5.286   2.842   2.267
10398SOL    HW132093   5.330   2.793   2.342
10398SOL    HW232094   5.344   2.838   2.186
10399SOL     OW32095   0.754   3.824   2.235
10399SOL    HW132096   0.761   3.905   2.294
10399SOL    HW232097   0.675   3.769   2.264
10400SOL     OW32098   2.081   6.570   0.628
10400SOL    HW132099   2.014   6.618   0.572
10400SOL    HW232100   2.172   6.582   0.589
10401SOL     OW32101   6.857   0.709   5.837
10401SOL    HW132102   6.799   0.698   5.757
10401SOL    HW232103   6.952   0.688   5.813
10402SOL     OW32104   6.973   4.476   5.322
10402SOL    HW132105   6.956   4.388   5.278
10402SOL    HW232106   6.890   4.507   5.368
10403SOL     OW32107   3.014   0.092   0.855
10403SOL    HW132108   2.987   0.079   0.951
10403SOL    HW232109   3.030   0.189   0.838
10404SOL     OW32110   0.384   5.456   5.819
10404SOL    HW132111   0.454   5.441   5.889
10404SOL    HW232112   0.327   5.374   5.809
10405SOL     OW32113   0.161   1.628   7.006
10405SOL    HW132114   0.191   1.631   0.072
10405SOL    HW232115   0.072   1.674   6.998
10406SOL     OW32116   1.444   5.539   0.856
10406SOL    HW132117   1.433   5.462   0.794
10406SOL    HW232118   1.402   5.517   0.944
10407SOL     OW32119   2.174   6.165   6.754
10407SOL    HW132120   2.147   6.077   6.715
10407SOL    HW232121   2.259   6.155   6.805
10408SOL     OW32122   4.686   0.531   0.407
10408SOL    HW132123   4.715   0.626   0.394
10408SOL    HW232124   4.587   0.527   0.416
10409SOL     OW32125   6.086   4.193   0.775
10409SOL    HW132126   6.074   4.243   0.861
10409SOL    HW232127   6.154   4.121   0.788
10410SOL     OW32128   4.355   6.968   0.984
10410SOL    HW132129   4.270   6.925   0.952
10410SOL    HW232130   4.410   6.900   1.033
10411SOL     OW32131   2.028   5.546   4.242
10411SOL    HW132132   2.073   5.511   4.160
10411SOL    HW232133   2.064   5.499   4.323
10412SOL     OW32134   5.495   6.961   1.646
10412SOL    HW132135   5.522   0.002   1.580
10412SOL    HW232136   5.573   6.936   1.703
10413SOL     OW32137   6.226   2.651   2.747
10413SOL    HW132138   6.211   2.552   2.754
10413SOL    HW232139   6.232   2.677   2.650
10414SOL     OW32140   5.865   3.319   4.104
10414SOL    HW132141   5.894   3.247   4.167
10414SOL    HW232142   5.946   3.365   4.067
10415SOL     OW32143   0.835   0.877   6.940
10415SOL    HW132144   0.793   0.918   7.021
10415SOL    HW232145   0.829   0.777   6.947
10416SOL     OW32146   5.268   2.984   3.678
10416SOL    HW132147   5.200   2.970   3.605
10416SOL    HW232148   5.348   2.928   3.659
10417SOL     OW32149   1.694   4.247   2.953
10417SOL    HW132150   1.623   4.296   3.003
10417SOL    HW232151   1.745   4.188   3.016
10418SOL     OW32152   1.706   5.708   6.364
10418SOL    HW132153   1.644   5.662   6.427
10418SOL    HW232154   1.794   5.723   6.409
10419SOL     OW32155   1.344   0.777   6.785
10419SOL    HW132156   1.277   0.852   6.775
10419SOL    HW232157   1.378   0.751   6.695
10420SOL     OW32158   0.451   3.045   2.801
10420SOL    HW132159   0.516   3.106   2.754
10420SOL    HW232160   0.496   3.002   2.879
10421SOL     OW32161   0.859   2.197   2.939
10421SOL    HW132162   0.783   2.144   2.976
10421SOL    HW232163   0.910   2.142   2.874
10422SOL     OW32164   5.468   2.920   0.066
10422SOL    HW132165   5.524   2.969   0.133
10422SOL    HW232166   5.442   2.831   0.103
10423SOL     OW32167   5.095   5.268   2.838
10423SOL    HW132168   5.175   5.276   2.897
10423SOL    HW232169   5.030   5.342   2.860
10424SOL     OW32170   4.589   1.837   6.567
10424SOL    HW132171   4.569   1.765   6.501
10424SOL    HW232172   4.638   1.799   6.645
10425SOL     OW32173   1.755   6.815   2.101
10425SOL    HW132174   1.730   6.782   2.192
10425SOL    HW232175   1.677   6.863   2.061
10426SOL     OW32176   6.646   4.252   0.094
10426SOL    HW132177   6.685   4.286   0.180
10426SOL    HW232178   6.550   4.229   0.108
10427SOL     OW32179   5.360   0.858   1.200
10427SOL    HW132180   5.342   0.880   1.296
10427SOL    HW232181   5.371   0.943   1.148
10428SOL     OW32182   4.905   1.363   3.403
10428SOL    HW132183   4.829   1.408   3.450
10428SOL    HW232184   4.917   1.403   3.313
10429SOL     OW32185   5.697   5.467   2.163
10429SOL    HW132186   5.661   5.560   2.178
10429SOL    HW232187   5.736   5.433   2.249
10430SOL     OW32188   4.314   6.144   2.674
10430SOL    HW132189   4.336   6.054   2.637
10430SOL    HW232190   4.391   6.206   2.659
10431SOL     OW32191   2.466   1.280   5.434
10431SOL    HW132192   2.488   1.366   5.480
10431SOL    HW232193   2.367   1.265   5.438
10432SOL     OW32194   4.099   0.321   4.786
10432SOL    HW132195   4.050   0.399   4.826
10432SOL    HW232196   4.198   0.336   4.796
10433SOL     OW32197   2.769   6.727   0.970
10433SOL    HW132198   2.809   6.709   0.880
10433SOL    HW232199   2.676   6.689   0.972
10434SOL     OW32200   3.073   1.795   5.036
10434SOL    HW132201   2.982   1.820   5.005
10434SOL    HW232202   3.138   1.867   5.012
10435SOL     OW32203   5.806   5.310   6.316
10435SOL    HW132204   5.818   5.286   6.413
10435SOL    HW232205   5.724   5.367   6.307
10436SOL     OW32206   0.682   1.033   2.877
10436SOL    HW132207   0.708   1.128   2.895
10436SOL    HW232208   0.592   1.031   2.833
10437SOL     OW32209   0.589   3.946   5.803
10437SOL    HW132210   0.639   3.899   5.875
10437SOL    HW232211   0.634   4.034   5.783
10438SOL     OW32212   3.303   6.761   5.821
10438SOL    HW132213   3.393   6.720   5.811
10438SOL    HW232214   3.312   6.861   5.823
10439SOL     OW32215   3.502   0.843   5.358
10439SOL    HW132216   3.482   0.811   5.266
10439SOL    HW232217   3.451   0.786   5.424
10440SOL     OW32218   0.876   5.491   0.702
10440SOL    HW132219   0.850   5.462   0.794
10440SOL    HW232220   0.917   5.582   0.705
10441SOL     OW32221   3.986   0.233   0.480
10441SOL    HW132222   3.913   0.246   0.412
10441SOL    HW232223   4.028   0.143   0.467
10442SOL     OW32224   4.879   5.982   5.308
10442SOL    HW132225   4.909   5.947   5.219
10442SOL    HW232226   4.885   6.082   5.307
10443SOL     OW32227   6.006   2.351   4.574
10443SOL    HW132228   5.962   2.305   4.651
10443SOL    HW232229   6.080   2.294   4.539
10444SOL     OW32230   3.894   5.116   4.520
10444SOL    HW132231   3.807   5.070   4.535
10444SOL    HW232232   3.886   5.212   4.544
10445SOL     OW32233   6.278   6.365   2.081
10445SOL    HW132234   6.298   6.427   2.005
10445SOL    HW232235   6.327   6.396   2.162
10446SOL     OW32236   0.997   6.675   6.622
10446SOL    HW132237   0.970   6.579   6.619
10446SOL    HW232238   0.938   6.728   6.561
10447SOL     OW32239   5.690   1.697   0.372
10447SOL    HW132240   5.655   1.722   0.463
10447SOL    HW232241   5.789   1.684   0.377
10448SOL     OW32242   3.433   3.810   2.446
10448SOL    HW132243   3.453   3.889   2.387
10448SOL    HW232244   3.390   3.842   2.530
10449SOL     OW32245   1.820   5.702   4.949
10449SOL    HW132246   1.769   5.764   4.889
10449SOL    HW232247   1.790   5.608   4.933
10450SOL     OW32248   6.977   3.412   1.208
10450SOL    HW132249   0.038   3.452   1.223
10450SOL    HW232250   6.983   3.312   1.215
10451SOL     OW32251   2.473   4.484   2.277
10451SOL    HW132252   2.415   4.412   2.317
10451SOL    HW232253   2.502   4.457   2.185
10452SOL     OW32254   1.819   3.049   6.098
10452SOL    HW132255   1.731   3.028   6.057
10452SOL    HW232256   1.876   2.967   6.096
10453SOL     OW32257   5.129   0.420   1.500
10453SOL    HW132258   5.098   0.509   1.534
10453SOL    HW232259   5.140   0.425   1.401
10454SOL     OW32260   5.747   4.523   2.188
10454SOL    HW132261   5.788   4.546   2.276
10454SOL    HW232262   5.730   4.425   2.183
10455SOL     OW32263   0.505   4.483   3.190
10455SOL    HW132264   0.528   4.469   3.286
10455SOL    HW232265   0.529   4.577   3.163
10456SOL     OW32266   3.851   6.104   1.215
10456SOL    HW132267   3.789   6.029   1.240
10456SOL    HW232268   3.878   6.094   1.119
10457SOL     OW32269   3.553   2.935   3.775
10457SOL    HW132270   3.561   3.033   3.759
10457SOL    HW232271   3.579   2.914   3.870
10458SOL     OW32272   0.318   5.955   1.551
10458SOL    HW132273   0.256   5.991   1.621
10458SOL    HW232274   0.355   5.867   1.581
10459SOL     OW32275   6.918   4.790   1.676
10459SOL    HW132276   6.999   4.776   1.618
10459SOL    HW232277   6.849   4.722   1.653
10460SOL     OW32278   1.355   4.080   1.565
10460SOL    HW132279   1.415   4.155   1.592
10460SOL    HW232280   1.260   4.105   1.583
10461SOL     OW32281   3.196   0.373   6.496
10461SOL    HW132282   3.225   0.445   6.560
10461SOL    HW232283   3.225   0.398   6.403
10462SOL     OW32284   5.459   6.288   1.009
10462SOL    HW132285   5.372   6.244   0.985
10462SOL    HW232286   5.478   6.361   0.944
10463SOL     OW32287   3.527   3.213   0.810
10463SOL    HW132288   3.550   3.213   0.713
10463SOL    HW232289   3.479   3.298   0.833
10464SOL     OW32290   5.875   6.436   1.974
10464SOL    HW132291   5.853   6.351   1.926
10464SOL    HW232292   5.826   6.512   1.930
10465SOL     OW32293   0.220   4.939   4.431
10465SOL    HW132294   0.221   4.861   4.368
10465SOL    HW232295   0.314   4.972   4.444
10466SOL     OW32296   4.756   6.521   5.246
10466SOL    HW132297   4.836   6.579   5.263
10466SOL    HW232298   4.725   6.534   5.152
10467SOL     OW32299   4.556   1.268   3.941
10467SOL    HW132300   4.535   1.216   4.024
10467SOL    HW232301   4.550   1.207   3.861
10468SOL     OW32302   2.739   5.138   3.564
10468SOL    HW132303   2.836   5.160   3.556
10468SOL    HW232304   2.702   5.179   3.647
10469SOL     OW32305   1.049   4.569   6.271
10469SOL    HW132306   1.006   4.598   6.357
10469SOL    HW232307   1.092   4.647   6.227
10470SOL     OW32308   2.278   2.415   4.683
10470SOL    HW132309   2.224   2.397   4.602
10470SOL    HW232310   2.374   2.427   4.658
10471SOL     OW32311   4.649   3.844   0.020
10471SOL    HW132312   4.627   3.860   0.117
10471SOL    HW232313   4.580   3.783   7.009
10472SOL     OW32314   3.874   1.318   3.386
10472SOL    HW132315   3.964   1.337   3.426
10472SOL    HW232316   3.860   1.220   3.379
10473SOL     OW32317   4.969   5.235   0.077
10473SOL    HW132318   4.947   5.180   7.025
10473SOL    HW232319   4.917   5.321   0.073
10474SOL     OW32320   5.230   0.927   3.810
10474SOL    HW132321   5.284   0.858   3.859
10474SOL    HW232322   5.165   0.881   3.748
10475SOL     OW32323   4.417   6.419   1.449
10475SOL    HW132324   4.428   6.516   1.427
10475SOL    HW232325   4.396   6.409   1.546
10476SOL     OW32326   0.390   4.848   6.324
10476SOL    HW132327   0.442   4.895   6.253
10476SOL    HW232328   0.400   4.897   6.411
10477SOL     OW32329   4.638   4.281   5.143
10477SOL    HW132330   4.557   4.290   5.200
10477SOL    HW232331   4.631   4.341   5.064
10478SOL     OW32332   0.807   6.276   3.394
10478SOL    HW132333   0.847   6.220   3.466
10478SOL    HW232334   0.716   6.306   3.422
10479SOL     OW32335   0.941   4.211   2.147
10479SOL    HW132336   0.868   4.279   2.153
10479SOL    HW232337   0.983   4.199   2.237
10480SOL     OW32338   5.109   1.181   0.624
10480SOL    HW132339   5.150   1.132   0.547
10480SOL    HW232340   5.120   1.280   0.611
10481SOL     OW32341   2.492   1.463   4.512
10481SOL    HW132342   2.406   1.421   4.486
10481SOL    HW232343   2.556   1.393   4.542
10482SOL     OW32344   1.139   6.351   6.915
10482SOL    HW132345   1.103   6.258   6.922
10482SOL    HW232346   1.223   6.349   6.861
10483SOL     OW32347   0.285   5.755   0.617
10483SOL    HW132348   0.283   5.830   0.684
10483SOL    HW232349   0.197   5.751   0.570
10484SOL     OW32350   6.692   1.748   1.737
10484SOL    HW132351   6.606   1.743   1.787
10484SOL    HW232352   6.733   1.657   1.731
10485SOL     OW32353   3.618   4.071   4.455
10485SOL    HW132354   3.577   4.108   4.371
10485SOL    HW232355   3.709   4.034   4.435
10486SOL     OW32356   5.980   5.514   5.921
10486SOL    HW132357   6.031   5.476   5.998
10486SOL    HW232358   5.883   5.519   5.944
10487SOL     OW32359   5.645   3.756   2.864
10487SOL    HW132360   5.566   3.763   2.925
10487SOL    HW232361   5.631   3.680   2.801
10488SOL     OW32362   0.613   2.343   5.716
10488SOL    HW132363   0.516   2.321   5.705
10488SOL    HW232364   0.624   2.443   5.720
10489SOL     OW32365   5.849   5.108   2.808
10489SOL    HW132366   5.855   5.068   2.717
10489SOL    HW232367   5.766   5.163   2.815
10490SOL     OW32368   5.249   6.499   6.450
10490SOL    HW132369   5.254   6.595   6.423
10490SOL    HW232370   5.340   6.468   6.478
10491SOL     OW32371   2.162   2.279   5.550
10491SOL    HW132372   2.255   2.247   5.567
10491SOL    HW232373   2.157   2.377   5.569
10492SOL     OW32374   2.628   6.614   0.380
10492SOL    HW132375   2.697   6.542   0.389
10492SOL    HW232376   2.554   6.597   0.444
10493SOL     OW32377   3.675   5.853   0.962
10493SOL    HW132378   3.640   5.946   0.952
10493SOL    HW232379   3.608   5.797   1.010
10494SOL     OW32380   0.288   5.261   4.401
10494SOL    HW132381   0.200   5.236   4.441
10494SOL    HW232382   0.274   5.298   4.309
10495SOL     OW32383   6.087   6.644   0.429
10495SOL    HW132384   6.156   6.638   0.501
10495SOL    HW232385   6.064   6.552   0.397
10496SOL     OW32386   0.841   4.676   5.839
10496SOL    HW132387   0.751   4.633   5.836
10496SOL    HW232388   0.870   4.689   5.934
10497SOL     OW32389   3.570   6.572   0.695
10497SOL    HW132390   3.579   6.491   0.637
10497SOL    HW232391   3.583   6.546   0.791
10498SOL     OW32392   3.507   3.387   0.004
10498SOL    HW132393   3.446   3.354   0.076
10498SOL    HW232394   3.453   3.433   6.963
10499SOL     OW32395   4.222   4.787   2.967
10499SOL    HW132396   4.275   4.731   2.903
10499SOL    HW232397   4.284   4.834   3.029
10500SOL     OW32398   1.943   2.875   4.908
10500SOL    HW132399   2.010   2.832   4.969
10500SOL    HW232400   1.943   2.828   4.820
10501SOL     OW32401   3.502   4.969   3.075
10501SOL    HW132402   3.497   5.068   3.093
10501SOL    HW232403   3.415   4.926   3.098
10502SOL     OW32404   3.347   4.140   2.524
10502SOL    HW132405   3.329   4.136   2.425
10502SOL    HW232406   3.444   4.157   2.539
10503SOL     OW32407   6.670   0.827   0.420
10503SOL    HW132408   6.676   0.868   0.329
10503SOL    HW232409   6.638   0.895   0.486
10504SOL     OW32410   1.625   2.940   5.618
10504SOL    HW132411   1.682   2.879   5.563
10504SOL    HW232412   1.535   2.899   5.632
10505SOL     OW32413   5.859   6.454   0.878
10505SOL    HW132414   5.796   6.403   0.937
10505SOL    HW232415   5.953   6.425   0.895
10506SOL     OW32416   1.629   4.850   5.007
10506SOL    HW132417   1.563   4.875   4.936
10506SOL    HW232418   1.664   4.758   4.989
10507SOL     OW32419   1.535   6.223   5.830
10507SOL    HW132420   1.514   6.129   5.858
10507SOL    HW232421   1.480   6.287   5.884
10508SOL     OW32422   1.540   6.407   1.001
10508SOL    HW132423   1.522   6.441   1.093
10508SOL    HW232424   1.604   6.330   1.006
10509SOL     OW32425   4.920   3.495   2.261
10509SOL    HW132426   4.835   3.450   2.287
10509SOL    HW232427   4.920   3.589   2.296
10510SOL     OW32428   5.888   6.218   2.474
10510SOL    HW132429   5.818   6.159   2.434
10510SOL    HW232430   5.958   6.162   2.518
10511SOL     OW32431   3.800   1.641   0.677
10511SOL    HW132432   3.855   1.647   0.594
10511SOL    HW232433   3.717   1.697   0.667
10512SOL     OW32434   4.065   0.689   5.065
10512SOL    HW132435   4.014   0.615   5.109
10512SOL    HW232436   4.047   0.775   5.113
10513SOL     OW32437   3.819   3.764   0.474
10513SOL    HW132438   3.873   3.829   0.527
10513SOL    HW232439   3.779   3.696   0.536
10514SOL     OW32440   1.353   5.333   2.036
10514SOL    HW132441   1.439   5.331   1.986
10514SOL    HW232442   1.355   5.407   2.103
10515SOL     OW32443   1.913   3.983   4.697
10515SOL    HW132444   1.946   3.944   4.783
10515SOL    HW232445   1.978   3.962   4.624
10516SOL     OW32446   5.490   1.638   1.968
10516SOL    HW132447   5.562   1.603   2.028
10516SOL    HW232448   5.449   1.719   2.010
10517SOL     OW32449   0.521   1.765   1.982
10517SOL    HW132450   0.570   1.812   2.056
10517SOL    HW232451   0.537   1.667   1.988
10518SOL     OW32452   0.783   5.792   2.646
10518SOL    HW132453   0.861   5.779   2.707
10518SOL    HW232454   0.807   5.762   2.554
10519SOL     OW32455   2.368   6.467   0.831
10519SOL    HW132456   2.356   6.376   0.792
10519SOL    HW232457   2.280   6.500   0.865
10520SOL     OW32458   2.892   2.559   6.327
10520SOL    HW132459   2.852   2.611   6.251
10520SOL    HW232460   2.956   2.492   6.291
10521SOL     OW32461   6.243   2.364   2.730
10521SOL    HW132462   6.202   2.289   2.680
10521SOL    HW232463   6.261   2.335   2.825
10522SOL     OW32464   5.014   1.489   3.177
10522SOL    HW132465   5.048   1.456   3.089
10522SOL    HW232466   5.069   1.568   3.206
10523SOL     OW32467   0.623   4.133   1.812
10523SOL    HW132468   0.681   4.193   1.756
10523SOL    HW232469   0.680   4.067   1.860
10524SOL     OW32470   5.617   6.448   4.638
10524SOL    HW132471   5.663   6.360   4.644
10524SOL    HW232472   5.666   6.516   4.693
10525SOL     OW32473   4.727   1.724   3.462
10525SOL    HW132474   4.787   1.804   3.463
10525SOL    HW232475   4.698   1.705   3.368
10526SOL     OW32476   1.483   5.948   5.878
10526SOL    HW132477   1.415   5.875   5.886
10526SOL    HW232478   1.561   5.915   5.824
10527SOL     OW32479   0.269   6.245   5.847
10527SOL    HW132480   0.223   6.305   5.912
10527SOL    HW232481   0.235   6.262   5.755
10528SOL     OW32482   2.086   5.993   5.452
10528SOL    HW132483   2.140   6.063   5.406
10528SOL    HW232484   2.100   5.905   5.406
10529SOL     OW32485   6.786   5.182   0.504
10529SOL    HW132486   6.699   5.218   0.469
10529SOL    HW232487   6.852   5.178   0.429
10530SOL     OW32488   6.289   0.706   1.573
10530SOL    HW132489   6.248   0.617   1.595
10530SOL    HW232490   6.301   0.713   1.474
10531SOL     OW32491   3.449   1.527   6.189
10531SOL    HW132492   3.483   1.472   6.265
10531SOL    HW232493   3.370   1.581   6.219
10532SOL     OW32494   4.733   5.827   5.897
10532SOL    HW132495   4.634   5.844   5.898
10532SOL    HW232496   4.771   5.843   5.988
10533SOL     OW32497   4.183   6.748   3.124
10533SOL    HW132498   4.124   6.714   3.051
10533SOL    HW232499   4.232   6.829   3.093
10534SOL     OW32500   0.936   6.639   3.971
10534SOL    HW132501   0.841   6.616   3.952
10534SOL    HW232502   0.966   6.592   4.054
10535SOL     OW32503   4.281   1.530   2.219
10535SOL    HW132504   4.238   1.552   2.131
10535SOL    HW232505   4.220   1.555   2.293
10536SOL     OW32506   5.925   3.775   4.254
10536SOL    HW132507   5.931   3.731   4.164
10536SOL    HW232508   5.990   3.850   4.259
10537SOL     OW32509   3.560   1.104   3.135
10537SOL    HW132510   3.618   1.024   3.118
10537SOL    HW232511   3.557   1.161   3.054
10538SOL     OW32512   5.927   2.652   3.407
10538SOL    HW132513   6.010   2.607   3.374
10538SOL    HW232514   5.935   2.670   3.505
10539SOL     OW32515   6.490   6.858   2.627
10539SOL    HW132516   6.561   6.791   2.609
10539SOL    HW232517   6.491   6.928   2.555
10540SOL     OW32518   1.495   3.694   6.356
10540SOL    HW132519   1.401   3.727   6.368
10540SOL    HW232520   1.559   3.759   6.399
10541SOL     OW32521   3.404   2.263   6.012
10541SOL    HW132522   3.364   2.177   6.042
10541SOL    HW232523   3.332   2.321   5.973
10542SOL     OW32524   4.088   6.527   2.015
10542SOL    HW132525   3.998   6.486   2.002
10542SOL    HW232526   4.082   6.599   2.085
10543SOL     OW32527   1.509   2.718   4.347
10543SOL    HW132528   1.463   2.800   4.379
10543SOL    HW232529   1.464   2.637   4.385
10544SOL     OW32530   2.963   2.134   2.190
10544SOL    HW132531   2.921   2.206   2.136
10544SOL    HW232532   2.917   2.047   2.171
10545SOL     OW32533   1.513   3.093   1.819
10545SOL    HW132534   1.562   3.174   1.787
10545SOL    HW232535   1.432   3.078   1.761
10546SOL     OW32536   1.962   6.718   5.197
10546SOL    HW132537   1.925   6.646   5.255
10546SOL    HW232538   2.061   6.722   5.208
10547SOL     OW32539   3.667   6.290   5.879
10547SOL    HW132540   3.652   6.330   5.788
10547SOL    HW232541   3.608   6.336   5.946
10548SOL     OW32542   0.950   5.452   3.378
10548SOL    HW132543   1.026   5.443   3.314
10548SOL    HW232544   0.942   5.548   3.406
10549SOL     OW32545   6.836   1.422   2.760
10549SOL    HW132546   6.738   1.411   2.770
10549SOL    HW232547   6.855   1.483   2.683
10550SOL     OW32548   6.374   5.750   3.093
10550SOL    HW132549   6.358   5.670   3.151
10550SOL    HW232550   6.421   5.820   3.146
10551SOL     OW32551   4.400   0.179   4.623
10551SOL    HW132552   4.306   0.212   4.616
10551SOL    HW232553   4.400   0.082   4.648
10552SOL     OW32554   2.490   0.025   2.992
10552SOL    HW132555   2.414   6.996   3.020
10552SOL    HW232556   2.524   0.075   3.072
10553SOL     OW32557   5.305   5.203   1.373
10553SOL    HW132558   5.304   5.155   1.461
10553SOL    HW232559   5.285   5.300   1.388
10554SOL     OW32560   6.505   5.494   1.414
10554SOL    HW132561   6.464   5.585   1.408
10554SOL    HW232562   6.479   5.451   1.501
10555SOL     OW32563   3.384   3.225   2.056
10555SOL    HW132564   3.417   3.310   2.013
10555SOL    HW232565   3.305   3.191   2.005
10556SOL     OW32566   2.621   2.183   1.706
10556SOL    HW132567   2.548   2.246   1.733
10556SOL    HW232568   2.706   2.234   1.694
10557SOL     OW32569   0.487   3.966   2.879
10557SOL    HW132570   0.409   4.027   2.894
10557SOL    HW232571   0.570   4.020   2.864
10558SOL     OW32572   4.767   4.823   4.500
10558SOL    HW132573   4.785   4.921   4.494
10558SOL    HW232574   4.850   4.776   4.529
10559SOL     OW32575   3.727   5.881   1.306
10559SOL    HW132576   3.756   5.804   1.248
10559SOL    HW232577   3.732   5.854   1.402
10560SOL     OW32578   5.432   0.293   3.820
10560SOL    HW132579   5.344   0.245   3.815
10560SOL    HW232580   5.484   0.276   3.737
10561SOL     OW32581   0.882   5.332   5.707
10561SOL    HW132582   0.981   5.327   5.715
10561SOL    HW232583   0.858   5.361   5.614
10562SOL     OW32584   3.782   6.827   2.754
10562SOL    HW132585   3.809   6.922   2.771
10562SOL    HW232586   3.692   6.826   2.711
10563SOL     OW32587   1.900   5.973   1.955
10563SOL    HW132588   1.964   5.900   1.977
10563SOL    HW232589   1.893   6.037   2.032
10564SOL     OW32590   5.195   4.635   3.273
10564SOL    HW132591   5.217   4.725   3.235
10564SOL    HW232592   5.159   4.576   3.200
10565SOL     OW32593   0.268   1.443   4.955
10565SOL    HW132594   0.282   1.380   4.879
10565SOL    HW232595   0.199   1.510   4.930
10566SOL     OW32596   4.059   1.890   0.672
10566SOL    HW132597   4.029   1.822   0.605
10566SOL    HW232598   4.017   1.978   0.652
10567SOL     OW32599   3.137   2.299   6.689
10567SOL    HW132600   3.052   2.257   6.723
10567SOL    HW232601   3.211   2.280   6.753
10568SOL     OW32602   5.742   2.400   5.922
10568SOL    HW132603   5.715   2.446   6.007
10568SOL    HW232604   5.714   2.455   5.843
10569SOL     OW32605   5.231   0.606   0.833
10569SOL    HW132606   5.295   0.679   0.812
10569SOL    HW232607   5.203   0.560   0.748
10570SOL     OW32608   1.317   4.043   3.096
10570SOL    HW132609   1.322   4.047   3.196
10570SOL    HW232610   1.392   3.988   3.060
10571SOL     OW32611   0.326   3.783   5.570
10571SOL    HW132612   0.329   3.880   5.546
10571SOL    HW232613   0.416   3.742   5.553
10572SOL     OW32614   6.719   4.606   0.863
10572SOL    HW132615   6.711   4.703   0.837
10572SOL    HW232616   6.812   4.575   0.843
10573SOL     OW32617   6.026   2.681   3.940
10573SOL    HW132618   6.102   2.745   3.923
10573SOL    HW232619   6.059   2.587   3.930
10574SOL     OW32620   5.642   2.654   2.579
10574SOL    HW132621   5.618   2.750   2.599
10574SOL    HW232622   5.734   2.635   2.613
10575SOL     OW32623   4.677   0.253   2.502
10575SOL    HW132624   4.704   0.329   2.443
10575SOL    HW232625   4.724   0.260   2.590
10576SOL     OW32626   1.895   3.155   4.930
10576SOL    HW132627   1.891   3.056   4.939
10576SOL    HW232628   1.983   3.182   4.890
10577SOL     OW32629   3.793   4.365   6.790
10577SOL    HW132630   3.847   4.290   6.829
10577SOL    HW232631   3.829   4.452   6.824
10578SOL     OW32632   1.486   3.857   2.606
10578SOL    HW132633   1.482   3.864   2.507
10578SOL    HW232634   1.559   3.794   2.632
10579SOL     OW32635   6.992   3.146   6.904
10579SOL    HW132636   0.059   3.122   6.892
10579SOL    HW232637   6.945   3.139   6.816
10580SOL     OW32638   5.465   6.440   6.801
10580SOL    HW132639   5.463   6.536   6.773
10580SOL    HW232640   5.553   6.420   6.845
10581SOL     OW32641   4.474   0.990   2.386
10581SOL    HW132642   4.400   0.930   2.418
10581SOL    HW232643   4.464   1.080   2.429
10582SOL     OW32644   0.067   3.431   6.928
10582SOL    HW132645   0.044   3.343   6.970
10582SOL    HW232646   7.017   3.466   6.879
10583SOL     OW32647   4.447   2.234   5.507
10583SOL    HW132648   4.459   2.222   5.606
10583SOL    HW232649   4.525   2.196   5.459
10584SOL     OW32650   6.048   0.909   3.607
10584SOL    HW132651   6.071   0.813   3.593
10584SOL    HW232652   5.951   0.924   3.586
10585SOL     OW32653   1.411   1.391   5.212
10585SOL    HW132654   1.495   1.371   5.264
10585SOL    HW232655   1.386   1.487   5.226
10586SOL     OW32656   4.695   3.541   6.074
10586SOL    HW132657   4.782   3.517   6.033
10586SOL    HW232658   4.676   3.638   6.059
10587SOL     OW32659   2.105   5.208   4.978
10587SOL    HW132660   2.120   5.119   5.021
10587SOL    HW232661   2.180   5.269   5.002
10588SOL     OW32662   1.109   3.913   4.160
10588SOL    HW132663   1.049   3.849   4.208
10588SOL    HW232664   1.053   3.979   4.110
10589SOL     OW32665   5.835   0.280   3.681
10589SOL    HW132666   5.900   0.289   3.605
10589SOL    HW232667   5.743   0.264   3.645
10590SOL     OW32668   0.687   5.939   1.941
10590SOL    HW132669   0.706   5.863   1.880
10590SOL    HW232670   0.588   5.956   1.943
10591SOL     OW32671   6.447   4.107   2.669
10591SOL    HW132672   6.427   4.191   2.719
10591SOL    HW232673   6.443   4.124   2.571
10592SOL     OW32674   6.789   3.360   4.504
10592SOL    HW132675   6.881   3.372   4.542
10592SOL    HW232676   6.795   3.308   4.419
10593SOL     OW32677   3.878   5.992   3.467
10593SOL    HW132678   3.945   5.990   3.541
10593SOL    HW232679   3.797   5.940   3.494
10594SOL     OW32680   3.726   5.847   3.868
10594SOL    HW132681   3.702   5.929   3.921
10594SOL    HW232682   3.826   5.842   3.860
10595SOL     OW32683   5.429   6.221   0.680
10595SOL    HW132684   5.424   6.132   0.727
10595SOL    HW232685   5.466   6.289   0.743
10596SOL     OW32686   5.763   3.774   0.122
10596SOL    HW132687   5.781   3.685   0.080
10596SOL    HW232688   5.811   3.845   0.071
10597SOL     OW32689   1.254   6.594   5.191
10597SOL    HW132690   1.215   6.685   5.208
10597SOL    HW232691   1.183   6.525   5.202
10598SOL     OW32692   3.549   1.468   0.948
10598SOL    HW132693   3.572   1.371   0.940
10598SOL    HW232694   3.632   1.523   0.936
10599SOL     OW32695   0.612   2.146   0.842
10599SOL    HW132696   0.646   2.230   0.801
10599SOL    HW232697   0.525   2.164   0.889
10600SOL     OW32698   4.319   1.596   1.662
10600SOL    HW132699   4.320   1.650   1.577
10600SOL    HW232700   4.330   1.657   1.740
10601SOL     OW32701   1.953   1.789   5.023
10601SOL    HW132702   1.982   1.868   5.077
10601SOL    HW232703   2.033   1.741   4.988
10602SOL     OW32704   6.674   6.686   1.650
10602SOL    HW132705   6.734   6.727   1.582
10602SOL    HW232706   6.588   6.658   1.607
10603SOL     OW32707   5.771   0.494   2.717
10603SOL    HW132708   5.696   0.480   2.781
10603SOL    HW232709   5.756   0.438   2.635
10604SOL     OW32710   5.419   2.450   5.234
10604SOL    HW132711   5.371   2.510   5.299
10604SOL    HW232712   5.426   2.496   5.146
10605SOL     OW32713   4.398   2.328   1.346
10605SOL    HW132714   4.343   2.373   1.275
10605SOL    HW232715   4.352   2.335   1.434
10606SOL     OW32716   6.010   1.472   0.586
10606SOL    HW132717   6.107   1.450   0.576
10606SOL    HW232718   6.001   1.559   0.635
10607SOL     OW32719   2.514   4.909   0.658
10607SOL    HW132720   2.457   4.989   0.680
10607SOL    HW232721   2.461   4.845   0.602
10608SOL     OW32722   5.323   4.251   2.786
10608SOL    HW132723   5.403   4.272   2.730
10608SOL    HW232724   5.304   4.153   2.781
10609SOL     OW32725   5.913   6.731   6.330
10609SOL    HW132726   6.002   6.688   6.319
10609SOL    HW232727   5.925   6.824   6.366
10610SOL     OW32728   0.551   1.883   2.991
10610SOL    HW132729   0.526   1.840   3.078
10610SOL    HW232730   0.643   1.855   2.965
10611SOL     OW32731   4.178   5.157   5.233
10611SOL    HW132732   4.243   5.080   5.230
10611SOL    HW232733   4.131   5.157   5.321
10612SOL     OW32734   5.414   2.759   3.311
10612SOL    HW132735   5.357   2.682   3.283
10612SOL    HW232736   5.355   2.836   3.338
10613SOL     OW32737   5.074   5.266   5.024
10613SOL    HW132738   5.007   5.264   4.949
10613SOL    HW232739   5.046   5.333   5.092
10614SOL     OW32740   3.800   2.006   6.723
10614SOL    HW132741   3.701   2.011   6.706
10614SOL    HW232742   3.849   2.023   6.637
10615SOL     OW32743   2.876   2.223   5.492
10615SOL    HW132744   2.873   2.168   5.408
10615SOL    HW232745   2.834   2.312   5.475
10616SOL     OW32746   1.329   5.365   0.050
10616SOL    HW132747   1.239   5.407   0.041
10616SOL    HW232748   1.394   5.432   0.086
10617SOL     OW32749   2.405   2.311   0.322
10617SOL    HW132750   2.474   2.263   0.267
10617SOL    HW232751   2.314   2.291   0.287
10618SOL     OW32752   0.652   4.800   3.988
10618SOL    HW132753   0.567   4.769   4.031
10618SOL    HW232754   0.631   4.849   3.903
10619SOL     OW32755   1.225   2.923   1.358
10619SOL    HW132756   1.225   3.006   1.302
10619SOL    HW232757   1.306   2.921   1.416
10620SOL     OW32758   3.916   1.082   5.596
10620SOL    HW132759   3.949   1.053   5.686
10620SOL    HW232760   3.854   1.014   5.559
10621SOL     OW32761   0.870   4.305   4.332
10621SOL    HW132762   0.872   4.404   4.326
10621SOL    HW232763   0.786   4.270   4.293
10622SOL     OW32764   4.105   1.958   5.820
10622SOL    HW132765   4.054   1.943   5.735
10622SOL    HW232766   4.044   1.997   5.889
10623SOL     OW32767   5.626   4.430   5.611
10623SOL    HW132768   5.661   4.423   5.705
10623SOL    HW232769   5.694   4.476   5.554
10624SOL     OW32770   6.813   1.771   6.310
10624SOL    HW132771   6.730   1.772   6.367
10624SOL    HW232772   6.893   1.782   6.369
10625SOL     OW32773   5.698   5.532   6.647
10625SOL    HW132774   5.674   5.579   6.562
10625SOL    HW232775   5.764   5.588   6.698
10626SOL     OW32776   5.680   3.594   2.430
10626SOL    HW132777   5.717   3.515   2.478
10626SOL    HW232778   5.580   3.589   2.427
10627SOL     OW32779   5.829   4.574   5.505
10627SOL    HW132780   5.895   4.574   5.429
10627SOL    HW232781   5.868   4.624   5.582
10628SOL     OW32782   2.936   5.782   1.787
10628SOL    HW132783   2.858   5.743   1.838
10628SOL    HW232784   3.020   5.762   1.837
10629SOL     OW32785   4.608   5.398   3.945
10629SOL    HW132786   4.601   5.358   3.854
10629SOL    HW232787   4.594   5.327   4.014
10630SOL     OW32788   3.769   1.027   1.139
10630SOL    HW132789   3.776   1.107   1.079
10630SOL    HW232790   3.781   0.944   1.085
10631SOL     OW32791   3.691   5.973   1.765
10631SOL    HW132792   3.744   6.054   1.789
10631SOL    HW232793   3.617   5.998   1.702
10632SOL     OW32794   5.613   0.020   4.455
10632SOL    HW132795   5.556   0.043   4.376
10632SOL    HW232796   5.694   0.079   4.456
10633SOL     OW32797   2.315   2.831   0.717
10633SOL    HW132798   2.354   2.809   0.627
10633SOL    HW232799   2.381   2.885   0.769
10634SOL     OW32800   0.837   4.440   0.228
10634SOL    HW132801   0.910   4.386   0.269
10634SOL    HW232802   0.873   4.531   0.205
10635SOL     OW32803   2.988   4.296   6.926
10635SOL    HW132804   2.897   4.321   6.894
10635SOL    HW232805   3.041   4.258   6.850
10636SOL     OW32806   6.584   3.227   0.977
10636SOL    HW132807   6.626   3.315   0.999
10636SOL    HW232808   6.560   3.225   0.880
10637SOL     OW32809   2.426   0.252   5.865
10637SOL    HW132810   2.360   0.326   5.848
10637SOL    HW232811   2.402   0.206   5.950
10638SOL     OW32812   5.909   4.933   6.630
10638SOL    HW132813   5.918   5.026   6.665
10638SOL    HW232814   5.931   4.868   6.703
10639SOL     OW32815   6.446   5.156   0.179
10639SOL    HW132816   6.370   5.109   0.133
10639SOL    HW232817   6.533   5.120   0.145
10640SOL     OW32818   3.532   6.191   4.297
10640SOL    HW132819   3.438   6.169   4.269
10640SOL    HW232820   3.542   6.290   4.305
10641SOL     OW32821   0.995   1.421   3.730
10641SOL    HW132822   1.050   1.393   3.810
10641SOL    HW232823   0.901   1.391   3.743
10642SOL     OW32824   0.198   2.095   6.580
10642SOL    HW132825   0.235   2.010   6.619
10642SOL    HW232826   0.244   2.115   6.494
10643SOL     OW32827   2.950   5.072   5.255
10643SOL    HW132828   2.940   5.043   5.160
10643SOL    HW232829   3.047   5.081   5.277
10644SOL     OW32830   0.595   3.517   3.854
10644SOL    HW132831   0.637   3.459   3.924
10644SOL    HW232832   0.661   3.587   3.825
10645SOL     OW32833   2.178   3.089   3.728
10645SOL    HW132834   2.225   3.022   3.786
10645SOL    HW232835   2.122   3.040   3.661
10646SOL     OW32836   4.878   1.015   3.010
10646SOL    HW132837   4.935   0.991   3.089
10646SOL    HW232838   4.937   1.047   2.936
10647SOL     OW32839   4.125   5.764   4.584
10647SOL    HW132840   4.089   5.715   4.664
10647SOL    HW232841   4.208   5.720   4.552
10648SOL     OW32842   4.646   3.710   5.713
10648SOL    HW132843   4.597   3.749   5.792
10648SOL    HW232844   4.737   3.750   5.708
10649SOL     OW32845   6.347   3.358   3.798
10649SOL    HW132846   6.364   3.285   3.863
10649SOL    HW232847   6.433   3.384   3.753
10650SOL     OW32848   0.766   0.102   2.756
10650SOL    HW132849   0.806   0.010   2.760
10650SOL    HW232850   0.839   0.170   2.763
10651SOL     OW32851   2.232   5.597   5.864
10651SOL    HW132852   2.137   5.596   5.896
10651SOL    HW232853   2.252   5.511   5.818
10652SOL     OW32854   2.938   0.464   6.881
10652SOL    HW132855   2.885   0.523   6.820
10652SOL    HW232856   2.880   0.390   6.915
10653SOL     OW32857   5.569   6.071   4.408
10653SOL    HW132858   5.584   6.153   4.353
10653SOL    HW232859   5.597   6.089   4.503
10654SOL     OW32860   6.616   1.450   4.320
10654SOL    HW132861   6.576   1.396   4.246
10654SOL    HW232862   6.582   1.416   4.408
10655SOL     OW32863   6.477   5.674   0.866
10655SOL    HW132864   6.388   5.718   0.859
10655SOL    HW232865   6.476   5.607   0.940
10656SOL     OW32866   6.207   0.648   6.302
10656SOL    HW132867   6.288   0.609   6.345
10656SOL    HW232868   6.228   0.675   6.208
10657SOL     OW32869   4.637   6.884   5.817
10657SOL    HW132870   4.615   6.949   5.744
10657SOL    HW232871   4.566   6.886   5.887
10658SOL     OW32872   1.007   1.509   6.162
10658SOL    HW132873   1.078   1.536   6.226
10658SOL    HW232874   1.013   1.411   6.144
10659SOL     OW32875   0.699   5.654   7.020
10659SOL    HW132876   0.604   5.629   0.010
10659SOL    HW232877   0.738   5.591   6.953
10660SOL     OW32878   6.206   2.665   6.574
10660SOL    HW132879   6.202   2.684   6.476
10660SOL    HW232880   6.171   2.573   6.591
10661SOL     OW32881   3.487   5.584   5.418
10661SOL    HW132882   3.411   5.625   5.468
10661SOL    HW232883   3.573   5.621   5.453
10662SOL     OW32884   3.216   1.260   0.708
10662SOL    HW132885   3.209   1.178   0.765
10662SOL    HW232886   3.156   1.331   0.745
10663SOL     OW32887   6.810   3.259   4.228
10663SOL    HW132888   6.842   3.333   4.168
10663SOL    HW232889   6.859   3.175   4.205
10664SOL     OW32890   1.068   6.651   4.849
10664SOL    HW132891   1.121   6.718   4.901
10664SOL    HW232892   1.109   6.561   4.860
10665SOL     OW32893   3.525   3.420   0.639
10665SOL    HW132894   3.464   3.493   0.670
10665SOL    HW232895   3.502   3.395   0.544
10666SOL     OW32896   4.344   3.709   1.092
10666SOL    HW132897   4.374   3.765   1.015
10666SOL    HW232898   4.321   3.617   1.060
10667SOL     OW32899   5.709   2.523   4.152
10667SOL    HW132900   5.641   2.556   4.217
10667SOL    HW232901   5.774   2.596   4.132
10668SOL     OW32902   3.710   3.711   6.036
10668SOL    HW132903   3.692   3.781   6.105
10668SOL    HW232904   3.672   3.624   6.066
10669SOL     OW32905   6.407   2.659   1.681
10669SOL    HW132906   6.349   2.741   1.676
10669SOL    HW232907   6.479   2.664   1.612
10670SOL     OW32908   4.778   4.442   3.962
10670SOL    HW132909   4.832   4.519   3.929
10670SOL    HW232910   4.827   4.396   4.036
10671SOL     OW32911   2.144   3.198   4.827
10671SOL    HW132912   2.157   3.277   4.887
10671SOL    HW232913   2.210   3.127   4.851
10672SOL     OW32914   6.231   4.619   1.515
10672SOL    HW132915   6.280   4.558   1.578
10672SOL    HW232916   6.294   4.649   1.443
10673SOL     OW32917   3.252   1.619   1.187
10673SOL    HW132918   3.172   1.618   1.246
10673SOL    HW232919   3.252   1.538   1.128
10674SOL     OW32920   3.714   3.359   4.442
10674SOL    HW132921   3.778   3.421   4.488
10674SOL    HW232922   3.728   3.365   4.343
10675SOL     OW32923   3.770   6.256   5.562
10675SOL    HW132924   3.775   6.169   5.611
10675SOL    HW232925   3.722   6.241   5.475
10676SOL     OW32926   1.172   1.127   4.759
10676SOL    HW132927   1.211   1.202   4.811
10676SOL    HW232928   1.173   1.151   4.661
10677SOL     OW32929   0.100   2.187   6.943
10677SOL    HW132930   0.147   2.100   6.963
10677SOL    HW232931   0.001   2.175   6.954
10678SOL     OW32932   3.905   5.226   2.397
10678SOL    HW132933   3.952   5.210   2.484
10678SOL    HW232934   3.813   5.185   2.401
10679SOL     OW32935   5.210   3.998   0.123
10679SOL    HW132936   5.273   4.057   0.173
10679SOL    HW232937   5.241   3.989   0.029
10680SOL     OW32938   4.938   1.123   5.694
10680SOL    HW132939   4.902   1.213   5.668
10680SOL    HW232940   4.959   1.070   5.612
10681SOL     OW32941   2.717   3.267   5.337
10681SOL    HW132942   2.788   3.312   5.282
10681SOL    HW232943   2.658   3.213   5.277
10682SOL     OW32944   4.993   3.053   5.902
10682SOL    HW132945   5.043   3.094   5.979
10682SOL    HW232946   4.915   3.110   5.879
10683SOL     OW32947   1.778   0.766   3.065
10683SOL    HW132948   1.871   0.805   3.064
10683SOL    HW232949   1.771   0.696   2.995
10684SOL     OW32950   5.058   4.410   1.381
10684SOL    HW132951   5.127   4.442   1.447
10684SOL    HW232952   4.981   4.370   1.430
10685SOL     OW32953   1.132   0.106   2.604
10685SOL    HW132954   1.057   0.089   2.539
10685SOL    HW232955   1.209   0.147   2.555
10686SOL     OW32956   2.644   1.233   6.428
10686SOL    HW132957   2.619   1.202   6.336
10686SOL    HW232958   2.629   1.332   6.435
10687SOL     OW32959   0.685   3.127   3.447
10687SOL    HW132960   0.616   3.161   3.510
10687SOL    HW232961   0.731   3.204   3.403
10688SOL     OW32962   5.454   1.297   3.801
10688SOL    HW132963   5.525   1.246   3.850
10688SOL    HW232964   5.374   1.308   3.859
10689SOL     OW32965   1.160   1.453   2.942
10689SOL    HW132966   1.081   1.512   2.959
10689SOL    HW232967   1.169   1.436   2.844
10690SOL     OW32968   0.930   6.832   4.710
10690SOL    HW132969   0.850   6.818   4.651
10690SOL    HW232970   0.937   6.758   4.776
10691SOL     OW32971   3.334   6.558   1.077
10691SOL    HW132972   3.270   6.605   1.017
10691SOL    HW232973   3.346   6.611   1.161
10692SOL     OW32974   2.765   2.115   4.283
10692SOL    HW132975   2.858   2.082   4.274
10692SOL    HW232976   2.730   2.144   4.194
10693SOL     OW32977   1.051   4.975   0.212
10693SOL    HW132978   1.144   4.985   0.247
10693SOL    HW232979   1.028   5.053   0.155
10694SOL     OW32980   4.821   0.953   5.028
10694SOL    HW132981   4.761   0.901   4.968
10694SOL    HW232982   4.778   1.039   5.052
10695SOL     OW32983   5.254   4.627   1.776
10695SOL    HW132984   5.190   4.704   1.771
10695SOL    HW232985   5.258   4.581   1.687
10696SOL     OW32986   6.302   4.398   4.487
10696SOL    HW132987   6.381   4.423   4.543
10696SOL    HW232988   6.220   4.440   4.525
10697SOL     OW32989   2.982   5.545   4.339
10697SOL    HW132990   3.037   5.463   4.356
10697SOL    HW232991   2.911   5.551   4.409
10698SOL     OW32992   3.693   4.051   0.253
10698SOL    HW132993   3.667   4.125   0.192
10698SOL    HW232994   3.712   3.968   0.200
10699SOL     OW32995   3.934   3.447   1.241
10699SOL    HW132996   3.937   3.385   1.163
10699SOL    HW232997   4.000   3.521   1.226
10700SOL     OW32998   4.831   0.344   1.327
10700SOL    HW132999   4.768   0.302   1.393
10700SOL    HW233000   4.922   0.306   1.341
10701SOL     OW33001   3.383   6.181   6.207
10701SOL    HW133002   3.355   6.091   6.241
10701SOL    HW233003   3.479   6.177   6.179
10702SOL     OW33004   5.854   2.123   1.993
10702SOL    HW133005   5.792   2.053   2.030
10702SOL    HW233006   5.818   2.214   2.013
10703SOL     OW33007   0.432   1.869   5.517
10703SOL    HW133008   0.430   1.838   5.612
10703SOL    HW233009   0.360   1.823   5.465
10704SOL     OW33010   5.198   6.688   2.189
10704SOL    HW133011   5.171   6.776   2.150
10704SOL    HW233012   5.235   6.630   2.116
10705SOL     OW33013   4.820   3.388   0.703
10705SOL    HW133014   4.838   3.329   0.625
10705SOL    HW233015   4.764   3.466   0.674
10706SOL     OW33016   3.319   0.799   1.485
10706SOL    HW133017   3.363   0.840   1.565
10706SOL    HW233018   3.327   0.861   1.407
10707SOL     OW33019   4.736   6.819   3.139
10707SOL    HW133020   4.815   6.857   3.091
10707SOL    HW233021   4.728   6.722   3.117
10708SOL     OW33022   4.279   0.661   1.605
10708SOL    HW133023   4.231   0.644   1.691
10708SOL    HW233024   4.361   0.604   1.600
10709SOL     OW33025   6.110   4.700   2.607
10709SOL    HW133026   6.119   4.749   2.693
10709SOL    HW233027   6.198   4.661   2.581
10710SOL     OW33028   4.660   1.665   3.200
10710SOL    HW133029   4.685   1.569   3.185
10710SOL    HW233030   4.568   1.669   3.240
10711SOL     OW33031   2.614   6.743   2.400
10711SOL    HW133032   2.518   6.767   2.385
10711SOL    HW233033   2.665   6.755   2.315
10712SOL     OW33034   5.480   0.328   3.353
10712SOL    HW133035   5.438   0.414   3.324
10712SOL    HW233036   5.452   0.254   3.291
10713SOL     OW33037   1.426   3.817   1.705
10713SOL    HW133038   1.439   3.909   1.668
10713SOL    HW233039   1.456   3.750   1.637
10714SOL     OW33040   3.050   4.046   5.078
10714SOL    HW133041   2.998   3.963   5.060
10714SOL    HW233042   3.119   4.057   5.006
10715SOL     OW33043   5.922   1.043   2.194
10715SOL    HW133044   5.964   1.045   2.103
10715SOL    HW233045   5.839   0.987   2.192
10716SOL     OW33046   5.163   0.740   3.309
10716SOL    HW133047   5.090   0.676   3.286
10716SOL    HW233048   5.136   0.833   3.283
10717SOL     OW33049   2.864   2.752   6.983
10717SOL    HW133050   2.943   2.735   6.924
10717SOL    HW233051   2.889   2.819   0.025
10718SOL     OW33052   1.521   4.612   6.347
10718SOL    HW133053   1.595   4.680   6.353
10718SOL    HW233054   1.536   4.540   6.414
10719SOL     OW33055   0.611   5.843   4.683
10719SOL    HW133056   0.602   5.835   4.583
10719SOL    HW233057   0.563   5.924   4.715
10720SOL     OW33058   0.051   5.039   3.332
10720SOL    HW133059   0.114   4.963   3.350
10720SOL    HW233060   0.059   5.067   3.237
10721SOL     OW33061   5.112   2.626   6.280
10721SOL    HW133062   5.060   2.554   6.327
10721SOL    HW233063   5.056   2.666   6.207
10722SOL     OW33064   0.469   3.302   5.514
10722SOL    HW133065   0.509   3.330   5.426
10722SOL    HW233066   0.487   3.205   5.529
10723SOL     OW33067   5.576   6.781   0.634
10723SOL    HW133068   5.640   6.706   0.651
10723SOL    HW233069   5.591   6.817   0.541
10724SOL     OW33070   0.322   6.399   6.743
10724SOL    HW133071   0.285   6.344   6.818
10724SOL    HW233072   0.319   6.496   6.768
10725SOL     OW33073   2.091   6.105   6.012
10725SOL    HW133074   2.020   6.046   5.974
10725SOL    HW233075   2.176   6.053   6.022
10726SOL     OW33076   4.030   1.035   3.861
10726SOL    HW133077   4.121   1.023   3.901
10726SOL    HW233078   4.023   1.126   3.820
10727SOL     OW33079   1.840   6.508   6.469
10727SOL    HW133080   1.877   6.443   6.535
10727SOL    HW233081   1.780   6.461   6.405
10728SOL     OW33082   4.910   5.638   0.810
10728SOL    HW133083   4.964   5.716   0.841
10728SOL    HW233084   4.969   5.558   0.801
10729SOL     OW33085   6.144   2.078   0.949
10729SOL    HW133086   6.047   2.103   0.943
10729SOL    HW233087   6.166   2.055   1.043
10730SOL     OW33088   4.450   0.364   2.718
10730SOL    HW133089   4.544   0.396   2.706
10730SOL    HW233090   4.432   0.350   2.816
10731SOL     OW33091   4.590   0.255   1.517
10731SOL    HW133092   4.627   0.315   1.589
10731SOL    HW233093   4.491   0.250   1.525
10732SOL     OW33094   0.864   3.468   5.867
10732SOL    HW133095   0.889   3.379   5.904
10732SOL    HW233096   0.941   3.531   5.875
10733SOL     OW33097   5.501   1.755   0.589
10733SOL    HW133098   5.445   1.825   0.545
10733SOL    HW233099   5.447   1.672   0.600
10734SOL     OW33100   6.754   2.849   1.939
10734SOL    HW133101   6.764   2.811   1.848
10734SOL    HW233102   6.844   2.872   1.976
10735SOL     OW33103   0.398   5.035   2.709
10735SOL    HW133104   0.455   5.102   2.755
10735SOL    HW233105   0.442   5.007   2.623
10736SOL     OW33106   2.201   1.139   4.164
10736SOL    HW133107   2.166   1.148   4.071
10736SOL    HW233108   2.159   1.061   4.209
10737SOL     OW33109   6.818   2.261   0.853
10737SOL    HW133110   6.718   2.264   0.852
10737SOL    HW233111   6.849   2.215   0.936
10738SOL     OW33112   3.964   0.289   3.773
10738SOL    HW133113   3.923   0.199   3.759
10738SOL    HW233114   4.032   0.307   3.701
10739SOL     OW33115   2.847   1.913   1.976
10739SOL    HW133116   2.810   1.891   2.066
10739SOL    HW233117   2.811   1.848   1.909
10740SOL     OW33118   4.447   5.741   3.110
10740SOL    HW133119   4.377   5.802   3.147
10740SOL    HW233120   4.535   5.787   3.111
10741SOL     OW33121   3.383   0.763   2.926
10741SOL    HW133122   3.297   0.716   2.906
10741SOL    HW233123   3.409   0.820   2.849
10742SOL     OW33124   6.728   5.395   0.657
10742SOL    HW133125   6.748   5.311   0.606
10742SOL    HW233126   6.644   5.383   0.709
10743SOL     OW33127   2.546   2.443   5.444
10743SOL    HW133128   2.464   2.451   5.387
10743SOL    HW233129   2.568   2.533   5.484
10744SOL     OW33130   5.426   2.157   0.366
10744SOL    HW133131   5.341   2.157   0.418
10744SOL    HW233132   5.503   2.143   0.428
10745SOL     OW33133   7.029   5.717   6.381
10745SOL    HW133134   7.021   5.621   6.408
10745SOL    HW233135   6.950   5.768   6.416
10746SOL     OW33136   1.197   4.286   5.809
10746SOL    HW133137   1.162   4.204   5.854
10746SOL    HW233138   1.121   4.346   5.785
10747SOL     OW33139   3.347   2.122   4.206
10747SOL    HW133140   3.403   2.177   4.143
10747SOL    HW233141   3.407   2.078   4.273
10748SOL     OW33142   5.175   1.449   2.270
10748SOL    HW133143   5.123   1.533   2.282
10748SOL    HW233144   5.246   1.443   2.341
10749SOL     OW33145   2.354   0.115   6.779
10749SOL    HW133146   2.376   0.091   6.873
10749SOL    HW233147   2.338   0.032   6.726
10750SOL     OW33148   3.867   6.687   6.218
10750SOL    HW133149   3.804   6.727   6.152
10750SOL    HW233150   3.961   6.715   6.195
10751SOL     OW33151   2.026   5.348   3.904
10751SOL    HW133152   2.122   5.323   3.918
10751SOL    HW233153   1.996   5.314   3.815
10752SOL     OW33154   5.167   4.978   3.960
10752SOL    HW133155   5.113   5.061   3.972
10752SOL    HW233156   5.142   4.933   3.874
10753SOL     OW33157   6.445   3.749   4.671
10753SOL    HW133158   6.359   3.704   4.695
10753SOL    HW233159   6.511   3.680   4.642
10754SOL     OW33160   1.133   6.884   2.331
10754SOL    HW133161   1.116   6.838   2.244
10754SOL    HW233162   1.130   6.983   2.317
10755SOL     OW33163   6.240   5.761   1.983
10755SOL    HW133164   6.297   5.702   2.040
10755SOL    HW233165   6.297   5.811   1.918
10756SOL     OW33166   0.708   6.983   5.176
10756SOL    HW133167   0.627   7.023   5.131
10756SOL    HW233168   0.775   0.026   5.192
10757SOL     OW33169   2.679   3.268   1.175
10757SOL    HW133170   2.765   3.236   1.137
10757SOL    HW233171   2.603   3.223   1.128
10758SOL     OW33172   0.740   5.077   3.816
10758SOL    HW133173   0.776   5.008   3.754
10758SOL    HW233174   0.765   5.053   3.910
10759SOL     OW33175   7.028   1.352   6.753
10759SOL    HW133176   7.019   1.451   6.742
10759SOL    HW233177   6.937   1.311   6.753
10760SOL     OW33178   5.837   1.356   4.931
10760SOL    HW133179   5.918   1.411   4.949
10760SOL    HW233180   5.772   1.368   5.007
10761SOL     OW33181   2.646   5.249   5.120
10761SOL    HW133182   2.690   5.337   5.136
10761SOL    HW233183   2.548   5.263   5.103
10762SOL     OW33184   2.985   1.522   5.076
10762SOL    HW133185   3.052   1.591   5.049
10762SOL    HW233186   2.921   1.508   5.000
10763SOL     OW33187   4.423   6.357   4.040
10763SOL    HW133188   4.417   6.433   3.977
10763SOL    HW233189   4.407   6.271   3.991
10764SOL     OW33190   4.788   0.390   4.934
10764SOL    HW133191   4.866   0.420   4.878
10764SOL    HW233192   4.753   0.304   4.898
10765SOL     OW33193   6.061   3.617   0.305
10765SOL    HW133194   6.070   3.682   0.381
10765SOL    HW233195   5.965   3.590   0.295
10766SOL     OW33196   3.439   3.504   1.428
10766SOL    HW133197   3.496   3.430   1.463
10766SOL    HW233198   3.376   3.467   1.359
10767SOL     OW33199   4.866   1.915   2.217
10767SOL    HW133200   4.768   1.936   2.214
10767SOL    HW233201   4.882   1.841   2.283
10768SOL     OW33202   6.402   4.692   6.831
10768SOL    HW133203   6.454   4.635   6.896
10768SOL    HW233204   6.319   4.644   6.804
10769SOL     OW33205   1.669   3.772   5.069
10769SOL    HW133206   1.642   3.679   5.091
10769SOL    HW233207   1.599   3.816   5.014
10770SOL     OW33208   4.050   5.946   3.658
10770SOL    HW133209   4.036   5.938   3.757
10770SOL    HW233210   4.101   5.867   3.625
10771SOL     OW33211   2.113   1.169   3.889
10771SOL    HW133212   2.074   1.089   3.934
10771SOL    HW233213   2.189   1.141   3.831
10772SOL     OW33214   5.359   5.643   3.063
10772SOL    HW133215   5.307   5.728   3.064
10772SOL    HW233216   5.452   5.660   3.095
10773SOL     OW33217   5.719   4.443   2.895
10773SOL    HW133218   5.702   4.485   2.805
10773SOL    HW233219   5.714   4.344   2.886
10774SOL     OW33220   0.199   6.788   3.120
10774SOL    HW133221   0.242   6.777   3.210
10774SOL    HW233222   0.199   6.700   3.072
10775SOL     OW33223   0.429   3.446   1.705
10775SOL    HW133224   0.465   3.502   1.779
10775SOL    HW233225   0.398   3.505   1.630
10776SOL     OW33226   1.224   0.688   6.068
10776SOL    HW133227   1.179   0.605   6.037
10776SOL    HW233228   1.320   0.669   6.087
10777SOL     OW33229   2.687   6.113   1.197
10777SOL    HW133230   2.766   6.056   1.173
10777SOL    HW233231   2.715   6.183   1.263
10778SOL     OW33232   5.645   5.708   2.372
10778SOL    HW133233   5.607   5.668   2.455
10778SOL    HW233234   5.578   5.703   2.298
10779SOL     OW33235   4.960   2.610   3.839
10779SOL    HW133236   4.940   2.549   3.915
10779SOL    HW233237   4.894   2.594   3.765
10780SOL     OW33238   6.621   0.759   2.417
10780SOL    HW133239   6.547   0.692   2.408
10780SOL    HW233240   6.583   0.851   2.409
10781SOL     OW33241   3.508   0.025   4.208
10781SOL    HW133242   3.415   7.024   4.187
10781SOL    HW233243   3.554   0.053   4.124
10782SOL     OW33244   5.965   5.096   3.723
10782SOL    HW133245   5.950   5.057   3.632
10782SOL    HW233246   5.956   5.195   3.718
10783SOL     OW33247   6.798   2.012   3.463
10783SOL    HW133248   6.822   2.109   3.467
10783SOL    HW233249   6.747   1.986   3.545
10784SOL     OW33250   2.596   1.572   4.757
10784SOL    HW133251   2.609   1.671   4.747
10784SOL    HW233252   2.523   1.542   4.695
10785SOL     OW33253   1.155   3.386   6.130
10785SOL    HW133254   1.117   3.477   6.145
10785SOL    HW233255   1.249   3.383   6.165
10786SOL     OW33256   0.331   4.326   3.890
10786SOL    HW133257   0.370   4.362   3.805
10786SOL    HW233258   0.400   4.332   3.963
10787SOL     OW33259   2.090   2.438   6.670
10787SOL    HW133260   2.085   2.533   6.701
10787SOL    HW233261   2.124   2.380   6.743
10788SOL     OW33262   5.945   3.731   5.878
10788SOL    HW133263   5.905   3.787   5.807
10788SOL    HW233264   5.992   3.653   5.837
10789SOL     OW33265   5.534   1.879   0.834
10789SOL    HW133266   5.524   1.806   0.767
10789SOL    HW233267   5.610   1.938   0.807
10790SOL     OW33268   6.840   6.646   3.009
10790SOL    HW133269   6.897   6.651   3.091
10790SOL    HW233270   6.745   6.628   3.036
10791SOL     OW33271   0.803   6.447   2.465
10791SOL    HW133272   0.826   6.516   2.396
10791SOL    HW233273   0.757   6.370   2.421
10792SOL     OW33274   3.915   4.245   5.615
10792SOL    HW133275   3.875   4.160   5.648
10792SOL    HW233276   3.978   4.226   5.540
10793SOL     OW33277   6.216   4.204   4.019
10793SOL    HW133278   6.298   4.231   4.068
10793SOL    HW233279   6.140   4.264   4.045
10794SOL     OW33280   3.131   4.000   4.499
10794SOL    HW133281   3.214   3.957   4.464
10794SOL    HW233282   3.146   4.098   4.511
10795SOL     OW33283   6.895   5.309   2.862
10795SOL    HW133284   6.816   5.272   2.910
10795SOL    HW233285   6.898   5.409   2.875
10796SOL     OW33286   1.156   6.332   5.504
10796SOL    HW133287   1.255   6.344   5.493
10796SOL    HW233288   1.137   6.239   5.534
10797SOL     OW33289   3.437   2.496   0.459
10797SOL    HW133290   3.534   2.521   0.461
10797SOL    HW233291   3.411   2.454   0.546
10798SOL     OW33292   6.436   1.494   0.895
10798SOL    HW133293   6.347   1.452   0.909
10798SOL    HW233294   6.508   1.436   0.934
10799SOL     OW33295   4.955   1.757   1.119
10799SOL    HW133296   4.930   1.809   1.201
10799SOL    HW233297   4.881   1.693   1.097
10800SOL     OW33298   6.893   6.659   1.841
10800SOL    HW133299   6.810   6.678   1.788
10800SOL    HW233300   6.944   6.584   1.798
10801SOL     OW33301   2.107   0.680   0.869
10801SOL    HW133302   2.145   0.607   0.925
10801SOL    HW233303   2.174   0.709   0.801
10802SOL     OW33304   5.933   1.319   3.469
10802SOL    HW133305   5.898   1.240   3.420
10802SOL    HW233306   6.033   1.319   3.466
10803SOL     OW33307   2.224   5.237   6.011
10803SOL    HW133308   2.321   5.249   5.993
10803SOL    HW233309   2.201   5.140   6.007
10804SOL     OW33310   6.691   3.044   4.526
10804SOL    HW133311   6.735   3.087   4.605
10804SOL    HW233312   6.759   2.993   4.473
10805SOL     OW33313   6.530   1.041   6.424
10805SOL    HW133314   6.515   0.982   6.504
10805SOL    HW233315   6.605   1.004   6.369
10806SOL     OW33316   1.499   5.197   6.907
10806SOL    HW133317   1.550   5.128   6.960
10806SOL    HW233318   1.435   5.244   6.967
10807SOL     OW33319   3.385   6.007   5.314
10807SOL    HW133320   3.415   5.936   5.251
10807SOL    HW233321   3.304   5.976   5.364
10808SOL     OW33322   1.046   2.942   6.396
10808SOL    HW133323   1.086   2.851   6.391
10808SOL    HW233324   1.114   3.010   6.367
10809SOL     OW33325   1.315   0.024   4.924
10809SOL    HW133326   1.379   0.072   4.864
10809SOL    HW233327   1.366   7.004   4.994
10810SOL     OW33328   6.325   0.710   4.342
10810SOL    HW133329   6.409   0.671   4.380
10810SOL    HW233330   6.340   0.807   4.322
10811SOL     OW33331   4.673   5.332   4.712
10811SOL    HW133332   4.724   5.411   4.677
10811SOL    HW233333   4.575   5.347   4.700
10812SOL     OW33334   0.059   3.126   0.321
10812SOL    HW133335   0.112   3.208   0.342
10812SOL    HW233336   7.012   3.149   0.260
10813SOL     OW33337   1.000   3.261   6.611
10813SOL    HW133338   0.983   3.356   6.584
10813SOL    HW233339   0.917   3.207   6.597
10814SOL     OW33340   3.393   1.901   0.842
10814SOL    HW133341   3.458   1.877   0.771
10814SOL    HW233342   3.420   1.857   0.928
10815SOL     OW33343   5.350   0.962   4.529
10815SOL    HW133344   5.400   1.028   4.472
10815SOL    HW233345   5.391   0.872   4.518
10816SOL     OW33346   3.123   3.192   4.797
10816SOL    HW133347   3.050   3.256   4.775
10816SOL    HW233348   3.084   3.105   4.827
10817SOL     OW33349   1.580   6.442   4.141
10817SOL    HW133350   1.566   6.347   4.167
10817SOL    HW233351   1.497   6.478   4.099
10818SOL     OW33352   3.932   4.167   6.915
10818SOL    HW133353   4.013   4.196   6.966
10818SOL    HW233354   3.916   4.070   6.930
10819SOL     OW33355   6.358   6.383   5.596
10819SOL    HW133356   6.369   6.298   5.544
10819SOL    HW233357   6.278   6.433   5.563
10820SOL     OW33358   2.620   4.581   6.223
10820SOL    HW133359   2.606   4.545   6.131
10820SOL    HW233360   2.555   4.654   6.241
10821SOL     OW33361   4.312   5.921   3.241
10821SOL    HW133362   4.365   5.901   3.324
10821SOL    HW233363   4.216   5.896   3.256
10822SOL     OW33364   5.771   1.196   2.383
10822SOL    HW133365   5.678   1.191   2.345
10822SOL    HW233366   5.835   1.154   2.319
10823SOL     OW33367   5.395   6.380   1.283
10823SOL    HW133368   5.452   6.439   1.341
10823SOL    HW233369   5.429   6.384   1.189
10824SOL     OW33370   1.429   3.220   3.743
10824SOL    HW133371   1.350   3.161   3.723
10824SOL    HW233372   1.427   3.299   3.682
10825SOL     OW33373   0.435   2.605   0.899
10825SOL    HW133374   0.465   2.522   0.852
10825SOL    HW233375   0.336   2.602   0.913
10826SOL     OW33376   6.489   3.385   2.618
10826SOL    HW133377   6.430   3.447   2.670
10826SOL    HW233378   6.434   3.338   2.548
10827SOL     OW33379   0.352   3.530   4.859
10827SOL    HW133380   0.422   3.584   4.812
10827SOL    HW233381   0.366   3.433   4.838
10828SOL     OW33382   6.661   3.889   5.169
10828SOL    HW133383   6.672   3.930   5.260
10828SOL    HW233384   6.571   3.914   5.133
10829SOL     OW33385   3.638   2.811   5.612
10829SOL    HW133386   3.684   2.846   5.693
10829SOL    HW233387   3.680   2.850   5.530
10830SOL     OW33388   4.870   2.162   2.873
10830SOL    HW133389   4.882   2.256   2.841
10830SOL    HW233390   4.844   2.163   2.969
10831SOL     OW33391   4.028   6.961   3.722
10831SOL    HW133392   4.031   6.940   3.624
10831SOL    HW233393   3.935   6.988   3.747
10832SOL     OW33394   6.584   2.643   0.236
10832SOL    HW133395   6.659   2.684   0.184
10832SOL    HW233396   6.540   2.572   0.181
10833SOL     OW33397   0.382   1.001   6.697
10833SOL    HW133398   0.416   0.967   6.609
10833SOL    HW233399   0.426   1.089   6.718
10834SOL     OW33400   6.041   6.260   1.373
10834SOL    HW133401   6.047   6.285   1.470
10834SOL    HW233402   5.953   6.291   1.336
10835SOL     OW33403   0.056   2.430   5.400
10835SOL    HW133404   0.028   2.465   5.311
10835SOL    HW233405   0.156   2.418   5.401
10836SOL     OW33406   7.001   1.436   3.613
10836SOL    HW133407   7.025   1.350   3.569
10836SOL    HW233408   7.010   1.511   3.548
10837SOL     OW33409   0.436   3.306   4.172
10837SOL    HW133410   0.356   3.365   4.182
10837SOL    HW233411   0.453   3.257   4.258
10838SOL     OW33412   0.449   5.883   2.379
10838SOL    HW133413   0.510   5.843   2.311
10838SOL    HW233414   0.501   5.944   2.439
10839SOL     OW33415   4.550   3.102   0.568
10839SOL    HW133416   4.619   3.038   0.603
10839SOL    HW233417   4.459   3.062   0.577
10840SOL     OW33418   2.341   0.224   1.713
10840SOL    HW133419   2.349   0.275   1.627
10840SOL    HW233420   2.419   0.162   1.722
10841SOL     OW33421   2.248   5.470   5.043
10841SOL    HW133422   2.187   5.465   5.122
10841SOL    HW233423   2.309   5.548   5.052
10842SOL     OW33424   6.124   4.620   2.301
10842SOL    HW133425   6.117   4.657   2.394
10842SOL    HW233426   6.103   4.523   2.302
10843SOL     OW33427   2.875   1.841   1.481
10843SOL    HW133428   2.930   1.910   1.528
10843SOL    HW233429   2.834   1.881   1.399
10844SOL     OW33430   1.624   5.635   5.254
10844SOL    HW133431   1.615   5.549   5.304
10844SOL    HW233432   1.646   5.709   5.317
10845SOL     OW33433   4.049   0.243   4.507
10845SOL    HW133434   4.059   0.275   4.602
10845SOL    HW233435   4.002   0.155   4.507
10846SOL     OW33436   6.072   0.131   5.810
10846SOL    HW133437   6.151   0.070   5.815
10846SOL    HW233438   5.996   0.082   5.768
10847SOL     OW33439   3.193   0.370   6.911
10847SOL    HW133440   3.109   0.419   6.888
10847SOL    HW233441   3.194   0.281   6.867
10848SOL     OW33442   1.488   3.805   2.035
10848SOL    HW133443   1.459   3.808   1.939
10848SOL    HW233444   1.587   3.822   2.040
10849SOL     OW33445   2.234   6.517   2.883
10849SOL    HW133446   2.172   6.564   2.820
10849SOL    HW233447   2.184   6.448   2.935
10850SOL     OW33448   4.687   4.454   0.749
10850SOL    HW133449   4.654   4.477   0.657
10850SOL    HW233450   4.782   4.485   0.758
10851SOL     OW33451   1.338   4.393   0.509
10851SOL    HW133452   1.321   4.324   0.579
10851SOL    HW233453   1.327   4.484   0.549
10852SOL     OW33454   2.508   2.057   2.719
10852SOL    HW133455   2.532   2.037   2.624
10852SOL    HW233456   2.552   1.990   2.779
10853SOL     OW33457   3.692   1.141   5.961
10853SOL    HW133458   3.657   1.214   6.020
10853SOL    HW233459   3.615   1.092   5.920
10854SOL     OW33460   3.352   6.036   5.798
10854SOL    HW133461   3.364   6.056   5.700
10854SOL    HW233462   3.302   5.951   5.809
10855SOL     OW33463   4.316   1.587   6.856
10855SOL    HW133464   4.228   1.561   6.816
10855SOL    HW233465   4.301   1.658   6.925
10856SOL     OW33466   0.722   1.658   0.396
10856SOL    HW133467   0.778   1.656   0.479
10856SOL    HW233468   0.726   1.569   0.350
10857SOL     OW33469   0.045   2.758   2.267
10857SOL    HW133470   0.057   2.659   2.269
10857SOL    HW233471   6.977   2.780   2.274
10858SOL     OW33472   2.546   6.356   2.107
10858SOL    HW133473   2.613   6.403   2.164
10858SOL    HW233474   2.514   6.418   2.035
10859SOL     OW33475   1.440   5.442   3.220
10859SOL    HW133476   1.462   5.531   3.181
10859SOL    HW233477   1.496   5.427   3.302
10860SOL     OW33478   0.100   3.783   3.203
10860SOL    HW133479   0.175   3.747   3.258
10860SOL    HW233480   0.073   3.714   3.135
10861SOL     OW33481   3.740   2.939   5.814
10861SOL    HW133482   3.729   3.019   5.873
10861SOL    HW233483   3.830   2.941   5.772
10862SOL     OW33484   0.549   0.747   5.303
10862SOL    HW133485   0.462   0.769   5.258
10862SOL    HW233486   0.532   0.685   5.379
10863SOL     OW33487   2.349   6.445   4.284
10863SOL    HW133488   2.427   6.386   4.267
10863SOL    HW233489   2.379   6.529   4.329
10864SOL     OW33490   3.630   6.479   2.964
10864SOL    HW133491   3.574   6.454   3.043
10864SOL    HW233492   3.648   6.397   2.908
10865SOL     OW33493   6.470   1.731   6.190
10865SOL    HW133494   6.455   1.632   6.180
10865SOL    HW233495   6.536   1.748   6.263
10866SOL     OW33496   5.765   4.829   6.432
10866SOL    HW133497   5.680   4.879   6.413
10866SOL    HW233498   5.813   4.875   6.507
10867SOL     OW33499   2.922   1.382   6.510
10867SOL    HW133500   2.938   1.286   6.486
10867SOL    HW233501   2.910   1.390   6.609
10868SOL     OW33502   2.456   2.500   3.410
10868SOL    HW133503   2.387   2.428   3.420
10868SOL    HW233504   2.478   2.538   3.499
10869NA      NA33505   6.228   2.446   5.665
10870NA      NA33506   4.280   4.683   5.201
10871NA      NA33507   2.163   3.600   1.819
10872NA      NA33508   4.863   3.646   5.317
10873NA      NA33509   4.104   2.417   5.340
10874NA      NA33510   3.700   4.746   1.712
10875NA      NA33511   6.646   5.957   4.705
10876NA      NA33512   3.497   3.440   4.958
10877NA      NA33513   4.469   6.502   6.287
10878NA      NA33514   2.578   0.534   5.107
10879NA      NA33515   0.555   4.787   2.480
10880NA      NA33516   2.461   0.549   2.512
10881NA      NA33517   3.433   4.450   1.205
10882NA      NA33518   3.480   3.345   2.863
   7.02901   7.02901   7.02901
