Generated by trjconv : CNT in water t= 299.00000
33518
    1C        C    1   2.839   2.765   4.744
    1C        C    2   2.894   2.711   4.863
    1C        C    3   2.836   2.764   4.979
    1C        C    4   2.849   2.770   4.258
    1C        C    5   2.899   2.724   4.382
    1C        C    6   2.838   2.765   4.502
    1C        C    7   3.010   2.637   4.627
    1C        C    8   2.895   2.718   4.623
    1C        C    9   3.077   2.602   4.746
    1C        C   10   3.011   2.633   4.867
    1C        C   11   3.181   2.489   4.978
    1C        C   12   3.058   2.555   4.974
    1C        C   13   2.846   2.770   3.768
    1C        C   14   2.895   2.720   3.891
    1C        C   15   2.849   2.771   4.014
    1C        C   16   3.014   2.639   4.138
    1C        C   17   2.899   2.720   4.136
    1C        C   18   3.076   2.608   4.261
    1C        C   19   3.013   2.640   4.384
    1C        C   20   3.207   2.555   4.503
    1C        C   21   3.073   2.601   4.506
    1C        C   22   3.278   2.531   4.623
    1C        C   23   3.209   2.548   4.745
    1C        C   24   3.411   2.481   4.866
    1C        C   25   3.269   2.500   4.865
    1C        C   26   3.488   2.480   4.983
    1C        C   27   2.853   2.771   3.280
    1C        C   28   2.905   2.724   3.402
    1C        C   29   2.857   2.777   3.524
    1C        C   30   3.014   2.636   3.647
    1C        C   31   2.904   2.725   3.647
    1C        C   32   3.074   2.600   3.769
    1C        C   33   3.010   2.638   3.890
    1C        C   34   3.205   2.561   4.017
    1C        C   35   3.071   2.605   4.013
    1C        C   36   3.274   2.540   4.139
    1C        C   37   3.207   2.554   4.262
    1C        C   38   3.416   2.506   4.380
    1C        C   39   3.278   2.536   4.383
    1C        C   40   3.485   2.497   4.503
    1C        C   41   3.416   2.500   4.626
    1C        C   42   3.629   2.488   4.743
    1C        C   43   3.487   2.478   4.746
    1C        C   44   3.701   2.491   4.864
    1C        C   45   3.627   2.484   4.983
    1C        C   46   2.838   2.752   2.793
    1C        C   47   2.891   2.708   2.916
    1C        C   48   2.839   2.759   3.037
    1C        C   49   3.017   2.637   3.158
    1C        C   50   2.903   2.721   3.157
    1C        C   51   3.081   2.607   3.281
    1C        C   52   3.020   2.642   3.403
    1C        C   53   3.208   2.546   3.530
    1C        C   54   3.077   2.600   3.526
    1C        C   55   3.277   2.531   3.652
    1C        C   56   3.206   2.550   3.773
    1C        C   57   3.411   2.506   3.893
    1C        C   58   3.273   2.533   3.896
    1C        C   59   3.482   2.499   4.015
    1C        C   60   3.412   2.511   4.137
    1C        C   61   3.626   2.496   4.258
    1C        C   62   3.485   2.498   4.257
    1C        C   63   3.700   2.501   4.378
    1C        C   64   3.626   2.501   4.499
    1C        C   65   3.831   2.552   4.622
    1C        C   66   3.697   2.510   4.621
    1C        C   67   3.902   2.562   4.744
    1C        C   68   3.839   2.522   4.864
    1C        C   69   4.049   2.585   4.978
    1C        C   70   3.922   2.527   4.977
    1C        C   71   2.818   2.730   2.309
    1C        C   72   2.878   2.693   2.431
    1C        C   73   2.826   2.744   2.552
    1C        C   74   3.008   2.626   2.671
    1C        C   75   2.890   2.703   2.671
    1C        C   76   3.073   2.595   2.793
    1C        C   77   3.010   2.631   2.914
    1C        C   78   3.204   2.542   3.035
    1C        C   79   3.075   2.600   3.035
    1C        C   80   3.270   2.528   3.159
    1C        C   81   3.209   2.548   3.284
    1C        C   82   3.413   2.496   3.402
    1C        C   83   3.273   2.520   3.407
    1C        C   84   3.483   2.492   3.524
    1C        C   85   3.415   2.501   3.648
    1C        C   86   3.623   2.493   3.768
    1C        C   87   3.482   2.493   3.772
    1C        C   88   3.694   2.504   3.890
    1C        C   89   3.624   2.496   4.013
    1C        C   90   3.830   2.547   4.136
    1C        C   91   3.695   2.506   4.135
    1C        C   92   3.898   2.570   4.258
    1C        C   93   3.833   2.548   4.382
    1C        C   94   4.028   2.637   4.497
    1C        C   95   3.902   2.574   4.502
    1C        C   96   4.087   2.671   4.621
    1C        C   97   4.028   2.628   4.742
    1C        C   98   4.185   2.768   4.862
    1C        C   99   4.096   2.656   4.863
    1C        C  100   4.204   2.846   4.977
    1C        C  101   2.819   2.724   2.073
    1C        C  102   2.988   2.588   2.192
    1C        C  103   2.870   2.670   2.191
    1C        C  104   3.063   2.571   2.311
    1C        C  105   2.999   2.620   2.427
    1C        C  106   3.197   2.535   2.552
    1C        C  107   3.067   2.590   2.547
    1C        C  108   3.270   2.513   2.671
    1C        C  109   3.204   2.542   2.792
    1C        C  110   3.410   2.489   2.916
    1C        C  111   3.272   2.518   2.913
    1C        C  112   3.481   2.484   3.038
    1C        C  113   3.409   2.500   3.158
    1C        C  114   3.623   2.497   3.277
    1C        C  115   3.482   2.498   3.279
    1C        C  116   3.691   2.508   3.401
    1C        C  117   3.625   2.499   3.525
    1C        C  118   3.831   2.545   3.646
    1C        C  119   3.695   2.505   3.647
    1C        C  120   3.892   2.573   3.770
    1C        C  121   3.830   2.542   3.893
    1C        C  122   4.022   2.636   4.013
    1C        C  123   3.899   2.567   4.014
    1C        C  124   4.081   2.677   4.134
    1C        C  125   4.022   2.637   4.256
    1C        C  126   4.196   2.766   4.376
    1C        C  127   4.089   2.675   4.375
    1C        C  128   4.246   2.815   4.499
    1C        C  129   4.191   2.767   4.620
    1C        C  130   4.326   2.933   4.740
    1C        C  131   4.240   2.819   4.741
    1C        C  132   4.359   3.003   4.859
    1C        C  133   4.284   2.960   4.969
    1C        C  134   3.172   2.475   2.082
    1C        C  135   3.035   2.507   2.084
    1C        C  136   3.259   2.474   2.191
    1C        C  137   3.195   2.517   2.310
    1C        C  138   3.406   2.489   2.426
    1C        C  139   3.266   2.506   2.431
    1C        C  140   3.478   2.490   2.548
    1C        C  141   3.410   2.493   2.672
    1C        C  142   3.622   2.490   2.788
    1C        C  143   3.481   2.483   2.793
    1C        C  144   3.693   2.500   2.909
    1C        C  145   3.622   2.492   3.031
    1C        C  146   3.828   2.543   3.154
    1C        C  147   3.691   2.508   3.154
    1C        C  148   3.894   2.565   3.277
    1C        C  149   3.829   2.540   3.399
    1C        C  150   4.024   2.622   3.524
    1C        C  151   3.896   2.560   3.522
    1C        C  152   4.082   2.666   3.645
    1C        C  153   4.019   2.636   3.768
    1C        C  154   4.188   2.765   3.888
    1C        C  155   4.078   2.676   3.889
    1C        C  156   4.241   2.811   4.010
    1C        C  157   4.195   2.761   4.134
    1C        C  158   4.336   2.925   4.254
    1C        C  159   4.247   2.816   4.254
    1C        C  160   4.379   2.982   4.376
    1C        C  161   4.330   2.929   4.497
    1C        C  162   4.438   3.113   4.612
    1C        C  163   4.368   2.990   4.618
    1C        C  164   4.466   3.181   4.732
    1C        C  165   4.437   3.120   4.856
    1C        C  166   4.514   3.321   4.966
    1C        C  167   4.480   3.187   4.972
    1C        C  168   3.474   2.426   2.072
    1C        C  169   3.398   2.451   2.187
    1C        C  170   3.616   2.467   2.303
    1C        C  171   3.474   2.466   2.305
    1C        C  172   3.690   2.485   2.423
    1C        C  173   3.619   2.492   2.545
    1C        C  174   3.828   2.536   2.665
    1C        C  175   3.692   2.500   2.665
    1C        C  176   3.895   2.555   2.788
    1C        C  177   3.831   2.533   2.911
    1C        C  178   4.025   2.623   3.033
    1C        C  179   3.898   2.562   3.032
    1C        C  180   4.085   2.659   3.156
    1C        C  181   4.022   2.626   3.278
    1C        C  182   4.193   2.747   3.397
    1C        C  183   4.083   2.659   3.401
    1C        C  184   4.242   2.800   3.519
    1C        C  185   4.188   2.758   3.642
    1C        C  186   4.334   2.915   3.764
    1C        C  187   4.239   2.810   3.764
    1C        C  188   4.372   2.977   3.885
    1C        C  189   4.329   2.921   4.007
    1C        C  190   4.445   3.101   4.127
    1C        C  191   4.373   2.979   4.129
    1C        C  192   4.474   3.169   4.247
    1C        C  193   4.448   3.106   4.371
    1C        C  194   4.498   3.316   4.488
    1C        C  195   4.472   3.177   4.490
    1C        C  196   4.515   3.387   4.609
    1C        C  197   4.508   3.317   4.731
    1C        C  198   4.556   3.535   4.849
    1C        C  199   4.536   3.393   4.848
    1C        C  200   4.583   3.622   4.959
    1C        C  201   3.614   2.423   2.066
    1C        C  202   3.825   2.510   2.181
    1C        C  203   3.689   2.463   2.181
    1C        C  204   3.898   2.533   2.300
    1C        C  205   3.828   2.516   2.422
    1C        C  206   4.022   2.613   2.542
    1C        C  207   3.895   2.550   2.541
    1C        C  208   4.081   2.654   2.664
    1C        C  209   4.021   2.620   2.787
    1C        C  210   4.195   2.742   2.905
    1C        C  211   4.084   2.655   2.909
    1C        C  212   4.242   2.795   3.027
    1C        C  213   4.196   2.746   3.151
    1C        C  214   4.328   2.910   3.269
    1C        C  215   4.243   2.797   3.274
    1C        C  216   4.366   2.965   3.393
    1C        C  217   4.329   2.912   3.519
    1C        C  218   4.433   3.099   3.638
    1C        C  219   4.369   2.972   3.640
    1C        C  220   4.461   3.167   3.758
    1C        C  221   4.438   3.102   3.881
    1C        C  222   4.503   3.303   4.002
    1C        C  223   4.469   3.166   4.004
    1C        C  224   4.514   3.376   4.122
    1C        C  225   4.500   3.308   4.244
    1C        C  226   4.516   3.523   4.363
    1C        C  227   4.508   3.382   4.364
    1C        C  228   4.514   3.597   4.484
    1C        C  229   4.524   3.528   4.607
    1C        C  230   4.498   3.739   4.724
    1C        C  231   4.541   3.604   4.725
    1C        C  232   4.489   3.818   4.841
    1C        C  233   4.548   3.757   4.953
    1C        C  234   4.012   2.614   2.059
    1C        C  235   3.895   2.539   2.063
    1C        C  236   4.082   2.646   2.177
    1C        C  237   4.021   2.605   2.297
    1C        C  238   4.193   2.733   2.418
    1C        C  239   4.080   2.647   2.418
    1C        C  240   4.249   2.781   2.539
    1C        C  241   4.195   2.738   2.662
    1C        C  242   4.336   2.899   2.781
    1C        C  243   4.247   2.789   2.782
    1C        C  244   4.378   2.957   2.903
    1C        C  245   4.334   2.903   3.026
    1C        C  246   4.436   3.091   3.149
    1C        C  247   4.373   2.964   3.147
    1C        C  248   4.454   3.159   3.271
    1C        C  249   4.422   3.095   3.393
    1C        C  250   4.486   3.300   3.510
    1C        C  251   4.451   3.163   3.513
    1C        C  252   4.499   3.371   3.632
    1C        C  253   4.493   3.305   3.757
    1C        C  254   4.513   3.513   3.877
    1C        C  255   4.514   3.372   3.879
    1C        C  256   4.509   3.588   3.997
    1C        C  257   4.512   3.518   4.119
    1C        C  258   4.486   3.730   4.238
    1C        C  259   4.508   3.591   4.240
    1C        C  260   4.470   3.803   4.358
    1C        C  261   4.486   3.735   4.481
    1C        C  262   4.425   3.939   4.602
    1C        C  263   4.469   3.805   4.603
    1C        C  264   4.397   4.010   4.720
    1C        C  265   4.432   3.947   4.842
    1C        C  266   4.325   4.133   4.957
    1C        C  267   4.381   4.005   4.959
    1C        C  268   4.258   2.776   2.059
    1C        C  269   4.194   2.732   2.176
    1C        C  270   4.339   2.889   2.296
    1C        C  271   4.247   2.782   2.297
    1C        C  272   4.381   2.949   2.417
    1C        C  273   4.342   2.887   2.537
    1C        C  274   4.441   3.079   2.659
    1C        C  275   4.378   2.953   2.657
    1C        C  276   4.466   3.148   2.779
    1C        C  277   4.439   3.085   2.903
    1C        C  278   4.496   3.290   3.022
    1C        C  279   4.461   3.153   3.025
    1C        C  280   4.504   3.361   3.143
    1C        C  281   4.490   3.296   3.268
    1C        C  282   4.505   3.510   3.388
    1C        C  283   4.500   3.369   3.388
    1C        C  284   4.503   3.581   3.511
    1C        C  285   4.505   3.512   3.634
    1C        C  286   4.485   3.725   3.750
    1C        C  287   4.504   3.585   3.755
    1C        C  288   4.471   3.794   3.872
    1C        C  289   4.488   3.728   3.995
    1C        C  290   4.423   3.932   4.117
    1C        C  291   4.473   3.800   4.116
    1C        C  292   4.399   4.003   4.237
    1C        C  293   4.428   3.938   4.359
    1C        C  294   4.333   4.130   4.479
    1C        C  295   4.400   4.006   4.480
    1C        C  296   4.282   4.190   4.596
    1C        C  297   4.322   4.132   4.718
    1C        C  298   4.199   4.312   4.838
    1C        C  299   4.281   4.195   4.839
    1C        C  300   4.172   4.405   4.943
    1C        C  301   4.344   2.885   2.057
    1C        C  302   4.466   3.066   2.175
    1C        C  303   4.393   2.943   2.175
    1C        C  304   4.478   3.139   2.296
    1C        C  305   4.451   3.072   2.417
    1C        C  306   4.508   3.280   2.536
    1C        C  307   4.471   3.144   2.537
    1C        C  308   4.511   3.354   2.657
    1C        C  309   4.497   3.285   2.779
    1C        C  310   4.518   3.500   2.897
    1C        C  311   4.510   3.359   2.899
    1C        C  312   4.512   3.571   3.019
    1C        C  313   4.512   3.502   3.142
    1C        C  314   4.482   3.714   3.261
    1C        C  315   4.508   3.575   3.263
    1C        C  316   4.476   3.788   3.382
    1C        C  317   4.494   3.722   3.505
    1C        C  318   4.420   3.923   3.624
    1C        C  319   4.469   3.791   3.626
    1C        C  320   4.392   3.987   3.747
    1C        C  321   4.422   3.927   3.871
    1C        C  322   4.324   4.116   3.991
    1C        C  323   4.396   3.994   3.993
    1C        C  324   4.284   4.178   4.111
    1C        C  325   4.328   4.125   4.235
    1C        C  326   4.188   4.285   4.353
    1C        C  327   4.289   4.186   4.356
    1C        C  328   4.136   4.341   4.472
    1C        C  329   4.192   4.299   4.595
    1C        C  330   4.025   4.436   4.710
    1C        C  331   4.142   4.354   4.715
    1C        C  332   3.969   4.491   4.828
    1C        C  333   4.051   4.477   4.941
    1C        C  334   4.553   3.266   2.062
    1C        C  335   4.525   3.129   2.060
    1C        C  336   4.530   3.348   2.173
    1C        C  337   4.508   3.278   2.293
    1C        C  338   4.522   3.492   2.412
    1C        C  339   4.516   3.351   2.414
    1C        C  340   4.519   3.566   2.532
    1C        C  341   4.517   3.495   2.655
    1C        C  342   4.496   3.710   2.773
    1C        C  343   4.517   3.570   2.774
    1C        C  344   4.475   3.780   2.894
    1C        C  345   4.487   3.710   3.017
    1C        C  346   4.423   3.914   3.136
    1C        C  347   4.467   3.780   3.138
    1C        C  348   4.390   3.981   3.256
    1C        C  349   4.424   3.919   3.379
    1C        C  350   4.322   4.108   3.503
    1C        C  351   4.391   3.985   3.500
    1C        C  352   4.278   4.167   3.623
    1C        C  353   4.318   4.107   3.745
    1C        C  354   4.181   4.268   3.868
    1C        C  355   4.276   4.164   3.867
    1C        C  356   4.124   4.318   3.987
    1C        C  357   4.182   4.275   4.109
    1C        C  358   4.014   4.403   4.229
    1C        C  359   4.135   4.330   4.230
    1C        C  360   3.949   4.444   4.348
    1C        C  361   4.016   4.415   4.469
    1C        C  362   3.827   4.516   4.590
    1C        C  363   3.956   4.458   4.590
    1C        C  364   3.762   4.545   4.712
    1C        C  365   3.835   4.535   4.832
    1C        C  366   3.627   4.592   4.949
    1C        C  367   3.765   4.575   4.947
    1C        C  368   4.514   3.560   2.051
    1C        C  369   4.526   3.489   2.172
    1C        C  370   4.507   3.706   2.288
    1C        C  371   4.519   3.565   2.291
    1C        C  372   4.490   3.778   2.408
    1C        C  373   4.503   3.706   2.529
    1C        C  374   4.421   3.905   2.649
    1C        C  375   4.481   3.777   2.649
    1C        C  376   4.393   3.972   2.770
    1C        C  377   4.426   3.912   2.893
    1C        C  378   4.317   4.097   3.011
    1C        C  379   4.393   3.979   3.014
    1C        C  380   4.275   4.157   3.132
    1C        C  381   4.317   4.102   3.255
    1C        C  382   4.176   4.256   3.378
    1C        C  383   4.278   4.158   3.379
    1C        C  384   4.123   4.307   3.498
    1C        C  385   4.178   4.267   3.622
    1C        C  386   4.008   4.389   3.742
    1C        C  387   4.125   4.311   3.745
    1C        C  388   3.944   4.427   3.862
    1C        C  389   4.004   4.393   3.985
    1C        C  390   3.815   4.483   4.106
    1C        C  391   3.946   4.430   4.108
    1C        C  392   3.750   4.514   4.227
    1C        C  393   3.819   4.498   4.349
    1C        C  394   3.614   4.555   4.471
    1C        C  395   3.753   4.529   4.470
    1C        C  396   3.545   4.562   4.594
    1C        C  397   3.622   4.562   4.713
    1C        C  398   3.411   4.550   4.838
    1C        C  399   3.550   4.574   4.833
    1C        C  400   3.341   4.517   4.956
    1C        C  401   4.507   3.699   2.051
    1C        C  402   4.459   3.914   2.165
    1C        C  403   4.494   3.777   2.167
    1C        C  404   4.414   3.976   2.283
    1C        C  405   4.435   3.908   2.405
    1C        C  406   4.325   4.092   2.526
    1C        C  407   4.399   3.972   2.526
    1C        C  408   4.276   4.151   2.645
    1C        C  409   4.318   4.091   2.766
    1C        C  410   4.175   4.250   2.888
    1C        C  411   4.273   4.148   2.887
    1C        C  412   4.125   4.304   3.008
    1C        C  413   4.174   4.257   3.132
    1C        C  414   3.999   4.372   3.252
    1C        C  415   4.119   4.297   3.255
    1C        C  416   3.939   4.409   3.374
    1C        C  417   4.003   4.382   3.497
    1C        C  418   3.811   4.470   3.617
    1C        C  419   3.942   4.416   3.620
    1C        C  420   3.744   4.494   3.739
    1C        C  421   3.812   4.479   3.862
    1C        C  422   3.608   4.533   3.986
    1C        C  423   3.746   4.503   3.984
    1C        C  424   3.538   4.542   4.108
    1C        C  425   3.611   4.539   4.229
    1C        C  426   3.399   4.552   4.356
    1C        C  427   3.540   4.556   4.350
    1C        C  428   3.332   4.541   4.480
    1C        C  429   3.404   4.557   4.601
    1C        C  430   3.195   4.510   4.722
    1C        C  431   3.332   4.548   4.721
    1C        C  432   3.125   4.481   4.843
    1C        C  433   3.205   4.491   4.958
    1C        C  434   4.377   4.119   2.048
    1C        C  435   4.446   3.997   2.053
    1C        C  436   4.299   4.157   2.162
    1C        C  437   4.333   4.094   2.285
    1C        C  438   4.176   4.242   2.402
    1C        C  439   4.283   4.150   2.404
    1C        C  440   4.122   4.295   2.521
    1C        C  441   4.175   4.250   2.643
    1C        C  442   4.004   4.375   2.763
    1C        C  443   4.118   4.292   2.765
    1C        C  444   3.942   4.411   2.885
    1C        C  445   4.006   4.381   3.007
    1C        C  446   3.809   4.463   3.128
    1C        C  447   3.940   4.409   3.129
    1C        C  448   3.744   4.486   3.251
    1C        C  449   3.810   4.465   3.374
    1C        C  450   3.604   4.520   3.494
    1C        C  451   3.744   4.495   3.495
    1C        C  452   3.538   4.532   3.618
    1C        C  453   3.607   4.526   3.742
    1C        C  454   3.396   4.534   3.864
    1C        C  455   3.537   4.537   3.864
    1C        C  456   3.328   4.525   3.987
    1C        C  457   3.397   4.533   4.110
    1C        C  458   3.193   4.499   4.236
    1C        C  459   3.330   4.534   4.235
    1C        C  460   3.127   4.481   4.359
    1C        C  461   3.195   4.507   4.481
    1C        C  462   2.996   4.429   4.603
    1C        C  463   3.125   4.486   4.602
    1C        C  464   2.926   4.400   4.723
    1C        C  465   2.988   4.441   4.844
    1C        C  466   2.797   4.338   4.960
    1C        C  467   2.901   4.432   4.957
    1C        C  468   4.114   4.271   2.040
    1C        C  469   4.182   4.239   2.158
    1C        C  470   4.001   4.359   2.277
    1C        C  471   4.123   4.286   2.279
    1C        C  472   3.939   4.399   2.397
    1C        C  473   4.001   4.368   2.520
    1C        C  474   3.807   4.454   2.640
    1C        C  475   3.940   4.407   2.641
    1C        C  476   3.740   4.482   2.761
    1C        C  477   3.810   4.463   2.883
    1C        C  478   3.605   4.510   3.007
    1C        C  479   3.744   4.487   3.005
    1C        C  480   3.535   4.527   3.128
    1C        C  481   3.607   4.521   3.250
    1C        C  482   3.394   4.531   3.376
    1C        C  483   3.535   4.528   3.371
    1C        C  484   3.325   4.524   3.499
    1C        C  485   3.397   4.534   3.620
    1C        C  486   3.186   4.504   3.743
    1C        C  487   3.325   4.531   3.742
    1C        C  488   3.122   4.476   3.866
    1C        C  489   3.190   4.494   3.988
    1C        C  490   2.998   4.418   4.112
    1C        C  491   3.125   4.479   4.113
    1C        C  492   2.942   4.380   4.235
    1C        C  493   3.001   4.418   4.358
    1C        C  494   2.824   4.303   4.481
    1C        C  495   2.940   4.384   4.481
    1C        C  496   2.766   4.259   4.601
    1C        C  497   2.812   4.315   4.722
    1C        C  498   2.663   4.165   4.843
    1C        C  499   2.751   4.275   4.843
    1C        C  500   2.594   4.118   4.956
    1C        C  501   4.003   4.355   2.040
    1C        C  502   3.812   4.459   2.156
    1C        C  503   3.939   4.399   2.156
    1C        C  504   3.739   4.474   2.276
    1C        C  505   3.807   4.451   2.398
    1C        C  506   3.601   4.507   2.519
    1C        C  507   3.739   4.478   2.518
    1C        C  508   3.530   4.517   2.641
    1C        C  509   3.603   4.513   2.762
    1C        C  510   3.393   4.527   2.886
    1C        C  511   3.534   4.520   2.885
    1C        C  512   3.322   4.522   3.008
    1C        C  513   3.393   4.529   3.130
    1C        C  514   3.186   4.495   3.254
    1C        C  515   3.325   4.525   3.253
    1C        C  516   3.120   4.468   3.376
    1C        C  517   3.188   4.489   3.498
    1C        C  518   2.996   4.407   3.625
    1C        C  519   3.120   4.475   3.622
    1C        C  520   2.937   4.368   3.747
    1C        C  521   2.997   4.410   3.868
    1C        C  522   2.832   4.281   3.995
    1C        C  523   2.941   4.370   3.991
    1C        C  524   2.786   4.233   4.120
    1C        C  525   2.836   4.286   4.240
    1C        C  526   2.689   4.134   4.364
    1C        C  527   2.775   4.246   4.361
    1C        C  528   2.645   4.076   4.485
    1C        C  529   2.681   4.146   4.602
    1C        C  530   2.581   3.961   4.730
    1C        C  531   2.638   4.091   4.725
    1C        C  532   2.542   3.899   4.852
    1C        C  533   2.528   3.995   4.957
    1C        C  534   3.610   4.553   2.038
    1C        C  535   3.742   4.505   2.043
    1C        C  536   3.530   4.536   2.155
    1C        C  537   3.603   4.514   2.275
    1C        C  538   3.389   4.522   2.398
    1C        C  539   3.530   4.519   2.397
    1C        C  540   3.319   4.522   2.520
    1C        C  541   3.389   4.518   2.643
    1C        C  542   3.182   4.486   2.765
    1C        C  543   3.319   4.518   2.765
    1C        C  544   3.118   4.463   2.889
    1C        C  545   3.185   4.488   3.010
    1C        C  546   2.995   4.398   3.134
    1C        C  547   3.119   4.466   3.133
    1C        C  548   2.939   4.361   3.258
    1C        C  549   2.996   4.402   3.381
    1C        C  550   2.827   4.277   3.504
    1C        C  551   2.934   4.369   3.504
    1C        C  552   2.778   4.226   3.626
    1C        C  553   2.826   4.280   3.747
    1C        C  554   2.697   4.119   3.874
    1C        C  555   2.779   4.234   3.872
    1C        C  556   2.661   4.058   3.997
    1C        C  557   2.700   4.121   4.118
    1C        C  558   2.597   3.942   4.245
    1C        C  559   2.655   4.071   4.242
    1C        C  560   2.566   3.878   4.367
    1C        C  561   2.581   3.950   4.487
    1C        C  562   2.531   3.749   4.614
    1C        C  563   2.555   3.888   4.612
    1C        C  564   2.514   3.678   4.735
    1C        C  565   2.524   3.757   4.853
    1C        C  566   2.536   3.546   4.974
    1C        C  567   2.532   3.685   4.972
    1C        C  568   3.322   4.479   2.040
    1C        C  569   3.389   4.518   2.156
    1C        C  570   3.179   4.476   2.280
    1C        C  571   3.316   4.514   2.278
    1C        C  572   3.114   4.458   2.404
    1C        C  573   3.180   4.493   2.524
    1C        C  574   2.985   4.402   2.646
    1C        C  575   3.111   4.466   2.644
    1C        C  576   2.925   4.367   2.769
    1C        C  577   2.991   4.401   2.889
    1C        C  578   2.822   4.275   3.015
    1C        C  579   2.932   4.363   3.012
    1C        C  580   2.776   4.222   3.138
    1C        C  581   2.829   4.272   3.259
    1C        C  582   2.699   4.107   3.381
    1C        C  583   2.779   4.224   3.382
    1C        C  584   2.662   4.052   3.505
    1C        C  585   2.693   4.113   3.629
    1C        C  586   2.597   3.929   3.754
    1C        C  587   2.661   4.055   3.754
    1C        C  588   2.572   3.866   3.878
    1C        C  589   2.598   3.932   4.000
    1C        C  590   2.539   3.734   4.127
    1C        C  591   2.573   3.871   4.125
    1C        C  592   2.525   3.667   4.251
    1C        C  593   2.530   3.741   4.371
    1C        C  594   2.515   3.532   4.495
    1C        C  595   2.521   3.674   4.495
    1C        C  596   2.518   3.463   4.618
    1C        C  597   2.515   3.536   4.739
    1C        C  598   2.543   3.324   4.859
    1C        C  599   2.529   3.465   4.860
    1C        C  600   2.535   3.248   4.977
    1C        C  601   3.190   4.437   2.045
    1C        C  602   2.978   4.394   2.159
    1C        C  603   3.110   4.448   2.159
    1C        C  604   2.919   4.359   2.284
    1C        C  605   2.987   4.396   2.402
    1C        C  606   2.819   4.269   2.528
    1C        C  607   2.925   4.361   2.525
    1C        C  608   2.771   4.218   2.651
    1C        C  609   2.822   4.271   2.772
    1C        C  610   2.688   4.108   2.895
    1C        C  611   2.773   4.221   2.895
    1C        C  612   2.652   4.048   3.018
    1C        C  613   2.690   4.110   3.139
    1C        C  614   2.587   3.924   3.263
    1C        C  615   2.654   4.048   3.261
    1C        C  616   2.560   3.863   3.388
    1C        C  617   2.600   3.925   3.508
    1C        C  618   2.528   3.728   3.635
    1C        C  619   2.575   3.861   3.632
    1C        C  620   2.512   3.662   3.759
    1C        C  621   2.531   3.731   3.881
    1C        C  622   2.507   3.524   4.004
    1C        C  623   2.522   3.664   4.005
    1C        C  624   2.514   3.456   4.128
    1C        C  625   2.518   3.526   4.251
    1C        C  626   2.535   3.318   4.377
    1C        C  627   2.515   3.458   4.375
    1C        C  628   2.553   3.249   4.498
    1C        C  629   2.542   3.324   4.618
    1C        C  630   2.591   3.115   4.742
    1C        C  631   2.554   3.252   4.738
    1C        C  632   2.616   3.048   4.864
    1C        C  633   2.565   3.112   4.981
    1C        C  634   2.776   4.307   2.055
    1C        C  635   2.890   4.388   2.047
    1C        C  636   2.744   4.231   2.168
    1C        C  637   2.806   4.274   2.288
    1C        C  638   2.685   4.098   2.409
    1C        C  639   2.763   4.216   2.410
    1C        C  640   2.646   4.042   2.532
    1C        C  641   2.684   4.106   2.652
    1C        C  642   2.590   3.917   2.773
    1C        C  643   2.649   4.045   2.775
    1C        C  644   2.568   3.850   2.896
    1C        C  645   2.592   3.920   3.017
    1C        C  646   2.528   3.722   3.148
    1C        C  647   2.562   3.859   3.140
    1C        C  648   2.509   3.654   3.271
    1C        C  649   2.523   3.726   3.391
    1C        C  650   2.507   3.516   3.517
    1C        C  651   2.511   3.657   3.514
    1C        C  652   2.512   3.448   3.640
    1C        C  653   2.505   3.520   3.761
    1C        C  654   2.530   3.311   3.886
    1C        C  655   2.502   3.450   3.884
    1C        C  656   2.548   3.247   4.011
    1C        C  657   2.535   3.317   4.133
    1C        C  658   2.607   3.117   4.255
    1C        C  659   2.554   3.248   4.256
    1C        C  660   2.633   3.051   4.377
    1C        C  661   2.600   3.116   4.498
    1C        C  662   2.710   2.936   4.623
    1C        C  663   2.633   3.055   4.621
    1C        C  664   2.748   2.875   4.744
    1C        C  665   2.694   2.927   4.864
    1C        C  666   2.740   2.865   4.981
    1C        C  667   2.684   4.025   2.050
    1C        C  668   2.682   4.105   2.165
    1C        C  669   2.593   3.908   2.289
    1C        C  670   2.651   4.038   2.286
    1C        C  671   2.557   3.844   2.410
    1C        C  672   2.584   3.915   2.529
    1C        C  673   2.522   3.715   2.658
    1C        C  674   2.559   3.851   2.652
    1C        C  675   2.508   3.645   2.780
    1C        C  676   2.529   3.714   2.902
    1C        C  677   2.501   3.509   3.030
    1C        C  678   2.512   3.650   3.027
    1C        C  679   2.499   3.440   3.153
    1C        C  680   2.495   3.513   3.274
    1C        C  681   2.516   3.302   3.402
    1C        C  682   2.497   3.443   3.396
    1C        C  683   2.531   3.232   3.523
    1C        C  684   2.524   3.307   3.643
    1C        C  685   2.587   3.105   3.768
    1C        C  686   2.545   3.240   3.765
    1C        C  687   2.632   3.050   3.891
    1C        C  688   2.602   3.117   4.012
    1C        C  689   2.713   2.933   4.135
    1C        C  690   2.637   3.052   4.133
    1C        C  691   2.754   2.875   4.257
    1C        C  692   2.711   2.933   4.379
    1C        C  693   2.749   2.875   4.502
    1C        C  694   2.628   3.896   2.054
    1C        C  695   2.533   3.701   2.172
    1C        C  696   2.588   3.831   2.171
    1C        C  697   2.514   3.633   2.295
    1C        C  698   2.524   3.707   2.414
    1C        C  699   2.494   3.501   2.539
    1C        C  700   2.507   3.642   2.538
    1C        C  701   2.501   3.434   2.663
    1C        C  702   2.498   3.504   2.785
    1C        C  703   2.525   3.297   2.912
    1C        C  704   2.502   3.437   2.909
    1C        C  705   2.540   3.230   3.035
    1C        C  706   2.525   3.301   3.156
    1C        C  707   2.592   3.103   3.282
    1C        C  708   2.542   3.235   3.280
    1C        C  709   2.630   3.044   3.405
    1C        C  710   2.588   3.103   3.526
    1C        C  711   2.702   2.925   3.645
    1C        C  712   2.613   3.035   3.648
    1C        C  713   2.753   2.877   3.768
    1C        C  714   2.710   2.933   3.890
    1C        C  715   2.755   2.877   4.012
    1C        C  716   2.449   3.497   2.057
    1C        C  717   2.500   3.627   2.058
    1C        C  718   2.471   3.421   2.176
    1C        C  719   2.491   3.493   2.298
    1C        C  720   2.505   3.284   2.425
    1C        C  721   2.487   3.424   2.421
    1C        C  722   2.531   3.218   2.547
    1C        C  723   2.519   3.294   2.666
    1C        C  724   2.586   3.095   2.793
    1C        C  725   2.540   3.228   2.789
    1C        C  726   2.618   3.029   2.914
    1C        C  727   2.588   3.097   3.034
    1C        C  728   2.704   2.925   3.158
    1C        C  729   2.620   3.039   3.159
    1C        C  730   2.757   2.874   3.279
    1C        C  731   2.712   2.929   3.402
    1C        C  732   2.755   2.874   3.525
    1C        C  733   2.484   3.192   2.074
    1C        C  734   2.488   3.279   2.184
    1C        C  735   2.584   3.083   2.307
    1C        C  736   2.524   3.212   2.304
    1C        C  737   2.610   3.016   2.428
    1C        C  738   2.583   3.087   2.547
    1C        C  739   2.691   2.910   2.672
    1C        C  740   2.611   3.026   2.672
    1C        C  741   2.740   2.855   2.792
    1C        C  742   2.698   2.913   2.914
    1C        C  743   2.745   2.864   3.038
    1C        C  744   2.547   3.068   2.073
    1C        C  745   2.678   2.891   2.183
    1C        C  746   2.605   3.012   2.187
    1C        C  747   2.724   2.837   2.305
    1C        C  748   2.683   2.894   2.427
    1C        C  749   2.728   2.846   2.551
    1C        C  750   2.738   2.837   2.068
    1C        C  751   3.661   2.328   1.962
    1C        O  752   3.652   2.207   1.994
    1C        O  753   3.719   2.348   1.836
    1C        C  754   4.598   3.054   1.956
    1C        O  755   4.571   3.075   1.835
    1C        O  756   4.710   2.974   1.984
    1C        C  757   4.450   4.212   1.960
    1C        O  758   4.515   4.309   2.008
    1C        O  759   4.415   4.244   1.828
    1C        C  760   3.582   4.676   1.959
    1C        O  761   3.630   4.788   1.987
    1C        O  762   3.526   4.659   1.832
    1C        C  763   2.879   4.498   1.947
    1C        O  764   2.909   4.491   1.825
    1C        O  765   2.807   4.614   1.979
    1C        C  766   2.327   3.484   1.973
    1C        O  767   2.329   3.452   1.851
    1C        O  768   2.199   3.490   2.028
    1C        C  769   4.669   3.580   5.072
    1C        O  770   4.619   3.584   5.188
    1C        O  771   4.806   3.604   5.056
    1C        C  772   4.275   4.457   5.036
    1C        O  773   4.269   4.420   5.156
    1C        O  774   4.351   4.569   5.002
    1C        C  775   4.140   2.559   5.092
    1C        O  776   4.229   2.471   5.078
    1C        O  777   4.096   2.562   5.225
    1C        C  778   2.900   4.521   5.076
    1C        O  779   2.845   4.633   5.064
    1C        O  780   2.918   4.481   5.209
    1C        C  781   2.480   3.026   5.067
    1C        O  782   2.360   3.003   5.037
    1C        O  783   2.491   3.030   5.206
    1C        C  784   2.410   3.991   5.046
    1C        O  785   2.305   4.058   5.027
    1C        O  786   2.416   3.957   5.182
    1C        C  787   2.951   2.415   2.005
    1C        O  788   2.948   2.417   1.879
    1C        O  789   2.864   2.320   2.058
    1C        C  790   3.182   2.365   5.058
    1C        O  791   3.105   2.269   5.033
    1C        O  792   3.232   2.352   5.188
    1C        H  793   4.318   2.993   5.065
    1C        H  794   4.124   2.849   5.048
    1C        H  795   4.501   3.128   5.058
    1C        H  796   4.487   3.381   5.051
    1C        H  797   4.606   3.825   5.012
    1C        H  798   4.381   3.948   5.049
    1C        H  799   4.298   4.177   5.050
    1C        H  800   4.009   4.483   5.039
    1C        H  801   3.818   4.627   5.025
    1C        H  802   3.585   4.659   5.021
    1C        H  803   3.405   4.470   5.027
    1C        H  804   3.164   4.447   5.047
    1C        H  805   3.890   2.469   5.061
    1C        H  806   3.680   2.441   5.066
    1C        H  807   2.982   2.529   5.045
    1C        H  808   3.443   2.518   5.072
    1C        H  809   2.891   2.751   5.069
    1C        H  810   2.691   2.883   5.074
    1C        H  811   2.458   3.281   5.044
    1C        H  812   2.505   3.505   5.068
    1C        H  813   2.567   3.735   5.060
    1C        H  814   2.615   4.161   5.052
    1C        H  815   2.728   4.340   5.041
    1C        H  816   2.700   2.868   1.972
    1C        H  817   2.878   2.721   1.983
    1C        H  818   3.214   2.520   1.994
    1C        H  819   3.418   2.404   1.983
    1C        H  820   3.867   2.489   1.973
    1C        H  821   4.048   2.648   1.964
    1C        H  822   4.250   2.722   1.967
    1C        H  823   4.358   2.935   1.964
    1C        H  824   4.647   3.293   2.019
    1C        H  825   4.543   3.517   1.958
    1C        H  826   4.562   3.747   1.973
    1C        H  827   3.771   4.463   1.949
    1C        H  828   3.957   4.384   1.947
    1C        H  829   4.150   4.235   1.945
    1C        H  830   4.486   3.960   1.960
    1C        H  831   2.579   3.867   1.963
    1C        H  832   2.738   4.058   1.964
    1C        H  833   2.715   4.293   1.967
    1C        H  834   3.346   4.523   1.945
    1C        H  835   3.180   4.343   1.995
    1C        H  836   2.597   3.032   1.985
    1C        H  837   2.444   3.225   1.981
    1C        H  838   2.541   3.662   1.965
    2V3OU   H29  839   2.807   3.550   3.193
    2V3OU   C27  840   2.787   3.500   3.291
    2V3OU   H27  841   2.728   3.561   3.364
    2V3OU   H28  842   2.735   3.403   3.271
    2V3OU   O11  843   2.913   3.480   3.355
    2V3OU   C15  844   2.922   3.399   3.467
    2V3OU   C13  845   3.053   3.376   3.513
    2V3OU   C14  846   3.082   3.269   3.598
    2V3OU   C16  847   2.979   3.186   3.644
    2V3OU    H6  848   2.991   3.102   3.713
    2V3OU   C12  849   3.215   3.230   3.651
    2V3OU    O2  850   3.233   3.136   3.731
    2V3OU   C10  851   3.327   3.308   3.596
    2V3OU    C8  852   3.460   3.273   3.617
    2V3OU   O10  853   3.493   3.151   3.667
    2V3OU   H26  854   3.409   3.113   3.697
    2V3OU    C6  855   3.567   3.351   3.564
    2V3OU    C5  856   3.536   3.461   3.485
    2V3OU    C4  857   3.704   3.292   3.559
    2V3OU    H4  858   3.723   3.232   3.653
    2V3OU    H5  859   3.712   3.228   3.467
    2V3OU    C2  860   3.814   3.399   3.559
    2V3OU    O6  861   3.807   3.474   3.681
    2V3OU   H21  862   3.758   3.552   3.651
    2V3OU    C3  863   3.778   3.491   3.443
    2V3OU    H2  864   3.856   3.570   3.428
    2V3OU    H3  865   3.784   3.437   3.345
    2V3OU   C25  866   3.947   3.326   3.538
    2V3OU    O7  867   3.998   3.299   3.430
    2V3OU   C26  868   4.028   3.289   3.662
    2V3OU   H22  869   4.065   3.386   3.705
    2V3OU   H23  870   4.117   3.229   3.631
    2V3OU    O8  871   3.960   3.205   3.752
    2V3OU   H24  872   3.917   3.265   3.815
    2V3OU    C1  873   3.644   3.562   3.457
    2V3OU    H1  874   3.624   3.614   3.359
    2V3OU    O3  875   3.652   3.653   3.567
    2V3OU   C19  876   3.619   3.791   3.552
    2V3OU    H9  877   3.519   3.804   3.499
    2V3OU    O4  878   3.714   3.845   3.463
    2V3OU   C20  879   3.844   3.873   3.515
    2V3OU   H10  880   3.891   3.772   3.534
    2V3OU   C24  881   3.612   3.855   3.691
    2V3OU   H16  882   3.549   3.790   3.757
    2V3OU   H17  883   3.564   3.956   3.684
    2V3OU   C23  884   3.752   3.876   3.749
    2V3OU   H15  885   3.791   3.771   3.771
    2V3OU    N1  886   3.731   3.950   3.872
    2V3OU   H19  887   3.803   3.918   3.932
    2V3OU   H20  888   3.643   3.933   3.916
    2V3OU   C21  889   3.848   3.947   3.649
    2V3OU   H11  890   3.954   3.932   3.683
    2V3OU    O5  891   3.830   4.088   3.646
    2V3OU   H18  892   3.786   4.108   3.730
    2V3OU   C22  893   3.907   3.946   3.398
    2V3OU   H12  894   3.853   4.043   3.384
    2V3OU   H13  895   3.907   3.882   3.306
    2V3OU   H14  896   4.016   3.961   3.420
    2V3OU   C11  897   3.162   3.473   3.493
    2V3OU    O1  898   3.132   3.589   3.455
    2V3OU    C9  899   3.299   3.423   3.518
    2V3OU    C7  900   3.400   3.497   3.459
    2V3OU    O9  901   3.389   3.614   3.385
    2V3OU   H25  902   3.295   3.633   3.369
    2V3OU   C17  903   2.822   3.315   3.519
    2V3OU    H7  904   2.723   3.357   3.499
    2V3OU   C18  905   2.847   3.213   3.609
    2V3OU    H8  906   2.783   3.174   3.690
    3SOL     OW  907   2.815   5.329   6.117
    3SOL    HW1  908   2.892   5.392   6.125
    3SOL    HW2  909   2.778   5.332   6.024
    4SOL     OW  910   6.800   0.391   1.077
    4SOL    HW1  911   6.757   0.373   0.988
    4SOL    HW2  912   6.730   0.388   1.148
    5SOL     OW  913   4.583   2.415   2.260
    5SOL    HW1  914   4.600   2.481   2.187
    5SOL    HW2  915   4.489   2.426   2.293
    6SOL     OW  916   4.147   1.840   1.982
    6SOL    HW1  917   4.101   1.774   2.041
    6SOL    HW2  918   4.080   1.908   1.950
    7SOL     OW  919   0.800   4.120   3.551
    7SOL    HW1  920   0.848   4.062   3.617
    7SOL    HW2  921   0.830   4.215   3.563
    8SOL     OW  922   2.758   2.164   5.448
    8SOL    HW1  923   2.826   2.232   5.474
    8SOL    HW2  924   2.666   2.203   5.455
    9SOL     OW  925   5.342   1.677   5.791
    9SOL    HW1  926   5.286   1.758   5.809
    9SOL    HW2  927   5.307   1.599   5.843
   10SOL     OW  928   3.114   5.150   5.341
   10SOL    HW1  929   3.040   5.083   5.341
   10SOL    HW2  930   3.103   5.212   5.263
   11SOL     OW  931   2.326   1.533   5.840
   11SOL    HW1  932   2.391   1.577   5.903
   11SOL    HW2  933   2.372   1.514   5.753
   12SOL     OW  934   2.994   4.841   3.521
   12SOL    HW1  935   3.064   4.787   3.567
   12SOL    HW2  936   2.965   4.916   3.581
   13SOL     OW  937   3.212   6.439   4.121
   13SOL    HW1  938   3.291   6.450   4.182
   13SOL    HW2  939   3.176   6.530   4.098
   14SOL     OW  940   4.004   5.228   6.197
   14SOL    HW1  941   4.056   5.264   6.120
   14SOL    HW2  942   4.055   5.153   6.240
   15SOL     OW  943   0.667   6.792   1.073
   15SOL    HW1  944   0.626   6.875   1.036
   15SOL    HW2  945   0.611   6.713   1.048
   16SOL     OW  946   5.258   2.966   6.285
   16SOL    HW1  947   5.261   2.875   6.243
   16SOL    HW2  948   5.276   2.958   6.382
   17SOL     OW  949   5.882   6.792   6.988
   17SOL    HW1  950   5.839   6.753   6.906
   17SOL    HW2  951   5.982   6.793   6.974
   18SOL     OW  952   3.227   0.971   5.391
   18SOL    HW1  953   3.323   0.989   5.414
   18SOL    HW2  954   3.222   0.891   5.331
   19SOL     OW  955   0.213   2.088   2.416
   19SOL    HW1  956   0.252   2.012   2.364
   19SOL    HW2  957   0.245   2.175   2.378
   20SOL     OW  958   4.940   1.682   5.661
   20SOL    HW1  959   4.868   1.665   5.594
   20SOL    HW2  960   4.960   1.780   5.664
   21SOL     OW  961   2.818   1.237   2.002
   21SOL    HW1  962   2.840   1.310   1.936
   21SOL    HW2  963   2.723   1.208   1.989
   22SOL     OW  964   0.891   6.016   0.365
   22SOL    HW1  965   0.804   6.065   0.371
   22SOL    HW2  966   0.924   5.995   0.457
   23SOL     OW  967   4.197   5.229   1.966
   23SOL    HW1  968   4.242   5.169   1.900
   23SOL    HW2  969   4.225   5.203   2.059
   24SOL     OW  970   3.493   0.564   2.387
   24SOL    HW1  971   3.411   0.621   2.381
   24SOL    HW2  972   3.562   0.599   2.323
   25SOL     OW  973   2.505   0.045   3.464
   25SOL    HW1  974   2.580   7.011   3.425
   25SOL    HW2  975   2.501   0.134   3.419
   26SOL     OW  976   6.269   1.800   0.267
   26SOL    HW1  977   6.254   1.714   0.316
   26SOL    HW2  978   6.300   1.870   0.331
   27SOL     OW  979   1.807   1.059   2.384
   27SOL    HW1  980   1.710   1.084   2.374
   27SOL    HW2  981   1.833   1.065   2.480
   28SOL     OW  982   1.447   0.248   5.201
   28SOL    HW1  983   1.386   0.325   5.216
   28SOL    HW2  984   1.428   0.206   5.112
   29SOL     OW  985   6.531   1.839   1.575
   29SOL    HW1  986   6.498   1.923   1.619
   29SOL    HW2  987   6.476   1.820   1.494
   30SOL     OW  988   4.323   0.832   3.794
   30SOL    HW1  989   4.320   0.778   3.878
   30SOL    HW2  990   4.416   0.828   3.755
   31SOL     OW  991   0.327   2.128   6.619
   31SOL    HW1  992   0.266   2.073   6.676
   31SOL    HW2  993   0.319   2.225   6.644
   32SOL     OW  994   0.404   1.824   2.445
   32SOL    HW1  995   0.454   1.839   2.361
   32SOL    HW2  996   0.317   1.777   2.425
   33SOL     OW  997   1.007   4.424   5.149
   33SOL    HW1  998   1.041   4.482   5.223
   33SOL    HW2  999   1.048   4.333   5.156
   34SOL     OW 1000   2.777   6.614   4.963
   34SOL    HW1 1001   2.760   6.712   4.951
   34SOL    HW2 1002   2.704   6.575   5.020
   35SOL     OW 1003   4.823   2.180   5.535
   35SOL    HW1 1004   4.773   2.179   5.621
   35SOL    HW2 1005   4.920   2.196   5.552
   36SOL     OW 1006   4.338   2.080   4.382
   36SOL    HW1 1007   4.326   1.988   4.419
   36SOL    HW2 1008   4.340   2.076   4.282
   37SOL     OW 1009   1.677   1.266   5.846
   37SOL    HW1 1010   1.757   1.293   5.792
   37SOL    HW2 1011   1.680   1.313   5.934
   38SOL     OW 1012   1.561   4.735   2.192
   38SOL    HW1 1013   1.521   4.772   2.108
   38SOL    HW2 1014   1.588   4.809   2.252
   39SOL     OW 1015   6.220   4.830   6.367
   39SOL    HW1 1016   6.138   4.793   6.324
   39SOL    HW2 1017   6.300   4.781   6.333
   40SOL     OW 1018   4.119   2.449   0.664
   40SOL    HW1 1019   4.021   2.429   0.656
   40SOL    HW2 1020   4.168   2.367   0.691
   41SOL     OW 1021   6.783   3.486   3.653
   41SOL    HW1 1022   6.759   3.571   3.701
   41SOL    HW2 1023   6.882   3.476   3.651
   42SOL     OW 1024   3.165   5.865   4.587
   42SOL    HW1 1025   3.113   5.947   4.562
   42SOL    HW2 1026   3.259   5.891   4.609
   43SOL     OW 1027   4.405   0.520   5.028
   43SOL    HW1 1028   4.451   0.442   5.070
   43SOL    HW2 1029   4.318   0.536   5.075
   44SOL     OW 1030   5.609   2.373   5.101
   44SOL    HW1 1031   5.654   2.453   5.141
   44SOL    HW2 1032   5.642   2.359   5.008
   45SOL     OW 1033   4.360   5.084   1.381
   45SOL    HW1 1034   4.325   4.998   1.345
   45SOL    HW2 1035   4.320   5.161   1.331
   46SOL     OW 1036   0.673   2.715   4.081
   46SOL    HW1 1037   0.581   2.735   4.116
   46SOL    HW2 1038   0.698   2.784   4.013
   47SOL     OW 1039   4.246   4.178   0.711
   47SOL    HW1 1040   4.279   4.147   0.800
   47SOL    HW2 1041   4.285   4.120   0.640
   48SOL     OW 1042   6.372   2.764   6.761
   48SOL    HW1 1043   6.346   2.795   6.853
   48SOL    HW2 1044   6.440   2.691   6.769
   49SOL     OW 1045   6.188   3.132   2.133
   49SOL    HW1 1046   6.286   3.135   2.112
   49SOL    HW2 1047   6.137   3.109   2.051
   50SOL     OW 1048   6.217   1.056   5.436
   50SOL    HW1 1049   6.255   1.141   5.474
   50SOL    HW2 1050   6.157   1.078   5.359
   51SOL     OW 1051   2.103   6.597   2.909
   51SOL    HW1 1052   2.021   6.635   2.866
   51SOL    HW2 1053   2.172   6.577   2.839
   52SOL     OW 1054   5.548   3.278   1.748
   52SOL    HW1 1055   5.599   3.355   1.787
   52SOL    HW2 1056   5.557   3.279   1.649
   53SOL     OW 1057   4.723   1.548   3.973
   53SOL    HW1 1058   4.759   1.505   3.890
   53SOL    HW2 1059   4.784   1.622   4.001
   54SOL     OW 1060   5.956   6.264   1.056
   54SOL    HW1 1061   5.917   6.350   1.090
   54SOL    HW2 1062   5.982   6.206   1.133
   55SOL     OW 1063   2.302   2.747   4.993
   55SOL    HW1 1064   2.331   2.842   4.989
   55SOL    HW2 1065   2.202   2.742   5.002
   56SOL     OW 1066   0.555   0.883   1.161
   56SOL    HW1 1067   0.467   0.930   1.153
   56SOL    HW2 1068   0.598   0.876   1.072
   57SOL     OW 1069   4.606   1.322   1.565
   57SOL    HW1 1070   4.688   1.282   1.525
   57SOL    HW2 1071   4.614   1.422   1.567
   58SOL     OW 1072   1.028   6.525   5.839
   58SOL    HW1 1073   1.015   6.493   5.745
   58SOL    HW2 1074   1.088   6.605   5.840
   59SOL     OW 1075   6.851   3.891   6.388
   59SOL    HW1 1076   6.758   3.911   6.419
   59SOL    HW2 1077   6.883   3.806   6.430
   60SOL     OW 1078   5.425   2.778   4.275
   60SOL    HW1 1079   5.386   2.811   4.188
   60SOL    HW2 1080   5.427   2.853   4.341
   61SOL     OW 1081   7.019   1.543   4.502
   61SOL    HW1 1082   6.956   1.592   4.563
   61SOL    HW2 1083   0.054   1.480   4.556
   62SOL     OW 1084   2.165   1.184   1.823
   62SOL    HW1 1085   2.135   1.253   1.889
   62SOL    HW2 1086   2.264   1.190   1.811
   63SOL     OW 1087   3.765   0.182   4.583
   63SOL    HW1 1088   3.728   0.178   4.490
   63SOL    HW2 1089   3.695   0.151   4.648
   64SOL     OW 1090   0.121   2.561   6.260
   64SOL    HW1 1091   0.129   2.644   6.205
   64SOL    HW2 1092   0.202   2.552   6.317
   65SOL     OW 1093   0.487   5.068   6.136
   65SOL    HW1 1094   0.513   5.020   6.221
   65SOL    HW2 1095   0.389   5.060   6.122
   66SOL     OW 1096   3.203   0.592   3.277
   66SOL    HW1 1097   3.236   0.592   3.183
   66SOL    HW2 1098   3.106   0.616   3.279
   67SOL     OW 1099   0.130   3.029   6.259
   67SOL    HW1 1100   0.139   3.058   6.163
   67SOL    HW2 1101   0.074   3.096   6.308
   68SOL     OW 1102   0.171   1.695   6.886
   68SOL    HW1 1103   0.120   1.638   6.951
   68SOL    HW2 1104   0.221   1.765   6.935
   69SOL     OW 1105   1.443   2.709   5.515
   69SOL    HW1 1106   1.530   2.695   5.468
   69SOL    HW2 1107   1.427   2.807   5.529
   70SOL     OW 1108   5.167   4.955   4.102
   70SOL    HW1 1109   5.114   4.922   4.179
   70SOL    HW2 1110   5.265   4.951   4.124
   71SOL     OW 1111   4.490   2.179   3.624
   71SOL    HW1 1112   4.566   2.117   3.605
   71SOL    HW2 1113   4.410   2.127   3.651
   72SOL     OW 1114   1.034   1.279   3.171
   72SOL    HW1 1115   1.118   1.289   3.118
   72SOL    HW2 1116   1.036   1.342   3.248
   73SOL     OW 1117   3.305   0.198   0.821
   73SOL    HW1 1118   3.225   0.142   0.842
   73SOL    HW2 1119   3.275   0.287   0.787
   74SOL     OW 1120   3.834   1.192   6.968
   74SOL    HW1 1121   3.738   1.219   6.966
   74SOL    HW2 1122   3.844   1.109   0.002
   75SOL     OW 1123   4.602   0.869   1.375
   75SOL    HW1 1124   4.561   0.844   1.463
   75SOL    HW2 1125   4.682   0.925   1.390
   76SOL     OW 1126   3.308   3.183   0.031
   76SOL    HW1 1127   3.226   3.125   0.023
   76SOL    HW2 1128   3.328   3.225   6.963
   77SOL     OW 1129   0.923   0.619   3.432
   77SOL    HW1 1130   1.014   0.589   3.458
   77SOL    HW2 1131   0.898   0.579   3.344
   78SOL     OW 1132   4.945   1.521   0.858
   78SOL    HW1 1133   4.989   1.537   0.769
   78SOL    HW2 1134   4.967   1.597   0.920
   79SOL     OW 1135   2.852   6.066   1.906
   79SOL    HW1 1136   2.929   6.012   1.872
   79SOL    HW2 1137   2.842   6.149   1.851
   80SOL     OW 1138   4.133   1.952   3.961
   80SOL    HW1 1139   4.052   2.005   3.939
   80SOL    HW2 1140   4.126   1.862   3.918
   81SOL     OW 1141   1.773   6.939   1.954
   81SOL    HW1 1142   1.724   6.940   2.042
   81SOL    HW2 1143   1.806   6.847   1.936
   82SOL     OW 1144   5.842   5.843   1.357
   82SOL    HW1 1145   5.843   5.868   1.454
   82SOL    HW2 1146   5.897   5.760   1.344
   83SOL     OW 1147   0.497   0.858   6.778
   83SOL    HW1 1148   0.544   0.779   6.817
   83SOL    HW2 1149   0.525   0.940   6.828
   84SOL     OW 1150   6.129   3.519   3.020
   84SOL    HW1 1151   6.102   3.452   2.951
   84SOL    HW2 1152   6.180   3.593   2.976
   85SOL     OW 1153   1.645   1.394   3.027
   85SOL    HW1 1154   1.569   1.405   3.091
   85SOL    HW2 1155   1.724   1.359   3.076
   86SOL     OW 1156   7.004   1.309   6.847
   86SOL    HW1 1157   0.013   1.314   6.752
   86SOL    HW2 1158   6.937   1.381   6.866
   87SOL     OW 1159   4.368   4.042   0.934
   87SOL    HW1 1160   4.369   4.015   1.030
   87SOL    HW2 1161   4.373   3.961   0.876
   88SOL     OW 1162   3.346   2.422   6.119
   88SOL    HW1 1163   3.288   2.488   6.071
   88SOL    HW2 1164   3.322   2.330   6.090
   89SOL     OW 1165   3.353   2.689   0.153
   89SOL    HW1 1166   3.388   2.751   0.223
   89SOL    HW2 1167   3.371   2.727   0.062
   90SOL     OW 1168   3.630   5.208   2.685
   90SOL    HW1 1169   3.672   5.117   2.699
   90SOL    HW2 1170   3.687   5.261   2.622
   91SOL     OW 1171   6.254   3.863   5.903
   91SOL    HW1 1172   6.273   3.912   5.988
   91SOL    HW2 1173   6.280   3.767   5.913
   92SOL     OW 1174   4.240   4.635   1.082
   92SOL    HW1 1175   4.196   4.693   1.013
   92SOL    HW2 1176   4.184   4.553   1.097
   93SOL     OW 1177   3.104   3.029   6.793
   93SOL    HW1 1178   3.044   3.098   6.752
   93SOL    HW2 1179   3.137   2.967   6.721
   94SOL     OW 1180   2.962   5.695   6.522
   94SOL    HW1 1181   2.917   5.669   6.436
   94SOL    HW2 1182   3.055   5.725   6.503
   95SOL     OW 1183   2.065   1.464   2.906
   95SOL    HW1 1184   1.970   1.493   2.899
   95SOL    HW2 1185   2.121   1.539   2.942
   96SOL     OW 1186   4.464   5.139   5.228
   96SOL    HW1 1187   4.442   5.236   5.238
   96SOL    HW2 1188   4.563   5.128   5.224
   97SOL     OW 1189   2.157   3.489   5.950
   97SOL    HW1 1190   2.250   3.458   5.967
   97SOL    HW2 1191   2.100   3.411   5.926
   98SOL     OW 1192   1.181   2.133   0.222
   98SOL    HW1 1193   1.174   2.071   0.143
   98SOL    HW2 1194   1.128   2.216   0.203
   99SOL     OW 1195   4.073   3.660   1.775
   99SOL    HW1 1196   4.154   3.690   1.725
   99SOL    HW2 1197   3.993   3.708   1.739
  100SOL     OW 1198   0.157   0.077   4.050
  100SOL    HW1 1199   0.062   0.108   4.044
  100SOL    HW2 1200   0.187   0.044   3.960
  101SOL     OW 1201   0.310   4.812   1.979
  101SOL    HW1 1202   0.343   4.801   2.073
  101SOL    HW2 1203   0.256   4.895   1.972
  102SOL     OW 1204   3.389   5.464   2.335
  102SOL    HW1 1205   3.383   5.541   2.272
  102SOL    HW2 1206   3.453   5.396   2.299
  103SOL     OW 1207   1.957   2.510   2.366
  103SOL    HW1 1208   1.994   2.428   2.323
  103SOL    HW2 1209   2.002   2.591   2.329
  104SOL     OW 1210   1.463   5.846   2.773
  104SOL    HW1 1211   1.498   5.754   2.788
  104SOL    HW2 1212   1.415   5.878   2.854
  105SOL     OW 1213   6.196   1.039   6.257
  105SOL    HW1 1214   6.194   0.940   6.245
  105SOL    HW2 1215   6.103   1.076   6.249
  106SOL     OW 1216   3.778   6.045   3.669
  106SOL    HW1 1217   3.769   5.966   3.730
  106SOL    HW2 1218   3.688   6.072   3.636
  107SOL     OW 1219   0.394   0.731   0.442
  107SOL    HW1 1220   0.449   0.813   0.427
  107SOL    HW2 1221   0.315   0.755   0.499
  108SOL     OW 1222   4.024   6.578   6.650
  108SOL    HW1 1223   4.018   6.561   6.552
  108SOL    HW2 1224   3.932   6.574   6.690
  109SOL     OW 1225   2.869   1.326   2.264
  109SOL    HW1 1226   2.843   1.293   2.173
  109SOL    HW2 1227   2.918   1.413   2.254
  110SOL     OW 1228   3.229   5.401   4.422
  110SOL    HW1 1229   3.161   5.346   4.471
  110SOL    HW2 1230   3.318   5.356   4.428
  111SOL     OW 1231   1.957   1.160   3.971
  111SOL    HW1 1232   1.871   1.151   4.022
  111SOL    HW2 1233   1.937   1.196   3.880
  112SOL     OW 1234   4.012   6.175   0.113
  112SOL    HW1 1235   4.110   6.182   0.130
  112SOL    HW2 1236   3.993   6.194   0.017
  113SOL     OW 1237   1.022   6.098   3.003
  113SOL    HW1 1238   0.994   6.031   3.072
  113SOL    HW2 1239   0.967   6.086   2.921
  114SOL     OW 1240   1.500   6.047   1.521
  114SOL    HW1 1241   1.581   6.102   1.542
  114SOL    HW2 1242   1.444   6.095   1.454
  115SOL     OW 1243   5.191   6.848   2.734
  115SOL    HW1 1244   5.225   6.763   2.774
  115SOL    HW2 1245   5.266   6.913   2.724
  116SOL     OW 1246   0.542   5.643   1.297
  116SOL    HW1 1247   0.599   5.635   1.379
  116SOL    HW2 1248   0.517   5.739   1.284
  117SOL     OW 1249   0.416   0.620   0.786
  117SOL    HW1 1250   0.321   0.637   0.757
  117SOL    HW2 1251   0.466   0.577   0.712
  118SOL     OW 1252   1.328   1.979   2.531
  118SOL    HW1 1253   1.376   2.064   2.510
  118SOL    HW2 1254   1.354   1.909   2.464
  119SOL     OW 1255   0.273   0.414   0.166
  119SOL    HW1 1256   0.196   0.383   0.110
  119SOL    HW2 1257   0.283   0.354   0.245
  120SOL     OW 1258   5.306   0.639   4.380
  120SOL    HW1 1259   5.345   0.722   4.419
  120SOL    HW2 1260   5.217   0.620   4.421
  121SOL     OW 1261   1.307   3.952   0.237
  121SOL    HW1 1262   1.400   3.921   0.220
  121SOL    HW2 1263   1.289   4.035   0.183
  122SOL     OW 1264   1.585   3.180   0.610
  122SOL    HW1 1265   1.498   3.203   0.567
  122SOL    HW2 1266   1.643   3.261   0.613
  123SOL     OW 1267   1.243   1.310   1.670
  123SOL    HW1 1268   1.338   1.280   1.660
  123SOL    HW2 1269   1.208   1.339   1.580
  124SOL     OW 1270   3.149   2.574   0.962
  124SOL    HW1 1271   3.185   2.605   0.874
  124SOL    HW2 1272   3.218   2.586   1.032
  125SOL     OW 1273   4.331   3.131   0.727
  125SOL    HW1 1274   4.356   3.050   0.674
  125SOL    HW2 1275   4.408   3.158   0.786
  126SOL     OW 1276   3.409   2.914   2.775
  126SOL    HW1 1277   3.393   2.908   2.874
  126SOL    HW2 1278   3.506   2.897   2.756
  127SOL     OW 1279   0.104   5.280   6.446
  127SOL    HW1 1280   0.199   5.277   6.416
  127SOL    HW2 1281   0.051   5.210   6.399
  128SOL     OW 1282   4.732   3.101   1.436
  128SOL    HW1 1283   4.760   3.182   1.384
  128SOL    HW2 1284   4.775   3.103   1.526
  129SOL     OW 1285   3.003   3.073   0.319
  129SOL    HW1 1286   3.084   3.045   0.267
  129SOL    HW2 1287   2.931   3.102   0.256
  130SOL     OW 1288   6.923   0.390   4.369
  130SOL    HW1 1289   6.825   0.405   4.365
  130SOL    HW2 1290   6.955   0.351   4.282
  131SOL     OW 1291   5.219   0.633   3.780
  131SOL    HW1 1292   5.216   0.666   3.874
  131SOL    HW2 1293   5.313   0.608   3.757
  132SOL     OW 1294   2.806   2.392   1.659
  132SOL    HW1 1295   2.811   2.300   1.621
  132SOL    HW2 1296   2.855   2.395   1.746
  133SOL     OW 1297   5.510   1.030   3.552
  133SOL    HW1 1298   5.411   1.016   3.554
  133SOL    HW2 1299   5.543   1.053   3.644
  134SOL     OW 1300   0.095   0.725   2.976
  134SOL    HW1 1301   0.014   0.775   3.005
  134SOL    HW2 1302   0.177   0.768   3.015
  135SOL     OW 1303   5.030   3.885   4.153
  135SOL    HW1 1304   5.057   3.790   4.136
  135SOL    HW2 1305   4.964   3.887   4.229
  136SOL     OW 1306   1.622   5.516   5.290
  136SOL    HW1 1307   1.702   5.489   5.236
  136SOL    HW2 1308   1.546   5.537   5.228
  137SOL     OW 1309   4.462   1.528   3.788
  137SOL    HW1 1310   4.498   1.621   3.785
  137SOL    HW2 1311   4.505   1.478   3.864
  138SOL     OW 1312   1.183   4.021   3.018
  138SOL    HW1 1313   1.158   4.117   3.006
  138SOL    HW2 1314   1.121   3.964   2.963
  139SOL     OW 1315   1.869   6.208   5.388
  139SOL    HW1 1316   1.784   6.157   5.380
  139SOL    HW2 1317   1.849   6.303   5.414
  140SOL     OW 1318   1.242   6.165   3.896
  140SOL    HW1 1319   1.243   6.234   3.969
  140SOL    HW2 1320   1.165   6.182   3.835
  141SOL     OW 1321   6.707   2.647   5.550
  141SOL    HW1 1322   6.628   2.590   5.573
  141SOL    HW2 1323   6.699   2.736   5.594
  142SOL     OW 1324   2.120   3.348   2.261
  142SOL    HW1 1325   2.165   3.399   2.188
  142SOL    HW2 1326   2.184   3.281   2.299
  143SOL     OW 1327   5.680   5.265   0.890
  143SOL    HW1 1328   5.630   5.275   0.975
  143SOL    HW2 1329   5.777   5.246   0.909
  144SOL     OW 1330   2.328   4.584   5.442
  144SOL    HW1 1331   2.295   4.638   5.519
  144SOL    HW2 1332   2.251   4.536   5.399
  145SOL     OW 1333   2.566   5.458   1.227
  145SOL    HW1 1334   2.491   5.443   1.163
  145SOL    HW2 1335   2.568   5.383   1.294
  146SOL     OW 1336   5.422   0.406   7.001
  146SOL    HW1 1337   5.451   0.457   6.920
  146SOL    HW2 1338   5.462   0.315   6.999
  147SOL     OW 1339   5.304   0.647   5.821
  147SOL    HW1 1340   5.229   0.645   5.754
  147SOL    HW2 1341   5.288   0.720   5.887
  148SOL     OW 1342   0.375   5.402   1.316
  148SOL    HW1 1343   0.402   5.353   1.399
  148SOL    HW2 1344   0.444   5.470   1.293
  149SOL     OW 1345   3.497   2.141   4.965
  149SOL    HW1 1346   3.571   2.112   4.905
  149SOL    HW2 1347   3.411   2.145   4.914
  150SOL     OW 1348   5.238   0.127   6.795
  150SOL    HW1 1349   5.193   0.216   6.788
  150SOL    HW2 1350   5.243   0.099   6.891
  151SOL     OW 1351   3.500   0.703   1.771
  151SOL    HW1 1352   3.545   0.759   1.841
  151SOL    HW2 1353   3.522   0.738   1.680
  152SOL     OW 1354   6.953   1.555   0.347
  152SOL    HW1 1355   6.943   1.458   0.324
  152SOL    HW2 1356   6.871   1.588   0.393
  153SOL     OW 1357   2.867   6.239   3.137
  153SOL    HW1 1358   2.883   6.163   3.199
  153SOL    HW2 1359   2.954   6.281   3.112
  154SOL     OW 1360   0.237   3.623   0.967
  154SOL    HW1 1361   0.206   3.580   1.051
  154SOL    HW2 1362   0.161   3.672   0.924
  155SOL     OW 1363   0.686   1.064   3.275
  155SOL    HW1 1364   0.784   1.084   3.281
  155SOL    HW2 1365   0.674   0.971   3.240
  156SOL     OW 1366   6.743   0.034   6.889
  156SOL    HW1 1367   6.700   0.031   6.799
  156SOL    HW2 1368   6.749   0.129   6.920
  157SOL     OW 1369   5.496   3.322   0.553
  157SOL    HW1 1370   5.539   3.278   0.633
  157SOL    HW2 1371   5.527   3.277   0.470
  158SOL     OW 1372   1.921   2.972   1.106
  158SOL    HW1 1373   1.833   2.961   1.152
  158SOL    HW2 1374   1.974   3.042   1.154
  159SOL     OW 1375   4.022   4.917   1.428
  159SOL    HW1 1376   4.003   4.999   1.482
  159SOL    HW2 1377   4.097   4.866   1.471
  160SOL     OW 1378   5.821   0.302   0.927
  160SOL    HW1 1379   5.766   0.257   0.856
  160SOL    HW2 1380   5.824   0.401   0.909
  161SOL     OW 1381   1.086   0.415   2.760
  161SOL    HW1 1382   1.108   0.462   2.675
  161SOL    HW2 1383   1.108   0.474   2.837
  162SOL     OW 1384   3.758   5.792   6.540
  162SOL    HW1 1385   3.853   5.823   6.546
  162SOL    HW2 1386   3.753   5.695   6.565
  163SOL     OW 1387   0.099   6.036   2.474
  163SOL    HW1 1388   0.044   6.065   2.396
  163SOL    HW2 1389   0.196   6.044   2.451
  164SOL     OW 1390   0.956   3.863   2.913
  164SOL    HW1 1391   0.866   3.876   2.954
  164SOL    HW2 1392   0.978   3.765   2.909
  165SOL     OW 1393   4.638   5.088   6.793
  165SOL    HW1 1394   4.726   5.135   6.786
  165SOL    HW2 1395   4.564   5.149   6.764
  166SOL     OW 1396   0.474   3.595   2.013
  166SOL    HW1 1397   0.448   3.507   2.053
  166SOL    HW2 1398   0.417   3.667   2.051
  167SOL     OW 1399   6.175   1.715   6.307
  167SOL    HW1 1400   6.211   1.747   6.395
  167SOL    HW2 1401   6.193   1.617   6.298
  168SOL     OW 1402   4.226   1.935   0.806
  168SOL    HW1 1403   4.257   1.901   0.895
  168SOL    HW2 1404   4.198   1.858   0.749
  169SOL     OW 1405   5.783   2.907   6.871
  169SOL    HW1 1406   5.784   2.933   6.774
  169SOL    HW2 1407   5.768   2.808   6.879
  170SOL     OW 1408   6.950   5.637   2.206
  170SOL    HW1 1409   6.929   5.734   2.202
  170SOL    HW2 1410   6.948   5.598   2.114
  171SOL     OW 1411   2.457   4.470   0.229
  171SOL    HW1 1412   2.513   4.499   0.151
  171SOL    HW2 1413   2.460   4.539   0.301
  172SOL     OW 1414   5.999   1.656   3.250
  172SOL    HW1 1415   6.095   1.678   3.233
  172SOL    HW2 1416   5.941   1.705   3.185
  173SOL     OW 1417   5.666   1.226   4.617
  173SOL    HW1 1418   5.610   1.237   4.699
  173SOL    HW2 1419   5.608   1.206   4.538
  174SOL     OW 1420   4.247   5.307   3.331
  174SOL    HW1 1421   4.227   5.370   3.406
  174SOL    HW2 1422   4.189   5.227   3.338
  175SOL     OW 1423   3.770   0.825   0.880
  175SOL    HW1 1424   3.791   0.798   0.786
  175SOL    HW2 1425   3.712   0.756   0.922
  176SOL     OW 1426   5.741   4.839   2.331
  176SOL    HW1 1427   5.781   4.845   2.423
  176SOL    HW2 1428   5.649   4.802   2.337
  177SOL     OW 1429   5.059   3.435   4.405
  177SOL    HW1 1430   5.107   3.447   4.491
  177SOL    HW2 1431   5.102   3.361   4.352
  178SOL     OW 1432   2.847   4.876   5.540
  178SOL    HW1 1433   2.778   4.880   5.612
  178SOL    HW2 1434   2.931   4.836   5.577
  179SOL     OW 1435   3.995   0.516   6.796
  179SOL    HW1 1436   3.920   0.574   6.830
  179SOL    HW2 1437   3.959   0.451   6.730
  180SOL     OW 1438   2.658   0.409   0.567
  180SOL    HW1 1439   2.560   0.400   0.582
  180SOL    HW2 1440   2.676   0.490   0.511
  181SOL     OW 1441   2.618   3.665   5.739
  181SOL    HW1 1442   2.613   3.704   5.831
  181SOL    HW2 1443   2.607   3.737   5.671
  182SOL     OW 1444   3.903   2.276   6.390
  182SOL    HW1 1445   3.812   2.254   6.354
  182SOL    HW2 1446   3.952   2.332   6.324
  183SOL     OW 1447   3.459   2.118   3.806
  183SOL    HW1 1448   3.458   2.111   3.906
  183SOL    HW2 1449   3.550   2.145   3.775
  184SOL     OW 1450   0.003   6.402   3.613
  184SOL    HW1 1451   6.925   6.387   3.624
  184SOL    HW2 1452   0.049   6.315   3.593
  185SOL     OW 1453   1.029   1.508   4.741
  185SOL    HW1 1454   1.025   1.441   4.667
  185SOL    HW2 1455   0.941   1.555   4.748
  186SOL     OW 1456   6.066   1.095   4.282
  186SOL    HW1 1457   6.048   1.001   4.308
  186SOL    HW2 1458   6.067   1.103   4.182
  187SOL     OW 1459   5.777   6.768   2.274
  187SOL    HW1 1460   5.840   6.793   2.201
  187SOL    HW2 1461   5.808   6.684   2.319
  188SOL     OW 1462   0.465   3.018   4.149
  188SOL    HW1 1463   0.544   3.063   4.109
  188SOL    HW2 1464   0.451   2.929   4.104
  189SOL     OW 1465   1.888   5.309   0.017
  189SOL    HW1 1466   1.901   5.368   0.096
  189SOL    HW2 1467   1.792   5.281   0.011
  190SOL     OW 1468   6.231   4.204   5.642
  190SOL    HW1 1469   6.203   4.114   5.609
  190SOL    HW2 1470   6.308   4.237   5.587
  191SOL     OW 1471   6.452   1.596   6.613
  191SOL    HW1 1472   6.390   1.537   6.560
  191SOL    HW2 1473   6.523   1.540   6.655
  192SOL     OW 1474   0.269   4.572   1.558
  192SOL    HW1 1475   0.305   4.665   1.567
  192SOL    HW2 1476   0.253   4.533   1.649
  193SOL     OW 1477   5.150   3.718   5.384
  193SOL    HW1 1478   5.191   3.760   5.465
  193SOL    HW2 1479   5.132   3.621   5.403
  194SOL     OW 1480   3.743   6.700   3.577
  194SOL    HW1 1481   3.771   6.753   3.657
  194SOL    HW2 1482   3.758   6.753   3.494
  195SOL     OW 1483   1.718   1.161   4.193
  195SOL    HW1 1484   1.649   1.192   4.128
  195SOL    HW2 1485   1.742   1.236   4.254
  196SOL     OW 1486   2.706   0.231   6.455
  196SOL    HW1 1487   2.797   0.190   6.466
  196SOL    HW2 1488   2.715   0.330   6.447
  197SOL     OW 1489   2.845   0.260   0.448
  197SOL    HW1 1490   2.871   0.334   0.385
  197SOL    HW2 1491   2.759   0.284   0.494
  198SOL     OW 1492   4.432   6.654   2.374
  198SOL    HW1 1493   4.407   6.614   2.462
  198SOL    HW2 1494   4.354   6.647   2.311
  199SOL     OW 1495   6.708   1.197   3.329
  199SOL    HW1 1496   6.781   1.196   3.398
  199SOL    HW2 1497   6.662   1.286   3.331
  200SOL     OW 1498   1.179   3.970   1.870
  200SOL    HW1 1499   1.186   3.954   1.968
  200SOL    HW2 1500   1.085   3.994   1.846
  201SOL     OW 1501   4.990   6.956   6.456
  201SOL    HW1 1502   5.034   6.875   6.417
  201SOL    HW2 1503   5.015   6.965   6.552
  202SOL     OW 1504   5.430   0.039   5.829
  202SOL    HW1 1505   5.462   0.057   5.922
  202SOL    HW2 1506   5.479   6.980   5.791
  203SOL     OW 1507   4.677   2.058   4.921
  203SOL    HW1 1508   4.609   2.130   4.933
  203SOL    HW2 1509   4.635   1.980   4.874
  204SOL     OW 1510   6.832   0.739   6.531
  204SOL    HW1 1511   6.897   0.792   6.586
  204SOL    HW2 1512   6.800   0.795   6.455
  205SOL     OW 1513   0.790   0.832   2.390
  205SOL    HW1 1514   0.842   0.909   2.353
  205SOL    HW2 1515   0.827   0.807   2.480
  206SOL     OW 1516   0.031   4.842   2.503
  206SOL    HW1 1517   0.084   4.885   2.429
  206SOL    HW2 1518   0.091   4.820   2.579
  207SOL     OW 1519   4.062   0.725   4.177
  207SOL    HW1 1520   4.028   0.657   4.242
  207SOL    HW2 1521   4.135   0.685   4.121
  208SOL     OW 1522   5.291   3.847   5.590
  208SOL    HW1 1523   5.301   3.784   5.667
  208SOL    HW2 1524   5.265   3.937   5.624
  209SOL     OW 1525   1.080   4.943   4.681
  209SOL    HW1 1526   1.043   4.853   4.657
  209SOL    HW2 1527   1.036   5.013   4.625
  210SOL     OW 1528   4.280   1.707   1.769
  210SOL    HW1 1529   4.240   1.718   1.860
  210SOL    HW2 1530   4.320   1.794   1.740
  211SOL     OW 1531   1.401   6.185   3.398
  211SOL    HW1 1532   1.419   6.113   3.465
  211SOL    HW2 1533   1.447   6.269   3.426
  212SOL     OW 1534   2.262   4.706   2.198
  212SOL    HW1 1535   2.340   4.765   2.218
  212SOL    HW2 1536   2.287   4.640   2.127
  213SOL     OW 1537   3.374   0.808   5.769
  213SOL    HW1 1538   3.461   0.849   5.797
  213SOL    HW2 1539   3.326   0.870   5.706
  214SOL     OW 1540   4.189   5.669   2.031
  214SOL    HW1 1541   4.126   5.605   2.075
  214SOL    HW2 1542   4.274   5.673   2.084
  215SOL     OW 1543   2.908   4.033   1.795
  215SOL    HW1 1544   2.970   4.061   1.869
  215SOL    HW2 1545   2.883   4.113   1.740
  216SOL     OW 1546   1.630   6.118   4.798
  216SOL    HW1 1547   1.632   6.060   4.717
  216SOL    HW2 1548   1.557   6.087   4.860
  217SOL     OW 1549   2.590   2.548   3.395
  217SOL    HW1 1550   2.622   2.487   3.321
  217SOL    HW2 1551   2.506   2.594   3.366
  218SOL     OW 1552   0.191   3.194   4.557
  218SOL    HW1 1553   0.134   3.245   4.492
  218SOL    HW2 1554   0.283   3.234   4.558
  219SOL     OW 1555   3.347   6.361   6.096
  219SOL    HW1 1556   3.418   6.381   6.164
  219SOL    HW2 1557   3.298   6.278   6.122
  220SOL     OW 1558   3.723   6.696   6.499
  220SOL    HW1 1559   3.664   6.676   6.420
  220SOL    HW2 1560   3.804   6.746   6.468
  221SOL     OW 1561   0.129   3.822   2.400
  221SOL    HW1 1562   0.099   3.904   2.448
  221SOL    HW2 1563   0.134   3.745   2.465
  222SOL     OW 1564   2.220   5.114   5.750
  222SOL    HW1 1565   2.137   5.095   5.697
  222SOL    HW2 1566   2.235   5.213   5.753
  223SOL     OW 1567   6.196   3.599   1.050
  223SOL    HW1 1568   6.162   3.564   1.137
  223SOL    HW2 1569   6.119   3.626   0.992
  224SOL     OW 1570   2.788   1.507   3.717
  224SOL    HW1 1571   2.831   1.427   3.676
  224SOL    HW2 1572   2.722   1.478   3.787
  225SOL     OW 1573   5.492   1.276   5.799
  225SOL    HW1 1574   5.580   1.321   5.787
  225SOL    HW2 1575   5.454   1.251   5.710
  226SOL     OW 1576   1.271   0.165   5.616
  226SOL    HW1 1577   1.182   0.136   5.653
  226SOL    HW2 1578   1.288   0.260   5.640
  227SOL     OW 1579   1.376   4.050   2.363
  227SOL    HW1 1580   1.373   4.150   2.359
  227SOL    HW2 1581   1.371   4.012   2.271
  228SOL     OW 1582   3.307   6.385   3.881
  228SOL    HW1 1583   3.391   6.334   3.899
  228SOL    HW2 1584   3.252   6.389   3.964
  229SOL     OW 1585   5.044   6.911   0.515
  229SOL    HW1 1586   5.015   6.831   0.567
  229SOL    HW2 1587   4.985   6.922   0.435
  230SOL     OW 1588   2.289   4.863   2.541
  230SOL    HW1 1589   2.209   4.806   2.521
  230SOL    HW2 1590   2.365   4.804   2.568
  231SOL     OW 1591   6.778   2.015   6.352
  231SOL    HW1 1592   6.844   1.940   6.364
  231SOL    HW2 1593   6.740   2.040   6.442
  232SOL     OW 1594   1.594   4.067   6.205
  232SOL    HW1 1595   1.495   4.074   6.195
  232SOL    HW2 1596   1.634   4.158   6.210
  233SOL     OW 1597   2.288   1.168   3.742
  233SOL    HW1 1598   2.335   1.256   3.733
  233SOL    HW2 1599   2.313   1.126   3.829
  234SOL     OW 1600   3.026   6.158   5.422
  234SOL    HW1 1601   3.125   6.175   5.425
  234SOL    HW2 1602   2.999   6.111   5.506
  235SOL     OW 1603   3.214   3.964   2.386
  235SOL    HW1 1604   3.221   3.938   2.482
  235SOL    HW2 1605   3.120   3.950   2.354
  236SOL     OW 1606   5.944   2.655   6.730
  236SOL    HW1 1607   5.885   2.618   6.658
  236SOL    HW2 1608   6.018   2.707   6.689
  237SOL     OW 1609   6.489   6.632   0.840
  237SOL    HW1 1610   6.559   6.681   0.789
  237SOL    HW2 1611   6.531   6.556   0.890
  238SOL     OW 1612   6.025   2.104   6.836
  238SOL    HW1 1613   6.009   2.105   6.935
  238SOL    HW2 1614   6.074   2.188   6.810
  239SOL     OW 1615   0.015   5.948   0.019
  239SOL    HW1 1616   7.011   5.924   6.945
  239SOL    HW2 1617   0.110   5.924   0.036
  240SOL     OW 1618   0.533   2.586   6.191
  240SOL    HW1 1619   0.492   2.621   6.106
  240SOL    HW2 1620   0.586   2.659   6.235
  241SOL     OW 1621   1.407   0.097   4.349
  241SOL    HW1 1622   1.386   0.129   4.257
  241SOL    HW2 1623   1.460   0.167   4.397
  242SOL     OW 1624   2.348   2.901   6.237
  242SOL    HW1 1625   2.332   2.844   6.317
  242SOL    HW2 1626   2.273   2.967   6.228
  243SOL     OW 1627   5.682   0.311   6.595
  243SOL    HW1 1628   5.694   0.250   6.517
  243SOL    HW2 1629   5.592   0.295   6.636
  244SOL     OW 1630   4.924   3.149   4.569
  244SOL    HW1 1631   5.009   3.150   4.516
  244SOL    HW2 1632   4.944   3.174   4.664
  245SOL     OW 1633   6.976   2.416   5.118
  245SOL    HW1 1634   0.027   2.396   5.185
  245SOL    HW2 1635   6.889   2.429   5.164
  246SOL     OW 1636   5.204   3.329   3.086
  246SOL    HW1 1637   5.126   3.283   3.044
  246SOL    HW2 1638   5.178   3.363   3.176
  247SOL     OW 1639   2.576   1.171   1.933
  247SOL    HW1 1640   2.517   1.120   1.994
  247SOL    HW2 1641   2.537   1.172   1.841
  248SOL     OW 1642   4.122   1.628   4.535
  248SOL    HW1 1643   4.154   1.692   4.465
  248SOL    HW2 1644   4.039   1.665   4.578
  249SOL     OW 1645   4.710   0.001   5.556
  249SOL    HW1 1646   4.726   6.972   5.642
  249SOL    HW2 1647   4.696   6.956   5.482
  250SOL     OW 1648   5.087   2.112   6.308
  250SOL    HW1 1649   5.038   2.057   6.376
  250SOL    HW2 1650   5.171   2.064   6.281
  251SOL     OW 1651   4.520   4.819   6.782
  251SOL    HW1 1652   4.580   4.899   6.788
  251SOL    HW2 1653   4.575   4.736   6.787
  252SOL     OW 1654   0.073   0.633   6.842
  252SOL    HW1 1655   0.083   0.538   6.811
  252SOL    HW2 1656   0.036   0.634   6.935
  253SOL     OW 1657   2.037   4.108   0.282
  253SOL    HW1 1658   2.015   4.037   0.216
  253SOL    HW2 1659   1.964   4.176   0.284
  254SOL     OW 1660   6.414   2.943   3.836
  254SOL    HW1 1661   6.452   2.977   3.749
  254SOL    HW2 1662   6.338   2.882   3.817
  255SOL     OW 1663   1.437   3.382   4.213
  255SOL    HW1 1664   1.357   3.430   4.177
  255SOL    HW2 1665   1.512   3.388   4.147
  256SOL     OW 1666   6.269   4.416   0.154
  256SOL    HW1 1667   6.237   4.489   0.214
  256SOL    HW2 1668   6.363   4.434   0.126
  257SOL     OW 1669   3.708   5.750   4.640
  257SOL    HW1 1670   3.737   5.704   4.723
  257SOL    HW2 1671   3.786   5.800   4.601
  258SOL     OW 1672   5.468   4.840   4.523
  258SOL    HW1 1673   5.490   4.744   4.541
  258SOL    HW2 1674   5.548   4.896   4.541
  259SOL     OW 1675   2.135   3.037   2.158
  259SOL    HW1 1676   2.203   3.090   2.107
  259SOL    HW2 1677   2.046   3.045   2.112
  260SOL     OW 1678   4.772   1.046   1.530
  260SOL    HW1 1679   4.757   1.045   1.629
  260SOL    HW2 1680   4.821   1.130   1.505
  261SOL     OW 1681   6.525   3.957   0.947
  261SOL    HW1 1682   6.511   4.055   0.958
  261SOL    HW2 1683   6.608   3.929   0.997
  262SOL     OW 1684   0.539   3.795   1.253
  262SOL    HW1 1685   0.523   3.893   1.243
  262SOL    HW2 1686   0.565   3.775   1.348
  263SOL     OW 1687   0.556   1.273   3.719
  263SOL    HW1 1688   0.582   1.178   3.736
  263SOL    HW2 1689   0.508   1.309   3.800
  264SOL     OW 1690   5.292   4.151   5.102
  264SOL    HW1 1691   5.342   4.096   5.170
  264SOL    HW2 1692   5.208   4.103   5.076
  265SOL     OW 1693   4.337   4.614   2.980
  265SOL    HW1 1694   4.427   4.601   3.020
  265SOL    HW2 1695   4.338   4.586   2.884
  266SOL     OW 1696   3.282   3.271   5.685
  266SOL    HW1 1697   3.341   3.314   5.753
  266SOL    HW2 1698   3.227   3.200   5.730
  267SOL     OW 1699   6.693   2.795   6.266
  267SOL    HW1 1700   6.617   2.856   6.242
  267SOL    HW2 1701   6.690   2.775   6.364
  268SOL     OW 1702   4.814   6.384   5.536
  268SOL    HW1 1703   4.805   6.427   5.626
  268SOL    HW2 1704   4.857   6.295   5.546
  269SOL     OW 1705   1.717   2.090   0.341
  269SOL    HW1 1706   1.720   1.991   0.327
  269SOL    HW2 1707   1.662   2.111   0.422
  270SOL     OW 1708   0.178   0.196   2.119
  270SOL    HW1 1709   0.152   0.236   2.031
  270SOL    HW2 1710   0.158   0.098   2.117
  271SOL     OW 1711   2.418   2.487   0.494
  271SOL    HW1 1712   2.340   2.497   0.432
  271SOL    HW2 1713   2.387   2.491   0.589
  272SOL     OW 1714   3.211   5.610   4.090
  272SOL    HW1 1715   3.217   5.659   4.178
  272SOL    HW2 1716   3.301   5.573   4.067
  273SOL     OW 1717   1.629   5.166   5.302
  273SOL    HW1 1718   1.688   5.221   5.243
  273SOL    HW2 1719   1.665   5.073   5.307
  274SOL     OW 1720   5.133   2.221   3.863
  274SOL    HW1 1721   5.174   2.136   3.897
  274SOL    HW2 1722   5.146   2.294   3.931
  275SOL     OW 1723   0.054   5.814   6.370
  275SOL    HW1 1724   0.067   5.715   6.360
  275SOL    HW2 1725   0.047   5.856   6.280
  276SOL     OW 1726   0.072   5.154   3.192
  276SOL    HW1 1727   0.071   5.167   3.291
  276SOL    HW2 1728   0.034   5.065   3.169
  277SOL     OW 1729   2.728   1.753   0.470
  277SOL    HW1 1730   2.690   1.845   0.480
  277SOL    HW2 1731   2.828   1.759   0.462
  278SOL     OW 1732   6.822   3.951   1.794
  278SOL    HW1 1733   6.783   3.864   1.822
  278SOL    HW2 1734   6.753   4.005   1.746
  279SOL     OW 1735   6.081   2.815   4.762
  279SOL    HW1 1736   6.153   2.836   4.697
  279SOL    HW2 1737   6.116   2.750   4.831
  280SOL     OW 1738   3.809   6.828   2.536
  280SOL    HW1 1739   3.865   6.905   2.567
  280SOL    HW2 1740   3.773   6.847   2.445
  281SOL     OW 1741   2.727   4.734   2.396
  281SOL    HW1 1742   2.780   4.755   2.478
  281SOL    HW2 1743   2.786   4.744   2.315
  282SOL     OW 1744   4.047   2.388   5.496
  282SOL    HW1 1745   3.974   2.453   5.514
  282SOL    HW2 1746   4.044   2.313   5.562
  283SOL     OW 1747   6.819   0.932   5.495
  283SOL    HW1 1748   6.739   0.973   5.537
  283SOL    HW2 1749   6.839   0.844   5.538
  284SOL     OW 1750   0.262   4.636   4.935
  284SOL    HW1 1751   0.296   4.581   4.859
  284SOL    HW2 1752   0.280   4.588   5.021
  285SOL     OW 1753   5.154   5.768   6.849
  285SOL    HW1 1754   5.210   5.693   6.815
  285SOL    HW2 1755   5.057   5.744   6.839
  286SOL     OW 1756   4.020   4.843   5.220
  286SOL    HW1 1757   3.982   4.929   5.255
  286SOL    HW2 1758   4.001   4.770   5.286
  287SOL     OW 1759   0.487   5.093   6.582
  287SOL    HW1 1760   0.465   5.160   6.652
  287SOL    HW2 1761   0.409   5.081   6.521
  288SOL     OW 1762   3.795   1.657   0.494
  288SOL    HW1 1763   3.764   1.630   0.585
  288SOL    HW2 1764   3.812   1.755   0.491
  289SOL     OW 1765   0.284   5.080   4.730
  289SOL    HW1 1766   0.227   5.136   4.669
  289SOL    HW2 1767   0.230   5.051   4.809
  290SOL     OW 1768   4.848   1.816   3.243
  290SOL    HW1 1769   4.945   1.840   3.239
  290SOL    HW2 1770   4.800   1.879   3.304
  291SOL     OW 1771   3.831   1.132   4.267
  291SOL    HW1 1772   3.809   1.035   4.257
  291SOL    HW2 1773   3.780   1.185   4.199
  292SOL     OW 1774   4.291   1.867   3.726
  292SOL    HW1 1775   4.264   1.962   3.737
  292SOL    HW2 1776   4.219   1.807   3.760
  293SOL     OW 1777   3.878   6.003   1.554
  293SOL    HW1 1778   3.921   6.091   1.577
  293SOL    HW2 1779   3.918   5.967   1.470
  294SOL     OW 1780   6.568   5.382   6.950
  294SOL    HW1 1781   6.582   5.421   0.021
  294SOL    HW2 1782   6.488   5.322   6.951
  295SOL     OW 1783   3.074   1.782   5.355
  295SOL    HW1 1784   3.043   1.866   5.400
  295SOL    HW2 1785   3.068   1.793   5.256
  296SOL     OW 1786   6.134   2.238   1.822
  296SOL    HW1 1787   6.172   2.323   1.857
  296SOL    HW2 1788   6.036   2.248   1.807
  297SOL     OW 1789   2.925   4.823   2.881
  297SOL    HW1 1790   2.911   4.790   2.974
  297SOL    HW2 1791   2.930   4.923   2.881
  298SOL     OW 1792   3.986   0.169   6.956
  298SOL    HW1 1793   3.932   0.198   6.876
  298SOL    HW2 1794   4.066   0.118   6.925
  299SOL     OW 1795   4.751   2.168   6.304
  299SOL    HW1 1796   4.705   2.105   6.367
  299SOL    HW2 1797   4.683   2.228   6.262
  300SOL     OW 1798   4.614   0.925   2.291
  300SOL    HW1 1799   4.538   0.986   2.314
  300SOL    HW2 1800   4.584   0.860   2.220
  301SOL     OW 1801   4.981   1.603   0.552
  301SOL    HW1 1802   5.068   1.636   0.514
  301SOL    HW2 1803   4.982   1.504   0.557
  302SOL     OW 1804   6.809   0.509   2.629
  302SOL    HW1 1805   6.725   0.562   2.620
  302SOL    HW2 1806   6.848   0.493   2.538
  303SOL     OW 1807   6.230   5.930   2.066
  303SOL    HW1 1808   6.170   5.923   2.146
  303SOL    HW2 1809   6.178   5.965   1.988
  304SOL     OW 1810   2.078   6.225   5.768
  304SOL    HW1 1811   2.115   6.151   5.824
  304SOL    HW2 1812   2.021   6.187   5.695
  305SOL     OW 1813   1.167   3.092   0.620
  305SOL    HW1 1814   1.236   3.148   0.574
  305SOL    HW2 1815   1.108   3.049   0.552
  306SOL     OW 1816   1.190   1.040   2.925
  306SOL    HW1 1817   1.131   0.985   2.983
  306SOL    HW2 1818   1.153   1.041   2.832
  307SOL     OW 1819   4.931   4.487   0.895
  307SOL    HW1 1820   4.937   4.547   0.974
  307SOL    HW2 1821   4.840   4.493   0.854
  308SOL     OW 1822   5.923   3.755   4.694
  308SOL    HW1 1823   5.948   3.841   4.650
  308SOL    HW2 1824   5.824   3.746   4.696
  309SOL     OW 1825   1.358   5.959   0.400
  309SOL    HW1 1826   1.360   5.866   0.436
  309SOL    HW2 1827   1.302   5.962   0.318
  310SOL     OW 1828   5.290   5.732   4.897
  310SOL    HW1 1829   5.202   5.687   4.882
  310SOL    HW2 1830   5.275   5.829   4.917
  311SOL     OW 1831   3.292   4.936   3.103
  311SOL    HW1 1832   3.253   5.003   3.040
  311SOL    HW2 1833   3.222   4.870   3.129
  312SOL     OW 1834   3.892   1.714   4.124
  312SOL    HW1 1835   3.970   1.762   4.163
  312SOL    HW2 1836   3.874   1.748   4.032
  313SOL     OW 1837   3.402   3.740   2.246
  313SOL    HW1 1838   3.415   3.815   2.181
  313SOL    HW2 1839   3.325   3.760   2.306
  314SOL     OW 1840   2.692   4.641   6.362
  314SOL    HW1 1841   2.718   4.551   6.327
  314SOL    HW2 1842   2.762   4.674   6.425
  315SOL     OW 1843   1.045   3.139   4.185
  315SOL    HW1 1844   1.068   3.043   4.199
  315SOL    HW2 1845   1.082   3.193   4.261
  316SOL     OW 1846   3.500   0.605   4.406
  316SOL    HW1 1847   3.461   0.643   4.489
  316SOL    HW2 1848   3.599   0.595   4.417
  317SOL     OW 1849   0.241   2.145   1.241
  317SOL    HW1 1850   0.179   2.094   1.181
  317SOL    HW2 1851   0.334   2.138   1.207
  318SOL     OW 1852   0.033   6.186   6.781
  318SOL    HW1 1853   0.030   6.282   6.810
  318SOL    HW2 1854   0.110   6.140   6.826
  319SOL     OW 1855   6.301   1.411   3.936
  319SOL    HW1 1856   6.372   1.354   3.978
  319SOL    HW2 1857   6.282   1.489   3.995
  320SOL     OW 1858   5.783   2.584   0.112
  320SOL    HW1 1859   5.809   2.489   0.096
  320SOL    HW2 1860   5.683   2.593   0.109
  321SOL     OW 1861   3.876   1.796   7.016
  321SOL    HW1 1862   3.915   1.725   6.958
  321SOL    HW2 1863   3.902   1.886   6.981
  322SOL     OW 1864   3.045   3.279   4.031
  322SOL    HW1 1865   3.116   3.347   4.011
  322SOL    HW2 1866   3.047   3.256   4.128
  323SOL     OW 1867   0.953   2.837   6.152
  323SOL    HW1 1868   1.000   2.782   6.082
  323SOL    HW2 1869   0.901   2.910   6.107
  324SOL     OW 1870   2.944   0.723   3.222
  324SOL    HW1 1871   2.976   0.723   3.127
  324SOL    HW2 1872   2.880   0.798   3.235
  325SOL     OW 1873   0.729   2.961   2.188
  325SOL    HW1 1874   0.767   2.972   2.280
  325SOL    HW2 1875   0.802   2.942   2.123
  326SOL     OW 1876   1.231   4.382   6.128
  326SOL    HW1 1877   1.292   4.462   6.128
  326SOL    HW2 1878   1.269   4.311   6.187
  327SOL     OW 1879   1.905   4.504   2.067
  327SOL    HW1 1880   1.965   4.534   1.993
  327SOL    HW2 1881   1.810   4.521   2.042
  328SOL     OW 1882   1.765   5.655   1.577
  328SOL    HW1 1883   1.767   5.703   1.664
  328SOL    HW2 1884   1.685   5.682   1.525
  329SOL     OW 1885   2.928   3.604   5.149
  329SOL    HW1 1886   2.914   3.650   5.061
  329SOL    HW2 1887   3.013   3.552   5.146
  330SOL     OW 1888   3.485   6.673   1.494
  330SOL    HW1 1889   3.388   6.687   1.511
  330SOL    HW2 1890   3.536   6.683   1.579
  331SOL     OW 1891   4.304   5.683   0.631
  331SOL    HW1 1892   4.365   5.661   0.555
  331SOL    HW2 1893   4.214   5.707   0.596
  332SOL     OW 1894   5.419   2.203   5.503
  332SOL    HW1 1895   5.492   2.247   5.556
  332SOL    HW2 1896   5.457   2.164   5.419
  333SOL     OW 1897   4.387   0.943   5.526
  333SOL    HW1 1898   4.387   1.039   5.554
  333SOL    HW2 1899   4.480   0.907   5.533
  334SOL     OW 1900   3.487   1.448   0.558
  334SOL    HW1 1901   3.565   1.494   0.602
  334SOL    HW2 1902   3.509   1.352   0.545
  335SOL     OW 1903   4.553   6.629   6.032
  335SOL    HW1 1904   4.494   6.638   6.112
  335SOL    HW2 1905   4.648   6.646   6.058
  336SOL     OW 1906   2.722   1.241   3.361
  336SOL    HW1 1907   2.718   1.341   3.365
  336SOL    HW2 1908   2.629   1.204   3.362
  337SOL     OW 1909   0.748   2.995   6.076
  337SOL    HW1 1910   0.735   2.959   6.169
  337SOL    HW2 1911   0.731   3.093   6.076
  338SOL     OW 1912   2.913   2.058   1.580
  338SOL    HW1 1913   2.814   2.053   1.598
  338SOL    HW2 1914   2.963   2.028   1.660
  339SOL     OW 1915   4.659   5.590   4.966
  339SOL    HW1 1916   4.602   5.510   4.983
  339SOL    HW2 1917   4.649   5.619   4.871
  340SOL     OW 1918   5.191   3.972   5.325
  340SOL    HW1 1919   5.168   3.876   5.343
  340SOL    HW2 1920   5.280   3.993   5.366
  341SOL     OW 1921   6.251   6.870   4.089
  341SOL    HW1 1922   6.167   6.831   4.127
  341SOL    HW2 1923   6.290   6.806   4.022
  342SOL     OW 1924   5.760   3.892   0.227
  342SOL    HW1 1925   5.722   3.951   0.156
  342SOL    HW2 1926   5.801   3.948   0.299
  343SOL     OW 1927   0.977   6.516   1.255
  343SOL    HW1 1928   0.949   6.609   1.279
  343SOL    HW2 1929   1.000   6.466   1.338
  344SOL     OW 1930   1.181   3.298   1.634
  344SOL    HW1 1931   1.229   3.345   1.560
  344SOL    HW2 1932   1.131   3.364   1.690
  345SOL     OW 1933   5.362   2.150   3.666
  345SOL    HW1 1934   5.298   2.209   3.714
  345SOL    HW2 1935   5.431   2.116   3.730
  346SOL     OW 1936   1.820   1.151   2.682
  346SOL    HW1 1937   1.841   1.062   2.721
  346SOL    HW2 1938   1.733   1.184   2.720
  347SOL     OW 1939   2.780   5.365   0.009
  347SOL    HW1 1940   2.706   5.408   6.979
  347SOL    HW2 1941   2.805   5.422   0.087
  348SOL     OW 1942   4.879   4.036   2.288
  348SOL    HW1 1943   4.800   4.084   2.250
  348SOL    HW2 1944   4.923   3.982   2.216
  349SOL     OW 1945   7.001   5.152   0.924
  349SOL    HW1 1946   0.052   5.212   0.888
  349SOL    HW2 1947   6.911   5.189   0.899
  350SOL     OW 1948   2.805   2.335   1.268
  350SOL    HW1 1949   2.835   2.351   1.174
  350SOL    HW2 1950   2.851   2.254   1.304
  351SOL     OW 1951   2.864   3.672   0.746
  351SOL    HW1 1952   2.862   3.656   0.648
  351SOL    HW2 1953   2.800   3.610   0.791
  352SOL     OW 1954   3.086   6.708   3.985
  352SOL    HW1 1955   3.155   6.767   4.028
  352SOL    HW2 1956   3.102   6.705   3.886
  353SOL     OW 1957   3.063   0.154   0.046
  353SOL    HW1 1958   3.094   0.168   6.973
  353SOL    HW2 1959   3.022   0.063   0.055
  354SOL     OW 1960   4.421   2.812   1.059
  354SOL    HW1 1961   4.490   2.845   0.994
  354SOL    HW2 1962   4.460   2.738   1.114
  355SOL     OW 1963   1.568   3.952   2.865
  355SOL    HW1 1964   1.503   3.956   2.790
  355SOL    HW2 1965   1.519   3.958   2.952
  356SOL     OW 1966   1.914   7.000   5.923
  356SOL    HW1 1967   1.892   6.924   5.861
  356SOL    HW2 1968   1.921   6.965   6.016
  357SOL     OW 1969   6.930   6.163   5.426
  357SOL    HW1 1970   6.997   6.226   5.386
  357SOL    HW2 1971   6.978   6.097   5.484
  358SOL     OW 1972   4.672   6.410   0.582
  358SOL    HW1 1973   4.687   6.423   0.484
  358SOL    HW2 1974   4.627   6.491   0.619
  359SOL     OW 1975   2.949   2.124   1.849
  359SOL    HW1 1976   2.863   2.083   1.879
  359SOL    HW2 1977   2.944   2.223   1.859
  360SOL     OW 1978   1.288   4.122   5.925
  360SOL    HW1 1979   1.193   4.114   5.894
  360SOL    HW2 1980   1.339   4.042   5.895
  361SOL     OW 1981   6.472   6.559   2.728
  361SOL    HW1 1982   6.527   6.477   2.714
  361SOL    HW2 1983   6.457   6.604   2.640
  362SOL     OW 1984   3.606   2.972   1.450
  362SOL    HW1 1985   3.616   2.874   1.431
  362SOL    HW2 1986   3.514   2.991   1.483
  363SOL     OW 1987   5.661   4.204   2.878
  363SOL    HW1 1988   5.653   4.122   2.936
  363SOL    HW2 1989   5.685   4.176   2.785
  364SOL     OW 1990   6.405   5.371   6.406
  364SOL    HW1 1991   6.390   5.288   6.352
  364SOL    HW2 1992   6.317   5.417   6.422
  365SOL     OW 1993   5.439   6.727   2.049
  365SOL    HW1 1994   5.423   6.820   2.082
  365SOL    HW2 1995   5.534   6.717   2.020
  366SOL     OW 1996   5.206   0.669   6.855
  366SOL    HW1 1997   5.165   0.588   6.814
  366SOL    HW2 1998   5.298   0.682   6.817
  367SOL     OW 1999   5.742   3.079   1.673
  367SOL    HW1 2000   5.671   3.137   1.713
  367SOL    HW2 2001   5.741   2.989   1.716
  368SOL     OW 2002   0.845   2.716   5.601
  368SOL    HW1 2003   0.846   2.626   5.558
  368SOL    HW2 2004   0.910   2.776   5.555
  369SOL     OW 2005   5.960   5.022   2.251
  369SOL    HW1 2006   5.986   5.096   2.313
  369SOL    HW2 2007   5.907   4.954   2.302
  370SOL     OW 2008   1.419   1.576   5.150
  370SOL    HW1 2009   1.321   1.558   5.157
  370SOL    HW2 2010   1.467   1.490   5.132
  371SOL     OW 2011   1.817   4.469   5.621
  371SOL    HW1 2012   1.893   4.428   5.570
  371SOL    HW2 2013   1.807   4.564   5.595
  372SOL     OW 2014   0.999   6.393   6.486
  372SOL    HW1 2015   1.078   6.392   6.425
  372SOL    HW2 2016   0.925   6.340   6.445
  373SOL     OW 2017   6.065   6.789   4.417
  373SOL    HW1 2018   6.000   6.793   4.341
  373SOL    HW2 2019   6.032   6.725   4.486
  374SOL     OW 2020   2.674   1.797   4.005
  374SOL    HW1 2021   2.621   1.849   4.072
  374SOL    HW2 2022   2.701   1.857   3.930
  375SOL     OW 2023   1.045   4.849   4.381
  375SOL    HW1 2024   1.038   4.947   4.399
  375SOL    HW2 2025   0.999   4.827   4.295
  376SOL     OW 2026   2.769   1.006   5.222
  376SOL    HW1 2027   2.729   1.064   5.293
  376SOL    HW2 2028   2.847   1.053   5.181
  377SOL     OW 2029   1.167   2.173   1.138
  377SOL    HW1 2030   1.252   2.146   1.183
  377SOL    HW2 2031   1.188   2.211   1.048
  378SOL     OW 2032   4.897   2.285   6.498
  378SOL    HW1 2033   4.992   2.300   6.470
  378SOL    HW2 2034   4.846   2.245   6.422
  379SOL     OW 2035   5.942   2.901   1.577
  379SOL    HW1 2036   5.966   2.870   1.669
  379SOL    HW2 2037   5.843   2.903   1.568
  380SOL     OW 2038   2.868   1.352   0.574
  380SOL    HW1 2039   2.844   1.258   0.548
  380SOL    HW2 2040   2.949   1.381   0.523
  381SOL     OW 2041   1.312   3.960   2.709
  381SOL    HW1 2042   1.334   3.874   2.754
  381SOL    HW2 2043   1.217   3.958   2.678
  382SOL     OW 2044   5.909   0.232   6.754
  382SOL    HW1 2045   5.874   0.232   6.848
  382SOL    HW2 2046   5.832   0.236   6.690
  383SOL     OW 2047   4.021   4.046   6.618
  383SOL    HW1 2048   4.090   4.070   6.687
  383SOL    HW2 2049   3.991   4.129   6.571
  384SOL     OW 2050   6.872   5.310   3.571
  384SOL    HW1 2051   6.956   5.362   3.551
  384SOL    HW2 2052   6.794   5.373   3.574
  385SOL     OW 2053   3.098   4.604   5.352
  385SOL    HW1 2054   3.033   4.542   5.307
  385SOL    HW2 2055   3.191   4.573   5.334
  386SOL     OW 2056   2.672   7.006   5.185
  386SOL    HW1 2057   2.673   0.038   5.271
  386SOL    HW2 2058   2.765   6.978   5.162
  387SOL     OW 2059   1.403   6.824   2.000
  387SOL    HW1 2060   1.397   6.824   1.900
  387SOL    HW2 2061   1.373   6.735   2.035
  388SOL     OW 2062   1.272   1.704   4.940
  388SOL    HW1 2063   1.357   1.709   4.993
  388SOL    HW2 2064   1.268   1.781   4.877
  389SOL     OW 2065   3.561   3.284   1.479
  389SOL    HW1 2066   3.529   3.374   1.449
  389SOL    HW2 2067   3.513   3.213   1.427
  390SOL     OW 2068   2.926   1.718   1.583
  390SOL    HW1 2069   2.992   1.644   1.571
  390SOL    HW2 2070   2.973   1.806   1.587
  391SOL     OW 2071   1.805   2.526   6.749
  391SOL    HW1 2072   1.790   2.575   6.835
  391SOL    HW2 2073   1.719   2.485   6.719
  392SOL     OW 2074   1.800   4.213   0.953
  392SOL    HW1 2075   1.702   4.209   0.973
  392SOL    HW2 2076   1.816   4.187   0.858
  393SOL     OW 2077   1.792   4.477   6.706
  393SOL    HW1 2078   1.750   4.512   6.790
  393SOL    HW2 2079   1.816   4.381   6.718
  394SOL     OW 2080   6.934   1.806   0.041
  394SOL    HW1 2081   6.990   1.730   0.073
  394SOL    HW2 2082   6.871   1.834   0.114
  395SOL     OW 2083   4.800   3.979   2.788
  395SOL    HW1 2084   4.877   4.008   2.731
  395SOL    HW2 2085   4.773   3.886   2.762
  396SOL     OW 2086   3.161   3.936   1.697
  396SOL    HW1 2087   3.175   3.984   1.611
  396SOL    HW2 2088   3.063   3.932   1.718
  397SOL     OW 2089   5.816   1.542   5.394
  397SOL    HW1 2090   5.852   1.612   5.455
  397SOL    HW2 2091   5.791   1.461   5.446
  398SOL     OW 2092   1.524   0.225   2.029
  398SOL    HW1 2093   1.601   0.258   1.975
  398SOL    HW2 2094   1.441   0.227   1.974
  399SOL     OW 2095   6.004   5.930   2.230
  399SOL    HW1 2096   6.009   5.929   2.330
  399SOL    HW2 2097   5.930   5.991   2.201
  400SOL     OW 2098   6.371   6.147   5.762
  400SOL    HW1 2099   6.281   6.152   5.718
  400SOL    HW2 2100   6.366   6.187   5.853
  401SOL     OW 2101   5.634   0.546   6.247
  401SOL    HW1 2102   5.646   0.645   6.249
  401SOL    HW2 2103   5.546   0.522   6.288
  402SOL     OW 2104   6.114   0.013   3.727
  402SOL    HW1 2105   6.033   6.979   3.749
  402SOL    HW2 2106   6.087   0.104   3.695
  403SOL     OW 2107   3.481   2.131   4.301
  403SOL    HW1 2108   3.489   2.121   4.400
  403SOL    HW2 2109   3.385   2.129   4.274
  404SOL     OW 2110   1.691   5.083   3.979
  404SOL    HW1 2111   1.725   5.130   4.060
  404SOL    HW2 2112   1.591   5.086   3.978
  405SOL     OW 2113   1.659   3.296   2.039
  405SOL    HW1 2114   1.639   3.248   1.953
  405SOL    HW2 2115   1.693   3.388   2.017
  406SOL     OW 2116   0.930   3.869   4.761
  406SOL    HW1 2117   0.927   3.785   4.707
  406SOL    HW2 2118   1.011   3.922   4.736
  407SOL     OW 2119   1.248   0.946   4.599
  407SOL    HW1 2120   1.238   0.848   4.618
  407SOL    HW2 2121   1.345   0.969   4.589
  408SOL     OW 2122   1.332   2.603   3.302
  408SOL    HW1 2123   1.377   2.677   3.252
  408SOL    HW2 2124   1.379   2.588   3.389
  409SOL     OW 2125   6.961   3.159   2.093
  409SOL    HW1 2126   6.964   3.237   2.155
  409SOL    HW2 2127   6.894   3.175   2.021
  410SOL     OW 2128   1.877   1.466   0.938
  410SOL    HW1 2129   1.834   1.496   1.022
  410SOL    HW2 2130   1.955   1.526   0.917
  411SOL     OW 2131   6.083   6.877   1.600
  411SOL    HW1 2132   6.056   6.928   1.682
  411SOL    HW2 2133   6.011   6.885   1.531
  412SOL     OW 2134   3.402   5.562   3.713
  412SOL    HW1 2135   3.396   5.662   3.714
  412SOL    HW2 2136   3.497   5.535   3.700
  413SOL     OW 2137   5.199   3.516   1.665
  413SOL    HW1 2138   5.126   3.557   1.611
  413SOL    HW2 2139   5.282   3.570   1.656
  414SOL     OW 2140   3.276   5.363   3.881
  414SOL    HW1 2141   3.375   5.359   3.864
  414SOL    HW2 2142   3.238   5.444   3.837
  415SOL     OW 2143   1.148   5.876   6.900
  415SOL    HW1 2144   1.219   5.885   6.830
  415SOL    HW2 2145   1.117   5.781   6.903
  416SOL     OW 2146   4.679   6.547   4.603
  416SOL    HW1 2147   4.653   6.621   4.665
  416SOL    HW2 2148   4.701   6.585   4.513
  417SOL     OW 2149   2.249   5.889   6.489
  417SOL    HW1 2150   2.203   5.849   6.568
  417SOL    HW2 2151   2.328   5.833   6.464
  418SOL     OW 2152   4.114   6.835   0.059
  418SOL    HW1 2153   4.056   6.887   0.122
  418SOL    HW2 2154   4.192   6.892   0.031
  419SOL     OW 2155   2.347   6.749   1.432
  419SOL    HW1 2156   2.381   6.798   1.512
  419SOL    HW2 2157   2.291   6.672   1.461
  420SOL     OW 2158   5.881   1.148   0.338
  420SOL    HW1 2159   5.805   1.163   0.401
  420SOL    HW2 2160   5.911   1.053   0.344
  421SOL     OW 2161   0.147   4.052   5.658
  421SOL    HW1 2162   0.061   4.006   5.637
  421SOL    HW2 2163   0.183   4.096   5.575
  422SOL     OW 2164   5.601   3.639   1.249
  422SOL    HW1 2165   5.550   3.710   1.297
  422SOL    HW2 2166   5.634   3.674   1.162
  423SOL     OW 2167   0.780   1.813   6.083
  423SOL    HW1 2168   0.710   1.838   6.016
  423SOL    HW2 2169   0.827   1.730   6.054
  424SOL     OW 2170   1.484   5.562   0.925
  424SOL    HW1 2171   1.497   5.480   0.869
  424SOL    HW2 2172   1.569   5.615   0.927
  425SOL     OW 2173   4.793   1.557   3.358
  425SOL    HW1 2174   4.774   1.637   3.301
  425SOL    HW2 2175   4.745   1.478   3.320
  426SOL     OW 2176   3.234   2.093   4.574
  426SOL    HW1 2177   3.164   2.026   4.599
  426SOL    HW2 2178   3.205   2.142   4.492
  427SOL     OW 2179   5.473   6.430   3.847
  427SOL    HW1 2180   5.490   6.455   3.752
  427SOL    HW2 2181   5.410   6.496   3.888
  428SOL     OW 2182   4.253   0.569   3.715
  428SOL    HW1 2183   4.310   0.651   3.725
  428SOL    HW2 2184   4.295   0.493   3.763
  429SOL     OW 2185   1.161   4.584   1.691
  429SOL    HW1 2186   1.072   4.544   1.714
  429SOL    HW2 2187   1.153   4.634   1.605
  430SOL     OW 2188   0.725   0.243   4.341
  430SOL    HW1 2189   0.679   0.205   4.260
  430SOL    HW2 2190   0.824   0.229   4.332
  431SOL     OW 2191   2.721   0.393   0.934
  431SOL    HW1 2192   2.662   0.335   0.877
  431SOL    HW2 2193   2.765   0.337   1.004
  432SOL     OW 2194   6.215   1.649   0.658
  432SOL    HW1 2195   6.223   1.714   0.734
  432SOL    HW2 2196   6.118   1.631   0.639
  433SOL     OW 2197   1.631   6.676   4.819
  433SOL    HW1 2198   1.613   6.649   4.914
  433SOL    HW2 2199   1.730   6.685   4.806
  434SOL     OW 2200   3.584   5.493   3.208
  434SOL    HW1 2201   3.518   5.419   3.219
  434SOL    HW2 2202   3.676   5.456   3.207
  435SOL     OW 2203   4.805   2.750   6.360
  435SOL    HW1 2204   4.768   2.687   6.293
  435SOL    HW2 2205   4.879   2.705   6.411
  436SOL     OW 2206   3.274   5.689   2.176
  436SOL    HW1 2207   3.193   5.631   2.162
  436SOL    HW2 2208   3.244   5.780   2.206
  437SOL     OW 2209   0.635   1.400   0.131
  437SOL    HW1 2210   0.697   1.342   0.184
  437SOL    HW2 2211   0.619   1.358   0.041
  438SOL     OW 2212   2.238   4.121   3.142
  438SOL    HW1 2213   2.257   4.023   3.132
  438SOL    HW2 2214   2.273   4.170   3.063
  439SOL     OW 2215   6.056   5.196   2.438
  439SOL    HW1 2216   5.993   5.273   2.444
  439SOL    HW2 2217   6.097   5.179   2.527
  440SOL     OW 2218   2.165   1.684   4.721
  440SOL    HW1 2219   2.113   1.599   4.733
  440SOL    HW2 2220   2.110   1.761   4.751
  441SOL     OW 2221   0.585   2.908   4.363
  441SOL    HW1 2222   0.527   2.959   4.299
  441SOL    HW2 2223   0.578   2.810   4.344
  442SOL     OW 2224   4.401   5.407   5.245
  442SOL    HW1 2225   4.442   5.497   5.264
  442SOL    HW2 2226   4.416   5.383   5.149
  443SOL     OW 2227   6.167   4.438   3.742
  443SOL    HW1 2228   6.117   4.394   3.817
  443SOL    HW2 2229   6.121   4.419   3.656
  444SOL     OW 2230   4.883   0.710   6.967
  444SOL    HW1 2231   4.966   0.742   7.013
  444SOL    HW2 2232   4.822   0.788   6.953
  445SOL     OW 2233   0.634   5.839   2.936
  445SOL    HW1 2234   0.619   5.931   2.900
  445SOL    HW2 2235   0.628   5.841   3.036
  446SOL     OW 2236   3.240   5.027   3.616
  446SOL    HW1 2237   3.284   5.013   3.528
  446SOL    HW2 2238   3.218   4.939   3.657
  447SOL     OW 2239   0.346   2.902   6.390
  447SOL    HW1 2240   0.270   2.943   6.339
  447SOL    HW2 2241   0.339   2.927   6.486
  448SOL     OW 2242   1.809   0.766   3.631
  448SOL    HW1 2243   1.717   0.732   3.615
  448SOL    HW2 2244   1.844   0.728   3.718
  449SOL     OW 2245   2.675   1.104   3.977
  449SOL    HW1 2246   2.696   1.075   3.884
  449SOL    HW2 2247   2.757   1.140   4.020
  450SOL     OW 2248   1.737   4.818   2.960
  450SOL    HW1 2249   1.641   4.817   2.931
  450SOL    HW2 2250   1.796   4.808   2.880
  451SOL     OW 2251   1.138   2.489   4.082
  451SOL    HW1 2252   1.080   2.503   4.003
  451SOL    HW2 2253   1.082   2.482   4.165
  452SOL     OW 2254   5.444   6.323   0.495
  452SOL    HW1 2255   5.432   6.422   0.494
  452SOL    HW2 2256   5.394   6.282   0.419
  453SOL     OW 2257   4.289   0.475   6.419
  453SOL    HW1 2258   4.245   0.517   6.499
  453SOL    HW2 2259   4.258   0.380   6.410
  454SOL     OW 2260   6.922   4.498   5.761
  454SOL    HW1 2261   6.834   4.457   5.735
  454SOL    HW2 2262   6.983   4.426   5.795
  455SOL     OW 2263   5.451   2.383   4.640
  455SOL    HW1 2264   5.431   2.467   4.590
  455SOL    HW2 2265   5.511   2.325   4.586
  456SOL     OW 2266   0.148   6.888   3.581
  456SOL    HW1 2267   0.059   6.911   3.620
  456SOL    HW2 2268   0.164   6.789   3.590
  457SOL     OW 2269   1.663   2.641   4.204
  457SOL    HW1 2270   1.655   2.553   4.157
  457SOL    HW2 2271   1.581   2.696   4.188
  458SOL     OW 2272   3.698   6.064   2.851
  458SOL    HW1 2273   3.756   5.992   2.889
  458SOL    HW2 2274   3.623   6.024   2.799
  459SOL     OW 2275   1.749   0.124   5.745
  459SOL    HW1 2276   1.727   0.045   5.688
  459SOL    HW2 2277   1.786   0.094   5.832
  460SOL     OW 2278   2.784   6.885   4.903
  460SOL    HW1 2279   2.878   6.881   4.936
  460SOL    HW2 2280   2.760   6.979   4.878
  461SOL     OW 2281   6.851   5.927   5.228
  461SOL    HW1 2282   6.951   5.915   5.229
  461SOL    HW2 2283   6.816   5.922   5.321
  462SOL     OW 2284   3.778   3.414   0.058
  462SOL    HW1 2285   3.711   3.357   0.010
  462SOL    HW2 2286   3.809   3.487   7.018
  463SOL     OW 2287   5.574   6.074   3.852
  463SOL    HW1 2288   5.619   6.093   3.764
  463SOL    HW2 2289   5.511   5.997   3.842
  464SOL     OW 2290   3.055   1.290   5.282
  464SOL    HW1 2291   3.122   1.357   5.315
  464SOL    HW2 2292   2.981   1.281   5.349
  465SOL     OW 2293   0.591   2.653   0.242
  465SOL    HW1 2294   0.497   2.647   0.207
  465SOL    HW2 2295   0.614   2.749   0.260
  466SOL     OW 2296   1.881   6.303   3.986
  466SOL    HW1 2297   1.902   6.218   3.939
  466SOL    HW2 2298   1.966   6.355   4.000
  467SOL     OW 2299   2.028   1.262   0.732
  467SOL    HW1 2300   1.995   1.355   0.748
  467SOL    HW2 2301   2.126   1.258   0.750
  468SOL     OW 2302   4.041   6.184   5.625
  468SOL    HW1 2303   3.990   6.233   5.696
  468SOL    HW2 2304   4.089   6.250   5.567
  469SOL     OW 2305   2.908   3.634   6.526
  469SOL    HW1 2306   2.931   3.537   6.520
  469SOL    HW2 2307   2.836   3.646   6.594
  470SOL     OW 2308   4.883   6.780   1.237
  470SOL    HW1 2309   4.970   6.734   1.248
  470SOL    HW2 2310   4.811   6.728   1.283
  471SOL     OW 2311   2.448   2.573   3.835
  471SOL    HW1 2312   2.471   2.515   3.756
  471SOL    HW2 2313   2.518   2.562   3.905
  472SOL     OW 2314   4.155   3.950   6.351
  472SOL    HW1 2315   4.082   3.963   6.417
  472SOL    HW2 2316   4.193   4.038   6.324
  473SOL     OW 2317   1.227   2.526   2.618
  473SOL    HW1 2318   1.230   2.451   2.684
  473SOL    HW2 2319   1.191   2.493   2.531
  474SOL     OW 2320   5.467   5.675   4.557
  474SOL    HW1 2321   5.490   5.693   4.652
  474SOL    HW2 2322   5.377   5.631   4.552
  475SOL     OW 2323   6.034   2.024   6.530
  475SOL    HW1 2324   5.990   2.098   6.581
  475SOL    HW2 2325   6.020   1.938   6.578
  476SOL     OW 2326   0.699   3.550   2.626
  476SOL    HW1 2327   0.681   3.583   2.718
  476SOL    HW2 2328   0.771   3.480   2.629
  477SOL     OW 2329   2.670   6.459   3.246
  477SOL    HW1 2330   2.756   6.482   3.199
  477SOL    HW2 2331   2.655   6.361   3.242
  478SOL     OW 2332   3.577   6.552   2.586
  478SOL    HW1 2333   3.647   6.483   2.563
  478SOL    HW2 2334   3.527   6.577   2.504
  479SOL     OW 2335   3.816   2.598   6.091
  479SOL    HW1 2336   3.758   2.548   6.156
  479SOL    HW2 2337   3.809   2.555   6.001
  480SOL     OW 2338   2.726   1.095   0.470
  480SOL    HW1 2339   2.660   1.130   0.403
  480SOL    HW2 2340   2.777   1.019   0.429
  481SOL     OW 2341   1.958   6.522   1.537
  481SOL    HW1 2342   2.040   6.465   1.535
  481SOL    HW2 2343   1.933   6.547   1.443
  482SOL     OW 2344   4.282   4.657   2.365
  482SOL    HW1 2345   4.189   4.688   2.347
  482SOL    HW2 2346   4.284   4.557   2.367
  483SOL     OW 2347   6.972   2.813   3.063
  483SOL    HW1 2348   6.974   2.888   2.996
  483SOL    HW2 2349   6.887   2.818   3.115
  484SOL     OW 2350   1.842   3.305   5.377
  484SOL    HW1 2351   1.940   3.314   5.361
  484SOL    HW2 2352   1.804   3.237   5.314
  485SOL     OW 2353   3.848   4.808   2.485
  485SOL    HW1 2354   3.760   4.824   2.440
  485SOL    HW2 2355   3.918   4.794   2.415
  486SOL     OW 2356   6.265   0.710   0.128
  486SOL    HW1 2357   6.216   0.680   0.210
  486SOL    HW2 2358   6.328   0.638   0.099
  487SOL     OW 2359   0.669   0.791   3.173
  487SOL    HW1 2360   0.758   0.746   3.163
  487SOL    HW2 2361   0.614   0.743   3.241
  488SOL     OW 2362   1.358   1.020   2.091
  488SOL    HW1 2363   1.263   0.987   2.091
  488SOL    HW2 2364   1.392   1.023   1.997
  489SOL     OW 2365   4.497   5.654   5.300
  489SOL    HW1 2366   4.504   5.700   5.388
  489SOL    HW2 2367   4.414   5.685   5.253
  490SOL     OW 2368   0.721   6.340   2.916
  490SOL    HW1 2369   0.783   6.291   2.854
  490SOL    HW2 2370   0.773   6.378   2.992
  491SOL     OW 2371   1.215   3.828   1.659
  491SOL    HW1 2372   1.204   3.883   1.741
  491SOL    HW2 2373   1.299   3.855   1.612
  492SOL     OW 2374   1.511   0.379   5.506
  492SOL    HW1 2375   1.519   0.450   5.435
  492SOL    HW2 2376   1.575   0.305   5.486
  493SOL     OW 2377   3.995   6.538   5.638
  493SOL    HW1 2378   4.064   6.512   5.706
  493SOL    HW2 2379   3.959   6.628   5.659
  494SOL     OW 2380   0.711   6.693   6.847
  494SOL    HW1 2381   0.637   6.683   6.780
  494SOL    HW2 2382   0.799   6.679   6.801
  495SOL     OW 2383   4.186   5.758   3.766
  495SOL    HW1 2384   4.102   5.728   3.720
  495SOL    HW2 2385   4.180   5.857   3.784
  496SOL     OW 2386   5.137   3.092   2.066
  496SOL    HW1 2387   5.043   3.117   2.045
  496SOL    HW2 2388   5.180   3.166   2.119
  497SOL     OW 2389   3.037   1.876   4.573
  497SOL    HW1 2390   3.027   1.797   4.513
  497SOL    HW2 2391   3.002   1.853   4.664
  498SOL     OW 2392   0.793   4.646   1.692
  498SOL    HW1 2393   0.770   4.641   1.789
  498SOL    HW2 2394   0.711   4.632   1.637
  499SOL     OW 2395   1.641   5.560   4.326
  499SOL    HW1 2396   1.712   5.622   4.358
  499SOL    HW2 2397   1.674   5.508   4.248
  500SOL     OW 2398   0.161   1.678   5.850
  500SOL    HW1 2399   0.243   1.647   5.898
  500SOL    HW2 2400   0.122   1.603   5.798
  501SOL     OW 2401   3.511   0.228   1.080
  501SOL    HW1 2402   3.469   0.211   0.990
  501SOL    HW2 2403   3.543   0.142   1.118
  502SOL     OW 2404   0.834   3.624   6.071
  502SOL    HW1 2405   0.870   3.544   6.118
  502SOL    HW2 2406   0.910   3.681   6.039
  503SOL     OW 2407   7.000   4.941   6.670
  503SOL    HW1 2408   0.002   5.014   6.735
  503SOL    HW2 2409   0.049   4.940   6.597
  504SOL     OW 2410   0.859   5.322   2.154
  504SOL    HW1 2411   0.944   5.362   2.188
  504SOL    HW2 2412   0.852   5.228   2.185
  505SOL     OW 2413   2.736   5.815   4.743
  505SOL    HW1 2414   2.821   5.865   4.762
  505SOL    HW2 2415   2.717   5.818   4.645
  506SOL     OW 2416   3.271   5.123   4.031
  506SOL    HW1 2417   3.183   5.081   4.009
  506SOL    HW2 2418   3.279   5.211   3.983
  507SOL     OW 2419   3.215   0.217   3.642
  507SOL    HW1 2420   3.282   0.263   3.584
  507SOL    HW2 2421   3.141   0.180   3.586
  508SOL     OW 2422   0.289   3.362   2.624
  508SOL    HW1 2423   0.346   3.323   2.552
  508SOL    HW2 2424   0.193   3.360   2.594
  509SOL     OW 2425   2.914   1.050   1.544
  509SOL    HW1 2426   2.884   1.039   1.449
  509SOL    HW2 2427   2.941   0.961   1.581
  510SOL     OW 2428   6.115   4.340   6.774
  510SOL    HW1 2429   6.163   4.262   6.814
  510SOL    HW2 2430   6.060   4.309   6.696
  511SOL     OW 2431   0.763   2.274   5.869
  511SOL    HW1 2432   0.853   2.231   5.861
  511SOL    HW2 2433   0.739   2.283   5.966
  512SOL     OW 2434   0.144   2.412   6.575
  512SOL    HW1 2435   0.048   2.384   6.573
  512SOL    HW2 2436   0.196   2.357   6.510
  513SOL     OW 2437   5.868   6.469   3.229
  513SOL    HW1 2438   5.852   6.423   3.316
  513SOL    HW2 2439   5.881   6.400   3.157
  514SOL     OW 2440   6.438   0.800   4.582
  514SOL    HW1 2441   6.379   0.722   4.561
  514SOL    HW2 2442   6.448   0.808   4.682
  515SOL     OW 2443   1.403   6.628   1.017
  515SOL    HW1 2444   1.419   6.577   0.932
  515SOL    HW2 2445   1.489   6.668   1.049
  516SOL     OW 2446   2.887   4.778   2.167
  516SOL    HW1 2447   2.850   4.697   2.121
  516SOL    HW2 2448   2.975   4.802   2.126
  517SOL     OW 2449   3.923   5.187   1.462
  517SOL    HW1 2450   3.893   5.222   1.374
  517SOL    HW2 2451   3.971   5.258   1.512
  518SOL     OW 2452   2.425   1.766   3.577
  518SOL    HW1 2453   2.461   1.859   3.572
  518SOL    HW2 2454   2.335   1.767   3.620
  519SOL     OW 2455   0.721   6.411   4.098
  519SOL    HW1 2456   0.673   6.325   4.081
  519SOL    HW2 2457   0.806   6.392   4.147
  520SOL     OW 2458   6.009   3.903   6.738
  520SOL    HW1 2459   6.104   3.872   6.749
  520SOL    HW2 2460   5.957   3.880   6.820
  521SOL     OW 2461   6.232   6.208   4.828
  521SOL    HW1 2462   6.259   6.220   4.733
  521SOL    HW2 2463   6.141   6.247   4.842
  522SOL     OW 2464   3.415   3.188   4.249
  522SOL    HW1 2465   3.347   3.260   4.264
  522SOL    HW2 2466   3.500   3.212   4.295
  523SOL     OW 2467   0.930   5.945   1.838
  523SOL    HW1 2468   0.979   5.904   1.760
  523SOL    HW2 2469   0.853   5.887   1.862
  524SOL     OW 2470   0.325   1.976   2.195
  524SOL    HW1 2471   0.385   1.991   2.117
  524SOL    HW2 2472   0.248   1.919   2.167
  525SOL     OW 2473   2.000   4.216   5.939
  525SOL    HW1 2474   1.974   4.222   5.843
  525SOL    HW2 2475   2.057   4.135   5.954
  526SOL     OW 2476   3.424   5.853   3.955
  526SOL    HW1 2477   3.498   5.804   4.001
  526SOL    HW2 2478   3.378   5.913   4.020
  527SOL     OW 2479   6.165   2.904   0.772
  527SOL    HW1 2480   6.071   2.872   0.781
  527SOL    HW2 2481   6.165   3.000   0.745
  528SOL     OW 2482   1.344   2.795   3.760
  528SOL    HW1 2483   1.327   2.880   3.709
  528SOL    HW2 2484   1.441   2.790   3.784
  529SOL     OW 2485   1.484   5.559   4.825
  529SOL    HW1 2486   1.551   5.534   4.756
  529SOL    HW2 2487   1.392   5.552   4.787
  530SOL     OW 2488   3.931   3.578   4.026
  530SOL    HW1 2489   3.899   3.486   4.006
  530SOL    HW2 2490   3.871   3.621   4.094
  531SOL     OW 2491   0.474   2.134   2.892
  531SOL    HW1 2492   0.479   2.135   2.793
  531SOL    HW2 2493   0.511   2.048   2.927
  532SOL     OW 2494   0.972   3.143   0.135
  532SOL    HW1 2495   0.919   3.213   0.086
  532SOL    HW2 2496   1.064   3.178   0.153
  533SOL     OW 2497   4.111   6.942   4.171
  533SOL    HW1 2498   4.138   6.892   4.089
  533SOL    HW2 2499   4.017   6.918   4.196
  534SOL     OW 2500   5.293   6.516   2.376
  534SOL    HW1 2501   5.333   6.439   2.427
  534SOL    HW2 2502   5.350   6.597   2.388
  535SOL     OW 2503   6.864   3.596   4.386
  535SOL    HW1 2504   6.767   3.593   4.411
  535SOL    HW2 2505   6.900   3.503   4.381
  536SOL     OW 2506   6.132   4.633   2.847
  536SOL    HW1 2507   6.232   4.632   2.846
  536SOL    HW2 2508   6.098   4.716   2.803
  537SOL     OW 2509   2.352   6.345   4.807
  537SOL    HW1 2510   2.275   6.349   4.743
  537SOL    HW2 2511   2.418   6.416   4.785
  538SOL     OW 2512   1.390   4.917   4.190
  538SOL    HW1 2513   1.392   4.941   4.287
  538SOL    HW2 2514   1.338   4.832   4.178
  539SOL     OW 2515   2.187   5.592   1.394
  539SOL    HW1 2516   2.263   5.653   1.372
  539SOL    HW2 2517   2.219   5.519   1.454
  540SOL     OW 2518   1.716   1.781   2.710
  540SOL    HW1 2519   1.765   1.818   2.632
  540SOL    HW2 2520   1.648   1.847   2.742
  541SOL     OW 2521   5.148   5.125   3.494
  541SOL    HW1 2522   5.104   5.065   3.561
  541SOL    HW2 2523   5.084   5.145   3.420
  542SOL     OW 2524   5.546   5.644   6.987
  542SOL    HW1 2525   5.502   5.555   6.977
  542SOL    HW2 2526   5.644   5.635   6.969
  543SOL     OW 2527   0.507   2.980   4.605
  543SOL    HW1 2528   0.503   2.898   4.663
  543SOL    HW2 2529   0.539   2.954   4.514
  544SOL     OW 2530   1.845   5.242   0.362
  544SOL    HW1 2531   1.888   5.204   0.281
  544SOL    HW2 2532   1.916   5.270   0.427
  545SOL     OW 2533   3.113   1.522   1.580
  545SOL    HW1 2534   3.152   1.537   1.671
  545SOL    HW2 2535   3.183   1.541   1.511
  546SOL     OW 2536   2.384   3.165   0.801
  546SOL    HW1 2537   2.318   3.091   0.790
  546SOL    HW2 2538   2.359   3.222   0.878
  547SOL     OW 2539   3.507   1.236   0.330
  547SOL    HW1 2540   3.606   1.221   0.324
  547SOL    HW2 2541   3.459   1.156   0.296
  548SOL     OW 2542   3.530   3.527   2.622
  548SOL    HW1 2543   3.596   3.568   2.559
  548SOL    HW2 2544   3.564   3.536   2.716
  549SOL     OW 2545   5.738   3.297   0.888
  549SOL    HW1 2546   5.708   3.223   0.829
  549SOL    HW2 2547   5.666   3.318   0.954
  550SOL     OW 2548   0.955   5.675   3.865
  550SOL    HW1 2549   0.922   5.642   3.777
  550SOL    HW2 2550   1.046   5.716   3.854
  551SOL     OW 2551   1.510   0.518   1.821
  551SOL    HW1 2552   1.431   0.476   1.778
  551SOL    HW2 2553   1.567   0.561   1.750
  552SOL     OW 2554   6.123   4.613   6.865
  552SOL    HW1 2555   6.119   4.515   6.843
  552SOL    HW2 2556   6.082   4.665   6.790
  553SOL     OW 2557   2.955   6.005   3.249
  553SOL    HW1 2558   2.986   6.017   3.344
  553SOL    HW2 2559   3.033   5.988   3.190
  554SOL     OW 2560   6.538   6.452   6.973
  554SOL    HW1 2561   6.606   6.485   0.019
  554SOL    HW2 2562   6.577   6.454   6.881
  555SOL     OW 2563   2.310   4.700   4.850
  555SOL    HW1 2564   2.311   4.612   4.897
  555SOL    HW2 2565   2.403   4.722   4.820
  556SOL     OW 2566   3.956   2.190   3.982
  556SOL    HW1 2567   3.937   2.158   4.075
  556SOL    HW2 2568   4.027   2.260   3.985
  557SOL     OW 2569   0.367   5.430   0.757
  557SOL    HW1 2570   0.390   5.487   0.836
  557SOL    HW2 2571   0.271   5.445   0.732
  558SOL     OW 2572   2.855   3.491   4.024
  558SOL    HW1 2573   2.923   3.431   3.983
  558SOL    HW2 2574   2.813   3.445   4.102
  559SOL     OW 2575   6.835   5.689   0.155
  559SOL    HW1 2576   6.836   5.785   0.184
  559SOL    HW2 2577   6.861   5.683   0.058
  560SOL     OW 2578   5.546   4.522   5.555
  560SOL    HW1 2579   5.629   4.546   5.606
  560SOL    HW2 2580   5.535   4.423   5.555
  561SOL     OW 2581   0.793   1.648   1.332
  561SOL    HW1 2582   0.729   1.571   1.341
  561SOL    HW2 2583   0.767   1.704   1.253
  562SOL     OW 2584   4.790   0.711   6.087
  562SOL    HW1 2585   4.803   0.640   6.156
  562SOL    HW2 2586   4.850   0.693   6.009
  563SOL     OW 2587   2.492   0.377   3.767
  563SOL    HW1 2588   2.506   0.442   3.693
  563SOL    HW2 2589   2.474   0.427   3.852
  564SOL     OW 2590   1.325   1.939   6.804
  564SOL    HW1 2591   1.279   1.987   6.879
  564SOL    HW2 2592   1.274   1.856   6.782
  565SOL     OW 2593   2.695   3.006   5.685
  565SOL    HW1 2594   2.679   3.070   5.610
  565SOL    HW2 2595   2.621   2.939   5.687
  566SOL     OW 2596   6.772   5.187   3.278
  566SOL    HW1 2597   6.804   5.183   3.373
  566SOL    HW2 2598   6.847   5.164   3.216
  567SOL     OW 2599   2.760   2.830   1.473
  567SOL    HW1 2600   2.836   2.893   1.489
  567SOL    HW2 2601   2.792   2.736   1.478
  568SOL     OW 2602   5.289   0.670   0.314
  568SOL    HW1 2603   5.274   0.580   0.273
  568SOL    HW2 2604   5.215   0.691   0.378
  569SOL     OW 2605   1.634   2.957   6.514
  569SOL    HW1 2606   1.585   2.885   6.564
  569SOL    HW2 2607   1.589   2.972   6.426
  570SOL     OW 2608   3.696   6.067   6.701
  570SOL    HW1 2609   3.698   6.035   6.606
  570SOL    HW2 2610   3.641   6.004   6.756
  571SOL     OW 2611   3.362   0.036   2.121
  571SOL    HW1 2612   3.417   0.119   2.113
  571SOL    HW2 2613   3.383   7.010   2.207
  572SOL     OW 2614   2.603   4.651   5.552
  572SOL    HW1 2615   2.544   4.660   5.472
  572SOL    HW2 2616   2.692   4.694   5.533
  573SOL     OW 2617   5.431   1.208   5.547
  573SOL    HW1 2618   5.483   1.128   5.575
  573SOL    HW2 2619   5.471   1.248   5.465
  574SOL     OW 2620   3.778   1.925   4.306
  574SOL    HW1 2621   3.740   1.832   4.308
  574SOL    HW2 2622   3.742   1.973   4.226
  575SOL     OW 2623   5.047   4.113   6.973
  575SOL    HW1 2624   5.100   4.086   6.892
  575SOL    HW2 2625   5.092   4.191   7.017
  576SOL     OW 2626   0.850   2.304   2.705
  576SOL    HW1 2627   0.837   2.388   2.758
  576SOL    HW2 2628   0.804   2.312   2.617
  577SOL     OW 2629   1.708   1.420   2.519
  577SOL    HW1 2630   1.773   1.419   2.595
  577SOL    HW2 2631   1.625   1.468   2.546
  578SOL     OW 2632   5.700   6.331   3.962
  578SOL    HW1 2633   5.638   6.382   3.902
  578SOL    HW2 2634   5.672   6.235   3.963
  579SOL     OW 2635   1.834   3.050   3.033
  579SOL    HW1 2636   1.770   2.976   3.010
  579SOL    HW2 2637   1.856   3.101   2.950
  580SOL     OW 2638   5.614   5.529   0.335
  580SOL    HW1 2639   5.703   5.503   0.296
  580SOL    HW2 2640   5.568   5.446   0.367
  581SOL     OW 2641   2.584   3.420   1.256
  581SOL    HW1 2642   2.627   3.480   1.324
  581SOL    HW2 2643   2.634   3.334   1.251
  582SOL     OW 2644   4.424   6.713   1.352
  582SOL    HW1 2645   4.338   6.728   1.400
  582SOL    HW2 2646   4.414   6.739   1.256
  583SOL     OW 2647   3.174   5.818   5.505
  583SOL    HW1 2648   3.103   5.849   5.568
  583SOL    HW2 2649   3.132   5.785   5.421
  584SOL     OW 2650   2.962   4.300   6.456
  584SOL    HW1 2651   3.040   4.363   6.460
  584SOL    HW2 2652   2.979   4.223   6.517
  585SOL     OW 2653   5.488   2.703   6.256
  585SOL    HW1 2654   5.404   2.708   6.202
  585SOL    HW2 2655   5.530   2.793   6.263
  586SOL     OW 2656   3.766   1.108   6.015
  586SOL    HW1 2657   3.842   1.171   5.997
  586SOL    HW2 2658   3.728   1.126   6.106
  587SOL     OW 2659   4.443   1.836   5.388
  587SOL    HW1 2660   4.471   1.915   5.333
  587SOL    HW2 2661   4.419   1.760   5.327
  588SOL     OW 2662   1.407   4.524   2.154
  588SOL    HW1 2663   1.320   4.548   2.112
  588SOL    HW2 2664   1.451   4.607   2.188
  589SOL     OW 2665   3.297   4.667   1.400
  589SOL    HW1 2666   3.248   4.749   1.431
  589SOL    HW2 2667   3.266   4.643   1.308
  590SOL     OW 2668   4.932   3.013   3.604
  590SOL    HW1 2669   5.027   3.033   3.578
  590SOL    HW2 2670   4.895   2.944   3.542
  591SOL     OW 2671   2.995   5.304   3.925
  591SOL    HW1 2672   2.984   5.291   4.023
  591SOL    HW2 2673   3.087   5.335   3.904
  592SOL     OW 2674   3.786   1.071   0.964
  592SOL    HW1 2675   3.878   1.108   0.949
  592SOL    HW2 2676   3.780   0.979   0.926
  593SOL     OW 2677   4.825   2.586   3.998
  593SOL    HW1 2678   4.803   2.538   3.913
  593SOL    HW2 2679   4.876   2.669   3.977
  594SOL     OW 2680   6.577   2.041   0.174
  594SOL    HW1 2681   6.636   2.118   0.200
  594SOL    HW2 2682   6.528   2.064   0.090
  595SOL     OW 2683   5.750   6.927   3.487
  595SOL    HW1 2684   5.754   6.840   3.538
  595SOL    HW2 2685   5.842   6.955   3.462
  596SOL     OW 2686   1.084   5.019   3.314
  596SOL    HW1 2687   1.010   4.995   3.378
  596SOL    HW2 2688   1.045   5.058   3.231
  597SOL     OW 2689   3.281   0.949   6.868
  597SOL    HW1 2690   3.296   0.900   6.782
  597SOL    HW2 2691   3.308   0.891   6.945
  598SOL     OW 2692   4.239   4.977   5.342
  598SOL    HW1 2693   4.323   5.024   5.315
  598SOL    HW2 2694   4.207   4.921   5.266
  599SOL     OW 2695   2.355   5.897   2.224
  599SOL    HW1 2696   2.379   5.807   2.189
  599SOL    HW2 2697   2.410   5.917   2.305
  600SOL     OW 2698   0.122   1.340   6.623
  600SOL    HW1 2699   0.201   1.297   6.667
  600SOL    HW2 2700   0.123   1.320   6.525
  601SOL     OW 2701   2.215   0.513   4.403
  601SOL    HW1 2702   2.197   0.594   4.347
  601SOL    HW2 2703   2.136   0.452   4.399
  602SOL     OW 2704   1.854   2.582   6.379
  602SOL    HW1 2705   1.917   2.652   6.414
  602SOL    HW2 2706   1.903   2.497   6.365
  603SOL     OW 2707   2.254   2.257   4.903
  603SOL    HW1 2708   2.350   2.282   4.888
  603SOL    HW2 2709   2.232   2.175   4.851
  604SOL     OW 2710   1.335   3.086   1.716
  604SOL    HW1 2711   1.269   3.011   1.707
  604SOL    HW2 2712   1.287   3.173   1.712
  605SOL     OW 2713   6.871   6.851   1.621
  605SOL    HW1 2714   6.797   6.910   1.653
  605SOL    HW2 2715   6.896   6.876   1.528
  606SOL     OW 2716   4.360   0.208   6.620
  606SOL    HW1 2717   4.267   0.210   6.581
  606SOL    HW2 2718   4.380   0.296   6.663
  607SOL     OW 2719   6.511   6.434   5.998
  607SOL    HW1 2720   6.601   6.406   6.029
  607SOL    HW2 2721   6.496   6.531   6.020
  608SOL     OW 2722   3.185   6.145   6.157
  608SOL    HW1 2723   3.200   6.064   6.100
  608SOL    HW2 2724   3.146   6.118   6.244
  609SOL     OW 2725   3.963   3.032   3.349
  609SOL    HW1 2726   3.907   2.970   3.404
  609SOL    HW2 2727   3.981   3.115   3.401
  610SOL     OW 2728   5.429   3.698   1.907
  610SOL    HW1 2729   5.506   3.636   1.896
  610SOL    HW2 2730   5.435   3.744   1.995
  611SOL     OW 2731   3.592   6.685   0.775
  611SOL    HW1 2732   3.508   6.736   0.759
  611SOL    HW2 2733   3.652   6.737   0.836
  612SOL     OW 2734   4.285   6.847   5.884
  612SOL    HW1 2735   4.338   6.913   5.832
  612SOL    HW2 2736   4.257   6.887   5.971
  613SOL     OW 2737   3.780   6.446   5.468
  613SOL    HW1 2738   3.853   6.445   5.536
  613SOL    HW2 2739   3.808   6.501   5.389
  614SOL     OW 2740   4.731   5.160   1.369
  614SOL    HW1 2741   4.668   5.203   1.434
  614SOL    HW2 2742   4.794   5.100   1.419
  615SOL     OW 2743   6.190   2.533   1.901
  615SOL    HW1 2744   6.108   2.557   1.850
  615SOL    HW2 2745   6.171   2.539   1.999
  616SOL     OW 2746   6.790   2.009   3.888
  616SOL    HW1 2747   6.841   1.993   3.804
  616SOL    HW2 2748   6.825   2.090   3.934
  617SOL     OW 2749   6.332   4.390   6.269
  617SOL    HW1 2750   6.281   4.428   6.346
  617SOL    HW2 2751   6.332   4.455   6.193
  618SOL     OW 2752   6.364   2.402   6.668
  618SOL    HW1 2753   6.421   2.418   6.748
  618SOL    HW2 2754   6.416   2.423   6.585
  619SOL     OW 2755   4.619   1.251   6.856
  619SOL    HW1 2756   4.606   1.261   6.757
  619SOL    HW2 2757   4.534   1.274   6.903
  620SOL     OW 2758   4.323   2.999   1.486
  620SOL    HW1 2759   4.301   2.940   1.408
  620SOL    HW2 2760   4.240   3.018   1.538
  621SOL     OW 2761   3.142   6.063   6.674
  621SOL    HW1 2762   3.170   6.133   6.740
  621SOL    HW2 2763   3.104   5.984   6.722
  622SOL     OW 2764   1.638   0.779   5.045
  622SOL    HW1 2765   1.621   0.876   5.028
  622SOL    HW2 2766   1.563   0.725   5.007
  623SOL     OW 2767   0.056   5.891   6.112
  623SOL    HW1 2768   0.042   5.970   6.052
  623SOL    HW2 2769   0.146   5.899   6.156
  624SOL     OW 2770   0.031   2.547   1.306
  624SOL    HW1 2771   6.963   2.503   1.318
  624SOL    HW2 2772   0.086   2.495   1.241
  625SOL     OW 2773   1.476   1.781   2.372
  625SOL    HW1 2774   1.447   1.686   2.373
  625SOL    HW2 2775   1.484   1.813   2.278
  626SOL     OW 2776   1.628   5.672   3.078
  626SOL    HW1 2777   1.652   5.670   2.981
  626SOL    HW2 2778   1.546   5.617   3.093
  627SOL     OW 2779   5.708   6.542   0.111
  627SOL    HW1 2780   5.776   6.556   0.039
  627SOL    HW2 2781   5.714   6.448   0.145
  628SOL     OW 2782   5.542   5.455   5.480
  628SOL    HW1 2783   5.545   5.513   5.561
  628SOL    HW2 2784   5.547   5.512   5.398
  629SOL     OW 2785   0.310   0.610   6.364
  629SOL    HW1 2786   0.351   0.677   6.425
  629SOL    HW2 2787   0.358   0.610   6.276
  630SOL     OW 2788   0.609   1.541   1.083
  630SOL    HW1 2789   0.592   1.625   1.032
  630SOL    HW2 2790   0.612   1.464   1.020
  631SOL     OW 2791   4.047   0.445   5.016
  631SOL    HW1 2792   4.070   0.470   5.110
  631SOL    HW2 2793   3.950   0.422   5.010
  632SOL     OW 2794   3.734   1.486   1.295
  632SOL    HW1 2795   3.644   1.501   1.253
  632SOL    HW2 2796   3.745   1.546   1.373
  633SOL     OW 2797   3.320   3.532   7.002
  633SOL    HW1 2798   3.301   3.528   6.904
  633SOL    HW2 2799   3.321   3.439   0.019
  634SOL     OW 2800   3.825   3.028   2.276
  634SOL    HW1 2801   3.737   3.074   2.262
  634SOL    HW2 2802   3.834   3.002   2.372
  635SOL     OW 2803   4.677   5.306   0.986
  635SOL    HW1 2804   4.724   5.307   0.898
  635SOL    HW2 2805   4.671   5.213   1.020
  636SOL     OW 2806   2.621   6.483   0.202
  636SOL    HW1 2807   2.704   6.434   0.175
  636SOL    HW2 2808   2.551   6.473   0.131
  637SOL     OW 2809   0.129   3.100   3.045
  637SOL    HW1 2810   0.143   3.199   3.053
  637SOL    HW2 2811   0.049   3.081   2.990
  638SOL     OW 2812   5.718   2.136   4.193
  638SOL    HW1 2813   5.763   2.128   4.104
  638SOL    HW2 2814   5.619   2.132   4.180
  639SOL     OW 2815   4.843   3.780   3.239
  639SOL    HW1 2816   4.876   3.736   3.155
  639SOL    HW2 2817   4.918   3.787   3.305
  640SOL     OW 2818   0.571   5.613   4.080
  640SOL    HW1 2819   0.667   5.587   4.091
  640SOL    HW2 2820   0.565   5.712   4.067
  641SOL     OW 2821   6.957   5.098   4.414
  641SOL    HW1 2822   6.945   5.033   4.489
  641SOL    HW2 2823   6.904   5.068   4.335
  642SOL     OW 2824   6.785   2.807   4.521
  642SOL    HW1 2825   6.690   2.825   4.545
  642SOL    HW2 2826   6.830   2.759   4.596
  643SOL     OW 2827   6.010   5.338   5.249
  643SOL    HW1 2828   5.937   5.369   5.310
  643SOL    HW2 2829   6.021   5.403   5.174
  644SOL     OW 2830   1.308   6.355   4.052
  644SOL    HW1 2831   1.348   6.382   3.963
  644SOL    HW2 2832   1.381   6.319   4.110
  645SOL     OW 2833   4.116   0.581   4.568
  645SOL    HW1 2834   4.107   0.665   4.514
  645SOL    HW2 2835   4.066   0.591   4.654
  646SOL     OW 2836   3.490   0.918   4.668
  646SOL    HW1 2837   3.539   0.873   4.593
  646SOL    HW2 2838   3.452   0.849   4.729
  647SOL     OW 2839   5.543   1.305   5.308
  647SOL    HW1 2840   5.624   1.343   5.263
  647SOL    HW2 2841   5.508   1.228   5.255
  648SOL     OW 2842   0.696   3.895   3.843
  648SOL    HW1 2843   0.622   3.961   3.833
  648SOL    HW2 2844   0.704   3.840   3.759
  649SOL     OW 2845   2.963   3.945   0.751
  649SOL    HW1 2846   2.909   3.861   0.755
  649SOL    HW2 2847   2.924   4.006   0.682
  650SOL     OW 2848   5.790   4.248   0.201
  650SOL    HW1 2849   5.890   4.242   0.203
  650SOL    HW2 2850   5.756   4.216   0.113
  651SOL     OW 2851   0.465   6.220   6.069
  651SOL    HW1 2852   0.538   6.282   6.098
  651SOL    HW2 2853   0.409   6.195   6.148
  652SOL     OW 2854   4.610   0.616   3.362
  652SOL    HW1 2855   4.609   0.517   3.345
  652SOL    HW2 2856   4.591   0.634   3.458
  653SOL     OW 2857   1.006   5.609   6.035
  653SOL    HW1 2858   1.012   5.533   6.100
  653SOL    HW2 2859   0.959   5.578   5.952
  654SOL     OW 2860   0.534   4.541   6.147
  654SOL    HW1 2861   0.575   4.613   6.091
  654SOL    HW2 2862   0.459   4.579   6.201
  655SOL     OW 2863   0.471   5.783   1.750
  655SOL    HW1 2864   0.403   5.713   1.728
  655SOL    HW2 2865   0.524   5.806   1.669
  656SOL     OW 2866   1.935   5.917   1.193
  656SOL    HW1 2867   1.950   5.833   1.246
  656SOL    HW2 2868   1.845   5.955   1.215
  657SOL     OW 2869   2.273   3.631   1.662
  657SOL    HW1 2870   2.302   3.726   1.676
  657SOL    HW2 2871   2.319   3.572   1.728
  658SOL     OW 2872   2.970   3.917   6.901
  658SOL    HW1 2873   2.909   3.962   6.836
  658SOL    HW2 2874   2.958   3.956   6.992
  659SOL     OW 2875   1.512   5.627   5.503
  659SOL    HW1 2876   1.556   5.590   5.421
  659SOL    HW2 2877   1.555   5.587   5.585
  660SOL     OW 2878   5.748   3.571   2.768
  660SOL    HW1 2879   5.748   3.650   2.706
  660SOL    HW2 2880   5.838   3.528   2.766
  661SOL     OW 2881   4.814   4.937   3.420
  661SOL    HW1 2882   4.827   5.008   3.489
  661SOL    HW2 2883   4.807   4.980   3.330
  662SOL     OW 2884   3.764   0.794   4.648
  662SOL    HW1 2885   3.816   0.866   4.693
  662SOL    HW2 2886   3.826   0.731   4.602
  663SOL     OW 2887   2.058   3.920   0.061
  663SOL    HW1 2888   2.090   3.938   6.988
  663SOL    HW2 2889   2.008   3.834   0.064
  664SOL     OW 2890   6.979   5.089   6.169
  664SOL    HW1 2891   6.946   5.013   6.113
  664SOL    HW2 2892   6.902   5.146   6.197
  665SOL     OW 2893   4.427   4.596   1.386
  665SOL    HW1 2894   4.464   4.537   1.314
  665SOL    HW2 2895   4.420   4.690   1.351
  666SOL     OW 2896   4.849   1.873   2.961
  666SOL    HW1 2897   4.791   1.814   2.906
  666SOL    HW2 2898   4.850   1.839   3.056
  667SOL     OW 2899   6.120   3.861   4.151
  667SOL    HW1 2900   6.146   3.828   4.060
  667SOL    HW2 2901   6.201   3.889   4.201
  668SOL     OW 2902   5.038   5.983   6.652
  668SOL    HW1 2903   5.132   5.957   6.628
  668SOL    HW2 2904   4.988   5.901   6.683
  669SOL     OW 2905   3.637   6.886   3.968
  669SOL    HW1 2906   3.610   6.800   4.010
  669SOL    HW2 2907   3.597   6.894   3.877
  670SOL     OW 2908   2.536   2.927   0.856
  670SOL    HW1 2909   2.462   2.869   0.891
  670SOL    HW2 2910   2.497   3.010   0.818
  671SOL     OW 2911   2.144   6.020   1.042
  671SOL    HW1 2912   2.104   6.014   0.950
  671SOL    HW2 2913   2.073   5.999   1.109
  672SOL     OW 2914   1.311   5.021   2.128
  672SOL    HW1 2915   1.223   5.016   2.080
  672SOL    HW2 2916   1.381   4.973   2.076
  673SOL     OW 2917   0.446   0.721   1.338
  673SOL    HW1 2918   0.501   0.764   1.266
  673SOL    HW2 2919   0.500   0.717   1.422
  674SOL     OW 2920   0.357   3.101   5.071
  674SOL    HW1 2921   0.326   3.049   5.150
  674SOL    HW2 2922   0.278   3.140   5.023
  675SOL     OW 2923   0.164   0.559   4.072
  675SOL    HW1 2924   0.152   0.658   4.073
  675SOL    HW2 2925   0.075   0.514   4.062
  676SOL     OW 2926   4.141   6.272   2.897
  676SOL    HW1 2927   4.153   6.179   2.932
  676SOL    HW2 2928   4.098   6.268   2.807
  677SOL     OW 2929   6.645   1.636   0.107
  677SOL    HW1 2930   6.562   1.685   0.079
  677SOL    HW2 2931   6.650   1.633   0.207
  678SOL     OW 2932   1.982   1.422   5.078
  678SOL    HW1 2933   1.934   1.396   5.161
  678SOL    HW2 2934   1.915   1.441   5.006
  679SOL     OW 2935   4.335   2.059   4.119
  679SOL    HW1 2936   4.267   2.006   4.068
  679SOL    HW2 2937   4.373   2.131   4.060
  680SOL     OW 2938   5.801   5.367   5.428
  680SOL    HW1 2939   5.857   5.324   5.498
  680SOL    HW2 2940   5.711   5.388   5.465
  681SOL     OW 2941   5.221   5.359   2.026
  681SOL    HW1 2942   5.227   5.412   1.941
  681SOL    HW2 2943   5.298   5.382   2.085
  682SOL     OW 2944   1.297   0.862   0.163
  682SOL    HW1 2945   1.208   0.906   0.153
  682SOL    HW2 2946   1.368   0.920   0.122
  683SOL     OW 2947   3.706   3.204   0.594
  683SOL    HW1 2948   3.684   3.217   0.497
  683SOL    HW2 2949   3.805   3.195   0.605
  684SOL     OW 2950   6.995   1.089   7.010
  684SOL    HW1 2951   0.031   1.010   6.985
  684SOL    HW2 2952   0.005   1.168   6.957
  685SOL     OW 2953   4.892   1.134   4.186
  685SOL    HW1 2954   4.868   1.135   4.088
  685SOL    HW2 2955   4.862   1.219   4.228
  686SOL     OW 2956   5.577   2.490   3.807
  686SOL    HW1 2957   5.519   2.530   3.736
  686SOL    HW2 2958   5.604   2.397   3.780
  687SOL     OW 2959   0.436   2.093   4.961
  687SOL    HW1 2960   0.434   2.081   4.862
  687SOL    HW2 2961   0.348   2.067   5.000
  688SOL     OW 2962   0.702   2.468   0.382
  688SOL    HW1 2963   0.673   2.546   0.326
  688SOL    HW2 2964   0.724   2.390   0.322
  689SOL     OW 2965   6.864   4.021   6.149
  689SOL    HW1 2966   6.872   3.962   6.229
  689SOL    HW2 2967   6.924   4.100   6.159
  690SOL     OW 2968   0.440   4.276   3.149
  690SOL    HW1 2969   0.431   4.334   3.229
  690SOL    HW2 2970   0.512   4.208   3.164
  691SOL     OW 2971   2.459   0.145   6.386
  691SOL    HW1 2972   2.409   0.126   6.470
  691SOL    HW2 2973   2.549   0.181   6.408
  692SOL     OW 2974   3.335   5.862   3.709
  692SOL    HW1 2975   3.413   5.878   3.648
  692SOL    HW2 2976   3.368   5.859   3.804
  693SOL     OW 2977   6.389   0.740   3.326
  693SOL    HW1 2978   6.306   0.740   3.382
  693SOL    HW2 2979   6.457   0.801   3.368
  694SOL     OW 2980   4.388   6.232   2.427
  694SOL    HW1 2981   4.449   6.153   2.432
  694SOL    HW2 2982   4.389   6.269   2.334
  695SOL     OW 2983   4.090   6.226   4.456
  695SOL    HW1 2984   4.113   6.172   4.537
  695SOL    HW2 2985   4.103   6.323   4.476
  696SOL     OW 2986   4.033   4.796   2.296
  696SOL    HW1 2987   3.992   4.757   2.214
  696SOL    HW2 2988   4.080   4.882   2.273
  697SOL     OW 2989   2.156   3.420   3.349
  697SOL    HW1 2990   2.061   3.436   3.372
  697SOL    HW2 2991   2.167   3.418   3.250
  698SOL     OW 2992   5.690   6.300   0.213
  698SOL    HW1 2993   5.692   6.292   0.313
  698SOL    HW2 2994   5.628   6.231   0.176
  699SOL     OW 2995   2.200   3.309   6.501
  699SOL    HW1 2996   2.189   3.362   6.417
  699SOL    HW2 2997   2.114   3.308   6.552
  700SOL     OW 2998   2.752   1.306   3.016
  700SOL    HW1 2999   2.776   1.396   2.979
  700SOL    HW2 3000   2.657   1.307   3.047
  701SOL     OW 3001   5.989   3.695   5.185
  701SOL    HW1 3002   5.991   3.691   5.086
  701SOL    HW2 3003   6.080   3.672   5.221
  702SOL     OW 3004   0.965   6.114   5.513
  702SOL    HW1 3005   0.964   6.197   5.457
  702SOL    HW2 3006   1.002   6.038   5.459
  703SOL     OW 3007   3.892   4.057   6.332
  703SOL    HW1 3008   3.930   4.024   6.246
  703SOL    HW2 3009   3.813   4.001   6.357
  704SOL     OW 3010   1.581   1.836   6.988
  704SOL    HW1 3011   1.545   1.886   6.909
  704SOL    HW2 3012   1.681   1.848   6.991
  705SOL     OW 3013   6.302   5.909   2.576
  705SOL    HW1 3014   6.314   5.866   2.486
  705SOL    HW2 3015   6.262   5.842   2.639
  706SOL     OW 3016   4.432   2.479   4.422
  706SOL    HW1 3017   4.471   2.476   4.330
  706SOL    HW2 3018   4.496   2.524   4.484
  707SOL     OW 3019   5.011   6.585   2.468
  707SOL    HW1 3020   5.108   6.593   2.445
  707SOL    HW2 3021   4.984   6.489   2.465
  708SOL     OW 3022   4.313   6.977   1.286
  708SOL    HW1 3023   4.357   0.001   1.209
  708SOL    HW2 3024   4.339   0.002   1.371
  709SOL     OW 3025   1.152   5.509   1.534
  709SOL    HW1 3026   1.202   5.526   1.619
  709SOL    HW2 3027   1.213   5.467   1.467
  710SOL     OW 3028   4.034   3.130   2.971
  710SOL    HW1 3029   3.978   3.060   3.016
  710SOL    HW2 3030   4.089   3.088   2.899
  711SOL     OW 3031   6.810   2.504   5.333
  711SOL    HW1 3032   6.777   2.558   5.411
  711SOL    HW2 3033   6.833   2.412   5.364
  712SOL     OW 3034   4.004   3.371   1.575
  712SOL    HW1 3035   3.932   3.303   1.558
  712SOL    HW2 3036   3.963   3.462   1.579
  713SOL     OW 3037   4.293   2.240   6.221
  713SOL    HW1 3038   4.328   2.283   6.305
  713SOL    HW2 3039   4.282   2.142   6.236
  714SOL     OW 3040   6.569   4.425   4.085
  714SOL    HW1 3041   6.548   4.405   3.989
  714SOL    HW2 3042   6.487   4.459   4.130
  715SOL     OW 3043   5.591   5.979   0.484
  715SOL    HW1 3044   5.648   6.062   0.477
  715SOL    HW2 3045   5.548   5.976   0.574
  716SOL     OW 3046   0.718   0.153   1.316
  716SOL    HW1 3047   0.669   0.237   1.293
  716SOL    HW2 3048   0.689   0.080   1.253
  717SOL     OW 3049   6.052   4.658   5.505
  717SOL    HW1 3050   6.031   4.568   5.543
  717SOL    HW2 3051   6.015   4.664   5.412
  718SOL     OW 3052   5.269   2.455   6.132
  718SOL    HW1 3053   5.365   2.428   6.123
  718SOL    HW2 3054   5.219   2.427   6.050
  719SOL     OW 3055   6.254   0.812   1.910
  719SOL    HW1 3056   6.193   0.891   1.907
  719SOL    HW2 3057   6.318   0.816   1.833
  720SOL     OW 3058   3.482   0.810   6.179
  720SOL    HW1 3059   3.545   0.822   6.103
  720SOL    HW2 3060   3.393   0.850   6.155
  721SOL     OW 3061   2.653   1.530   4.154
  721SOL    HW1 3062   2.655   1.512   4.252
  721SOL    HW2 3063   2.672   1.627   4.138
  722SOL     OW 3064   2.516   0.771   5.203
  722SOL    HW1 3065   2.578   0.759   5.125
  722SOL    HW2 3066   2.538   0.702   5.272
  723SOL     OW 3067   1.995   4.011   2.963
  723SOL    HW1 3068   1.934   4.051   2.895
  723SOL    HW2 3069   2.028   4.082   3.025
  724SOL     OW 3070   0.949   2.735   4.147
  724SOL    HW1 3071   0.856   2.716   4.116
  724SOL    HW2 3072   1.006   2.755   4.067
  725SOL     OW 3073   2.513   5.705   0.166
  725SOL    HW1 3074   2.497   5.611   0.137
  725SOL    HW2 3075   2.548   5.706   0.259
  726SOL     OW 3076   3.887   5.054   0.949
  726SOL    HW1 3077   3.787   5.053   0.948
  726SOL    HW2 3078   3.920   5.068   1.042
  727SOL     OW 3079   5.616   4.241   5.592
  727SOL    HW1 3080   5.633   4.184   5.673
  727SOL    HW2 3081   5.700   4.248   5.538
  728SOL     OW 3082   6.564   2.929   5.168
  728SOL    HW1 3083   6.664   2.926   5.171
  728SOL    HW2 3084   6.533   3.022   5.190
  729SOL     OW 3085   0.923   2.039   1.048
  729SOL    HW1 3086   0.971   2.090   1.119
  729SOL    HW2 3087   0.963   2.059   0.958
  730SOL     OW 3088   5.854   0.764   4.092
  730SOL    HW1 3089   5.880   0.724   4.004
  730SOL    HW2 3090   5.936   0.785   4.144
  731SOL     OW 3091   5.525   4.225   6.169
  731SOL    HW1 3092   5.461   4.157   6.133
  731SOL    HW2 3093   5.477   4.288   6.230
  732SOL     OW 3094   6.746   2.427   1.633
  732SOL    HW1 3095   6.763   2.430   1.731
  732SOL    HW2 3096   6.681   2.499   1.608
  733SOL     OW 3097   5.651   6.174   5.377
  733SOL    HW1 3098   5.688   6.246   5.318
  733SOL    HW2 3099   5.555   6.192   5.396
  734SOL     OW 3100   0.200   4.827   2.713
  734SOL    HW1 3101   0.175   4.775   2.795
  734SOL    HW2 3102   0.192   4.925   2.732
  735SOL     OW 3103   3.812   2.415   0.297
  735SOL    HW1 3104   3.861   2.502   0.309
  735SOL    HW2 3105   3.808   2.392   0.200
  736SOL     OW 3106   0.315   1.132   3.477
  736SOL    HW1 3107   0.352   1.054   3.527
  736SOL    HW2 3108   0.381   1.161   3.407
  737SOL     OW 3109   4.854   1.987   5.213
  737SOL    HW1 3110   4.798   2.067   5.191
  737SOL    HW2 3111   4.852   1.922   5.137
  738SOL     OW 3112   2.101   4.371   1.506
  738SOL    HW1 3113   2.105   4.438   1.432
  738SOL    HW2 3114   2.040   4.296   1.480
  739SOL     OW 3115   4.339   0.069   4.229
  739SOL    HW1 3116   4.265   0.012   4.191
  739SOL    HW2 3117   4.403   0.093   4.156
  740SOL     OW 3118   6.166   0.547   1.649
  740SOL    HW1 3119   6.184   0.640   1.617
  740SOL    HW2 3120   6.181   0.542   1.748
  741SOL     OW 3121   2.295   6.340   3.322
  741SOL    HW1 3122   2.251   6.324   3.410
  741SOL    HW2 3123   2.232   6.389   3.261
  742SOL     OW 3124   3.052   6.768   2.646
  742SOL    HW1 3125   2.956   6.753   2.667
  742SOL    HW2 3126   3.106   6.691   2.678
  743SOL     OW 3127   0.233   4.166   3.577
  743SOL    HW1 3128   0.162   4.118   3.629
  743SOL    HW2 3129   0.302   4.202   3.640
  744SOL     OW 3130   6.187   0.243   6.794
  744SOL    HW1 3131   6.209   0.247   6.891
  744SOL    HW2 3132   6.087   0.239   6.783
  745SOL     OW 3133   1.122   4.966   4.938
  745SOL    HW1 3134   1.053   4.919   4.993
  745SOL    HW2 3135   1.095   4.964   4.842
  746SOL     OW 3136   6.991   4.298   6.187
  746SOL    HW1 3137   0.017   4.223   6.235
  746SOL    HW2 3138   0.039   4.365   6.157
  747SOL     OW 3139   3.585   6.237   4.465
  747SOL    HW1 3140   3.674   6.245   4.420
  747SOL    HW2 3141   3.556   6.327   4.499
  748SOL     OW 3142   3.695   5.091   2.400
  748SOL    HW1 3143   3.768   5.135   2.348
  748SOL    HW2 3144   3.682   4.997   2.368
  749SOL     OW 3145   5.761   4.466   4.815
  749SOL    HW1 3146   5.809   4.411   4.747
  749SOL    HW2 3147   5.676   4.501   4.777
  750SOL     OW 3148   1.768   1.628   1.144
  750SOL    HW1 3149   1.756   1.709   1.201
  750SOL    HW2 3150   1.694   1.563   1.163
  751SOL     OW 3151   4.184   2.387   6.941
  751SOL    HW1 3152   4.154   2.337   0.002
  751SOL    HW2 3153   4.164   2.485   6.953
  752SOL     OW 3154   3.282   0.785   2.207
  752SOL    HW1 3155   3.313   0.794   2.301
  752SOL    HW2 3156   3.228   0.866   2.182
  753SOL     OW 3157   2.313   3.254   5.277
  753SOL    HW1 3158   2.379   3.329   5.276
  753SOL    HW2 3159   2.360   3.169   5.251
  754SOL     OW 3160   5.334   2.485   5.490
  754SOL    HW1 3161   5.359   2.519   5.400
  754SOL    HW2 3162   5.318   2.386   5.485
  755SOL     OW 3163   1.527   4.522   5.486
  755SOL    HW1 3164   1.564   4.504   5.576
  755SOL    HW2 3165   1.537   4.618   5.463
  756SOL     OW 3166   3.010   6.616   6.603
  756SOL    HW1 3167   2.978   6.709   6.594
  756SOL    HW2 3168   2.934   6.552   6.589
  757SOL     OW 3169   0.663   1.005   3.757
  757SOL    HW1 3170   0.666   0.975   3.662
  757SOL    HW2 3171   0.744   0.973   3.805
  758SOL     OW 3172   3.635   0.232   1.889
  758SOL    HW1 3173   3.594   0.323   1.901
  758SOL    HW2 3174   3.562   0.166   1.868
  759SOL     OW 3175   0.270   1.556   1.388
  759SOL    HW1 3176   0.268   1.492   1.311
  759SOL    HW2 3177   0.286   1.649   1.355
  760SOL     OW 3178   5.647   0.072   5.321
  760SOL    HW1 3179   5.640   6.994   5.338
  760SOL    HW2 3180   5.565   0.103   5.273
  761SOL     OW 3181   5.625   3.597   5.858
  761SOL    HW1 3182   5.630   3.682   5.911
  761SOL    HW2 3183   5.635   3.519   5.919
  762SOL     OW 3184   2.450   0.482   4.992
  762SOL    HW1 3185   2.520   0.513   4.928
  762SOL    HW2 3186   2.448   0.382   4.994
  763SOL     OW 3187   4.046   5.316   6.604
  763SOL    HW1 3188   3.968   5.332   6.543
  763SOL    HW2 3189   4.012   5.294   6.696
  764SOL     OW 3190   5.200   1.351   5.118
  764SOL    HW1 3191   5.179   1.275   5.180
  764SOL    HW2 3192   5.118   1.372   5.064
  765SOL     OW 3193   1.771   6.173   1.363
  765SOL    HW1 3194   1.761   6.150   1.459
  765SOL    HW2 3195   1.724   6.106   1.306
  766SOL     OW 3196   2.535   3.272   6.204
  766SOL    HW1 3197   2.590   3.236   6.280
  766SOL    HW2 3198   2.594   3.285   6.124
  767SOL     OW 3199   5.965   5.336   1.611
  767SOL    HW1 3200   5.953   5.401   1.536
  767SOL    HW2 3201   5.880   5.287   1.628
  768SOL     OW 3202   2.368   6.704   2.419
  768SOL    HW1 3203   2.274   6.681   2.444
  768SOL    HW2 3204   2.371   6.731   2.322
  769SOL     OW 3205   3.029   1.078   5.048
  769SOL    HW1 3206   3.027   1.102   4.951
  769SOL    HW2 3207   3.038   1.162   5.102
  770SOL     OW 3208   1.758   4.549   2.772
  770SOL    HW1 3209   1.723   4.475   2.714
  770SOL    HW2 3210   1.843   4.519   2.815
  771SOL     OW 3211   1.830   5.153   2.444
  771SOL    HW1 3212   1.768   5.232   2.443
  771SOL    HW2 3213   1.922   5.183   2.467
  772SOL     OW 3214   5.876   5.402   0.309
  772SOL    HW1 3215   5.934   5.377   0.387
  772SOL    HW2 3216   5.915   5.482   0.263
  773SOL     OW 3217   0.325   3.728   4.684
  773SOL    HW1 3218   0.262   3.668   4.634
  773SOL    HW2 3219   0.418   3.690   4.678
  774SOL     OW 3220   1.521   1.515   1.183
  774SOL    HW1 3221   1.439   1.571   1.192
  774SOL    HW2 3222   1.502   1.422   1.213
  775SOL     OW 3223   0.470   2.192   3.428
  775SOL    HW1 3224   0.444   2.262   3.495
  775SOL    HW2 3225   0.486   2.234   3.339
  776SOL     OW 3226   1.474   6.415   6.251
  776SOL    HW1 3227   1.469   6.512   6.228
  776SOL    HW2 3228   1.557   6.398   6.304
  777SOL     OW 3229   2.448   4.728   1.848
  777SOL    HW1 3230   2.477   4.650   1.904
  777SOL    HW2 3231   2.526   4.763   1.796
  778SOL     OW 3232   2.255   1.602   1.986
  778SOL    HW1 3233   2.242   1.605   2.085
  778SOL    HW2 3234   2.340   1.555   1.964
  779SOL     OW 3235   6.366   2.792   2.123
  779SOL    HW1 3236   6.277   2.804   2.166
  779SOL    HW2 3237   6.381   2.866   2.057
  780SOL     OW 3238   6.826   3.793   4.204
  780SOL    HW1 3239   6.784   3.880   4.228
  780SOL    HW2 3240   6.836   3.737   4.286
  781SOL     OW 3241   5.799   7.003   0.135
  781SOL    HW1 3242   5.885   0.009   0.179
  781SOL    HW2 3243   5.817   6.937   0.062
  782SOL     OW 3244   1.640   4.334   6.495
  782SOL    HW1 3245   1.671   4.420   6.534
  782SOL    HW2 3246   1.662   4.332   6.397
  783SOL     OW 3247   4.915   4.709   1.403
  783SOL    HW1 3248   4.884   4.771   1.475
  783SOL    HW2 3249   4.862   4.624   1.407
  784SOL     OW 3250   4.617   5.088   0.778
  784SOL    HW1 3251   4.527   5.098   0.737
  784SOL    HW2 3252   4.684   5.139   0.725
  785SOL     OW 3253   0.319   2.643   3.674
  785SOL    HW1 3254   0.306   2.607   3.766
  785SOL    HW2 3255   0.312   2.568   3.607
  786SOL     OW 3256   1.563   1.168   2.439
  786SOL    HW1 3257   1.610   1.243   2.486
  786SOL    HW2 3258   1.478   1.202   2.398
  787SOL     OW 3259   2.448   0.917   6.887
  787SOL    HW1 3260   2.437   0.923   6.788
  787SOL    HW2 3261   2.365   0.880   6.929
  788SOL     OW 3262   3.349   2.994   5.808
  788SOL    HW1 3263   3.368   2.937   5.728
  788SOL    HW2 3264   3.262   2.966   5.849
  789SOL     OW 3265   5.339   4.029   0.633
  789SOL    HW1 3266   5.344   4.099   0.703
  789SOL    HW2 3267   5.428   3.984   0.624
  790SOL     OW 3268   2.189   1.048   3.536
  790SOL    HW1 3269   2.128   1.114   3.492
  790SOL    HW2 3270   2.246   1.096   3.603
  791SOL     OW 3271   2.627   5.918   3.761
  791SOL    HW1 3272   2.582   5.883   3.843
  791SOL    HW2 3273   2.707   5.861   3.741
  792SOL     OW 3274   1.084   0.075   0.828
  792SOL    HW1 3275   1.080   0.169   0.794
  792SOL    HW2 3276   0.994   0.032   0.821
  793SOL     OW 3277   4.756   4.450   3.612
  793SOL    HW1 3278   4.828   4.385   3.636
  793SOL    HW2 3279   4.684   4.449   3.681
  794SOL     OW 3280   3.875   3.612   5.880
  794SOL    HW1 3281   3.785   3.573   5.865
  794SOL    HW2 3282   3.944   3.555   5.836
  795SOL     OW 3283   2.938   6.764   4.294
  795SOL    HW1 3284   2.889   6.738   4.210
  795SOL    HW2 3285   2.994   6.844   4.276
  796SOL     OW 3286   6.780   1.965   6.061
  796SOL    HW1 3287   6.827   1.897   6.005
  796SOL    HW2 3288   6.822   1.969   6.151
  797SOL     OW 3289   5.577   2.921   0.525
  797SOL    HW1 3290   5.599   2.843   0.584
  797SOL    HW2 3291   5.617   2.907   0.435
  798SOL     OW 3292   3.942   0.061   2.525
  798SOL    HW1 3293   4.019   0.028   2.470
  798SOL    HW2 3294   3.974   0.136   2.584
  799SOL     OW 3295   0.281   6.704   5.781
  799SOL    HW1 3296   0.314   6.787   5.735
  799SOL    HW2 3297   0.254   6.727   5.875
  800SOL     OW 3298   5.116   2.459   2.569
  800SOL    HW1 3299   5.166   2.437   2.653
  800SOL    HW2 3300   5.074   2.376   2.533
  801SOL     OW 3301   1.543   3.653   4.076
  801SOL    HW1 3302   1.461   3.656   4.133
  801SOL    HW2 3303   1.624   3.666   4.133
  802SOL     OW 3304   3.722   2.308   1.064
  802SOL    HW1 3305   3.789   2.293   0.992
  802SOL    HW2 3306   3.664   2.386   1.041
  803SOL     OW 3307   0.287   6.318   5.515
  803SOL    HW1 3308   0.354   6.254   5.477
  803SOL    HW2 3309   0.334   6.384   5.574
  804SOL     OW 3310   5.591   5.903   6.465
  804SOL    HW1 3311   5.508   5.955   6.485
  804SOL    HW2 3312   5.585   5.813   6.509
  805SOL     OW 3313   3.143   0.072   4.809
  805SOL    HW1 3314   3.142   0.050   4.712
  805SOL    HW2 3315   3.086   0.006   4.859
  806SOL     OW 3316   4.977   1.206   4.575
  806SOL    HW1 3317   5.014   1.191   4.667
  806SOL    HW2 3318   5.043   1.258   4.521
  807SOL     OW 3319   1.741   1.280   4.619
  807SOL    HW1 3320   1.664   1.334   4.655
  807SOL    HW2 3321   1.790   1.239   4.696
  808SOL     OW 3322   4.579   3.572   6.251
  808SOL    HW1 3323   4.560   3.630   6.171
  808SOL    HW2 3324   4.503   3.507   6.263
  809SOL     OW 3325   0.040   4.892   0.950
  809SOL    HW1 3326   0.006   4.986   0.947
  809SOL    HW2 3327   6.991   4.832   0.990
  810SOL     OW 3328   3.610   3.564   1.220
  810SOL    HW1 3329   3.634   3.636   1.156
  810SOL    HW2 3330   3.548   3.499   1.176
  811SOL     OW 3331   4.629   5.071   4.902
  811SOL    HW1 3332   4.578   5.139   4.849
  811SOL    HW2 3333   4.567   5.024   4.965
  812SOL     OW 3334   0.596   0.812   1.994
  812SOL    HW1 3335   0.523   0.863   1.948
  812SOL    HW2 3336   0.679   0.868   1.998
  813SOL     OW 3337   3.422   6.691   4.793
  813SOL    HW1 3338   3.417   6.606   4.845
  813SOL    HW2 3339   3.404   6.769   4.854
  814SOL     OW 3340   6.501   6.054   2.035
  814SOL    HW1 3341   6.544   6.095   2.115
  814SOL    HW2 3342   6.408   6.025   2.058
  815SOL     OW 3343   0.576   3.777   3.530
  815SOL    HW1 3344   0.534   3.736   3.611
  815SOL    HW2 3345   0.512   3.841   3.488
  816SOL     OW 3346   6.038   6.619   0.585
  816SOL    HW1 3347   6.027   6.622   0.486
  816SOL    HW2 3348   6.089   6.699   0.616
  817SOL     OW 3349   2.242   4.310   1.097
  817SOL    HW1 3350   2.214   4.303   1.002
  817SOL    HW2 3351   2.312   4.381   1.106
  818SOL     OW 3352   6.776   2.657   2.357
  818SOL    HW1 3353   6.802   2.714   2.279
  818SOL    HW2 3354   6.699   2.598   2.331
  819SOL     OW 3355   5.616   2.140   2.865
  819SOL    HW1 3356   5.575   2.081   2.796
  819SOL    HW2 3357   5.698   2.183   2.828
  820SOL     OW 3358   2.948   2.432   5.260
  820SOL    HW1 3359   3.034   2.407   5.215
  820SOL    HW2 3360   2.872   2.410   5.200
  821SOL     OW 3361   1.403   4.590   1.421
  821SOL    HW1 3362   1.481   4.597   1.359
  821SOL    HW2 3363   1.382   4.494   1.438
  822SOL     OW 3364   1.144   4.677   3.831
  822SOL    HW1 3365   1.214   4.614   3.866
  822SOL    HW2 3366   1.186   4.741   3.767
  823SOL     OW 3367   5.066   4.019   6.444
  823SOL    HW1 3368   5.006   3.966   6.504
  823SOL    HW2 3369   5.022   4.031   6.355
  824SOL     OW 3370   5.488   0.824   6.237
  824SOL    HW1 3371   5.541   0.843   6.155
  824SOL    HW2 3372   5.526   0.875   6.314
  825SOL     OW 3373   0.383   4.458   1.117
  825SOL    HW1 3374   0.401   4.367   1.078
  825SOL    HW2 3375   0.384   4.526   1.044
  826SOL     OW 3376   5.139   3.112   5.561
  826SOL    HW1 3377   5.177   3.027   5.525
  826SOL    HW2 3378   5.209   3.184   5.559
  827SOL     OW 3379   2.744   4.720   5.309
  827SOL    HW1 3380   2.820   4.781   5.333
  827SOL    HW2 3381   2.769   4.666   5.229
  828SOL     OW 3382   5.505   6.715   6.655
  828SOL    HW1 3383   5.604   6.723   6.670
  828SOL    HW2 3384   5.484   6.625   6.617
  829SOL     OW 3385   3.842   4.022   3.092
  829SOL    HW1 3386   3.890   3.978   3.168
  829SOL    HW2 3387   3.755   4.059   3.124
  830SOL     OW 3388   4.873   5.373   6.562
  830SOL    HW1 3389   4.886   5.301   6.631
  830SOL    HW2 3390   4.951   5.372   6.499
  831SOL     OW 3391   6.117   0.484   0.422
  831SOL    HW1 3392   6.070   0.468   0.336
  831SOL    HW2 3393   6.211   0.513   0.403
  832SOL     OW 3394   3.230   0.662   1.668
  832SOL    HW1 3395   3.178   0.732   1.717
  832SOL    HW2 3396   3.324   0.662   1.702
  833SOL     OW 3397   1.070   3.787   5.887
  833SOL    HW1 3398   0.974   3.797   5.864
  833SOL    HW2 3399   1.096   3.858   5.953
  834SOL     OW 3400   4.246   3.667   0.667
  834SOL    HW1 3401   4.191   3.585   0.680
  834SOL    HW2 3402   4.262   3.682   0.569
  835SOL     OW 3403   3.503   0.265   5.305
  835SOL    HW1 3404   3.515   0.348   5.359
  835SOL    HW2 3405   3.592   0.224   5.286
  836SOL     OW 3406   3.878   6.076   6.183
  836SOL    HW1 3407   3.944   6.139   6.142
  836SOL    HW2 3408   3.867   5.996   6.124
  837SOL     OW 3409   5.626   0.597   0.682
  837SOL    HW1 3410   5.579   0.559   0.762
  837SOL    HW2 3411   5.724   0.601   0.701
  838SOL     OW 3412   2.195   0.452   4.849
  838SOL    HW1 3413   2.129   0.401   4.794
  838SOL    HW2 3414   2.266   0.490   4.789
  839SOL     OW 3415   1.273   2.917   2.046
  839SOL    HW1 3416   1.260   2.829   2.092
  839SOL    HW2 3417   1.330   2.904   1.964
  840SOL     OW 3418   6.366   6.121   0.357
  840SOL    HW1 3419   6.356   6.063   0.276
  840SOL    HW2 3420   6.389   6.064   0.436
  841SOL     OW 3421   4.251   4.869   6.842
  841SOL    HW1 3422   4.215   4.916   6.761
  841SOL    HW2 3423   4.345   4.841   6.825
  842SOL     OW 3424   4.268   0.170   5.135
  842SOL    HW1 3425   4.318   0.199   5.216
  842SOL    HW2 3426   4.209   0.093   5.158
  843SOL     OW 3427   0.594   1.172   0.990
  843SOL    HW1 3428   0.582   1.158   1.089
  843SOL    HW2 3429   0.508   1.207   0.952
  844SOL     OW 3430   5.702   0.535   0.340
  844SOL    HW1 3431   5.636   0.494   0.404
  844SOL    HW2 3432   5.784   0.562   0.390
  845SOL     OW 3433   5.037   4.509   5.097
  845SOL    HW1 3434   5.111   4.576   5.106
  845SOL    HW2 3435   5.071   4.428   5.050
  846SOL     OW 3436   1.944   1.859   6.475
  846SOL    HW1 3437   1.921   1.928   6.544
  846SOL    HW2 3438   1.864   1.843   6.416
  847SOL     OW 3439   1.243   3.066   1.271
  847SOL    HW1 3440   1.287   2.979   1.291
  847SOL    HW2 3441   1.294   3.140   1.313
  848SOL     OW 3442   6.318   0.405   5.918
  848SOL    HW1 3443   6.372   0.411   5.833
  848SOL    HW2 3444   6.269   0.318   5.920
  849SOL     OW 3445   0.288   3.971   6.243
  849SOL    HW1 3446   0.312   4.023   6.161
  849SOL    HW2 3447   0.371   3.930   6.281
  850SOL     OW 3448   5.091   0.325   3.188
  850SOL    HW1 3449   5.149   0.329   3.106
  850SOL    HW2 3450   4.998   0.352   3.163
  851SOL     OW 3451   0.029   1.892   2.432
  851SOL    HW1 3452   0.036   1.844   2.519
  851SOL    HW2 3453   0.065   1.985   2.442
  852SOL     OW 3454   1.386   2.964   6.969
  852SOL    HW1 3455   1.454   2.900   7.004
  852SOL    HW2 3456   1.396   3.052   7.016
  853SOL     OW 3457   1.787   4.299   1.646
  853SOL    HW1 3458   1.807   4.213   1.600
  853SOL    HW2 3459   1.762   4.368   1.577
  854SOL     OW 3460   4.896   5.966   1.127
  854SOL    HW1 3461   4.990   6.000   1.118
  854SOL    HW2 3462   4.844   6.028   1.185
  855SOL     OW 3463   0.102   6.367   1.578
  855SOL    HW1 3464   0.016   6.417   1.591
  855SOL    HW2 3465   0.104   6.329   1.485
  856SOL     OW 3466   0.877   2.255   5.350
  856SOL    HW1 3467   0.812   2.213   5.286
  856SOL    HW2 3468   0.970   2.246   5.314
  857SOL     OW 3469   5.942   4.242   1.591
  857SOL    HW1 3470   6.002   4.321   1.575
  857SOL    HW2 3471   5.974   4.193   1.672
  858SOL     OW 3472   2.590   3.747   0.828
  858SOL    HW1 3473   2.572   3.648   0.831
  858SOL    HW2 3474   2.656   3.767   0.756
  859SOL     OW 3475   5.937   6.164   5.103
  859SOL    HW1 3476   5.943   6.068   5.074
  859SOL    HW2 3477   5.840   6.188   5.114
  860SOL     OW 3478   5.226   3.560   1.025
  860SOL    HW1 3479   5.217   3.516   1.115
  860SOL    HW2 3480   5.135   3.582   0.990
  861SOL     OW 3481   2.465   5.756   3.285
  861SOL    HW1 3482   2.530   5.833   3.287
  861SOL    HW2 3483   2.473   5.704   3.369
  862SOL     OW 3484   0.952   3.940   5.032
  862SOL    HW1 3485   0.879   3.933   5.101
  862SOL    HW2 3486   0.929   3.884   4.953
  863SOL     OW 3487   6.298   0.966   0.772
  863SOL    HW1 3488   6.277   1.058   0.805
  863SOL    HW2 3489   6.231   0.941   0.702
  864SOL     OW 3490   3.894   5.169   3.446
  864SOL    HW1 3491   3.933   5.099   3.387
  864SOL    HW2 3492   3.846   5.125   3.523
  865SOL     OW 3493   0.792   6.289   5.834
  865SOL    HW1 3494   0.730   6.283   5.756
  865SOL    HW2 3495   0.885   6.301   5.801
  866SOL     OW 3496   1.400   2.075   1.591
  866SOL    HW1 3497   1.472   2.091   1.659
  866SOL    HW2 3498   1.312   2.103   1.628
  867SOL     OW 3499   4.031   3.791   1.047
  867SOL    HW1 3500   4.022   3.884   1.011
  867SOL    HW2 3501   4.121   3.755   1.023
  868SOL     OW 3502   5.897   1.087   1.056
  868SOL    HW1 3503   5.920   1.106   0.961
  868SOL    HW2 3504   5.958   1.017   1.092
  869SOL     OW 3505   0.398   4.750   3.228
  869SOL    HW1 3506   0.361   4.694   3.154
  869SOL    HW2 3507   0.371   4.712   3.316
  870SOL     OW 3508   4.633   3.199   0.684
  870SOL    HW1 3509   4.567   3.271   0.663
  870SOL    HW2 3510   4.693   3.230   0.758
  871SOL     OW 3511   4.367   2.428   3.513
  871SOL    HW1 3512   4.427   2.508   3.514
  871SOL    HW2 3513   4.390   2.368   3.589
  872SOL     OW 3514   5.558   3.576   3.497
  872SOL    HW1 3515   5.614   3.659   3.506
  872SOL    HW2 3516   5.591   3.521   3.421
  873SOL     OW 3517   5.448   6.935   3.965
  873SOL    HW1 3518   5.385   6.859   3.954
  873SOL    HW2 3519   5.418   7.012   3.908
  874SOL     OW 3520   0.859   4.266   6.324
  874SOL    HW1 3521   0.778   4.246   6.270
  874SOL    HW2 3522   0.932   4.301   6.265
  875SOL     OW 3523   3.971   3.292   0.539
  875SOL    HW1 3524   3.972   3.353   0.460
  875SOL    HW2 3525   4.012   3.338   0.617
  876SOL     OW 3526   0.402   4.749   2.231
  876SOL    HW1 3527   0.390   4.651   2.244
  876SOL    HW2 3528   0.385   4.796   2.317
  877SOL     OW 3529   4.261   4.225   6.280
  877SOL    HW1 3530   4.265   4.280   6.196
  877SOL    HW2 3531   4.287   4.281   6.358
  878SOL     OW 3532   3.963   6.240   5.286
  878SOL    HW1 3533   3.920   6.328   5.308
  878SOL    HW2 3534   3.916   6.166   5.335
  879SOL     OW 3535   3.526   2.535   1.157
  879SOL    HW1 3536   3.451   2.598   1.136
  879SOL    HW2 3537   3.491   2.458   1.211
  880SOL     OW 3538   3.372   4.093   5.104
  880SOL    HW1 3539   3.348   4.114   5.199
  880SOL    HW2 3540   3.440   4.160   5.072
  881SOL     OW 3541   4.852   4.010   4.867
  881SOL    HW1 3542   4.782   4.033   4.935
  881SOL    HW2 3543   4.942   4.011   4.911
  882SOL     OW 3544   0.710   2.224   4.168
  882SOL    HW1 3545   0.744   2.315   4.192
  882SOL    HW2 3546   0.783   2.157   4.179
  883SOL     OW 3547   4.330   5.749   6.666
  883SOL    HW1 3548   4.247   5.698   6.690
  883SOL    HW2 3549   4.346   5.821   6.733
  884SOL     OW 3550   0.180   4.066   0.117
  884SOL    HW1 3551   0.217   3.988   0.167
  884SOL    HW2 3552   0.083   4.050   0.097
  885SOL     OW 3553   4.784   5.889   6.532
  885SOL    HW1 3554   4.847   5.940   6.473
  885SOL    HW2 3555   4.811   5.792   6.532
  886SOL     OW 3556   4.405   1.286   1.390
  886SOL    HW1 3557   4.323   1.317   1.438
  886SOL    HW2 3558   4.476   1.263   1.456
  887SOL     OW 3559   3.415   6.559   4.272
  887SOL    HW1 3560   3.455   6.643   4.310
  887SOL    HW2 3561   3.470   6.529   4.193
  888SOL     OW 3562   6.101   5.639   3.008
  888SOL    HW1 3563   6.077   5.598   3.096
  888SOL    HW2 3564   6.091   5.571   2.936
  889SOL     OW 3565   1.460   6.188   6.082
  889SOL    HW1 3566   1.455   6.280   6.121
  889SOL    HW2 3567   1.378   6.171   6.028
  890SOL     OW 3568   1.990   5.263   2.188
  890SOL    HW1 3569   2.083   5.227   2.184
  890SOL    HW2 3570   1.963   5.276   2.284
  891SOL     OW 3571   6.188   3.975   0.378
  891SOL    HW1 3572   6.276   3.928   0.366
  891SOL    HW2 3573   6.114   3.908   0.374
  892SOL     OW 3574   3.862   3.845   6.027
  892SOL    HW1 3575   3.848   3.778   5.955
  892SOL    HW2 3576   3.780   3.851   6.084
  893SOL     OW 3577   2.046   1.214   2.268
  893SOL    HW1 3578   1.956   1.170   2.262
  893SOL    HW2 3579   2.118   1.146   2.255
  894SOL     OW 3580   1.118   2.427   3.334
  894SOL    HW1 3581   1.039   2.479   3.303
  894SOL    HW2 3582   1.201   2.464   3.293
  895SOL     OW 3583   1.074   5.199   3.875
  895SOL    HW1 3584   1.088   5.153   3.962
  895SOL    HW2 3585   1.002   5.267   3.884
  896SOL     OW 3586   6.289   6.989   1.470
  896SOL    HW1 3587   6.210   6.941   1.508
  896SOL    HW2 3588   6.357   7.004   1.542
  897SOL     OW 3589   4.295   0.762   6.754
  897SOL    HW1 3590   4.312   0.860   6.768
  897SOL    HW2 3591   4.359   0.709   6.810
  898SOL     OW 3592   3.608   6.481   3.155
  898SOL    HW1 3593   3.669   6.427   3.098
  898SOL    HW2 3594   3.535   6.423   3.191
  899SOL     OW 3595   0.650   5.343   0.940
  899SOL    HW1 3596   0.700   5.275   0.887
  899SOL    HW2 3597   0.652   5.431   0.891
  900SOL     OW 3598   4.349   6.478   0.376
  900SOL    HW1 3599   4.317   6.412   0.444
  900SOL    HW2 3600   4.378   6.562   0.423
  901SOL     OW 3601   1.143   1.150   5.269
  901SOL    HW1 3602   1.198   1.067   5.280
  901SOL    HW2 3603   1.178   1.203   5.193
  902SOL     OW 3604   1.078   2.274   1.370
  902SOL    HW1 3605   1.072   2.232   1.279
  902SOL    HW2 3606   1.049   2.207   1.439
  903SOL     OW 3607   6.837   3.610   5.891
  903SOL    HW1 3608   6.743   3.643   5.883
  903SOL    HW2 3609   6.847   3.559   5.976
  904SOL     OW 3610   1.910   2.705   2.908
  904SOL    HW1 3611   1.963   2.655   2.977
  904SOL    HW2 3612   1.955   2.792   2.887
  905SOL     OW 3613   4.745   3.991   6.117
  905SOL    HW1 3614   4.668   4.007   6.179
  905SOL    HW2 3615   4.727   4.035   6.030
  906SOL     OW 3616   0.790   3.052   6.352
  906SOL    HW1 3617   0.880   3.012   6.368
  906SOL    HW2 3618   0.801   3.147   6.321
  907SOL     OW 3619   5.307   2.384   2.798
  907SOL    HW1 3620   5.290   2.343   2.888
  907SOL    HW2 3621   5.363   2.322   2.743
  908SOL     OW 3622   2.053   5.365   3.163
  908SOL    HW1 3623   1.976   5.430   3.165
  908SOL    HW2 3624   2.020   5.275   3.136
  909SOL     OW 3625   3.029   6.039   2.628
  909SOL    HW1 3626   3.023   5.939   2.624
  909SOL    HW2 3627   2.937   6.078   2.636
  910SOL     OW 3628   2.714   1.100   0.733
  910SOL    HW1 3629   2.789   1.156   0.767
  910SOL    HW2 3630   2.719   1.096   0.633
  911SOL     OW 3631   0.107   5.565   0.849
  911SOL    HW1 3632   0.101   5.543   0.751
  911SOL    HW2 3633   0.027   5.619   0.875
  912SOL     OW 3634   5.467   0.488   3.663
  912SOL    HW1 3635   5.401   0.451   3.597
  912SOL    HW2 3636   5.554   0.439   3.654
  913SOL     OW 3637   1.435   1.106   3.283
  913SOL    HW1 3638   1.411   1.026   3.339
  913SOL    HW2 3639   1.447   1.185   3.343
  914SOL     OW 3640   2.347   5.483   5.011
  914SOL    HW1 3641   2.445   5.476   5.026
  914SOL    HW2 3642   2.307   5.548   5.077
  915SOL     OW 3643   0.927   3.488   0.232
  915SOL    HW1 3644   0.922   3.436   0.317
  915SOL    HW2 3645   0.927   3.586   0.252
  916SOL     OW 3646   1.298   2.703   2.229
  916SOL    HW1 3647   1.271   2.612   2.197
  916SOL    HW2 3648   1.389   2.699   2.269
  917SOL     OW 3649   5.707   0.640   2.147
  917SOL    HW1 3650   5.702   0.628   2.246
  917SOL    HW2 3651   5.634   0.587   2.103
  918SOL     OW 3652   2.964   6.846   0.632
  918SOL    HW1 3653   2.990   6.942   0.635
  918SOL    HW2 3654   2.880   6.835   0.578
  919SOL     OW 3655   6.583   5.607   2.777
  919SOL    HW1 3656   6.548   5.531   2.831
  919SOL    HW2 3657   6.669   5.581   2.735
  920SOL     OW 3658   2.320   5.484   3.177
  920SOL    HW1 3659   2.231   5.438   3.181
  920SOL    HW2 3660   2.356   5.495   3.270
  921SOL     OW 3661   4.914   4.375   2.940
  921SOL    HW1 3662   5.006   4.363   2.901
  921SOL    HW2 3663   4.853   4.414   2.871
  922SOL     OW 3664   3.285   2.932   5.361
  922SOL    HW1 3665   3.381   2.936   5.391
  922SOL    HW2 3666   3.234   2.868   5.419
  923SOL     OW 3667   2.720   5.069   5.948
  923SOL    HW1 3668   2.813   5.077   5.910
  923SOL    HW2 3669   2.725   5.060   6.047
  924SOL     OW 3670   5.945   2.369   2.959
  924SOL    HW1 3671   5.882   2.314   2.904
  924SOL    HW2 3672   5.921   2.360   3.056
  925SOL     OW 3673   0.186   1.954   6.762
  925SOL    HW1 3674   0.150   1.979   6.852
  925SOL    HW2 3675   0.224   1.862   6.765
  926SOL     OW 3676   5.514   1.351   0.447
  926SOL    HW1 3677   5.588   1.284   0.457
  926SOL    HW2 3678   5.488   1.384   0.538
  927SOL     OW 3679   6.390   3.753   3.671
  927SOL    HW1 3680   6.370   3.838   3.623
  927SOL    HW2 3681   6.358   3.675   3.617
  928SOL     OW 3682   1.066   5.555   0.849
  928SOL    HW1 3683   1.004   5.527   0.776
  928SOL    HW2 3684   1.063   5.654   0.859
  929SOL     OW 3685   7.012   0.873   1.358
  929SOL    HW1 3686   0.067   0.809   1.371
  929SOL    HW2 3687   0.027   0.965   1.340
  930SOL     OW 3688   5.160   6.239   4.376
  930SOL    HW1 3689   5.173   6.141   4.362
  930SOL    HW2 3690   5.227   6.273   4.441
  931SOL     OW 3691   5.856   2.226   2.740
  931SOL    HW1 3692   5.885   2.289   2.668
  931SOL    HW2 3693   5.884   2.133   2.717
  932SOL     OW 3694   3.467   6.604   2.820
  932SOL    HW1 3695   3.518   6.568   2.898
  932SOL    HW2 3696   3.500   6.561   2.736
  933SOL     OW 3697   1.010   5.621   3.017
  933SOL    HW1 3698   0.927   5.585   2.974
  933SOL    HW2 3699   1.053   5.686   2.955
  934SOL     OW 3700   1.983   0.598   5.003
  934SOL    HW1 3701   2.056   0.545   4.961
  934SOL    HW2 3702   1.919   0.628   4.932
  935SOL     OW 3703   5.002   4.281   4.969
  935SOL    HW1 3704   4.989   4.190   5.009
  935SOL    HW2 3705   5.090   4.285   4.922
  936SOL     OW 3706   1.486   0.376   6.006
  936SOL    HW1 3707   1.518   0.393   5.913
  936SOL    HW2 3708   1.403   0.320   6.003
  937SOL     OW 3709   5.080   1.196   4.841
  937SOL    HW1 3710   5.176   1.173   4.858
  937SOL    HW2 3711   5.033   1.209   4.928
  938SOL     OW 3712   6.551   5.680   5.800
  938SOL    HW1 3713   6.601   5.594   5.788
  938SOL    HW2 3714   6.452   5.662   5.792
  939SOL     OW 3715   5.922   0.181   5.832
  939SOL    HW1 3716   5.956   0.275   5.846
  939SOL    HW2 3717   5.901   0.140   5.921
  940SOL     OW 3718   0.544   2.756   1.742
  940SOL    HW1 3719   0.449   2.729   1.729
  940SOL    HW2 3720   0.558   2.848   1.705
  941SOL     OW 3721   5.903   1.254   5.573
  941SOL    HW1 3722   5.920   1.205   5.488
  941SOL    HW2 3723   5.814   1.229   5.610
  942SOL     OW 3724   4.953   0.030   3.579
  942SOL    HW1 3725   4.956   6.965   3.527
  942SOL    HW2 3726   4.859   0.049   3.606
  943SOL     OW 3727   1.795   3.242   3.674
  943SOL    HW1 3728   1.882   3.194   3.670
  943SOL    HW2 3729   1.793   3.303   3.753
  944SOL     OW 3730   6.913   3.846   5.733
  944SOL    HW1 3731   6.905   3.919   5.800
  944SOL    HW2 3732   6.880   3.760   5.773
  945SOL     OW 3733   6.281   4.323   4.865
  945SOL    HW1 3734   6.361   4.375   4.835
  945SOL    HW2 3735   6.216   4.316   4.789
  946SOL     OW 3736   5.004   2.261   6.060
  946SOL    HW1 3737   5.046   2.221   6.142
  946SOL    HW2 3738   4.981   2.188   5.996
  947SOL     OW 3739   4.064   3.181   4.445
  947SOL    HW1 3740   4.076   3.242   4.523
  947SOL    HW2 3741   4.154   3.149   4.414
  948SOL     OW 3742   4.175   0.382   1.259
  948SOL    HW1 3743   4.198   0.337   1.346
  948SOL    HW2 3744   4.257   0.419   1.218
  949SOL     OW 3745   0.969   6.169   6.131
  949SOL    HW1 3746   0.980   6.074   6.102
  949SOL    HW2 3747   1.056   6.217   6.121
  950SOL     OW 3748   4.656   5.157   1.703
  950SOL    HW1 3749   4.565   5.196   1.696
  950SOL    HW2 3750   4.651   5.065   1.742
  951SOL     OW 3751   2.121   0.887   4.000
  951SOL    HW1 3752   2.170   0.959   3.951
  951SOL    HW2 3753   2.091   0.922   4.089
  952SOL     OW 3754   4.813   2.159   3.102
  952SOL    HW1 3755   4.862   2.238   3.064
  952SOL    HW2 3756   4.823   2.081   3.039
  953SOL     OW 3757   5.142   5.435   3.963
  953SOL    HW1 3758   5.050   5.447   4.001
  953SOL    HW2 3759   5.207   5.489   4.015
  954SOL     OW 3760   4.727   5.757   0.711
  954SOL    HW1 3761   4.754   5.853   0.723
  954SOL    HW2 3762   4.714   5.714   0.800
  955SOL     OW 3763   0.027   4.223   2.757
  955SOL    HW1 3764   0.075   4.219   2.844
  955SOL    HW2 3765   6.962   4.274   2.768
  956SOL     OW 3766   0.007   2.279   2.655
  956SOL    HW1 3767   0.021   2.277   2.556
  956SOL    HW2 3768   0.094   2.299   2.700
  957SOL     OW 3769   6.927   4.375   4.890
  957SOL    HW1 3770   6.919   4.467   4.927
  957SOL    HW2 3771   6.889   4.373   4.797
  958SOL     OW 3772   4.283   1.479   2.469
  958SOL    HW1 3773   4.256   1.574   2.451
  958SOL    HW2 3774   4.371   1.478   2.517
  959SOL     OW 3775   3.647   5.485   2.830
  959SOL    HW1 3776   3.615   5.520   2.742
  959SOL    HW2 3777   3.575   5.432   2.874
  960SOL     OW 3778   1.307   5.773   3.133
  960SOL    HW1 3779   1.361   5.691   3.118
  960SOL    HW2 3780   1.318   5.835   3.055
  961SOL     OW 3781   4.656   0.127   3.577
  961SOL    HW1 3782   4.583   0.195   3.585
  961SOL    HW2 3783   4.618   0.036   3.594
  962SOL     OW 3784   0.791   0.620   4.940
  962SOL    HW1 3785   0.725   0.652   5.008
  962SOL    HW2 3786   0.831   0.698   4.892
  963SOL     OW 3787   6.942   1.803   5.894
  963SOL    HW1 3788   0.009   1.760   5.918
  963SOL    HW2 3789   6.940   1.823   5.796
  964SOL     OW 3790   5.747   4.539   6.833
  964SOL    HW1 3791   5.814   4.510   6.765
  964SOL    HW2 3792   5.783   4.519   6.925
  965SOL     OW 3793   5.478   1.886   0.872
  965SOL    HW1 3794   5.503   1.943   0.794
  965SOL    HW2 3795   5.424   1.940   0.937
  966SOL     OW 3796   5.012   2.603   1.506
  966SOL    HW1 3797   4.993   2.514   1.465
  966SOL    HW2 3798   4.963   2.675   1.457
  967SOL     OW 3799   1.984   4.006   1.917
  967SOL    HW1 3800   1.956   4.098   1.888
  967SOL    HW2 3801   1.975   3.999   2.017
  968SOL     OW 3802   3.479   1.003   1.674
  968SOL    HW1 3803   3.440   1.031   1.761
  968SOL    HW2 3804   3.415   1.024   1.600
  969SOL     OW 3805   3.349   6.066   5.786
  969SOL    HW1 3806   3.366   5.986   5.844
  969SOL    HW2 3807   3.419   6.136   5.805
  970SOL     OW 3808   5.227   0.759   6.199
  970SOL    HW1 3809   5.190   0.830   6.140
  970SOL    HW2 3810   5.321   0.782   6.224
  971SOL     OW 3811   6.822   2.086   3.143
  971SOL    HW1 3812   6.729   2.051   3.153
  971SOL    HW2 3813   6.861   2.055   3.056
  972SOL     OW 3814   5.473   3.593   1.637
  972SOL    HW1 3815   5.520   3.673   1.674
  972SOL    HW2 3816   5.539   3.535   1.590
  973SOL     OW 3817   6.814   4.396   6.768
  973SOL    HW1 3818   6.882   4.390   6.695
  973SOL    HW2 3819   6.833   4.327   6.838
  974SOL     OW 3820   5.324   6.305   2.717
  974SOL    HW1 3821   5.392   6.260   2.774
  974SOL    HW2 3822   5.243   6.247   2.709
  975SOL     OW 3823   1.259   6.115   6.573
  975SOL    HW1 3824   1.352   6.149   6.558
  975SOL    HW2 3825   1.216   6.096   6.485
  976SOL     OW 3826   0.431   3.373   2.858
  976SOL    HW1 3827   0.376   3.353   2.777
  976SOL    HW2 3828   0.480   3.459   2.844
  977SOL     OW 3829   1.139   0.718   2.289
  977SOL    HW1 3830   1.237   0.699   2.299
  977SOL    HW2 3831   1.088   0.632   2.294
  978SOL     OW 3832   4.666   3.902   5.597
  978SOL    HW1 3833   4.736   3.835   5.575
  978SOL    HW2 3834   4.593   3.899   5.528
  979SOL     OW 3835   6.351   2.252   0.586
  979SOL    HW1 3836   6.428   2.313   0.604
  979SOL    HW2 3837   6.289   2.253   0.664
  980SOL     OW 3838   4.250   2.281   4.535
  980SOL    HW1 3839   4.306   2.357   4.503
  980SOL    HW2 3840   4.274   2.198   4.484
  981SOL     OW 3841   0.810   1.805   4.845
  981SOL    HW1 3842   0.722   1.787   4.802
  981SOL    HW2 3843   0.873   1.845   4.778
  982SOL     OW 3844   2.539   2.223   3.981
  982SOL    HW1 3845   2.452   2.192   3.944
  982SOL    HW2 3846   2.606   2.232   3.907
  983SOL     OW 3847   5.546   2.222   4.870
  983SOL    HW1 3848   5.513   2.153   4.805
  983SOL    HW2 3849   5.484   2.301   4.870
  984SOL     OW 3850   2.677   1.465   4.435
  984SOL    HW1 3851   2.722   1.424   4.514
  984SOL    HW2 3852   2.632   1.550   4.463
  985SOL     OW 3853   5.495   4.546   5.097
  985SOL    HW1 3854   5.544   4.463   5.123
  985SOL    HW2 3855   5.555   4.604   5.041
  986SOL     OW 3856   6.046   4.537   0.688
  986SOL    HW1 3857   6.022   4.619   0.637
  986SOL    HW2 3858   6.125   4.556   0.747
  987SOL     OW 3859   4.451   7.003   1.775
  987SOL    HW1 3860   4.478   6.926   1.833
  987SOL    HW2 3861   4.455   6.974   1.679
  988SOL     OW 3862   3.130   3.577   2.962
  988SOL    HW1 3863   3.196   3.520   3.012
  988SOL    HW2 3864   3.167   3.599   2.872
  989SOL     OW 3865   6.291   0.545   5.604
  989SOL    HW1 3866   6.256   0.475   5.542
  989SOL    HW2 3867   6.364   0.507   5.660
  990SOL     OW 3868   3.865   0.385   2.008
  990SOL    HW1 3869   3.786   0.324   2.014
  990SOL    HW2 3870   3.908   0.392   2.098
  991SOL     OW 3871   1.079   2.526   5.390
  991SOL    HW1 3872   1.003   2.473   5.427
  991SOL    HW2 3873   1.066   2.622   5.413
  992SOL     OW 3874   6.632   2.711   2.080
  992SOL    HW1 3875   6.534   2.725   2.097
  992SOL    HW2 3876   6.647   2.620   2.042
  993SOL     OW 3877   1.461   4.209   1.651
  993SOL    HW1 3878   1.525   4.256   1.712
  993SOL    HW2 3879   1.371   4.205   1.694
  994SOL     OW 3880   3.495   4.230   1.845
  994SOL    HW1 3881   3.530   4.283   1.923
  994SOL    HW2 3882   3.403   4.198   1.866
  995SOL     OW 3883   3.528   3.014   5.451
  995SOL    HW1 3884   3.498   3.109   5.446
  995SOL    HW2 3885   3.628   3.011   5.463
  996SOL     OW 3886   3.051   4.840   4.191
  996SOL    HW1 3887   3.033   4.857   4.288
  996SOL    HW2 3888   2.974   4.791   4.150
  997SOL     OW 3889   1.305   1.220   3.070
  997SOL    HW1 3890   1.267   1.155   3.004
  997SOL    HW2 3891   1.345   1.171   3.147
  998SOL     OW 3892   4.652   0.438   4.323
  998SOL    HW1 3893   4.610   0.348   4.335
  998SOL    HW2 3894   4.636   0.494   4.404
  999SOL     OW 3895   5.060   4.641   2.355
  999SOL    HW1 3896   4.989   4.699   2.316
  999SOL    HW2 3897   5.135   4.632   2.289
 1000SOL     OW 3898   2.434   1.266   2.216
 1000SOL    HW1 3899   2.454   1.309   2.127
 1000SOL    HW2 3900   2.446   1.333   2.289
 1001SOL     OW 3901   5.071   6.243   0.395
 1001SOL    HW1 3902   5.155   6.239   0.340
 1001SOL    HW2 3903   5.051   6.338   0.418
 1002SOL     OW 3904   5.914   1.852   0.773
 1002SOL    HW1 3905   5.939   1.762   0.736
 1002SOL    HW2 3906   5.876   1.841   0.864
 1003SOL     OW 3907   2.263   6.054   2.018
 1003SOL    HW1 3908   2.339   6.084   1.961
 1003SOL    HW2 3909   2.294   5.981   2.079
 1004SOL     OW 3910   0.288   6.906   2.307
 1004SOL    HW1 3911   0.226   6.928   2.232
 1004SOL    HW2 3912   0.322   6.991   2.348
 1005SOL     OW 3913   2.200   2.985   3.882
 1005SOL    HW1 3914   2.231   2.911   3.822
 1005SOL    HW2 3915   2.195   2.952   3.976
 1006SOL     OW 3916   1.339   4.543   0.813
 1006SOL    HW1 3917   1.313   4.638   0.796
 1006SOL    HW2 3918   1.435   4.538   0.840
 1007SOL     OW 3919   4.662   0.256   5.575
 1007SOL    HW1 3920   4.686   0.159   5.572
 1007SOL    HW2 3921   4.602   0.278   5.498
 1008SOL     OW 3922   1.608   2.938   5.058
 1008SOL    HW1 3923   1.613   2.849   5.103
 1008SOL    HW2 3924   1.655   2.933   4.969
 1009SOL     OW 3925   0.450   5.779   4.877
 1009SOL    HW1 3926   0.457   5.782   4.977
 1009SOL    HW2 3927   0.355   5.765   4.851
 1010SOL     OW 3928   3.438   2.772   5.643
 1010SOL    HW1 3929   3.505   2.823   5.589
 1010SOL    HW2 3930   3.372   2.729   5.582
 1011SOL     OW 3931   2.244   5.199   2.117
 1011SOL    HW1 3932   2.317   5.267   2.108
 1011SOL    HW2 3933   2.259   5.125   2.052
 1012SOL     OW 3934   6.829   0.410   1.476
 1012SOL    HW1 3935   6.756   0.371   1.419
 1012SOL    HW2 3936   6.833   0.509   1.461
 1013SOL     OW 3937   1.095   0.882   5.426
 1013SOL    HW1 3938   1.129   0.789   5.411
 1013SOL    HW2 3939   1.157   0.931   5.488
 1014SOL     OW 3940   5.711   6.016   6.246
 1014SOL    HW1 3941   5.769   6.095   6.268
 1014SOL    HW2 3942   5.686   5.968   6.330
 1015SOL     OW 3943   2.821   6.504   5.677
 1015SOL    HW1 3944   2.724   6.492   5.700
 1015SOL    HW2 3945   2.859   6.579   5.731
 1016SOL     OW 3946   4.088   3.557   6.570
 1016SOL    HW1 3947   4.105   3.653   6.595
 1016SOL    HW2 3948   4.171   3.504   6.586
 1017SOL     OW 3949   3.998   2.526   1.498
 1017SOL    HW1 3950   4.001   2.444   1.440
 1017SOL    HW2 3951   4.082   2.578   1.487
 1018SOL     OW 3952   0.381   3.811   4.408
 1018SOL    HW1 3953   0.299   3.802   4.465
 1018SOL    HW2 3954   0.454   3.853   4.462
 1019SOL     OW 3955   6.770   6.735   1.163
 1019SOL    HW1 3956   6.697   6.780   1.112
 1019SOL    HW2 3957   6.824   6.678   1.101
 1020SOL     OW 3958   0.663   0.881   1.670
 1020SOL    HW1 3959   0.708   0.920   1.589
 1020SOL    HW2 3960   0.631   0.955   1.729
 1021SOL     OW 3961   5.214   6.830   1.390
 1021SOL    HW1 3962   5.150   6.802   1.462
 1021SOL    HW2 3963   5.291   6.879   1.432
 1022SOL     OW 3964   4.103   5.022   5.801
 1022SOL    HW1 3965   4.182   5.030   5.741
 1022SOL    HW2 3966   4.132   4.984   5.889
 1023SOL     OW 3967   0.927   6.659   2.851
 1023SOL    HW1 3968   0.943   6.694   2.944
 1023SOL    HW2 3969   0.830   6.671   2.828
 1024SOL     OW 3970   0.333   2.245   3.991
 1024SOL    HW1 3971   0.426   2.215   3.973
 1024SOL    HW2 3972   0.278   2.168   4.021
 1025SOL     OW 3973   2.995   2.841   0.960
 1025SOL    HW1 3974   3.063   2.770   0.980
 1025SOL    HW2 3975   2.947   2.818   0.875
 1026SOL     OW 3976   2.147   2.759   1.125
 1026SOL    HW1 3977   2.159   2.759   1.025
 1026SOL    HW2 3978   2.065   2.811   1.148
 1027SOL     OW 3979   3.053   6.419   1.636
 1027SOL    HW1 3980   3.092   6.436   1.726
 1027SOL    HW2 3981   3.125   6.423   1.567
 1028SOL     OW 3982   3.066   6.123   0.293
 1028SOL    HW1 3983   3.097   6.207   0.338
 1028SOL    HW2 3984   2.999   6.077   0.352
 1029SOL     OW 3985   2.091   6.883   6.946
 1029SOL    HW1 3986   2.039   6.969   6.947
 1029SOL    HW2 3987   2.156   6.884   6.870
 1030SOL     OW 3988   3.019   3.149   1.859
 1030SOL    HW1 3989   3.080   3.228   1.849
 1030SOL    HW2 3990   2.924   3.180   1.861
 1031SOL     OW 3991   5.075   4.731   0.621
 1031SOL    HW1 3992   5.136   4.653   0.608
 1031SOL    HW2 3993   5.017   4.742   0.540
 1032SOL     OW 3994   2.408   1.965   4.671
 1032SOL    HW1 3995   2.450   1.967   4.762
 1032SOL    HW2 3996   2.309   1.963   4.679
 1033SOL     OW 3997   1.511   6.486   0.805
 1033SOL    HW1 3998   1.486   6.437   0.721
 1033SOL    HW2 3999   1.593   6.540   0.789
 1034SOL     OW 4000   0.578   5.128   4.892
 1034SOL    HW1 4001   0.511   5.133   4.966
 1034SOL    HW2 4002   0.537   5.160   4.807
 1035SOL     OW 4003   0.564   1.003   4.961
 1035SOL    HW1 4004   0.486   1.054   4.925
 1035SOL    HW2 4005   0.576   1.024   5.058
 1036SOL     OW 4006   3.347   1.011   1.931
 1036SOL    HW1 4007   3.410   1.076   1.972
 1036SOL    HW2 4008   3.268   0.999   1.992
 1037SOL     OW 4009   1.661   0.960   1.892
 1037SOL    HW1 4010   1.711   0.926   1.812
 1037SOL    HW2 4011   1.724   0.970   1.969
 1038SOL     OW 4012   1.128   0.194   4.750
 1038SOL    HW1 4013   1.037   0.236   4.750
 1038SOL    HW2 4014   1.120   0.097   4.774
 1039SOL     OW 4015   3.311   3.797   5.831
 1039SOL    HW1 4016   3.235   3.769   5.773
 1039SOL    HW2 4017   3.377   3.848   5.777
 1040SOL     OW 4018   4.759   2.733   2.755
 1040SOL    HW1 4019   4.757   2.762   2.659
 1040SOL    HW2 4020   4.685   2.667   2.770
 1041SOL     OW 4021   6.828   0.110   3.587
 1041SOL    HW1 4022   6.895   0.049   3.629
 1041SOL    HW2 4023   6.777   0.060   3.517
 1042SOL     OW 4024   4.705   5.173   2.319
 1042SOL    HW1 4025   4.701   5.074   2.331
 1042SOL    HW2 4026   4.667   5.218   2.400
 1043SOL     OW 4027   3.496   1.340   5.399
 1043SOL    HW1 4028   3.449   1.278   5.337
 1043SOL    HW2 4029   3.526   1.421   5.349
 1044SOL     OW 4030   5.233   4.771   2.579
 1044SOL    HW1 4031   5.322   4.738   2.547
 1044SOL    HW2 4032   5.164   4.756   2.508
 1045SOL     OW 4033   4.379   6.102   2.142
 1045SOL    HW1 4034   4.375   6.200   2.161
 1045SOL    HW2 4035   4.291   6.072   2.105
 1046SOL     OW 4036   1.406   0.627   0.118
 1046SOL    HW1 4037   1.409   0.571   0.201
 1046SOL    HW2 4038   1.355   0.712   0.137
 1047SOL     OW 4039   1.839   1.191   3.095
 1047SOL    HW1 4040   1.789   1.139   3.026
 1047SOL    HW2 4041   1.824   1.149   3.185
 1048SOL     OW 4042   5.076   6.484   4.438
 1048SOL    HW1 4043   5.034   6.533   4.362
 1048SOL    HW2 4044   5.105   6.393   4.407
 1049SOL     OW 4045   6.447   5.842   3.946
 1049SOL    HW1 4046   6.382   5.859   4.021
 1049SOL    HW2 4047   6.411   5.882   3.862
 1050SOL     OW 4048   4.243   5.264   1.221
 1050SOL    HW1 4049   4.319   5.317   1.259
 1050SOL    HW2 4050   4.269   5.226   1.132
 1051SOL     OW 4051   2.513   5.580   0.897
 1051SOL    HW1 4052   2.574   5.646   0.941
 1051SOL    HW2 4053   2.567   5.500   0.868
 1052SOL     OW 4054   3.790   0.452   4.613
 1052SOL    HW1 4055   3.783   0.353   4.609
 1052SOL    HW2 4056   3.796   0.489   4.520
 1053SOL     OW 4057   5.670   4.741   3.305
 1053SOL    HW1 4058   5.759   4.728   3.349
 1053SOL    HW2 4059   5.682   4.793   3.221
 1054SOL     OW 4060   2.963   4.044   5.857
 1054SOL    HW1 4061   2.899   4.093   5.916
 1054SOL    HW2 4062   3.057   4.060   5.888
 1055SOL     OW 4063   4.349   6.927   4.853
 1055SOL    HW1 4064   4.440   6.953   4.886
 1055SOL    HW2 4065   4.307   7.005   4.806
 1056SOL     OW 4066   1.934   5.273   6.297
 1056SOL    HW1 4067   1.966   5.265   6.392
 1056SOL    HW2 4068   1.837   5.300   6.297
 1057SOL     OW 4069   2.951   3.593   2.061
 1057SOL    HW1 4070   2.870   3.535   2.046
 1057SOL    HW2 4071   3.018   3.575   1.989
 1058SOL     OW 4072   4.475   1.346   3.560
 1058SOL    HW1 4073   4.509   1.412   3.627
 1058SOL    HW2 4074   4.410   1.391   3.499
 1059SOL     OW 4075   2.488   6.869   1.226
 1059SOL    HW1 4076   2.455   6.807   1.298
 1059SOL    HW2 4077   2.530   6.815   1.153
 1060SOL     OW 4078   7.006   4.631   4.593
 1060SOL    HW1 4079   0.014   4.539   4.563
 1060SOL    HW2 4080   0.066   4.691   4.595
 1061SOL     OW 4081   5.665   3.725   1.009
 1061SOL    HW1 4082   5.699   3.818   0.995
 1061SOL    HW2 4083   5.682   3.671   0.927
 1062SOL     OW 4084   5.781   4.175   6.329
 1062SOL    HW1 4085   5.766   4.121   6.412
 1062SOL    HW2 4086   5.693   4.193   6.285
 1063SOL     OW 4087   1.688   4.923   2.335
 1063SOL    HW1 4088   1.735   5.009   2.359
 1063SOL    HW2 4089   1.751   4.847   2.349
 1064SOL     OW 4090   1.711   4.082   1.824
 1064SOL    HW1 4091   1.687   4.178   1.838
 1064SOL    HW2 4092   1.640   4.023   1.862
 1065SOL     OW 4093   3.666   0.313   3.853
 1065SOL    HW1 4094   3.640   0.409   3.857
 1065SOL    HW2 4095   3.651   0.278   3.760
 1066SOL     OW 4096   4.605   0.755   3.678
 1066SOL    HW1 4097   4.636   0.818   3.607
 1066SOL    HW2 4098   4.674   0.751   3.751
 1067SOL     OW 4099   0.504   3.688   1.001
 1067SOL    HW1 4100   0.504   3.733   1.090
 1067SOL    HW2 4101   0.412   3.657   0.979
 1068SOL     OW 4102   5.472   5.239   2.940
 1068SOL    HW1 4103   5.390   5.261   2.886
 1068SOL    HW2 4104   5.548   5.295   2.908
 1069SOL     OW 4105   4.200   4.978   0.943
 1069SOL    HW1 4106   4.117   5.002   0.993
 1069SOL    HW2 4107   4.181   4.980   0.845
 1070SOL     OW 4108   0.339   0.152   2.402
 1070SOL    HW1 4109   0.254   0.202   2.385
 1070SOL    HW2 4110   0.387   0.195   2.479
 1071SOL     OW 4111   1.624   1.041   3.015
 1071SOL    HW1 4112   1.589   1.087   3.096
 1071SOL    HW2 4113   1.586   0.949   3.008
 1072SOL     OW 4114   2.419   0.712   0.640
 1072SOL    HW1 4115   2.338   0.768   0.650
 1072SOL    HW2 4116   2.420   0.641   0.712
 1073SOL     OW 4117   4.848   6.916   1.479
 1073SOL    HW1 4118   4.875   6.878   1.391
 1073SOL    HW2 4119   4.919   6.896   1.547
 1074SOL     OW 4120   2.255   5.609   0.965
 1074SOL    HW1 4121   2.353   5.617   0.949
 1074SOL    HW2 4122   2.217   5.543   0.900
 1075SOL     OW 4123   4.734   6.757   4.368
 1075SOL    HW1 4124   4.763   6.764   4.273
 1075SOL    HW2 4125   4.796   6.811   4.425
 1076SOL     OW 4126   0.000   2.920   5.650
 1076SOL    HW1 4127   6.997   2.835   5.602
 1076SOL    HW2 4128   0.088   2.910   5.696
 1077SOL     OW 4129   5.788   0.249   1.516
 1077SOL    HW1 4130   5.779   0.295   1.604
 1077SOL    HW2 4131   5.773   0.315   1.442
 1078SOL     OW 4132   1.213   1.652   2.486
 1078SOL    HW1 4133   1.192   1.711   2.563
 1078SOL    HW2 4134   1.159   1.680   2.406
 1079SOL     OW 4135   2.203   6.175   2.552
 1079SOL    HW1 4136   2.253   6.228   2.483
 1079SOL    HW2 4137   2.149   6.104   2.507
 1080SOL     OW 4138   0.888   4.301   4.022
 1080SOL    HW1 4139   0.934   4.287   4.110
 1080SOL    HW2 4140   0.946   4.267   3.949
 1081SOL     OW 4141   0.067   5.703   5.681
 1081SOL    HW1 4142   0.038   5.705   5.777
 1081SOL    HW2 4143   7.009   5.678   5.624
 1082SOL     OW 4144   3.882   2.030   5.656
 1082SOL    HW1 4145   3.977   2.054   5.636
 1082SOL    HW2 4146   3.879   1.947   5.711
 1083SOL     OW 4147   4.401   3.739   0.043
 1083SOL    HW1 4148   4.308   3.766   0.017
 1083SOL    HW2 4149   4.408   3.639   0.044
 1084SOL     OW 4150   5.783   6.043   0.004
 1084SOL    HW1 4151   5.775   6.011   6.930
 1084SOL    HW2 4152   5.876   6.026   0.037
 1085SOL     OW 4153   1.326   3.710   4.312
 1085SOL    HW1 4154   1.394   3.775   4.344
 1085SOL    HW2 4155   1.244   3.759   4.282
 1086SOL     OW 4156   6.645   6.415   0.907
 1086SOL    HW1 4157   6.654   6.440   1.004
 1086SOL    HW2 4158   6.713   6.344   0.885
 1087SOL     OW 4159   5.353   2.000   5.023
 1087SOL    HW1 4160   5.410   2.053   5.086
 1087SOL    HW2 4161   5.261   2.041   5.020
 1088SOL     OW 4162   6.378   4.274   3.400
 1088SOL    HW1 4163   6.295   4.255   3.347
 1088SOL    HW2 4164   6.375   4.367   3.436
 1089SOL     OW 4165   1.477   6.159   4.163
 1089SOL    HW1 4166   1.477   6.060   4.173
 1089SOL    HW2 4167   1.528   6.200   4.239
 1090SOL     OW 4168   2.232   1.995   3.607
 1090SOL    HW1 4169   2.216   2.049   3.525
 1090SOL    HW2 4170   2.155   1.934   3.622
 1091SOL     OW 4171   2.969   2.347   5.507
 1091SOL    HW1 4172   3.063   2.314   5.498
 1091SOL    HW2 4173   2.953   2.419   5.439
 1092SOL     OW 4174   2.004   4.108   1.126
 1092SOL    HW1 4175   1.923   4.150   1.085
 1092SOL    HW2 4176   2.085   4.160   1.099
 1093SOL     OW 4177   2.105   1.386   2.050
 1093SOL    HW1 4178   2.095   1.324   2.128
 1093SOL    HW2 4179   2.199   1.420   2.046
 1094SOL     OW 4180   0.679   6.771   3.385
 1094SOL    HW1 4181   0.751   6.707   3.412
 1094SOL    HW2 4182   0.653   6.754   3.290
 1095SOL     OW 4183   0.733   2.595   6.723
 1095SOL    HW1 4184   0.683   2.681   6.736
 1095SOL    HW2 4185   0.830   2.611   6.738
 1096SOL     OW 4186   3.453   4.463   1.666
 1096SOL    HW1 4187   3.466   4.407   1.748
 1096SOL    HW2 4188   3.475   4.558   1.688
 1097SOL     OW 4189   2.080   4.419   4.100
 1097SOL    HW1 4190   2.176   4.419   4.072
 1097SOL    HW2 4191   2.045   4.325   4.099
 1098SOL     OW 4192   4.470   3.391   0.591
 1098SOL    HW1 4193   4.394   3.354   0.537
 1098SOL    HW2 4194   4.520   3.458   0.536
 1099SOL     OW 4195   4.600   1.474   5.252
 1099SOL    HW1 4196   4.676   1.489   5.316
 1099SOL    HW2 4197   4.513   1.486   5.299
 1100SOL     OW 4198   3.406   2.172   5.978
 1100SOL    HW1 4199   3.414   2.124   6.065
 1100SOL    HW2 4200   3.411   2.106   5.903
 1101SOL     OW 4201   6.157   2.347   6.813
 1101SOL    HW1 4202   6.228   2.357   6.744
 1101SOL    HW2 4203   6.108   2.434   6.823
 1102SOL     OW 4204   0.516   6.304   5.021
 1102SOL    HW1 4205   0.546   6.368   4.950
 1102SOL    HW2 4206   0.454   6.236   4.980
 1103SOL     OW 4207   3.807   1.993   0.844
 1103SOL    HW1 4208   3.845   1.917   0.897
 1103SOL    HW2 4209   3.708   1.994   0.852
 1104SOL     OW 4210   2.200   2.946   5.304
 1104SOL    HW1 4211   2.264   2.956   5.228
 1104SOL    HW2 4212   2.224   2.865   5.358
 1105SOL     OW 4213   6.519   3.788   4.734
 1105SOL    HW1 4214   6.445   3.725   4.712
 1105SOL    HW2 4215   6.487   3.853   4.803
 1106SOL     OW 4216   0.437   1.740   1.730
 1106SOL    HW1 4217   0.360   1.803   1.717
 1106SOL    HW2 4218   0.511   1.786   1.778
 1107SOL     OW 4219   1.953   0.372   6.480
 1107SOL    HW1 4220   1.854   0.374   6.497
 1107SOL    HW2 4221   1.991   0.286   6.512
 1108SOL     OW 4222   3.718   0.572   5.564
 1108SOL    HW1 4223   3.719   0.497   5.631
 1108SOL    HW2 4224   3.705   0.659   5.611
 1109SOL     OW 4225   4.671   0.572   4.580
 1109SOL    HW1 4226   4.580   0.541   4.610
 1109SOL    HW2 4227   4.664   0.665   4.545
 1110SOL     OW 4228   2.504   2.000   3.126
 1110SOL    HW1 4229   2.436   1.999   3.053
 1110SOL    HW2 4230   2.475   1.940   3.200
 1111SOL     OW 4231   4.711   5.482   6.084
 1111SOL    HW1 4232   4.680   5.389   6.067
 1111SOL    HW2 4233   4.810   5.488   6.071
 1112SOL     OW 4234   5.164   1.473   2.442
 1112SOL    HW1 4235   5.119   1.386   2.422
 1112SOL    HW2 4236   5.110   1.523   2.509
 1113SOL     OW 4237   6.859   3.541   2.480
 1113SOL    HW1 4238   6.878   3.573   2.573
 1113SOL    HW2 4239   6.848   3.619   2.419
 1114SOL     OW 4240   3.854   2.070   6.568
 1114SOL    HW1 4241   3.830   2.161   6.532
 1114SOL    HW2 4242   3.848   2.003   6.494
 1115SOL     OW 4243   4.225   3.638   0.387
 1115SOL    HW1 4244   4.254   3.544   0.367
 1115SOL    HW2 4245   4.280   3.702   0.334
 1116SOL     OW 4246   5.143   6.694   5.319
 1116SOL    HW1 4247   5.188   6.693   5.230
 1116SOL    HW2 4248   5.082   6.773   5.324
 1117SOL     OW 4249   1.081   2.408   2.438
 1117SOL    HW1 4250   1.069   2.309   2.437
 1117SOL    HW2 4251   1.000   2.452   2.398
 1118SOL     OW 4252   2.532   4.806   1.222
 1118SOL    HW1 4253   2.585   4.857   1.289
 1118SOL    HW2 4254   2.495   4.723   1.264
 1119SOL     OW 4255   4.281   4.453   0.713
 1119SOL    HW1 4256   4.194   4.501   0.706
 1119SOL    HW2 4257   4.265   4.356   0.728
 1120SOL     OW 4258   6.075   7.007   5.212
 1120SOL    HW1 4259   6.051   6.937   5.279
 1120SOL    HW2 4260   6.075   6.967   5.121
 1121SOL     OW 4261   4.993   5.212   2.810
 1121SOL    HW1 4262   4.930   5.289   2.800
 1121SOL    HW2 4263   4.944   5.133   2.848
 1122SOL     OW 4264   5.523   3.537   6.759
 1122SOL    HW1 4265   5.489   3.508   6.849
 1122SOL    HW2 4266   5.468   3.494   6.687
 1123SOL     OW 4267   5.184   1.343   3.181
 1123SOL    HW1 4268   5.169   1.332   3.279
 1123SOL    HW2 4269   5.280   1.327   3.160
 1124SOL     OW 4270   6.648   3.380   5.280
 1124SOL    HW1 4271   6.556   3.410   5.305
 1124SOL    HW2 4272   6.685   3.322   5.352
 1125SOL     OW 4273   3.403   1.515   4.907
 1125SOL    HW1 4274   3.318   1.551   4.947
 1125SOL    HW2 4275   3.451   1.589   4.859
 1126SOL     OW 4276   6.031   5.040   6.722
 1126SOL    HW1 4277   6.116   5.093   6.715
 1126SOL    HW2 4278   6.035   4.964   6.657
 1127SOL     OW 4279   5.159   5.119   4.542
 1127SOL    HW1 4280   5.236   5.127   4.479
 1127SOL    HW2 4281   5.193   5.090   4.632
 1128SOL     OW 4282   5.496   1.880   5.465
 1128SOL    HW1 4283   5.433   1.945   5.422
 1128SOL    HW2 4284   5.537   1.921   5.546
 1129SOL     OW 4285   3.138   0.668   6.887
 1129SOL    HW1 4286   3.060   0.729   6.899
 1129SOL    HW2 4287   3.167   0.670   6.791
 1130SOL     OW 4288   2.628   4.982   0.283
 1130SOL    HW1 4289   2.672   5.072   0.287
 1130SOL    HW2 4290   2.532   4.991   0.309
 1131SOL     OW 4291   7.014   6.085   5.948
 1131SOL    HW1 4292   0.077   6.085   5.892
 1131SOL    HW2 4293   0.001   6.157   6.017
 1132SOL     OW 4294   5.444   0.294   1.392
 1132SOL    HW1 4295   5.465   0.212   1.445
 1132SOL    HW2 4296   5.403   0.363   1.452
 1133SOL     OW 4297   0.897   0.542   1.086
 1133SOL    HW1 4298   0.840   0.586   1.156
 1133SOL    HW2 4299   0.987   0.587   1.083
 1134SOL     OW 4300   5.496   0.909   1.690
 1134SOL    HW1 4301   5.498   0.812   1.665
 1134SOL    HW2 4302   5.590   0.945   1.692
 1135SOL     OW 4303   2.272   1.294   2.872
 1135SOL    HW1 4304   2.322   1.318   2.788
 1135SOL    HW2 4305   2.190   1.351   2.879
 1136SOL     OW 4306   3.311   5.047   4.484
 1136SOL    HW1 4307   3.320   5.014   4.390
 1136SOL    HW2 4308   3.215   5.042   4.512
 1137SOL     OW 4309   1.026   1.201   6.501
 1137SOL    HW1 4310   1.054   1.140   6.427
 1137SOL    HW2 4311   1.079   1.286   6.497
 1138SOL     OW 4312   0.159   1.028   6.512
 1138SOL    HW1 4313   0.113   1.016   6.424
 1138SOL    HW2 4314   0.235   0.964   6.519
 1139SOL     OW 4315   3.446   5.109   1.546
 1139SOL    HW1 4316   3.473   5.043   1.476
 1139SOL    HW2 4317   3.351   5.093   1.573
 1140SOL     OW 4318   4.116   1.114   1.985
 1140SOL    HW1 4319   4.056   1.074   2.054
 1140SOL    HW2 4320   4.198   1.057   1.976
 1141SOL     OW 4321   0.219   6.336   6.575
 1141SOL    HW1 4322   0.154   6.261   6.557
 1141SOL    HW2 4323   0.312   6.301   6.569
 1142SOL     OW 4324   2.791   0.175   4.850
 1142SOL    HW1 4325   2.852   0.237   4.900
 1142SOL    HW2 4326   2.789   0.201   4.753
 1143SOL     OW 4327   1.608   3.457   2.595
 1143SOL    HW1 4328   1.581   3.498   2.682
 1143SOL    HW2 4329   1.683   3.509   2.555
 1144SOL     OW 4330   6.560   5.089   5.246
 1144SOL    HW1 4331   6.565   5.088   5.146
 1144SOL    HW2 4332   6.552   5.183   5.278
 1145SOL     OW 4333   7.012   3.694   2.199
 1145SOL    HW1 4334   0.053   3.625   2.160
 1145SOL    HW2 4335   0.041   3.748   2.267
 1146SOL     OW 4336   6.287   0.763   2.499
 1146SOL    HW1 4337   6.206   0.742   2.444
 1146SOL    HW2 4338   6.347   0.825   2.447
 1147SOL     OW 4339   2.330   5.305   1.481
 1147SOL    HW1 4340   2.366   5.234   1.420
 1147SOL    HW2 4341   2.406   5.358   1.519
 1148SOL     OW 4342   4.922   6.568   0.600
 1148SOL    HW1 4343   4.838   6.515   0.614
 1148SOL    HW2 4344   4.965   6.541   0.514
 1149SOL     OW 4345   6.798   4.347   2.875
 1149SOL    HW1 4346   6.700   4.355   2.857
 1149SOL    HW2 4347   6.814   4.268   2.934
 1150SOL     OW 4348   2.553   3.847   0.265
 1150SOL    HW1 4349   2.481   3.777   0.272
 1150SOL    HW2 4350   2.512   3.934   0.238
 1151SOL     OW 4351   4.481   5.531   0.052
 1151SOL    HW1 4352   4.555   5.546   0.118
 1151SOL    HW2 4353   4.483   5.604   7.003
 1152SOL     OW 4354   6.026   4.751   6.218
 1152SOL    HW1 4355   6.023   4.666   6.165
 1152SOL    HW2 4356   5.938   4.797   6.213
 1153SOL     OW 4357   2.295   0.226   1.322
 1153SOL    HW1 4358   2.247   0.163   1.383
 1153SOL    HW2 4359   2.326   0.176   1.240
 1154SOL     OW 4360   0.516   4.398   1.673
 1154SOL    HW1 4361   0.519   4.311   1.624
 1154SOL    HW2 4362   0.514   4.473   1.607
 1155SOL     OW 4363   2.276   5.496   6.603
 1155SOL    HW1 4364   2.351   5.447   6.559
 1155SOL    HW2 4365   2.312   5.553   6.677
 1156SOL     OW 4366   3.315   1.554   4.298
 1156SOL    HW1 4367   3.288   1.587   4.388
 1156SOL    HW2 4368   3.329   1.455   4.302
 1157SOL     OW 4369   5.807   0.489   5.588
 1157SOL    HW1 4370   5.828   0.502   5.684
 1157SOL    HW2 4371   5.886   0.516   5.532
 1158SOL     OW 4372   6.658   5.555   5.355
 1158SOL    HW1 4373   6.565   5.587   5.373
 1158SOL    HW2 4374   6.694   5.601   5.274
 1159SOL     OW 4375   6.245   0.104   4.138
 1159SOL    HW1 4376   6.262   0.145   4.228
 1159SOL    HW2 4377   6.236   0.005   4.148
 1160SOL     OW 4378   3.912   3.812   1.342
 1160SOL    HW1 4379   3.888   3.838   1.249
 1160SOL    HW2 4380   3.882   3.718   1.360
 1161SOL     OW 4381   6.565   0.411   6.579
 1161SOL    HW1 4382   6.564   0.460   6.492
 1161SOL    HW2 4383   6.657   0.373   6.595
 1162SOL     OW 4384   2.881   2.118   6.831
 1162SOL    HW1 4385   2.813   2.181   6.793
 1162SOL    HW2 4386   2.921   2.064   6.758
 1163SOL     OW 4387   6.858   3.048   1.563
 1163SOL    HW1 4388   6.939   3.017   1.612
 1163SOL    HW2 4389   6.873   3.035   1.464
 1164SOL     OW 4390   5.709   3.111   5.484
 1164SOL    HW1 4391   5.710   3.207   5.455
 1164SOL    HW2 4392   5.625   3.068   5.452
 1165SOL     OW 4393   2.651   4.732   3.841
 1165SOL    HW1 4394   2.653   4.823   3.800
 1165SOL    HW2 4395   2.695   4.666   3.779
 1166SOL     OW 4396   3.542   6.847   0.039
 1166SOL    HW1 4397   3.616   6.904   0.004
 1166SOL    HW2 4398   3.498   6.892   0.117
 1167SOL     OW 4399   4.553   6.532   6.539
 1167SOL    HW1 4400   4.647   6.565   6.547
 1167SOL    HW2 4401   4.513   6.521   6.630
 1168SOL     OW 4402   4.923   1.922   3.661
 1168SOL    HW1 4403   5.008   1.896   3.615
 1168SOL    HW2 4404   4.884   1.843   3.708
 1169SOL     OW 4405   5.179   2.403   5.849
 1169SOL    HW1 4406   5.188   2.501   5.829
 1169SOL    HW2 4407   5.098   2.367   5.804
 1170SOL     OW 4408   5.255   1.053   3.033
 1170SOL    HW1 4409   5.208   1.069   3.120
 1170SOL    HW2 4410   5.293   0.960   3.032
 1171SOL     OW 4411   2.897   6.343   6.938
 1171SOL    HW1 4412   2.838   6.409   6.892
 1171SOL    HW2 4413   2.869   6.250   6.914
 1172SOL     OW 4414   3.063   4.075   2.057
 1172SOL    HW1 4415   3.041   4.139   2.130
 1172SOL    HW2 4416   3.070   3.983   2.095
 1173SOL     OW 4417   3.383   0.865   6.616
 1173SOL    HW1 4418   3.456   0.931   6.629
 1173SOL    HW2 4419   3.307   0.907   6.566
 1174SOL     OW 4420   3.504   4.703   0.795
 1174SOL    HW1 4421   3.478   4.798   0.779
 1174SOL    HW2 4422   3.597   4.688   0.761
 1175SOL     OW 4423   3.944   3.381   6.731
 1175SOL    HW1 4424   3.902   3.338   6.651
 1175SOL    HW2 4425   4.015   3.445   6.701
 1176SOL     OW 4426   5.812   4.818   6.442
 1176SOL    HW1 4427   5.807   4.894   6.377
 1176SOL    HW2 4428   5.796   4.732   6.393
 1177SOL     OW 4429   6.645   1.849   5.659
 1177SOL    HW1 4430   6.599   1.859   5.570
 1177SOL    HW2 4431   6.619   1.926   5.718
 1178SOL     OW 4432   3.141   3.692   0.815
 1178SOL    HW1 4433   3.049   3.654   0.819
 1178SOL    HW2 4434   3.198   3.634   0.756
 1179SOL     OW 4435   3.190   6.693   0.884
 1179SOL    HW1 4436   3.251   6.738   0.818
 1179SOL    HW2 4437   3.113   6.754   0.905
 1180SOL     OW 4438   2.236   6.144   3.876
 1180SOL    HW1 4439   2.229   6.059   3.929
 1180SOL    HW2 4440   2.284   6.126   3.790
 1181SOL     OW 4441   0.481   3.254   5.875
 1181SOL    HW1 4442   0.484   3.354   5.877
 1181SOL    HW2 4443   0.559   3.220   5.822
 1182SOL     OW 4444   2.831   5.206   3.097
 1182SOL    HW1 4445   2.815   5.121   3.047
 1182SOL    HW2 4446   2.903   5.192   3.165
 1183SOL     OW 4447   3.490   5.410   1.960
 1183SOL    HW1 4448   3.407   5.372   2.001
 1183SOL    HW2 4449   3.510   5.363   1.874
 1184SOL     OW 4450   5.391   0.175   6.493
 1184SOL    HW1 4451   5.350   0.096   6.539
 1184SOL    HW2 4452   5.344   0.258   6.521
 1185SOL     OW 4453   0.675   1.226   1.303
 1185SOL    HW1 4454   0.774   1.217   1.295
 1185SOL    HW2 4455   0.650   1.323   1.310
 1186SOL     OW 4456   5.629   5.903   5.252
 1186SOL    HW1 4457   5.652   5.979   5.313
 1186SOL    HW2 4458   5.694   5.901   5.176
 1187SOL     OW 4459   5.373   6.812   5.588
 1187SOL    HW1 4460   5.328   6.897   5.559
 1187SOL    HW2 4461   5.331   6.781   5.674
 1188SOL     OW 4462   3.725   5.664   6.192
 1188SOL    HW1 4463   3.691   5.570   6.195
 1188SOL    HW2 4464   3.653   5.726   6.222
 1189SOL     OW 4465   5.810   0.486   1.678
 1189SOL    HW1 4466   5.869   0.540   1.619
 1189SOL    HW2 4467   5.833   0.504   1.774
 1190SOL     OW 4468   3.421   5.974   2.963
 1190SOL    HW1 4469   3.392   5.974   2.867
 1190SOL    HW2 4470   3.436   5.880   2.994
 1191SOL     OW 4471   2.553   6.582   4.242
 1191SOL    HW1 4472   2.574   6.519   4.317
 1191SOL    HW2 4473   2.593   6.547   4.157
 1192SOL     OW 4474   5.545   6.261   3.533
 1192SOL    HW1 4475   5.636   6.296   3.509
 1192SOL    HW2 4476   5.490   6.335   3.572
 1193SOL     OW 4477   0.288   0.285   5.076
 1193SOL    HW1 4478   0.286   0.233   4.991
 1193SOL    HW2 4479   0.221   0.247   5.140
 1194SOL     OW 4480   6.547   1.704   0.734
 1194SOL    HW1 4481   6.634   1.684   0.779
 1194SOL    HW2 4482   6.538   1.647   0.652
 1195SOL     OW 4483   6.178   3.508   0.495
 1195SOL    HW1 4484   6.198   3.558   0.579
 1195SOL    HW2 4485   6.264   3.478   0.453
 1196SOL     OW 4486   6.038   4.529   3.092
 1196SOL    HW1 4487   5.967   4.461   3.077
 1196SOL    HW2 4488   6.059   4.575   3.005
 1197SOL     OW 4489   4.479   6.605   4.219
 1197SOL    HW1 4490   4.392   6.558   4.210
 1197SOL    HW2 4491   4.472   6.676   4.289
 1198SOL     OW 4492   0.964   3.996   2.088
 1198SOL    HW1 4493   0.874   4.033   2.111
 1198SOL    HW2 4494   0.963   3.897   2.098
 1199SOL     OW 4495   3.317   3.004   3.034
 1199SOL    HW1 4496   3.225   3.042   3.024
 1199SOL    HW2 4497   3.371   3.062   3.095
 1200SOL     OW 4498   3.761   4.044   4.581
 1200SOL    HW1 4499   3.776   3.948   4.607
 1200SOL    HW2 4500   3.779   4.054   4.483
 1201SOL     OW 4501   6.919   0.768   4.965
 1201SOL    HW1 4502   7.013   0.787   4.938
 1201SOL    HW2 4503   6.897   0.817   5.050
 1202SOL     OW 4504   6.506   6.356   5.291
 1202SOL    HW1 4505   6.546   6.394   5.208
 1202SOL    HW2 4506   6.566   6.286   5.328
 1203SOL     OW 4507   0.659   6.339   0.418
 1203SOL    HW1 4508   0.739   6.374   0.369
 1203SOL    HW2 4509   0.624   6.259   0.370
 1204SOL     OW 4510   5.094   1.283   1.949
 1204SOL    HW1 4511   5.089   1.236   2.037
 1204SOL    HW2 4512   5.162   1.356   1.953
 1205SOL     OW 4513   3.661   3.723   0.287
 1205SOL    HW1 4514   3.757   3.753   0.285
 1205SOL    HW2 4515   3.623   3.730   0.195
 1206SOL     OW 4516   1.126   3.214   4.644
 1206SOL    HW1 4517   1.152   3.120   4.619
 1206SOL    HW2 4518   1.190   3.250   4.711
 1207SOL     OW 4519   0.351   0.446   1.000
 1207SOL    HW1 4520   0.400   0.505   0.937
 1207SOL    HW2 4521   0.294   0.501   1.061
 1208SOL     OW 4522   3.080   3.480   1.851
 1208SOL    HW1 4523   3.089   3.563   1.795
 1208SOL    HW2 4524   3.156   3.418   1.830
 1209SOL     OW 4525   5.404   0.391   4.293
 1209SOL    HW1 4526   5.319   0.342   4.275
 1209SOL    HW2 4527   5.384   0.484   4.322
 1210SOL     OW 4528   4.783   6.700   4.101
 1210SOL    HW1 4529   4.734   6.629   4.152
 1210SOL    HW2 4530   4.878   6.704   4.132
 1211SOL     OW 4531   0.842   3.384   2.938
 1211SOL    HW1 4532   0.754   3.426   2.917
 1211SOL    HW2 4533   0.843   3.355   3.033
 1212SOL     OW 4534   6.632   0.535   5.963
 1212SOL    HW1 4535   6.699   0.462   5.951
 1212SOL    HW2 4536   6.540   0.495   5.966
 1213SOL     OW 4537   5.558   1.975   2.247
 1213SOL    HW1 4538   5.522   2.068   2.257
 1213SOL    HW2 4539   5.490   1.918   2.202
 1214SOL     OW 4540   0.369   2.604   6.385
 1214SOL    HW1 4541   0.322   2.692   6.389
 1214SOL    HW2 4542   0.422   2.599   6.301
 1215SOL     OW 4543   1.467   4.691   2.532
 1215SOL    HW1 4544   1.412   4.754   2.477
 1215SOL    HW2 4545   1.409   4.615   2.563
 1216SOL     OW 4546   6.020   1.255   0.818
 1216SOL    HW1 4547   5.935   1.307   0.808
 1216SOL    HW2 4548   6.006   1.162   0.784
 1217SOL     OW 4549   2.953   4.934   0.692
 1217SOL    HW1 4550   3.034   4.993   0.697
 1217SOL    HW2 4551   2.979   4.844   0.657
 1218SOL     OW 4552   1.730   2.702   5.561
 1218SOL    HW1 4553   1.744   2.702   5.660
 1218SOL    HW2 4554   1.767   2.787   5.523
 1219SOL     OW 4555   5.080   5.174   1.884
 1219SOL    HW1 4556   5.099   5.225   1.800
 1219SOL    HW2 4557   5.142   5.206   1.956
 1220SOL     OW 4558   6.632   3.861   2.110
 1220SOL    HW1 4559   6.672   3.775   2.078
 1220SOL    HW2 4560   6.705   3.927   2.130
 1221SOL     OW 4561   5.330   3.798   6.501
 1221SOL    HW1 4562   5.357   3.707   6.470
 1221SOL    HW2 4563   5.304   3.854   6.422
 1222SOL     OW 4564   0.147   0.908   6.895
 1222SOL    HW1 4565   0.237   0.904   6.939
 1222SOL    HW2 4566   0.128   0.820   6.851
 1223SOL     OW 4567   3.741   0.948   0.347
 1223SOL    HW1 4568   3.752   0.980   0.442
 1223SOL    HW2 4569   3.662   0.887   0.341
 1224SOL     OW 4570   3.142   6.003   6.394
 1224SOL    HW1 4571   3.179   6.026   6.484
 1224SOL    HW2 4572   3.190   5.923   6.358
 1225SOL     OW 4573   3.586   2.564   6.972
 1225SOL    HW1 4574   3.648   2.500   7.018
 1225SOL    HW2 4575   3.576   2.647   0.007
 1226SOL     OW 4576   3.626   6.173   0.409
 1226SOL    HW1 4577   3.549   6.211   0.358
 1226SOL    HW2 4578   3.656   6.088   0.364
 1227SOL     OW 4579   5.262   5.132   5.464
 1227SOL    HW1 4580   5.200   5.105   5.537
 1227SOL    HW2 4581   5.210   5.181   5.393
 1228SOL     OW 4582   3.568   2.374   6.481
 1228SOL    HW1 4583   3.569   2.304   6.409
 1228SOL    HW2 4584   3.602   2.335   6.566
 1229SOL     OW 4585   1.960   5.543   0.172
 1229SOL    HW1 4586   2.039   5.534   0.232
 1229SOL    HW2 4587   1.883   5.580   0.224
 1230SOL     OW 4588   5.761   6.038   2.162
 1230SOL    HW1 4589   5.727   6.030   2.068
 1230SOL    HW2 4590   5.709   6.109   2.210
 1231SOL     OW 4591   1.615   1.941   4.792
 1231SOL    HW1 4592   1.674   2.022   4.786
 1231SOL    HW2 4593   1.576   1.935   4.883
 1232SOL     OW 4594   6.396   1.076   4.669
 1232SOL    HW1 4595   6.328   1.037   4.730
 1232SOL    HW2 4596   6.351   1.134   4.601
 1233SOL     OW 4597   0.729   5.756   4.601
 1233SOL    HW1 4598   0.749   5.659   4.613
 1233SOL    HW2 4599   0.636   5.775   4.633
 1234SOL     OW 4600   5.898   2.333   5.298
 1234SOL    HW1 4601   5.798   2.339   5.309
 1234SOL    HW2 4602   5.921   2.343   5.201
 1235SOL     OW 4603   5.953   4.733   1.585
 1235SOL    HW1 4604   5.961   4.830   1.610
 1235SOL    HW2 4605   5.974   4.677   1.664
 1236SOL     OW 4606   4.684   1.634   1.564
 1236SOL    HW1 4607   4.783   1.636   1.580
 1236SOL    HW2 4608   4.636   1.656   1.649
 1237SOL     OW 4609   1.126   4.569   5.375
 1237SOL    HW1 4610   1.209   4.599   5.329
 1237SOL    HW2 4611   1.068   4.648   5.394
 1238SOL     OW 4612   1.733   0.242   6.117
 1238SOL    HW1 4613   1.826   0.247   6.080
 1238SOL    HW2 4614   1.674   0.303   6.065
 1239SOL     OW 4615   0.194   6.572   6.438
 1239SOL    HW1 4616   0.140   6.633   6.496
 1239SOL    HW2 4617   0.193   6.480   6.477
 1240SOL     OW 4618   5.951   6.102   1.309
 1240SOL    HW1 4619   5.916   6.008   1.300
 1240SOL    HW2 4620   6.044   6.099   1.345
 1241SOL     OW 4621   5.831   4.305   5.382
 1241SOL    HW1 4622   5.882   4.224   5.354
 1241SOL    HW2 4623   5.777   4.340   5.305
 1242SOL     OW 4624   1.954   3.821   1.056
 1242SOL    HW1 4625   1.987   3.901   1.106
 1242SOL    HW2 4626   1.859   3.836   1.029
 1243SOL     OW 4627   1.366   0.964   5.252
 1243SOL    HW1 4628   1.416   0.881   5.274
 1243SOL    HW2 4629   1.355   0.971   5.153
 1244SOL     OW 4630   5.363   6.315   4.549
 1244SOL    HW1 4631   5.329   6.395   4.599
 1244SOL    HW2 4632   5.400   6.248   4.614
 1245SOL     OW 4633   5.224   4.281   0.169
 1245SOL    HW1 4634   5.290   4.250   0.101
 1245SOL    HW2 4635   5.219   4.215   0.243
 1246SOL     OW 4636   3.337   1.315   1.297
 1246SOL    HW1 4637   3.376   1.334   1.207
 1246SOL    HW2 4638   3.362   1.389   1.360
 1247SOL     OW 4639   0.050   6.653   5.629
 1247SOL    HW1 4640   0.146   6.661   5.656
 1247SOL    HW2 4641   0.024   6.732   5.573
 1248SOL     OW 4642   1.988   0.023   3.922
 1248SOL    HW1 4643   1.994   6.948   3.894
 1248SOL    HW2 4644   1.953   0.078   3.846
 1249SOL     OW 4645   6.683   2.441   2.012
 1249SOL    HW1 4646   6.614   2.399   2.071
 1249SOL    HW2 4647   6.774   2.413   2.042
 1250SOL     OW 4648   5.931   5.117   3.409
 1250SOL    HW1 4649   5.849   5.078   3.367
 1250SOL    HW2 4650   5.991   5.153   3.337
 1251SOL     OW 4651   2.111   1.220   3.139
 1251SOL    HW1 4652   2.023   1.212   3.092
 1251SOL    HW2 4653   2.151   1.130   3.152
 1252SOL     OW 4654   3.914   4.563   6.862
 1252SOL    HW1 4655   3.889   4.485   6.804
 1252SOL    HW2 4656   3.849   4.637   6.848
 1253SOL     OW 4657   3.446   6.292   2.263
 1253SOL    HW1 4658   3.363   6.309   2.209
 1253SOL    HW2 4659   3.507   6.371   2.254
 1254SOL     OW 4660   0.604   2.515   3.645
 1254SOL    HW1 4661   0.653   2.548   3.564
 1254SOL    HW2 4662   0.524   2.573   3.661
 1255SOL     OW 4663   5.720   1.392   5.800
 1255SOL    HW1 4664   5.812   1.366   5.829
 1255SOL    HW2 4665   5.725   1.470   5.737
 1256SOL     OW 4666   6.994   0.308   3.504
 1256SOL    HW1 4667   6.921   0.246   3.532
 1256SOL    HW2 4668   0.017   0.273   3.421
 1257SOL     OW 4669   6.974   5.058   5.350
 1257SOL    HW1 4670   6.922   5.098   5.274
 1257SOL    HW2 4671   0.006   5.129   5.396
 1258SOL     OW 4672   1.456   5.213   3.019
 1258SOL    HW1 4673   1.422   5.144   3.083
 1258SOL    HW2 4674   1.555   5.223   3.030
 1259SOL     OW 4675   3.648   0.186   4.337
 1259SOL    HW1 4676   3.668   0.150   4.246
 1259SOL    HW2 4677   3.601   0.274   4.329
 1260SOL     OW 4678   3.505   1.914   0.164
 1260SOL    HW1 4679   3.408   1.933   0.177
 1260SOL    HW2 4680   3.517   1.846   0.092
 1261SOL     OW 4681   6.275   5.229   6.656
 1261SOL    HW1 4682   6.335   5.288   6.602
 1261SOL    HW2 4683   6.305   5.228   6.751
 1262SOL     OW 4684   5.620   4.617   1.017
 1262SOL    HW1 4685   5.706   4.584   0.977
 1262SOL    HW2 4686   5.568   4.540   1.052
 1263SOL     OW 4687   6.828   2.385   1.368
 1263SOL    HW1 4688   6.802   2.425   1.456
 1263SOL    HW2 4689   6.809   2.287   1.369
 1264SOL     OW 4690   6.776   3.335   1.315
 1264SOL    HW1 4691   6.857   3.277   1.305
 1264SOL    HW2 4692   6.803   3.431   1.304
 1265SOL     OW 4693   4.859   5.518   3.634
 1265SOL    HW1 4694   4.953   5.530   3.666
 1265SOL    HW2 4695   4.859   5.462   3.551
 1266SOL     OW 4696   0.631   1.175   4.601
 1266SOL    HW1 4697   0.661   1.084   4.571
 1266SOL    HW2 4698   0.533   1.185   4.584
 1267SOL     OW 4699   5.440   6.341   1.299
 1267SOL    HW1 4700   5.347   6.346   1.334
 1267SOL    HW2 4701   5.441   6.293   1.211
 1268SOL     OW 4702   4.037   3.038   0.448
 1268SOL    HW1 4703   4.025   2.961   0.511
 1268SOL    HW2 4704   3.995   3.120   0.487
 1269SOL     OW 4705   5.643   5.412   4.736
 1269SOL    HW1 4706   5.614   5.365   4.653
 1269SOL    HW2 4707   5.677   5.345   4.802
 1270SOL     OW 4708   2.175   4.264   3.386
 1270SOL    HW1 4709   2.186   4.214   3.300
 1270SOL    HW2 4710   2.125   4.349   3.368
 1271SOL     OW 4711   2.722   2.266   3.723
 1271SOL    HW1 4712   2.766   2.242   3.637
 1271SOL    HW2 4713   2.793   2.283   3.792
 1272SOL     OW 4714   5.264   5.591   0.111
 1272SOL    HW1 4715   5.264   5.492   0.101
 1272SOL    HW2 4716   5.355   5.627   0.088
 1273SOL     OW 4717   0.792   4.272   6.997
 1273SOL    HW1 4718   0.698   4.299   6.976
 1273SOL    HW2 4719   0.791   4.181   0.019
 1274SOL     OW 4720   6.503   4.385   1.426
 1274SOL    HW1 4721   6.407   4.370   1.402
 1274SOL    HW2 4722   6.514   4.476   1.465
 1275SOL     OW 4723   3.503   1.809   4.532
 1275SOL    HW1 4724   3.500   1.780   4.436
 1275SOL    HW2 4725   3.515   1.908   4.537
 1276SOL     OW 4726   6.943   6.593   4.963
 1276SOL    HW1 4727   6.879   6.631   5.028
 1276SOL    HW2 4728   6.911   6.503   4.933
 1277SOL     OW 4729   1.414   5.611   6.562
 1277SOL    HW1 4730   1.448   5.676   6.630
 1277SOL    HW2 4731   1.384   5.660   6.480
 1278SOL     OW 4732   0.828   6.829   4.767
 1278SOL    HW1 4733   0.914   6.880   4.769
 1278SOL    HW2 4734   0.799   6.816   4.672
 1279SOL     OW 4735   3.165   6.649   0.510
 1279SOL    HW1 4736   3.101   6.702   0.567
 1279SOL    HW2 4737   3.185   6.700   0.427
 1280SOL     OW 4738   3.238   6.414   5.009
 1280SOL    HW1 4739   3.141   6.432   4.994
 1280SOL    HW2 4740   3.274   6.362   4.931
 1281SOL     OW 4741   1.545   6.423   3.401
 1281SOL    HW1 4742   1.481   6.494   3.370
 1281SOL    HW2 4743   1.633   6.436   3.354
 1282SOL     OW 4744   0.534   2.049   6.854
 1282SOL    HW1 4745   0.526   1.977   6.785
 1282SOL    HW2 4746   0.568   2.132   6.810
 1283SOL     OW 4747   0.354   2.746   5.603
 1283SOL    HW1 4748   0.302   2.751   5.518
 1283SOL    HW2 4749   0.344   2.832   5.654
 1284SOL     OW 4750   5.041   1.908   1.890
 1284SOL    HW1 4751   5.044   2.003   1.923
 1284SOL    HW2 4752   4.957   1.894   1.837
 1285SOL     OW 4753   4.949   1.958   6.475
 1285SOL    HW1 4754   4.858   1.928   6.447
 1285SOL    HW2 4755   4.940   2.037   6.536
 1286SOL     OW 4756   5.041   3.937   2.085
 1286SOL    HW1 4757   5.074   3.864   2.025
 1286SOL    HW2 4758   5.051   4.025   2.038
 1287SOL     OW 4759   5.742   5.924   4.948
 1287SOL    HW1 4760   5.842   5.927   4.957
 1287SOL    HW2 4761   5.716   5.844   4.894
 1288SOL     OW 4762   4.547   3.473   6.836
 1288SOL    HW1 4763   4.643   3.485   6.812
 1288SOL    HW2 4764   4.515   3.385   6.801
 1289SOL     OW 4765   1.327   6.015   2.204
 1289SOL    HW1 4766   1.286   6.044   2.291
 1289SOL    HW2 4767   1.272   5.943   2.163
 1290SOL     OW 4768   0.714   6.239   6.468
 1290SOL    HW1 4769   0.656   6.315   6.497
 1290SOL    HW2 4770   0.739   6.184   6.548
 1291SOL     OW 4771   0.060   3.593   5.472
 1291SOL    HW1 4772   0.107   3.515   5.430
 1291SOL    HW2 4773   0.125   3.644   5.528
 1292SOL     OW 4774   0.324   5.783   2.221
 1292SOL    HW1 4775   0.415   5.775   2.262
 1292SOL    HW2 4776   0.299   5.697   2.178
 1293SOL     OW 4777   1.172   2.046   0.501
 1293SOL    HW1 4778   1.187   2.078   0.407
 1293SOL    HW2 4779   1.103   1.973   0.500
 1294SOL     OW 4780   1.057   3.117   6.760
 1294SOL    HW1 4781   1.018   3.052   6.693
 1294SOL    HW2 4782   1.154   3.096   6.773
 1295SOL     OW 4783   0.354   3.369   2.097
 1295SOL    HW1 4784   0.421   3.294   2.089
 1295SOL    HW2 4785   0.283   3.343   2.162
 1296SOL     OW 4786   3.639   0.273   5.675
 1296SOL    HW1 4787   3.566   0.292   5.740
 1296SOL    HW2 4788   3.715   0.228   5.722
 1297SOL     OW 4789   6.267   0.802   1.484
 1297SOL    HW1 4790   6.275   0.863   1.405
 1297SOL    HW2 4791   6.311   0.843   1.563
 1298SOL     OW 4792   5.557   4.633   2.626
 1298SOL    HW1 4793   5.566   4.616   2.528
 1298SOL    HW2 4794   5.536   4.548   2.673
 1299SOL     OW 4795   1.446   3.989   3.096
 1299SOL    HW1 4796   1.448   4.080   3.139
 1299SOL    HW2 4797   1.365   3.982   3.037
 1300SOL     OW 4798   3.068   2.769   1.371
 1300SOL    HW1 4799   2.991   2.710   1.394
 1300SOL    HW2 4800   3.147   2.744   1.426
 1301SOL     OW 4801   0.792   6.158   1.345
 1301SOL    HW1 4802   0.719   6.163   1.414
 1301SOL    HW2 4803   0.866   6.101   1.379
 1302SOL     OW 4804   5.064   0.756   5.248
 1302SOL    HW1 4805   5.104   0.664   5.243
 1302SOL    HW2 4806   4.967   0.751   5.223
 1303SOL     OW 4807   4.623   1.686   1.930
 1303SOL    HW1 4808   4.628   1.594   1.969
 1303SOL    HW2 4809   4.535   1.727   1.953
 1304SOL     OW 4810   2.411   1.473   6.518
 1304SOL    HW1 4811   2.466   1.403   6.563
 1304SOL    HW2 4812   2.347   1.429   6.455
 1305SOL     OW 4813   5.128   3.394   7.011
 1305SOL    HW1 4814   5.108   3.437   0.079
 1305SOL    HW2 4815   5.118   3.295   7.019
 1306SOL     OW 4816   0.643   4.962   4.248
 1306SOL    HW1 4817   0.705   4.883   4.242
 1306SOL    HW2 4818   0.602   4.965   4.338
 1307SOL     OW 4819   0.946   4.197   4.539
 1307SOL    HW1 4820   0.890   4.147   4.604
 1307SOL    HW2 4821   0.895   4.275   4.502
 1308SOL     OW 4822   5.696   6.588   5.054
 1308SOL    HW1 4823   5.699   6.651   5.131
 1308SOL    HW2 4824   5.758   6.620   4.982
 1309SOL     OW 4825   5.384   3.272   5.375
 1309SOL    HW1 4826   5.329   3.189   5.372
 1309SOL    HW2 4827   5.396   3.301   5.470
 1310SOL     OW 4828   6.919   3.854   3.957
 1310SOL    HW1 4829   6.881   3.944   3.935
 1310SOL    HW2 4830   6.915   3.839   4.055
 1311SOL     OW 4831   0.479   6.729   4.917
 1311SOL    HW1 4832   0.570   6.718   4.957
 1311SOL    HW2 4833   0.459   6.826   4.905
 1312SOL     OW 4834   1.535   6.969   6.678
 1312SOL    HW1 4835   1.580   0.006   6.610
 1312SOL    HW2 4836   1.583   6.881   6.685
 1313SOL     OW 4837   1.114   3.829   3.920
 1313SOL    HW1 4838   1.140   3.819   4.016
 1313SOL    HW2 4839   1.157   3.756   3.866
 1314SOL     OW 4840   4.123   1.352   5.575
 1314SOL    HW1 4841   4.147   1.278   5.638
 1314SOL    HW2 4842   4.180   1.432   5.595
 1315SOL     OW 4843   0.439   1.124   1.405
 1315SOL    HW1 4844   0.519   1.150   1.351
 1315SOL    HW2 4845   0.468   1.073   1.486
 1316SOL     OW 4846   1.677   5.928   4.611
 1316SOL    HW1 4847   1.738   5.951   4.535
 1316SOL    HW2 4848   1.703   5.839   4.649
 1317SOL     OW 4849   2.295   4.611   6.449
 1317SOL    HW1 4850   2.212   4.630   6.501
 1317SOL    HW2 4851   2.373   4.605   6.510
 1318SOL     OW 4852   0.725   1.810   1.102
 1318SOL    HW1 4853   0.638   1.824   1.056
 1318SOL    HW2 4854   0.775   1.897   1.105
 1319SOL     OW 4855   6.784   0.588   0.420
 1319SOL    HW1 4856   6.769   0.529   0.500
 1319SOL    HW2 4857   6.878   0.622   0.422
 1320SOL     OW 4858   4.537   4.174   0.731
 1320SOL    HW1 4859   4.483   4.149   0.812
 1320SOL    HW2 4860   4.562   4.271   0.736
 1321SOL     OW 4861   5.682   1.365   6.348
 1321SOL    HW1 4862   5.590   1.353   6.383
 1321SOL    HW2 4863   5.680   1.365   6.248
 1322SOL     OW 4864   3.908   0.872   3.905
 1322SOL    HW1 4865   3.973   0.896   3.833
 1322SOL    HW2 4866   3.931   0.781   3.941
 1323SOL     OW 4867   4.914   0.894   5.513
 1323SOL    HW1 4868   4.834   0.946   5.485
 1323SOL    HW2 4869   4.997   0.948   5.496
 1324SOL     OW 4870   1.361   3.249   0.469
 1324SOL    HW1 4871   1.341   3.346   0.483
 1324SOL    HW2 4872   1.376   3.232   0.371
 1325SOL     OW 4873   2.048   0.504   2.844
 1325SOL    HW1 4874   2.076   0.577   2.782
 1325SOL    HW2 4875   1.958   0.526   2.882
 1326SOL     OW 4876   4.892   3.346   5.026
 1326SOL    HW1 4877   4.863   3.441   5.009
 1326SOL    HW2 4878   4.836   3.307   5.099
 1327SOL     OW 4879   1.197   5.123   2.402
 1327SOL    HW1 4880   1.264   5.192   2.427
 1327SOL    HW2 4881   1.218   5.086   2.312
 1328SOL     OW 4882   1.385   2.789   0.888
 1328SOL    HW1 4883   1.478   2.823   0.869
 1328SOL    HW2 4884   1.382   2.750   0.980
 1329SOL     OW 4885   0.249   2.552   1.465
 1329SOL    HW1 4886   0.264   2.462   1.506
 1329SOL    HW2 4887   0.166   2.550   1.409
 1330SOL     OW 4888   0.666   1.555   1.742
 1330SOL    HW1 4889   0.743   1.544   1.680
 1330SOL    HW2 4890   0.652   1.652   1.761
 1331SOL     OW 4891   5.031   2.621   3.317
 1331SOL    HW1 4892   5.038   2.522   3.329
 1331SOL    HW2 4893   4.958   2.642   3.253
 1332SOL     OW 4894   2.819   0.085   6.211
 1332SOL    HW1 4895   2.748   0.049   6.150
 1332SOL    HW2 4896   2.786   0.169   6.255
 1333SOL     OW 4897   3.832   3.930   5.289
 1333SOL    HW1 4898   3.790   3.868   5.222
 1333SOL    HW2 4899   3.815   4.025   5.261
 1334SOL     OW 4900   6.351   1.731   4.661
 1334SOL    HW1 4901   6.410   1.743   4.581
 1334SOL    HW2 4902   6.388   1.784   4.737
 1335SOL     OW 4903   2.414   2.312   3.368
 1335SOL    HW1 4904   2.358   2.392   3.346
 1335SOL    HW2 4905   2.363   2.249   3.426
 1336SOL     OW 4906   1.940   1.797   5.408
 1336SOL    HW1 4907   1.987   1.884   5.421
 1336SOL    HW2 4908   1.844   1.814   5.389
 1337SOL     OW 4909   1.817   2.550   4.411
 1337SOL    HW1 4910   1.798   2.452   4.411
 1337SOL    HW2 4911   1.777   2.592   4.329
 1338SOL     OW 4912   5.551   2.118   5.278
 1338SOL    HW1 4913   5.601   2.038   5.246
 1338SOL    HW2 4914   5.587   2.201   5.235
 1339SOL     OW 4915   0.119   1.509   6.131
 1339SOL    HW1 4916   0.069   1.471   6.054
 1339SOL    HW2 4917   0.110   1.609   6.132
 1340SOL     OW 4918   6.933   2.087   2.838
 1340SOL    HW1 4919   6.968   2.155   2.773
 1340SOL    HW2 4920   6.884   2.015   2.788
 1341SOL     OW 4921   5.487   0.232   6.262
 1341SOL    HW1 4922   5.407   0.254   6.205
 1341SOL    HW2 4923   5.455   0.199   6.351
 1342SOL     OW 4924   1.728   5.373   6.105
 1342SOL    HW1 4925   1.789   5.420   6.041
 1342SOL    HW2 4926   1.688   5.439   6.168
 1343SOL     OW 4927   4.771   5.891   3.466
 1343SOL    HW1 4928   4.705   5.899   3.540
 1343SOL    HW2 4929   4.855   5.939   3.490
 1344SOL     OW 4930   0.058   5.611   4.474
 1344SOL    HW1 4931   6.997   5.557   4.495
 1344SOL    HW2 4932   0.039   5.673   4.398
 1345SOL     OW 4933   1.647   0.659   2.568
 1345SOL    HW1 4934   1.711   0.706   2.508
 1345SOL    HW2 4935   1.691   0.577   2.606
 1346SOL     OW 4936   0.839   5.957   4.312
 1346SOL    HW1 4937   0.914   6.018   4.336
 1346SOL    HW2 4938   0.860   5.912   4.225
 1347SOL     OW 4939   6.322   6.673   4.495
 1347SOL    HW1 4940   6.281   6.598   4.547
 1347SOL    HW2 4941   6.249   6.724   4.449
 1348SOL     OW 4942   5.423   5.309   2.483
 1348SOL    HW1 4943   5.341   5.366   2.487
 1348SOL    HW2 4944   5.398   5.216   2.455
 1349SOL     OW 4945   4.543   2.390   5.874
 1349SOL    HW1 4946   4.452   2.373   5.836
 1349SOL    HW2 4947   4.604   2.421   5.802
 1350SOL     OW 4948   5.116   5.183   5.226
 1350SOL    HW1 4949   5.135   5.108   5.162
 1350SOL    HW2 4950   5.170   5.264   5.199
 1351SOL     OW 4951   6.377   1.185   3.509
 1351SOL    HW1 4952   6.298   1.211   3.452
 1351SOL    HW2 4953   6.431   1.117   3.461
 1352SOL     OW 4954   6.811   6.633   2.725
 1352SOL    HW1 4955   6.908   6.658   2.724
 1352SOL    HW2 4956   6.762   6.698   2.783
 1353SOL     OW 4957   0.369   3.271   0.247
 1353SOL    HW1 4958   0.425   3.258   0.328
 1353SOL    HW2 4959   0.385   3.194   0.184
 1354SOL     OW 4960   0.950   3.331   0.473
 1354SOL    HW1 4961   0.879   3.293   0.532
 1354SOL    HW2 4962   1.009   3.391   0.525
 1355SOL     OW 4963   6.520   2.276   5.413
 1355SOL    HW1 4964   6.604   2.265   5.359
 1355SOL    HW2 4965   6.469   2.355   5.380
 1356SOL     OW 4966   2.898   3.334   2.968
 1356SOL    HW1 4967   2.942   3.424   2.958
 1356SOL    HW2 4968   2.887   3.292   2.878
 1357SOL     OW 4969   1.374   3.306   5.413
 1357SOL    HW1 4970   1.470   3.305   5.384
 1357SOL    HW2 4971   1.370   3.326   5.511
 1358SOL     OW 4972   4.298   0.940   5.837
 1358SOL    HW1 4973   4.392   0.963   5.810
 1358SOL    HW2 4974   4.297   0.911   5.933
 1359SOL     OW 4975   5.882   4.497   1.951
 1359SOL    HW1 4976   5.928   4.535   1.871
 1359SOL    HW2 4977   5.938   4.425   1.991
 1360SOL     OW 4978   4.230   2.679   0.299
 1360SOL    HW1 4979   4.264   2.723   0.382
 1360SOL    HW2 4980   4.237   2.580   0.310
 1361SOL     OW 4981   6.869   5.161   5.115
 1361SOL    HW1 4982   6.840   5.147   5.020
 1361SOL    HW2 4983   6.914   5.250   5.123
 1362SOL     OW 4984   2.953   3.884   4.228
 1362SOL    HW1 4985   2.934   3.801   4.281
 1362SOL    HW2 4986   3.008   3.946   4.283
 1363SOL     OW 4987   6.942   5.611   3.365
 1363SOL    HW1 4988   6.950   5.640   3.460
 1363SOL    HW2 4989   6.861   5.553   3.354
 1364SOL     OW 4990   6.333   2.429   1.446
 1364SOL    HW1 4991   6.286   2.501   1.496
 1364SOL    HW2 4992   6.411   2.396   1.499
 1365SOL     OW 4993   0.819   2.522   6.055
 1365SOL    HW1 4994   0.779   2.607   6.019
 1365SOL    HW2 4995   0.782   2.444   6.005
 1366SOL     OW 4996   1.054   4.709   6.956
 1366SOL    HW1 4997   1.009   4.648   0.002
 1366SOL    HW2 4998   1.002   4.709   6.871
 1367SOL     OW 4999   1.982   6.858   2.681
 1367SOL    HW1 5000   2.036   6.939   2.660
 1367SOL    HW2 5001   1.923   6.836   2.603
 1368SOL     OW 5002   6.707   0.351   3.736
 1368SOL    HW1 5003   6.687   0.412   3.659
 1368SOL    HW2 5004   6.797   0.309   3.722
 1369SOL     OW 5005   2.439   6.938   1.976
 1369SOL    HW1 5006   2.531   6.916   1.945
 1369SOL    HW2 5007   2.372   6.909   1.908
 1370SOL     OW 5008   4.082   1.434   2.107
 1370SOL    HW1 5009   4.123   1.393   2.025
 1370SOL    HW2 5010   4.101   1.376   2.186
 1371SOL     OW 5011   6.536   1.387   4.484
 1371SOL    HW1 5012   6.611   1.321   4.479
 1371SOL    HW2 5013   6.477   1.376   4.404
 1372SOL     OW 5014   1.155   2.916   0.825
 1372SOL    HW1 5015   1.242   2.870   0.846
 1372SOL    HW2 5016   1.167   2.976   0.746
 1373SOL     OW 5017   4.788   2.335   6.746
 1373SOL    HW1 5018   4.815   2.293   6.833
 1373SOL    HW2 5019   4.842   2.296   6.671
 1374SOL     OW 5020   4.924   1.703   0.181
 1374SOL    HW1 5021   4.931   1.605   0.197
 1374SOL    HW2 5022   4.937   1.752   0.267
 1375SOL     OW 5023   0.510   4.572   6.519
 1375SOL    HW1 5024   0.589   4.571   6.457
 1375SOL    HW2 5025   0.430   4.535   6.471
 1376SOL     OW 5026   4.601   4.775   5.184
 1376SOL    HW1 5027   4.531   4.823   5.131
 1376SOL    HW2 5028   4.691   4.797   5.147
 1377SOL     OW 5029   0.768   3.342   5.746
 1377SOL    HW1 5030   0.800   3.274   5.811
 1377SOL    HW2 5031   0.846   3.377   5.693
 1378SOL     OW 5032   6.311   1.471   4.896
 1378SOL    HW1 5033   6.378   1.443   4.828
 1378SOL    HW2 5034   6.231   1.511   4.850
 1379SOL     OW 5035   3.507   6.949   3.021
 1379SOL    HW1 5036   3.513   6.881   3.095
 1379SOL    HW2 5037   3.428   6.927   2.963
 1380SOL     OW 5038   0.142   6.923   2.591
 1380SOL    HW1 5039   0.042   6.913   2.592
 1380SOL    HW2 5040   0.183   6.834   2.569
 1381SOL     OW 5041   5.813   2.246   6.660
 1381SOL    HW1 5042   5.819   2.202   6.571
 1381SOL    HW2 5043   5.862   2.192   6.728
 1382SOL     OW 5044   4.706   3.505   0.191
 1382SOL    HW1 5045   4.733   3.561   0.113
 1382SOL    HW2 5046   4.681   3.414   0.160
 1383SOL     OW 5047   0.969   0.105   1.948
 1383SOL    HW1 5048   0.977   0.050   2.031
 1383SOL    HW2 5049   0.902   0.178   1.962
 1384SOL     OW 5050   4.873   0.430   2.072
 1384SOL    HW1 5051   4.779   0.421   2.038
 1384SOL    HW2 5052   4.891   0.359   2.140
 1385SOL     OW 5053   2.085   4.529   3.573
 1385SOL    HW1 5054   2.016   4.547   3.503
 1385SOL    HW2 5055   2.147   4.607   3.579
 1386SOL     OW 5056   3.290   0.354   4.607
 1386SOL    HW1 5057   3.349   0.280   4.577
 1386SOL    HW2 5058   3.227   0.379   4.534
 1387SOL     OW 5059   3.481   6.013   2.204
 1387SOL    HW1 5060   3.481   6.104   2.245
 1387SOL    HW2 5061   3.431   6.016   2.117
 1388SOL     OW 5062   0.576   0.398   3.149
 1388SOL    HW1 5063   0.657   0.359   3.105
 1388SOL    HW2 5064   0.593   0.408   3.247
 1389SOL     OW 5065   6.580   1.213   3.898
 1389SOL    HW1 5066   6.650   1.145   3.922
 1389SOL    HW2 5067   6.504   1.168   3.851
 1390SOL     OW 5068   6.483   2.962   6.148
 1390SOL    HW1 5069   6.530   3.026   6.088
 1390SOL    HW2 5070   6.412   3.010   6.199
 1391SOL     OW 5071   5.796   6.562   5.656
 1391SOL    HW1 5072   5.717   6.624   5.654
 1391SOL    HW2 5073   5.819   6.541   5.751
 1392SOL     OW 5074   5.363   6.678   6.172
 1392SOL    HW1 5075   5.440   6.615   6.182
 1392SOL    HW2 5076   5.284   6.642   6.220
 1393SOL     OW 5077   6.651   3.795   5.952
 1393SOL    HW1 5078   6.621   3.867   6.015
 1393SOL    HW2 5079   6.624   3.820   5.859
 1394SOL     OW 5080   3.913   6.000   4.825
 1394SOL    HW1 5081   3.902   5.973   4.920
 1394SOL    HW2 5082   3.823   6.014   4.783
 1395SOL     OW 5083   1.681   4.162   4.055
 1395SOL    HW1 5084   1.731   4.196   3.975
 1395SOL    HW2 5085   1.702   4.220   4.134
 1396SOL     OW 5086   0.679   0.175   4.609
 1396SOL    HW1 5087   0.682   0.175   4.509
 1396SOL    HW2 5088   0.647   0.264   4.641
 1397SOL     OW 5089   0.249   5.902   4.272
 1397SOL    HW1 5090   0.220   5.850   4.192
 1397SOL    HW2 5091   0.262   5.998   4.248
 1398SOL     OW 5092   2.497   1.385   0.026
 1398SOL    HW1 5093   2.471   1.434   6.963
 1398SOL    HW2 5094   2.550   1.303   0.001
 1399SOL     OW 5095   3.835   6.433   0.152
 1399SOL    HW1 5096   3.871   6.350   0.110
 1399SOL    HW2 5097   3.784   6.486   0.084
 1400SOL     OW 5098   0.506   1.681   4.781
 1400SOL    HW1 5099   0.441   1.720   4.847
 1400SOL    HW2 5100   0.459   1.663   4.695
 1401SOL     OW 5101   5.689   0.185   4.586
 1401SOL    HW1 5102   5.770   0.136   4.620
 1401SOL    HW2 5103   5.707   0.219   4.494
 1402SOL     OW 5104   5.608   4.480   6.537
 1402SOL    HW1 5105   5.568   4.553   6.593
 1402SOL    HW2 5106   5.652   4.521   6.457
 1403SOL     OW 5107   1.895   2.098   1.166
 1403SOL    HW1 5108   1.917   2.098   1.069
 1403SOL    HW2 5109   1.979   2.105   1.220
 1404SOL     OW 5110   6.760   0.292   6.924
 1404SOL    HW1 5111   6.852   0.297   6.885
 1404SOL    HW2 5112   6.708   0.373   6.897
 1405SOL     OW 5113   2.875   4.083   0.994
 1405SOL    HW1 5114   2.797   4.114   0.941
 1405SOL    HW2 5115   2.937   4.030   0.935
 1406SOL     OW 5116   1.868   5.422   1.354
 1406SOL    HW1 5117   1.958   5.438   1.313
 1406SOL    HW2 5118   1.871   5.441   1.452
 1407SOL     OW 5119   1.388   4.203   3.275
 1407SOL    HW1 5120   1.414   4.178   3.368
 1407SOL    HW2 5121   1.289   4.198   3.266
 1408SOL     OW 5122   5.583   6.890   6.367
 1408SOL    HW1 5123   5.572   6.926   6.274
 1408SOL    HW2 5124   5.493   6.871   6.406
 1409SOL     OW 5125   1.036   0.001   5.336
 1409SOL    HW1 5126   1.127   0.040   5.352
 1409SOL    HW2 5127   1.011   0.015   5.240
 1410SOL     OW 5128   2.184   4.137   6.296
 1410SOL    HW1 5129   2.254   4.199   6.332
 1410SOL    HW2 5130   2.217   4.096   6.211
 1411SOL     OW 5131   3.388   6.302   0.261
 1411SOL    HW1 5132   3.291   6.280   0.271
 1411SOL    HW2 5133   3.409   6.382   0.317
 1412SOL     OW 5134   0.823   4.044   1.298
 1412SOL    HW1 5135   0.723   4.041   1.301
 1412SOL    HW2 5136   0.855   4.008   1.210
 1413SOL     OW 5137   2.412   1.530   4.780
 1413SOL    HW1 5138   2.326   1.582   4.785
 1413SOL    HW2 5139   2.489   1.591   4.802
 1414SOL     OW 5140   2.529   1.798   1.698
 1414SOL    HW1 5141   2.521   1.890   1.735
 1414SOL    HW2 5142   2.591   1.744   1.756
 1415SOL     OW 5143   2.926   1.654   3.913
 1415SOL    HW1 5144   2.863   1.703   3.974
 1415SOL    HW2 5145   2.873   1.596   3.851
 1416SOL     OW 5146   3.869   6.571   4.448
 1416SOL    HW1 5147   3.957   6.592   4.492
 1416SOL    HW2 5148   3.862   6.622   4.362
 1417SOL     OW 5149   3.096   2.630   6.564
 1417SOL    HW1 5150   3.168   2.562   6.578
 1417SOL    HW2 5151   3.009   2.594   6.598
 1418SOL     OW 5152   2.938   3.720   1.124
 1418SOL    HW1 5153   2.951   3.639   1.181
 1418SOL    HW2 5154   2.943   3.694   1.027
 1419SOL     OW 5155   3.435   5.850   4.281
 1419SOL    HW1 5156   3.409   5.941   4.314
 1419SOL    HW2 5157   3.373   5.782   4.318
 1420SOL     OW 5158   3.506   6.026   3.209
 1420SOL    HW1 5159   3.481   6.009   3.113
 1420SOL    HW2 5160   3.481   6.120   3.233
 1421SOL     OW 5161   1.021   4.193   4.227
 1421SOL    HW1 5162   1.116   4.206   4.198
 1421SOL    HW2 5163   1.016   4.196   4.327
 1422SOL     OW 5164   2.696   4.311   6.559
 1422SOL    HW1 5165   2.794   4.326   6.548
 1422SOL    HW2 5166   2.675   4.293   6.655
 1423SOL     OW 5167   4.021   0.814   4.454
 1423SOL    HW1 5168   4.111   0.858   4.448
 1423SOL    HW2 5169   3.949   0.884   4.450
 1424SOL     OW 5170   0.116   4.012   6.673
 1424SOL    HW1 5171   0.204   3.976   6.640
 1424SOL    HW2 5172   0.064   4.048   6.596
 1425SOL     OW 5173   2.377   5.234   5.138
 1425SOL    HW1 5174   2.352   5.312   5.081
 1425SOL    HW2 5175   2.383   5.263   5.234
 1426SOL     OW 5176   2.627   2.131   5.785
 1426SOL    HW1 5177   2.639   2.058   5.717
 1426SOL    HW2 5178   2.705   2.193   5.781
 1427SOL     OW 5179   6.809   6.674   3.879
 1427SOL    HW1 5180   6.715   6.644   3.863
 1427SOL    HW2 5181   6.872   6.605   3.846
 1428SOL     OW 5182   0.708   2.065   1.600
 1428SOL    HW1 5183   0.649   1.997   1.556
 1428SOL    HW2 5184   0.652   2.125   1.657
 1429SOL     OW 5185   5.621   1.963   0.045
 1429SOL    HW1 5186   5.556   2.036   0.064
 1429SOL    HW2 5187   5.675   1.944   0.127
 1430SOL     OW 5188   2.060   5.251   3.747
 1430SOL    HW1 5189   2.099   5.323   3.804
 1430SOL    HW2 5190   2.070   5.163   3.794
 1431SOL     OW 5191   2.906   2.702   6.979
 1431SOL    HW1 5192   2.955   2.615   6.980
 1431SOL    HW2 5193   2.907   2.741   0.051
 1432SOL     OW 5194   3.261   1.054   0.983
 1432SOL    HW1 5195   3.171   1.019   0.956
 1432SOL    HW2 5196   3.330   0.984   0.965
 1433SOL     OW 5197   4.891   0.907   4.920
 1433SOL    HW1 5198   4.839   0.986   4.952
 1433SOL    HW2 5199   4.978   0.903   4.968
 1434SOL     OW 5200   0.663   1.085   6.166
 1434SOL    HW1 5201   0.579   1.137   6.155
 1434SOL    HW2 5202   0.708   1.112   6.252
 1435SOL     OW 5203   6.322   6.940   3.110
 1435SOL    HW1 5204   6.272   6.989   3.182
 1435SOL    HW2 5205   6.347   7.004   3.038
 1436SOL     OW 5206   5.374   4.186   6.938
 1436SOL    HW1 5207   5.465   4.212   6.968
 1436SOL    HW2 5208   5.378   4.152   6.844
 1437SOL     OW 5209   3.591   1.510   6.263
 1437SOL    HW1 5210   3.674   1.538   6.311
 1437SOL    HW2 5211   3.583   1.560   6.177
 1438SOL     OW 5212   2.463   0.089   1.136
 1438SOL    HW1 5213   2.547   0.142   1.131
 1438SOL    HW2 5214   2.477   0.009   1.195
 1439SOL     OW 5215   0.021   4.502   0.557
 1439SOL    HW1 5216   7.020   4.450   0.640
 1439SOL    HW2 5217   0.011   4.599   0.574
 1440SOL     OW 5218   3.014   2.939   5.777
 1440SOL    HW1 5219   2.923   2.979   5.765
 1440SOL    HW2 5220   3.036   2.936   5.874
 1441SOL     OW 5221   6.070   3.080   4.039
 1441SOL    HW1 5222   6.165   3.108   4.043
 1441SOL    HW2 5223   6.022   3.109   4.122
 1442SOL     OW 5224   6.311   5.091   0.126
 1442SOL    HW1 5225   6.411   5.082   0.125
 1442SOL    HW2 5226   6.284   5.145   0.205
 1443SOL     OW 5227   0.782   2.989   4.694
 1443SOL    HW1 5228   0.845   2.940   4.634
 1443SOL    HW2 5229   0.692   2.993   4.651
 1444SOL     OW 5230   4.402   5.687   1.108
 1444SOL    HW1 5231   4.368   5.599   1.143
 1444SOL    HW2 5232   4.499   5.696   1.131
 1445SOL     OW 5233   0.028   2.745   1.628
 1445SOL    HW1 5234   6.964   2.700   1.600
 1445SOL    HW2 5235   0.098   2.732   1.558
 1446SOL     OW 5236   4.980   2.029   6.791
 1446SOL    HW1 5237   5.003   1.984   6.878
 1446SOL    HW2 5238   4.881   2.046   6.787
 1447SOL     OW 5239   5.970   6.500   5.965
 1447SOL    HW1 5240   5.890   6.442   5.979
 1447SOL    HW2 5241   6.015   6.476   5.879
 1448SOL     OW 5242   6.646   2.608   0.251
 1448SOL    HW1 5243   6.608   2.638   0.163
 1448SOL    HW2 5244   6.621   2.673   0.322
 1449SOL     OW 5245   6.839   0.986   6.790
 1449SOL    HW1 5246   6.849   1.040   6.706
 1449SOL    HW2 5247   6.889   1.030   6.864
 1450SOL     OW 5248   0.848   2.396   1.851
 1450SOL    HW1 5249   0.819   2.320   1.794
 1450SOL    HW2 5250   0.947   2.408   1.843
 1451SOL     OW 5251   2.682   1.258   2.478
 1451SOL    HW1 5252   2.755   1.254   2.410
 1451SOL    HW2 5253   2.722   1.267   2.569
 1452SOL     OW 5254   4.262   0.981   4.459
 1452SOL    HW1 5255   4.291   1.006   4.367
 1452SOL    HW2 5256   4.271   1.061   4.519
 1453SOL     OW 5257   6.969   3.164   5.221
 1453SOL    HW1 5258   0.016   3.230   5.187
 1453SOL    HW2 5259   6.949   3.097   5.149
 1454SOL     OW 5260   6.568   2.519   3.139
 1454SOL    HW1 5261   6.568   2.518   3.039
 1454SOL    HW2 5262   6.531   2.606   3.171
 1455SOL     OW 5263   1.250   0.456   1.338
 1455SOL    HW1 5264   1.188   0.525   1.377
 1455SOL    HW2 5265   1.231   0.367   1.379
 1456SOL     OW 5266   6.544   6.921   5.283
 1456SOL    HW1 5267   6.583   6.869   5.360
 1456SOL    HW2 5268   6.533   6.861   5.204
 1457SOL     OW 5269   1.330   7.004   1.304
 1457SOL    HW1 5270   1.256   0.050   1.315
 1457SOL    HW2 5271   1.309   6.943   1.228
 1458SOL     OW 5272   5.649   6.005   3.552
 1458SOL    HW1 5273   5.618   6.100   3.565
 1458SOL    HW2 5274   5.675   5.991   3.457
 1459SOL     OW 5275   2.709   5.278   5.584
 1459SOL    HW1 5276   2.659   5.194   5.566
 1459SOL    HW2 5277   2.689   5.345   5.511
 1460SOL     OW 5278   0.273   5.530   6.106
 1460SOL    HW1 5279   0.335   5.600   6.073
 1460SOL    HW2 5280   0.323   5.444   6.119
 1461SOL     OW 5281   0.633   5.351   3.826
 1461SOL    HW1 5282   0.612   5.257   3.852
 1461SOL    HW2 5283   0.552   5.394   3.786
 1462SOL     OW 5284   1.266   0.925   6.023
 1462SOL    HW1 5285   1.183   0.948   5.972
 1462SOL    HW2 5286   1.325   1.005   6.027
 1463SOL     OW 5287   0.116   5.548   0.002
 1463SOL    HW1 5288   0.209   5.582   0.018
 1463SOL    HW2 5289   0.051   5.624   0.008
 1464SOL     OW 5290   5.907   6.595   0.937
 1464SOL    HW1 5291   5.896   6.684   0.891
 1464SOL    HW2 5292   6.004   6.573   0.943
 1465SOL     OW 5293   1.710   1.669   4.080
 1465SOL    HW1 5294   1.711   1.663   4.180
 1465SOL    HW2 5295   1.789   1.619   4.044
 1466SOL     OW 5296   1.424   1.514   2.267
 1466SOL    HW1 5297   1.331   1.538   2.242
 1466SOL    HW2 5298   1.435   1.414   2.265
 1467SOL     OW 5299   1.970   2.302   1.954
 1467SOL    HW1 5300   2.029   2.356   2.013
 1467SOL    HW2 5301   2.006   2.302   1.861
 1468SOL     OW 5302   5.643   5.429   2.874
 1468SOL    HW1 5303   5.679   5.425   2.967
 1468SOL    HW2 5304   5.620   5.524   2.851
 1469SOL     OW 5305   0.808   0.992   2.044
 1469SOL    HW1 5306   0.820   1.087   2.014
 1469SOL    HW2 5307   0.897   0.948   2.051
 1470SOL     OW 5308   1.726   1.516   2.257
 1470SOL    HW1 5309   1.741   1.483   2.350
 1470SOL    HW2 5310   1.630   1.543   2.247
 1471SOL     OW 5311   1.128   0.306   0.522
 1471SOL    HW1 5312   1.211   0.326   0.575
 1471SOL    HW2 5313   1.069   0.246   0.575
 1472SOL     OW 5314   4.085   5.672   4.942
 1472SOL    HW1 5315   4.126   5.612   4.873
 1472SOL    HW2 5316   4.092   5.628   5.032
 1473SOL     OW 5317   5.222   6.517   3.975
 1473SOL    HW1 5318   5.153   6.450   4.003
 1473SOL    HW2 5319   5.278   6.543   4.053
 1474SOL     OW 5320   6.072   5.682   3.290
 1474SOL    HW1 5321   6.039   5.618   3.360
 1474SOL    HW2 5322   6.025   5.770   3.302
 1475SOL     OW 5323   6.470   0.502   2.021
 1475SOL    HW1 5324   6.471   0.498   2.121
 1475SOL    HW2 5325   6.554   0.462   1.986
 1476SOL     OW 5326   2.516   1.413   1.437
 1476SOL    HW1 5327   2.471   1.461   1.511
 1476SOL    HW2 5328   2.564   1.478   1.378
 1477SOL     OW 5329   3.311   1.224   6.534
 1477SOL    HW1 5330   3.253   1.142   6.534
 1477SOL    HW2 5331   3.263   1.299   6.578
 1478SOL     OW 5332   5.906   5.225   0.086
 1478SOL    HW1 5333   5.983   5.160   0.082
 1478SOL    HW2 5334   5.898   5.260   0.179
 1479SOL     OW 5335   1.471   3.248   6.962
 1479SOL    HW1 5336   1.450   3.331   7.014
 1479SOL    HW2 5337   1.557   3.261   6.912
 1480SOL     OW 5338   3.480   0.011   6.015
 1480SOL    HW1 5339   3.540   6.975   5.958
 1480SOL    HW2 5340   3.473   0.103   5.976
 1481SOL     OW 5341   0.088   2.453   5.549
 1481SOL    HW1 5342   0.008   2.443   5.607
 1481SOL    HW2 5343   0.171   2.444   5.604
 1482SOL     OW 5344   4.885   2.266   1.046
 1482SOL    HW1 5345   4.985   2.271   1.054
 1482SOL    HW2 5346   4.844   2.343   1.096
 1483SOL     OW 5347   5.786   2.082   6.104
 1483SOL    HW1 5348   5.738   1.999   6.130
 1483SOL    HW2 5349   5.882   2.075   6.130
 1484SOL     OW 5350   5.800   5.186   3.876
 1484SOL    HW1 5351   5.847   5.097   3.876
 1484SOL    HW2 5352   5.809   5.227   3.967
 1485SOL     OW 5353   3.011   1.676   2.966
 1485SOL    HW1 5354   3.054   1.752   2.918
 1485SOL    HW2 5355   2.989   1.703   3.059
 1486SOL     OW 5356   5.043   2.066   3.220
 1486SOL    HW1 5357   5.090   2.084   3.307
 1486SOL    HW2 5358   4.951   2.104   3.224
 1487SOL     OW 5359   6.674   3.123   6.669
 1487SOL    HW1 5360   6.706   3.207   6.712
 1487SOL    HW2 5361   6.597   3.086   6.721
 1488SOL     OW 5362   5.446   1.894   3.542
 1488SOL    HW1 5363   5.458   1.991   3.564
 1488SOL    HW2 5364   5.424   1.884   3.445
 1489SOL     OW 5365   3.735   5.095   3.673
 1489SOL    HW1 5366   3.777   5.151   3.745
 1489SOL    HW2 5367   3.636   5.105   3.677
 1490SOL     OW 5368   1.111   2.855   1.088
 1490SOL    HW1 5369   1.189   2.796   1.111
 1490SOL    HW2 5370   1.116   2.879   0.991
 1491SOL     OW 5371   6.651   3.893   3.689
 1491SOL    HW1 5372   6.638   3.911   3.786
 1491SOL    HW2 5373   6.562   3.881   3.645
 1492SOL     OW 5374   5.484   1.319   2.552
 1492SOL    HW1 5375   5.520   1.406   2.585
 1492SOL    HW2 5376   5.416   1.284   2.616
 1493SOL     OW 5377   4.380   0.454   4.190
 1493SOL    HW1 5378   4.414   0.485   4.279
 1493SOL    HW2 5379   4.327   0.370   4.202
 1494SOL     OW 5380   5.868   1.784   5.536
 1494SOL    HW1 5381   5.794   1.848   5.559
 1494SOL    HW2 5382   5.897   1.735   5.618
 1495SOL     OW 5383   6.582   2.669   5.252
 1495SOL    HW1 5384   6.676   2.652   5.282
 1495SOL    HW2 5385   6.565   2.767   5.245
 1496SOL     OW 5386   0.570   1.533   1.984
 1496SOL    HW1 5387   0.645   1.481   2.024
 1496SOL    HW2 5388   0.580   1.534   1.884
 1497SOL     OW 5389   6.762   3.143   3.808
 1497SOL    HW1 5390   6.862   3.140   3.800
 1497SOL    HW2 5391   6.737   3.167   3.901
 1498SOL     OW 5392   1.997   4.828   6.223
 1498SOL    HW1 5393   1.974   4.804   6.129
 1498SOL    HW2 5394   2.096   4.826   6.235
 1499SOL     OW 5395   1.327   3.348   6.487
 1499SOL    HW1 5396   1.286   3.386   6.570
 1499SOL    HW2 5397   1.261   3.353   6.412
 1500SOL     OW 5398   6.572   6.065   6.774
 1500SOL    HW1 5399   6.654   6.110   6.740
 1500SOL    HW2 5400   6.506   6.133   6.804
 1501SOL     OW 5401   5.661   1.856   6.176
 1501SOL    HW1 5402   5.708   1.770   6.197
 1501SOL    HW2 5403   5.570   1.837   6.140
 1502SOL     OW 5404   5.765   0.416   1.289
 1502SOL    HW1 5405   5.675   0.390   1.253
 1502SOL    HW2 5406   5.788   0.508   1.257
 1503SOL     OW 5407   1.794   2.086   1.987
 1503SOL    HW1 5408   1.876   2.143   1.989
 1503SOL    HW2 5409   1.819   1.992   1.965
 1504SOL     OW 5410   1.033   0.303   5.094
 1504SOL    HW1 5411   0.997   0.357   5.170
 1504SOL    HW2 5412   0.962   0.293   5.023
 1505SOL     OW 5413   5.935   0.453   5.880
 1505SOL    HW1 5414   6.034   0.456   5.869
 1505SOL    HW2 5415   5.912   0.469   5.976
 1506SOL     OW 5416   1.826   5.255   1.117
 1506SOL    HW1 5417   1.851   5.170   1.162
 1506SOL    HW2 5418   1.841   5.332   1.180
 1507SOL     OW 5419   1.095   1.774   5.714
 1507SOL    HW1 5420   1.068   1.829   5.635
 1507SOL    HW2 5421   1.046   1.687   5.712
 1508SOL     OW 5422   6.734   0.390   1.983
 1508SOL    HW1 5423   6.772   0.377   1.891
 1508SOL    HW2 5424   6.770   0.320   2.044
 1509SOL     OW 5425   4.744   2.777   5.638
 1509SOL    HW1 5426   4.808   2.760   5.563
 1509SOL    HW2 5427   4.769   2.862   5.685
 1510SOL     OW 5428   5.483   2.629   4.961
 1510SOL    HW1 5429   5.549   2.603   4.891
 1510SOL    HW2 5430   5.425   2.550   4.983
 1511SOL     OW 5431   3.327   2.963   1.552
 1511SOL    HW1 5432   3.345   2.978   1.650
 1511SOL    HW2 5433   3.267   2.884   1.541
 1512SOL     OW 5434   0.823   4.866   1.255
 1512SOL    HW1 5435   0.729   4.902   1.258
 1512SOL    HW2 5436   0.821   4.766   1.260
 1513SOL     OW 5437   3.392   0.839   3.633
 1513SOL    HW1 5438   3.485   0.869   3.616
 1513SOL    HW2 5439   3.336   0.853   3.552
 1514SOL     OW 5440   4.711   2.134   5.828
 1514SOL    HW1 5441   4.688   2.223   5.867
 1514SOL    HW2 5442   4.628   2.078   5.823
 1515SOL     OW 5443   5.905   2.401   5.049
 1515SOL    HW1 5444   5.999   2.401   5.013
 1515SOL    HW2 5445   5.846   2.453   4.987
 1516SOL     OW 5446   0.121   0.133   0.560
 1516SOL    HW1 5447   0.039   0.133   0.618
 1516SOL    HW2 5448   0.120   0.054   0.500
 1517SOL     OW 5449   4.205   6.227   3.692
 1517SOL    HW1 5450   4.136   6.196   3.627
 1517SOL    HW2 5451   4.206   6.327   3.693
 1518SOL     OW 5452   1.208   3.247   0.103
 1518SOL    HW1 5453   1.211   3.274   0.007
 1518SOL    HW2 5454   1.300   3.219   0.133
 1519SOL     OW 5455   6.163   5.000   2.071
 1519SOL    HW1 5456   6.199   5.085   2.031
 1519SOL    HW2 5457   6.098   5.023   2.144
 1520SOL     OW 5458   0.287   3.769   2.151
 1520SOL    HW1 5459   0.238   3.776   2.238
 1520SOL    HW2 5460   0.238   3.821   2.081
 1521SOL     OW 5461   2.156   4.127   0.526
 1521SOL    HW1 5462   2.097   4.111   0.605
 1521SOL    HW2 5463   2.115   4.087   0.445
 1522SOL     OW 5464   6.133   6.848   4.977
 1522SOL    HW1 5465   6.160   6.757   5.006
 1522SOL    HW2 5466   6.214   6.898   4.945
 1523SOL     OW 5467   4.909   4.528   0.008
 1523SOL    HW1 5468   5.001   4.546   6.993
 1523SOL    HW2 5469   4.916   4.495   0.102
 1524SOL     OW 5470   1.456   2.091   2.227
 1524SOL    HW1 5471   1.425   2.132   2.313
 1524SOL    HW2 5472   1.384   2.098   2.159
 1525SOL     OW 5473   6.783   2.517   0.537
 1525SOL    HW1 5474   6.814   2.604   0.576
 1525SOL    HW2 5475   6.824   2.503   0.448
 1526SOL     OW 5476   0.472   6.701   6.697
 1526SOL    HW1 5477   0.385   6.739   6.728
 1526SOL    HW2 5478   0.519   6.769   6.640
 1527SOL     OW 5479   3.739   0.826   5.666
 1527SOL    HW1 5480   3.679   0.900   5.697
 1527SOL    HW2 5481   3.755   0.834   5.568
 1528SOL     OW 5482   4.981   5.843   2.343
 1528SOL    HW1 5483   4.953   5.754   2.306
 1528SOL    HW2 5484   5.045   5.887   2.280
 1529SOL     OW 5485   3.856   0.107   0.636
 1529SOL    HW1 5486   3.791   0.169   0.679
 1529SOL    HW2 5487   3.945   0.152   0.628
 1530SOL     OW 5488   3.179   1.365   2.908
 1530SOL    HW1 5489   3.118   1.366   2.829
 1530SOL    HW2 5490   3.155   1.439   2.970
 1531SOL     OW 5491   5.435   0.948   4.822
 1531SOL    HW1 5492   5.369   0.874   4.805
 1531SOL    HW2 5493   5.389   1.036   4.811
 1532SOL     OW 5494   2.541   3.731   6.011
 1532SOL    HW1 5495   2.620   3.780   6.046
 1532SOL    HW2 5496   2.474   3.719   6.084
 1533SOL     OW 5497   6.552   3.142   0.015
 1533SOL    HW1 5498   6.569   3.048   0.045
 1533SOL    HW2 5499   6.509   3.140   6.945
 1534SOL     OW 5500   1.694   5.064   6.571
 1534SOL    HW1 5501   1.742   5.059   6.659
 1534SOL    HW2 5502   1.728   4.992   6.511
 1535SOL     OW 5503   4.842   6.354   4.699
 1535SOL    HW1 5504   4.764   6.404   4.663
 1535SOL    HW2 5505   4.923   6.375   4.645
 1536SOL     OW 5506   4.072   4.257   5.258
 1536SOL    HW1 5507   4.110   4.200   5.330
 1536SOL    HW2 5508   4.132   4.335   5.241
 1537SOL     OW 5509   4.020   6.126   3.513
 1537SOL    HW1 5510   4.041   6.059   3.441
 1537SOL    HW2 5511   3.940   6.096   3.564
 1538SOL     OW 5512   3.846   5.982   5.075
 1538SOL    HW1 5513   3.755   6.019   5.060
 1538SOL    HW2 5514   3.859   5.963   5.172
 1539SOL     OW 5515   4.296   3.747   1.642
 1539SOL    HW1 5516   4.387   3.787   1.634
 1539SOL    HW2 5517   4.265   3.717   1.551
 1540SOL     OW 5518   1.746   6.237   6.010
 1540SOL    HW1 5519   1.651   6.230   6.041
 1540SOL    HW2 5520   1.806   6.184   6.070
 1541SOL     OW 5521   3.275   3.159   2.486
 1541SOL    HW1 5522   3.177   3.172   2.500
 1541SOL    HW2 5523   3.294   3.062   2.469
 1542SOL     OW 5524   6.727   5.826   1.628
 1542SOL    HW1 5525   6.799   5.878   1.582
 1542SOL    HW2 5526   6.701   5.873   1.713
 1543SOL     OW 5527   3.333   3.816   4.696
 1543SOL    HW1 5528   3.408   3.881   4.709
 1543SOL    HW2 5529   3.247   3.857   4.726
 1544SOL     OW 5530   3.611   4.081   2.724
 1544SOL    HW1 5531   3.555   4.095   2.806
 1544SOL    HW2 5532   3.568   4.127   2.646
 1545SOL     OW 5533   5.344   1.013   4.013
 1545SOL    HW1 5534   5.286   1.091   4.034
 1545SOL    HW2 5535   5.290   0.929   4.013
 1546SOL     OW 5536   4.839   6.720   6.014
 1546SOL    HW1 5537   4.824   6.787   6.086
 1546SOL    HW2 5538   4.937   6.706   6.001
 1547SOL     OW 5539   1.782   3.827   3.039
 1547SOL    HW1 5540   1.723   3.847   2.961
 1547SOL    HW2 5541   1.877   3.847   3.015
 1548SOL     OW 5542   4.546   4.236   5.826
 1548SOL    HW1 5543   4.622   4.174   5.809
 1548SOL    HW2 5544   4.545   4.308   5.757
 1549SOL     OW 5545   3.805   1.186   2.796
 1549SOL    HW1 5546   3.720   1.168   2.846
 1549SOL    HW2 5547   3.880   1.199   2.861
 1550SOL     OW 5548   2.350   5.167   6.020
 1550SOL    HW1 5549   2.379   5.237   5.955
 1550SOL    HW2 5550   2.253   5.146   6.007
 1551SOL     OW 5551   2.337   4.105   6.918
 1551SOL    HW1 5552   2.374   4.198   6.923
 1551SOL    HW2 5553   2.238   4.108   6.919
 1552SOL     OW 5554   0.284   0.192   1.120
 1552SOL    HW1 5555   0.211   0.167   1.057
 1552SOL    HW2 5556   0.320   0.282   1.096
 1553SOL     OW 5557   0.109   0.560   5.746
 1553SOL    HW1 5558   0.055   0.486   5.706
 1553SOL    HW2 5559   0.078   0.578   5.840
 1554SOL     OW 5560   3.731   1.782   3.442
 1554SOL    HW1 5561   3.660   1.728   3.488
 1554SOL    HW2 5562   3.721   1.772   3.343
 1555SOL     OW 5563   5.052   1.900   0.005
 1555SOL    HW1 5564   4.999   1.841   0.066
 1555SOL    HW2 5565   5.120   1.949   0.059
 1556SOL     OW 5566   3.789   1.009   0.611
 1556SOL    HW1 5567   3.723   0.963   0.670
 1556SOL    HW2 5568   3.809   1.100   0.648
 1557SOL     OW 5569   2.352   1.164   6.752
 1557SOL    HW1 5570   2.389   1.153   6.844
 1557SOL    HW2 5571   2.428   1.170   6.687
 1558SOL     OW 5572   5.149   1.220   4.014
 1558SOL    HW1 5573   5.056   1.187   4.027
 1558SOL    HW2 5574   5.154   1.317   4.041
 1559SOL     OW 5575   0.117   2.865   0.178
 1559SOL    HW1 5576   0.020   2.865   0.152
 1559SOL    HW2 5577   0.136   2.944   0.236
 1560SOL     OW 5578   3.404   1.419   5.945
 1560SOL    HW1 5579   3.362   1.339   5.987
 1560SOL    HW2 5580   3.360   1.438   5.857
 1561SOL     OW 5581   6.561   6.373   2.340
 1561SOL    HW1 5582   6.619   6.371   2.258
 1561SOL    HW2 5583   6.554   6.281   2.378
 1562SOL     OW 5584   4.442   6.225   1.442
 1562SOL    HW1 5585   4.473   6.320   1.449
 1562SOL    HW2 5586   4.347   6.223   1.412
 1563SOL     OW 5587   2.378   1.001   6.098
 1563SOL    HW1 5588   2.311   0.928   6.084
 1563SOL    HW2 5589   2.469   0.962   6.108
 1564SOL     OW 5590   0.997   2.716   2.514
 1564SOL    HW1 5591   1.046   2.629   2.512
 1564SOL    HW2 5592   0.962   2.732   2.607
 1565SOL     OW 5593   4.309   5.348   3.673
 1565SOL    HW1 5594   4.336   5.426   3.729
 1565SOL    HW2 5595   4.386   5.319   3.616
 1566SOL     OW 5596   5.383   5.068   4.394
 1566SOL    HW1 5597   5.386   4.990   4.455
 1566SOL    HW2 5598   5.425   5.044   4.306
 1567SOL     OW 5599   6.313   5.923   0.209
 1567SOL    HW1 5600   6.295   5.930   0.111
 1567SOL    HW2 5601   6.251   5.857   0.250
 1568SOL     OW 5602   2.264   6.533   1.562
 1568SOL    HW1 5603   2.242   6.511   1.657
 1568SOL    HW2 5604   2.251   6.452   1.505
 1569SOL     OW 5605   2.819   0.114   3.323
 1569SOL    HW1 5606   2.908   0.112   3.277
 1569SOL    HW2 5607   2.780   0.022   3.325
 1570SOL     OW 5608   2.551   6.670   0.383
 1570SOL    HW1 5609   2.553   6.649   0.285
 1570SOL    HW2 5610   2.484   6.742   0.400
 1571SOL     OW 5611   6.259   1.960   2.794
 1571SOL    HW1 5612   6.290   1.869   2.823
 1571SOL    HW2 5613   6.322   1.996   2.725
 1572SOL     OW 5614   1.416   5.833   0.730
 1572SOL    HW1 5615   1.470   5.790   0.657
 1572SOL    HW2 5616   1.328   5.786   0.738
 1573SOL     OW 5617   6.611   4.125   1.680
 1573SOL    HW1 5618   6.519   4.144   1.713
 1573SOL    HW2 5619   6.658   4.210   1.661
 1574SOL     OW 5620   6.306   1.424   3.660
 1574SOL    HW1 5621   6.296   1.339   3.608
 1574SOL    HW2 5622   6.328   1.402   3.755
 1575SOL     OW 5623   2.137   2.139   1.283
 1575SOL    HW1 5624   2.180   2.181   1.203
 1575SOL    HW2 5625   2.098   2.211   1.341
 1576SOL     OW 5626   1.268   0.519   2.950
 1576SOL    HW1 5627   1.311   0.528   3.039
 1576SOL    HW2 5628   1.337   0.527   2.878
 1577SOL     OW 5629   2.544   0.599   6.169
 1577SOL    HW1 5630   2.553   0.500   6.163
 1577SOL    HW2 5631   2.509   0.635   6.083
 1578SOL     OW 5632   5.728   2.545   5.590
 1578SOL    HW1 5633   5.744   2.535   5.492
 1578SOL    HW2 5634   5.663   2.619   5.606
 1579SOL     OW 5635   0.100   1.797   2.152
 1579SOL    HW1 5636   0.130   1.773   2.244
 1579SOL    HW2 5637   0.104   1.716   2.093
 1580SOL     OW 5638   3.411   4.024   3.979
 1580SOL    HW1 5639   3.385   3.927   3.975
 1580SOL    HW2 5640   3.345   4.074   4.035
 1581SOL     OW 5641   6.050   4.500   4.719
 1581SOL    HW1 5642   5.994   4.579   4.748
 1581SOL    HW2 5643   6.080   4.513   4.625
 1582SOL     OW 5644   1.875   6.534   4.304
 1582SOL    HW1 5645   1.956   6.514   4.248
 1582SOL    HW2 5646   1.874   6.474   4.384
 1583SOL     OW 5647   0.615   5.606   2.542
 1583SOL    HW1 5648   0.704   5.562   2.528
 1583SOL    HW2 5649   0.602   5.624   2.640
 1584SOL     OW 5650   0.630   5.869   6.625
 1584SOL    HW1 5651   0.702   5.844   6.561
 1584SOL    HW2 5652   0.567   5.792   6.637
 1585SOL     OW 5653   4.432   1.949   3.290
 1585SOL    HW1 5654   4.393   1.956   3.198
 1585SOL    HW2 5655   4.358   1.949   3.357
 1586SOL     OW 5656   3.130   4.855   2.061
 1586SOL    HW1 5657   3.194   4.850   2.137
 1586SOL    HW2 5658   3.180   4.867   1.975
 1587SOL     OW 5659   2.701   5.898   5.928
 1587SOL    HW1 5660   2.726   5.993   5.940
 1587SOL    HW2 5661   2.621   5.892   5.867
 1588SOL     OW 5662   3.512   0.510   2.659
 1588SOL    HW1 5663   3.500   0.590   2.717
 1588SOL    HW2 5664   3.500   0.537   2.563
 1589SOL     OW 5665   0.503   3.233   1.787
 1589SOL    HW1 5666   0.427   3.297   1.781
 1589SOL    HW2 5667   0.542   3.219   1.696
 1590SOL     OW 5668   4.069   0.314   4.483
 1590SOL    HW1 5669   4.013   0.245   4.529
 1590SOL    HW2 5670   4.077   0.395   4.542
 1591SOL     OW 5671   0.073   5.312   1.549
 1591SOL    HW1 5672   0.045   5.305   1.453
 1591SOL    HW2 5673   0.154   5.257   1.564
 1592SOL     OW 5674   2.192   4.046   6.582
 1592SOL    HW1 5675   2.146   4.081   6.500
 1592SOL    HW2 5676   2.286   4.021   6.560
 1593SOL     OW 5677   0.898   6.495   5.576
 1593SOL    HW1 5678   0.860   6.585   5.598
 1593SOL    HW2 5679   0.826   6.437   5.538
 1594SOL     OW 5680   1.365   6.417   1.786
 1594SOL    HW1 5681   1.278   6.464   1.772
 1594SOL    HW2 5682   1.423   6.428   1.705
 1595SOL     OW 5683   1.549   5.375   0.711
 1595SOL    HW1 5684   1.574   5.280   0.693
 1595SOL    HW2 5685   1.553   5.427   0.626
 1596SOL     OW 5686   0.304   2.447   4.197
 1596SOL    HW1 5687   0.349   2.515   4.139
 1596SOL    HW2 5688   0.324   2.356   4.162
 1597SOL     OW 5689   1.464   6.395   0.366
 1597SOL    HW1 5690   1.369   6.410   0.340
 1597SOL    HW2 5691   1.522   6.466   0.326
 1598SOL     OW 5692   0.032   4.769   5.468
 1598SOL    HW1 5693   0.071   4.712   5.540
 1598SOL    HW2 5694   6.998   4.842   5.508
 1599SOL     OW 5695   4.615   5.347   4.545
 1599SOL    HW1 5696   4.674   5.268   4.529
 1599SOL    HW2 5697   4.586   5.385   4.457
 1600SOL     OW 5698   3.764   1.625   3.749
 1600SOL    HW1 5699   3.739   1.677   3.667
 1600SOL    HW2 5700   3.750   1.682   3.830
 1601SOL     OW 5701   6.760   6.249   4.329
 1601SOL    HW1 5702   6.791   6.345   4.325
 1601SOL    HW2 5703   6.735   6.218   4.238
 1602SOL     OW 5704   3.825   5.405   4.241
 1602SOL    HW1 5705   3.868   5.494   4.251
 1602SOL    HW2 5706   3.863   5.358   4.161
 1603SOL     OW 5707   1.771   6.459   3.281
 1603SOL    HW1 5708   1.849   6.521   3.284
 1603SOL    HW2 5709   1.745   6.444   3.186
 1604SOL     OW 5710   5.278   4.217   0.812
 1604SOL    HW1 5711   5.310   4.312   0.812
 1604SOL    HW2 5712   5.180   4.215   0.793
 1605SOL     OW 5713   6.519   5.105   1.322
 1605SOL    HW1 5714   6.500   5.022   1.373
 1605SOL    HW2 5715   6.473   5.182   1.366
 1606SOL     OW 5716   3.963   6.840   5.551
 1606SOL    HW1 5717   4.017   6.772   5.500
 1606SOL    HW2 5718   4.023   6.917   5.576
 1607SOL     OW 5719   4.427   1.484   0.759
 1607SOL    HW1 5720   4.494   1.426   0.805
 1607SOL    HW2 5721   4.475   1.560   0.714
 1608SOL     OW 5722   0.456   1.241   3.231
 1608SOL    HW1 5723   0.408   1.233   3.144
 1608SOL    HW2 5724   0.534   1.179   3.232
 1609SOL     OW 5725   4.641   0.295   6.812
 1609SOL    HW1 5726   4.568   0.342   6.761
 1609SOL    HW2 5727   4.609   0.275   6.904
 1610SOL     OW 5728   6.285   4.442   6.562
 1610SOL    HW1 5729   6.351   4.508   6.598
 1610SOL    HW2 5730   6.216   4.422   6.632
 1611SOL     OW 5731   2.525   3.933   0.574
 1611SOL    HW1 5732   2.506   3.847   0.623
 1611SOL    HW2 5733   2.493   3.924   0.480
 1612SOL     OW 5734   3.098   0.147   0.356
 1612SOL    HW1 5735   3.092   0.104   0.266
 1612SOL    HW2 5736   3.006   0.174   0.385
 1613SOL     OW 5737   1.445   5.709   1.964
 1613SOL    HW1 5738   1.368   5.688   2.024
 1613SOL    HW2 5739   1.456   5.808   1.957
 1614SOL     OW 5740   4.924   2.979   6.491
 1614SOL    HW1 5741   5.024   2.975   6.487
 1614SOL    HW2 5742   4.886   2.903   6.438
 1615SOL     OW 5743   5.836   5.635   0.780
 1615SOL    HW1 5744   5.869   5.541   0.770
 1615SOL    HW2 5745   5.769   5.654   0.708
 1616SOL     OW 5746   3.359   1.132   5.210
 1616SOL    HW1 5747   3.271   1.100   5.246
 1616SOL    HW2 5748   3.348   1.161   5.115
 1617SOL     OW 5749   5.801   6.768   2.746
 1617SOL    HW1 5750   5.803   6.820   2.831
 1617SOL    HW2 5751   5.885   6.715   2.737
 1618SOL     OW 5752   1.288   5.526   2.440
 1618SOL    HW1 5753   1.335   5.456   2.494
 1618SOL    HW2 5754   1.355   5.573   2.383
 1619SOL     OW 5755   0.943   3.910   1.511
 1619SOL    HW1 5756   0.919   3.813   1.504
 1619SOL    HW2 5757   0.933   3.953   1.421
 1620SOL     OW 5758   2.745   4.581   1.635
 1620SOL    HW1 5759   2.781   4.524   1.561
 1620SOL    HW2 5760   2.797   4.564   1.719
 1621SOL     OW 5761   6.711   1.014   0.704
 1621SOL    HW1 5762   6.654   1.015   0.621
 1621SOL    HW2 5763   6.667   1.069   0.775
 1622SOL     OW 5764   0.618   3.111   5.160
 1622SOL    HW1 5765   0.519   3.124   5.151
 1622SOL    HW2 5766   0.665   3.166   5.091
 1623SOL     OW 5767   1.810   2.908   4.778
 1623SOL    HW1 5768   1.903   2.879   4.756
 1623SOL    HW2 5769   1.747   2.833   4.759
 1624SOL     OW 5770   3.151   1.503   5.406
 1624SOL    HW1 5771   3.105   1.583   5.367
 1624SOL    HW2 5772   3.201   1.530   5.489
 1625SOL     OW 5773   1.622   5.114   0.374
 1625SOL    HW1 5774   1.705   5.169   0.362
 1625SOL    HW2 5775   1.598   5.111   0.471
 1626SOL     OW 5776   4.402   1.438   0.083
 1626SOL    HW1 5777   4.312   1.472   0.109
 1626SOL    HW2 5778   4.472   1.480   0.141
 1627SOL     OW 5779   6.436   3.048   3.586
 1627SOL    HW1 5780   6.412   3.141   3.559
 1627SOL    HW2 5781   6.397   2.984   3.520
 1628SOL     OW 5782   4.638   4.667   0.265
 1628SOL    HW1 5783   4.568   4.735   0.288
 1628SOL    HW2 5784   4.633   4.645   0.168
 1629SOL     OW 5785   2.971   0.826   3.750
 1629SOL    HW1 5786   2.962   0.776   3.664
 1629SOL    HW2 5787   2.993   0.761   3.824
 1630SOL     OW 5788   1.431   4.694   5.873
 1630SOL    HW1 5789   1.488   4.753   5.815
 1630SOL    HW2 5790   1.359   4.653   5.817
 1631SOL     OW 5791   0.982   3.007   0.378
 1631SOL    HW1 5792   0.986   2.973   0.285
 1631SOL    HW2 5793   0.963   3.105   0.377
 1632SOL     OW 5794   5.744   2.197   0.808
 1632SOL    HW1 5795   5.798   2.257   0.749
 1632SOL    HW2 5796   5.799   2.168   0.886
 1633SOL     OW 5797   5.384   4.056   4.439
 1633SOL    HW1 5798   5.294   4.024   4.468
 1633SOL    HW2 5799   5.414   4.003   4.359
 1634SOL     OW 5800   3.873   5.864   4.361
 1634SOL    HW1 5801   3.919   5.777   4.378
 1634SOL    HW2 5802   3.821   5.858   4.276
 1635SOL     OW 5803   0.249   4.969   6.838
 1635SOL    HW1 5804   0.169   4.999   6.889
 1635SOL    HW2 5805   0.289   4.889   6.883
 1636SOL     OW 5806   2.822   4.403   1.445
 1636SOL    HW1 5807   2.734   4.395   1.397
 1636SOL    HW2 5808   2.896   4.409   1.378
 1637SOL     OW 5809   0.641   0.952   2.940
 1637SOL    HW1 5810   0.593   0.892   2.875
 1637SOL    HW2 5811   0.654   0.903   3.026
 1638SOL     OW 5812   7.000   4.644   3.720
 1638SOL    HW1 5813   6.976   4.569   3.781
 1638SOL    HW2 5814   0.018   4.719   3.774
 1639SOL     OW 5815   5.003   6.791   2.139
 1639SOL    HW1 5816   5.067   6.808   2.064
 1639SOL    HW2 5817   5.020   6.700   2.177
 1640SOL     OW 5818   5.819   0.222   7.014
 1640SOL    HW1 5819   5.816   0.143   0.055
 1640SOL    HW2 5820   5.816   0.306   0.047
 1641SOL     OW 5821   4.586   1.474   2.981
 1641SOL    HW1 5822   4.587   1.440   3.074
 1641SOL    HW2 5823   4.497   1.455   2.939
 1642SOL     OW 5824   6.533   3.933   6.445
 1642SOL    HW1 5825   6.519   4.028   6.473
 1642SOL    HW2 5826   6.535   3.928   6.345
 1643SOL     OW 5827   2.864   4.880   4.726
 1643SOL    HW1 5828   2.876   4.832   4.813
 1643SOL    HW2 5829   2.810   4.963   4.740
 1644SOL     OW 5830   5.985   3.509   0.085
 1644SOL    HW1 5831   6.079   3.541   0.070
 1644SOL    HW2 5832   5.934   3.517   7.019
 1645SOL     OW 5833   3.383   4.842   6.579
 1645SOL    HW1 5834   3.387   4.761   6.520
 1645SOL    HW2 5835   3.474   4.881   6.589
 1646SOL     OW 5836   2.896   6.696   6.889
 1646SOL    HW1 5837   2.929   6.747   6.968
 1646SOL    HW2 5838   2.973   6.665   6.834
 1647SOL     OW 5839   5.682   3.254   4.194
 1647SOL    HW1 5840   5.588   3.235   4.166
 1647SOL    HW2 5841   5.723   3.320   4.131
 1648SOL     OW 5842   5.628   5.637   0.603
 1648SOL    HW1 5843   5.539   5.680   0.621
 1648SOL    HW2 5844   5.630   5.605   0.508
 1649SOL     OW 5845   3.407   1.388   4.042
 1649SOL    HW1 5846   3.372   1.336   3.965
 1649SOL    HW2 5847   3.347   1.375   4.121
 1650SOL     OW 5848   1.670   6.322   5.728
 1650SOL    HW1 5849   1.693   6.286   5.818
 1650SOL    HW2 5850   1.646   6.247   5.667
 1651SOL     OW 5851   0.339   1.806   1.294
 1651SOL    HW1 5852   0.258   1.853   1.330
 1651SOL    HW2 5853   0.421   1.845   1.334
 1652SOL     OW 5854   1.063   3.604   2.300
 1652SOL    HW1 5855   1.022   3.652   2.223
 1652SOL    HW2 5856   1.112   3.669   2.358
 1653SOL     OW 5857   0.469   6.794   0.653
 1653SOL    HW1 5858   0.564   6.788   0.625
 1653SOL    HW2 5859   0.443   6.890   0.665
 1654SOL     OW 5860   0.289   3.589   1.690
 1654SOL    HW1 5861   0.283   3.557   1.595
 1654SOL    HW2 5862   0.385   3.594   1.717
 1655SOL     OW 5863   0.891   2.229   4.996
 1655SOL    HW1 5864   0.902   2.191   4.904
 1655SOL    HW2 5865   0.795   2.249   5.013
 1656SOL     OW 5866   2.220   4.197   2.499
 1656SOL    HW1 5867   2.247   4.161   2.588
 1656SOL    HW2 5868   2.142   4.259   2.510
 1657SOL     OW 5869   0.081   1.178   4.290
 1657SOL    HW1 5870   0.002   1.213   4.241
 1657SOL    HW2 5871   0.053   1.104   4.351
 1658SOL     OW 5872   0.195   6.606   1.302
 1658SOL    HW1 5873   0.236   6.515   1.308
 1658SOL    HW2 5874   0.154   6.630   1.390
 1659SOL     OW 5875   3.861   6.841   6.712
 1659SOL    HW1 5876   3.887   6.783   6.790
 1659SOL    HW2 5877   3.795   6.792   6.655
 1660SOL     OW 5878   1.381   5.737   3.536
 1660SOL    HW1 5879   1.468   5.705   3.499
 1660SOL    HW2 5880   1.342   5.666   3.594
 1661SOL     OW 5881   3.126   6.970   1.185
 1661SOL    HW1 5882   3.223   6.947   1.172
 1661SOL    HW2 5883   3.074   6.887   1.200
 1662SOL     OW 5884   6.685   0.335   4.173
 1662SOL    HW1 5885   6.729   0.258   4.128
 1662SOL    HW2 5886   6.688   0.321   4.272
 1663SOL     OW 5887   4.694   6.642   3.260
 1663SOL    HW1 5888   4.641   6.653   3.177
 1663SOL    HW2 5889   4.645   6.684   3.337
 1664SOL     OW 5890   1.930   6.640   4.885
 1664SOL    HW1 5891   2.007   6.691   4.846
 1664SOL    HW2 5892   1.959   6.545   4.902
 1665SOL     OW 5893   0.197   2.528   2.798
 1665SOL    HW1 5894   0.103   2.560   2.813
 1665SOL    HW2 5895   0.261   2.603   2.816
 1666SOL     OW 5896   5.760   2.155   6.406
 1666SOL    HW1 5897   5.811   2.132   6.324
 1666SOL    HW2 5898   5.739   2.071   6.457
 1667SOL     OW 5899   6.839   6.211   0.869
 1667SOL    HW1 5900   6.871   6.132   0.921
 1667SOL    HW2 5901   6.873   6.206   0.775
 1668SOL     OW 5902   5.285   6.638   4.391
 1668SOL    HW1 5903   5.215   6.573   4.420
 1668SOL    HW2 5904   5.325   6.682   4.472
 1669SOL     OW 5905   6.590   5.160   6.468
 1669SOL    HW1 5906   6.611   5.147   6.565
 1669SOL    HW2 5907   6.549   5.250   6.456
 1670SOL     OW 5908   0.156   3.914   5.890
 1670SOL    HW1 5909   0.161   3.944   5.795
 1670SOL    HW2 5910   0.083   3.962   5.937
 1671SOL     OW 5911   5.793   1.266   2.758
 1671SOL    HW1 5912   5.710   1.259   2.703
 1671SOL    HW2 5913   5.840   1.178   2.758
 1672SOL     OW 5914   1.414   2.355   0.711
 1672SOL    HW1 5915   1.472   2.364   0.792
 1672SOL    HW2 5916   1.372   2.443   0.689
 1673SOL     OW 5917   1.070   1.353   4.542
 1673SOL    HW1 5918   1.132   1.381   4.468
 1673SOL    HW2 5919   1.064   1.253   4.544
 1674SOL     OW 5920   0.804   3.048   2.448
 1674SOL    HW1 5921   0.898   3.058   2.481
 1674SOL    HW2 5922   0.742   3.094   2.512
 1675SOL     OW 5923   5.621   6.912   0.781
 1675SOL    HW1 5924   5.633   6.859   0.865
 1675SOL    HW2 5925   5.655   6.860   0.703
 1676SOL     OW 5926   2.068   2.747   2.130
 1676SOL    HW1 5927   2.162   2.769   2.104
 1676SOL    HW2 5928   2.006   2.782   2.060
 1677SOL     OW 5929   3.281   3.414   4.352
 1677SOL    HW1 5930   3.207   3.412   4.285
 1677SOL    HW2 5931   3.249   3.372   4.438
 1678SOL     OW 5932   5.713   4.056   3.908
 1678SOL    HW1 5933   5.709   3.978   3.845
 1678SOL    HW2 5934   5.682   4.138   3.859
 1679SOL     OW 5935   2.439   2.628   4.330
 1679SOL    HW1 5936   2.412   2.652   4.237
 1679SOL    HW2 5937   2.407   2.699   4.393
 1680SOL     OW 5938   0.098   2.712   5.184
 1680SOL    HW1 5939   0.173   2.661   5.143
 1680SOL    HW2 5940   0.050   2.763   5.113
 1681SOL     OW 5941   6.769   5.625   6.890
 1681SOL    HW1 5942   6.677   5.586   6.901
 1681SOL    HW2 5943   6.788   5.638   6.792
 1682SOL     OW 5944   1.622   1.068   5.011
 1682SOL    HW1 5945   1.678   1.113   4.941
 1682SOL    HW2 5946   1.650   1.100   5.102
 1683SOL     OW 5947   4.850   4.968   1.529
 1683SOL    HW1 5948   4.916   4.944   1.600
 1683SOL    HW2 5949   4.758   4.949   1.562
 1684SOL     OW 5950   1.350   5.765   2.540
 1684SOL    HW1 5951   1.342   5.668   2.560
 1684SOL    HW2 5952   1.376   5.815   2.623
 1685SOL     OW 5953   2.518   0.971   4.831
 1685SOL    HW1 5954   2.517   1.050   4.771
 1685SOL    HW2 5955   2.485   0.890   4.781
 1686SOL     OW 5956   2.582   6.409   4.534
 1686SOL    HW1 5957   2.531   6.466   4.599
 1686SOL    HW2 5958   2.537   6.320   4.526
 1687SOL     OW 5959   2.234   3.219   1.741
 1687SOL    HW1 5960   2.277   3.296   1.788
 1687SOL    HW2 5961   2.261   3.219   1.645
 1688SOL     OW 5962   2.303   2.634   4.085
 1688SOL    HW1 5963   2.253   2.550   4.107
 1688SOL    HW2 5964   2.384   2.611   4.032
 1689SOL     OW 5965   5.886   1.538   2.590
 1689SOL    HW1 5966   5.986   1.546   2.587
 1689SOL    HW2 5967   5.861   1.450   2.630
 1690SOL     OW 5968   1.732   2.360   4.043
 1690SOL    HW1 5969   1.809   2.410   4.002
 1690SOL    HW2 5970   1.755   2.263   4.050
 1691SOL     OW 5971   6.268   3.585   3.468
 1691SOL    HW1 5972   6.175   3.551   3.466
 1691SOL    HW2 5973   6.278   3.660   3.402
 1692SOL     OW 5974   5.359   6.532   1.606
 1692SOL    HW1 5975   5.314   6.515   1.519
 1692SOL    HW2 5976   5.330   6.621   1.641
 1693SOL     OW 5977   6.699   2.049   2.254
 1693SOL    HW1 5978   6.708   2.143   2.287
 1693SOL    HW2 5979   6.781   2.023   2.203
 1694SOL     OW 5980   5.573   1.107   2.400
 1694SOL    HW1 5981   5.538   1.172   2.468
 1694SOL    HW2 5982   5.646   1.052   2.441
 1695SOL     OW 5983   4.134   0.615   5.910
 1695SOL    HW1 5984   4.195   0.585   5.836
 1695SOL    HW2 5985   4.188   0.656   5.983
 1696SOL     OW 5986   4.386   5.156   1.021
 1696SOL    HW1 5987   4.327   5.076   1.006
 1696SOL    HW2 5988   4.376   5.219   0.944
 1697SOL     OW 5989   5.968   1.012   0.751
 1697SOL    HW1 5990   5.896   0.958   0.795
 1697SOL    HW2 5991   6.014   0.955   0.682
 1698SOL     OW 5992   3.664   0.074   6.983
 1698SOL    HW1 5993   3.606   0.152   7.007
 1698SOL    HW2 5994   3.755   0.087   0.003
 1699SOL     OW 5995   1.802   1.192   0.081
 1699SOL    HW1 5996   1.839   1.237   0.163
 1699SOL    HW2 5997   1.776   1.262   0.014
 1700SOL     OW 5998   6.196   3.553   4.010
 1700SOL    HW1 5999   6.233   3.637   3.972
 1700SOL    HW2 6000   6.262   3.479   4.000
 1701SOL     OW 6001   5.016   4.052   6.172
 1701SOL    HW1 6002   5.061   4.081   6.088
 1701SOL    HW2 6003   4.925   4.016   6.151
 1702SOL     OW 6004   6.293   1.555   0.404
 1702SOL    HW1 6005   6.265   1.579   0.497
 1702SOL    HW2 6006   6.312   1.457   0.400
 1703SOL     OW 6007   3.292   2.683   1.525
 1703SOL    HW1 6008   3.273   2.619   1.599
 1703SOL    HW2 6009   3.391   2.688   1.510
 1704SOL     OW 6010   0.785   2.220   1.271
 1704SOL    HW1 6011   0.823   2.283   1.340
 1704SOL    HW2 6012   0.777   2.268   1.184
 1705SOL     OW 6013   2.770   1.927   2.212
 1705SOL    HW1 6014   2.711   1.985   2.269
 1705SOL    HW2 6015   2.848   1.895   2.265
 1706SOL     OW 6016   5.147   1.237   2.202
 1706SOL    HW1 6017   5.239   1.211   2.230
 1706SOL    HW2 6018   5.082   1.219   2.276
 1707SOL     OW 6019   4.924   1.488   2.204
 1707SOL    HW1 6020   5.000   1.423   2.205
 1707SOL    HW2 6021   4.958   1.578   2.175
 1708SOL     OW 6022   4.841   5.367   2.188
 1708SOL    HW1 6023   4.842   5.339   2.092
 1708SOL    HW2 6024   4.820   5.289   2.246
 1709SOL     OW 6025   3.267   6.284   2.671
 1709SOL    HW1 6026   3.324   6.249   2.596
 1709SOL    HW2 6027   3.315   6.270   2.758
 1710SOL     OW 6028   5.071   4.663   3.803
 1710SOL    HW1 6029   4.992   4.632   3.856
 1710SOL    HW2 6030   5.146   4.685   3.865
 1711SOL     OW 6031   1.391   4.043   4.259
 1711SOL    HW1 6032   1.422   3.992   4.339
 1711SOL    HW2 6033   1.425   3.999   4.176
 1712SOL     OW 6034   6.692   2.111   5.222
 1712SOL    HW1 6035   6.691   2.139   5.126
 1712SOL    HW2 6036   6.602   2.076   5.247
 1713SOL     OW 6037   4.432   2.104   1.273
 1713SOL    HW1 6038   4.346   2.065   1.308
 1713SOL    HW2 6039   4.411   2.184   1.217
 1714SOL     OW 6040   3.628   1.053   5.784
 1714SOL    HW1 6041   3.674   1.077   5.870
 1714SOL    HW2 6042   3.643   1.125   5.717
 1715SOL     OW 6043   0.603   5.410   3.058
 1715SOL    HW1 6044   0.518   5.440   3.017
 1715SOL    HW2 6045   0.650   5.488   3.099
 1716SOL     OW 6046   5.102   6.762   3.291
 1716SOL    HW1 6047   5.159   6.838   3.322
 1716SOL    HW2 6048   5.020   6.757   3.348
 1717SOL     OW 6049   2.525   6.404   6.169
 1717SOL    HW1 6050   2.608   6.365   6.130
 1717SOL    HW2 6051   2.492   6.346   6.243
 1718SOL     OW 6052   2.395   1.555   1.643
 1718SOL    HW1 6053   2.426   1.630   1.702
 1718SOL    HW2 6054   2.296   1.544   1.653
 1719SOL     OW 6055   2.048   3.160   1.277
 1719SOL    HW1 6056   2.132   3.108   1.286
 1719SOL    HW2 6057   2.010   3.177   1.369
 1720SOL     OW 6058   6.696   3.214   0.324
 1720SOL    HW1 6059   6.702   3.313   0.333
 1720SOL    HW2 6060   6.771   3.181   0.268
 1721SOL     OW 6061   1.753   6.840   1.446
 1721SOL    HW1 6062   1.755   6.766   1.379
 1721SOL    HW2 6063   1.832   6.831   1.508
 1722SOL     OW 6064   3.399   1.357   3.479
 1722SOL    HW1 6065   3.317   1.368   3.534
 1722SOL    HW2 6066   3.477   1.338   3.539
 1723SOL     OW 6067   5.808   2.563   2.236
 1723SOL    HW1 6068   5.743   2.634   2.210
 1723SOL    HW2 6069   5.766   2.473   2.226
 1724SOL     OW 6070   6.540   2.602   1.655
 1724SOL    HW1 6071   6.496   2.536   1.717
 1724SOL    HW2 6072   6.474   2.672   1.629
 1725SOL     OW 6073   2.050   5.297   6.538
 1725SOL    HW1 6074   2.108   5.215   6.540
 1725SOL    HW2 6075   2.108   5.378   6.531
 1726SOL     OW 6076   6.499   4.488   4.807
 1726SOL    HW1 6077   6.546   4.425   4.745
 1726SOL    HW2 6078   6.542   4.579   4.801
 1727SOL     OW 6079   3.459   2.892   4.246
 1727SOL    HW1 6080   3.392   2.820   4.225
 1727SOL    HW2 6081   3.412   2.981   4.251
 1728SOL     OW 6082   5.004   4.890   4.700
 1728SOL    HW1 6083   4.987   4.988   4.686
 1728SOL    HW2 6084   5.077   4.859   4.639
 1729SOL     OW 6085   2.073   4.417   2.792
 1729SOL    HW1 6086   2.080   4.517   2.794
 1729SOL    HW2 6087   2.063   4.386   2.698
 1730SOL     OW 6088   1.168   6.314   5.975
 1730SOL    HW1 6089   1.118   6.291   5.892
 1730SOL    HW2 6090   1.187   6.412   5.976
 1731SOL     OW 6091   0.030   4.006   3.431
 1731SOL    HW1 6092   0.085   4.026   3.350
 1731SOL    HW2 6093   7.020   4.091   3.473
 1732SOL     OW 6094   2.849   5.021   5.296
 1732SOL    HW1 6095   2.831   4.987   5.388
 1732SOL    HW2 6096   2.765   5.022   5.243
 1733SOL     OW 6097   1.867   4.986   2.020
 1733SOL    HW1 6098   1.944   4.961   2.079
 1733SOL    HW2 6099   1.885   5.074   1.977
 1734SOL     OW 6100   4.548   3.450   1.249
 1734SOL    HW1 6101   4.554   3.510   1.329
 1734SOL    HW2 6102   4.460   3.402   1.250
 1735SOL     OW 6103   4.885   5.557   0.595
 1735SOL    HW1 6104   4.898   5.529   0.500
 1735SOL    HW2 6105   4.810   5.622   0.601
 1736SOL     OW 6106   3.504   3.897   0.439
 1736SOL    HW1 6107   3.554   3.840   0.373
 1736SOL    HW2 6108   3.417   3.853   0.461
 1737SOL     OW 6109   3.253   1.278   4.257
 1737SOL    HW1 6110   3.289   1.184   4.252
 1737SOL    HW2 6111   3.198   1.287   4.340
 1738SOL     OW 6112   1.594   2.956   4.044
 1738SOL    HW1 6113   1.515   3.013   4.025
 1738SOL    HW2 6114   1.676   2.998   4.005
 1739SOL     OW 6115   0.198   1.878   5.499
 1739SOL    HW1 6116   0.271   1.861   5.433
 1739SOL    HW2 6117   0.159   1.968   5.482
 1740SOL     OW 6118   0.411   2.146   5.838
 1740SOL    HW1 6119   0.387   2.227   5.784
 1740SOL    HW2 6120   0.328   2.094   5.859
 1741SOL     OW 6121   2.021   0.481   3.852
 1741SOL    HW1 6122   1.986   0.462   3.761
 1741SOL    HW2 6123   2.095   0.417   3.874
 1742SOL     OW 6124   5.744   0.575   6.516
 1742SOL    HW1 6125   5.671   0.614   6.572
 1742SOL    HW2 6126   5.743   0.475   6.525
 1743SOL     OW 6127   0.707   1.835   1.817
 1743SOL    HW1 6128   0.799   1.802   1.837
 1743SOL    HW2 6129   0.712   1.921   1.766
 1744SOL     OW 6130   6.751   2.477   3.334
 1744SOL    HW1 6131   6.680   2.473   3.263
 1744SOL    HW2 6132   6.765   2.572   3.361
 1745SOL     OW 6133   5.664   5.566   2.068
 1745SOL    HW1 6134   5.600   5.503   2.113
 1745SOL    HW2 6135   5.651   5.658   2.105
 1746SOL     OW 6136   1.519   3.848   4.436
 1746SOL    HW1 6137   1.469   3.815   4.516
 1746SOL    HW2 6138   1.593   3.908   4.466
 1747SOL     OW 6139   4.641   1.362   3.245
 1747SOL    HW1 6140   4.559   1.328   3.291
 1747SOL    HW2 6141   4.688   1.286   3.201
 1748SOL     OW 6142   1.035   0.804   4.949
 1748SOL    HW1 6143   1.080   0.882   4.905
 1748SOL    HW2 6144   0.952   0.835   4.996
 1749SOL     OW 6145   2.110   0.103   4.874
 1749SOL    HW1 6146   2.057   0.180   4.838
 1749SOL    HW2 6147   2.050   0.044   4.928
 1750SOL     OW 6148   4.866   6.202   4.239
 1750SOL    HW1 6149   4.856   6.174   4.144
 1750SOL    HW2 6150   4.960   6.231   4.257
 1751SOL     OW 6151   3.824   6.310   4.371
 1751SOL    HW1 6152   3.901   6.256   4.405
 1751SOL    HW2 6153   3.831   6.403   4.405
 1752SOL     OW 6154   6.460   1.959   2.180
 1752SOL    HW1 6155   6.443   1.948   2.082
 1752SOL    HW2 6156   6.544   2.011   2.194
 1753SOL     OW 6157   6.624   1.344   1.536
 1753SOL    HW1 6158   6.554   1.340   1.608
 1753SOL    HW2 6159   6.674   1.430   1.543
 1754SOL     OW 6160   1.683   4.603   6.919
 1754SOL    HW1 6161   1.635   4.688   6.896
 1754SOL    HW2 6162   1.625   4.545   6.976
 1755SOL     OW 6163   6.869   6.070   1.488
 1755SOL    HW1 6164   6.844   6.038   1.396
 1755SOL    HW2 6165   6.804   6.141   1.517
 1756SOL     OW 6166   4.511   5.792   5.549
 1756SOL    HW1 6167   4.513   5.881   5.505
 1756SOL    HW2 6168   4.567   5.794   5.632
 1757SOL     OW 6169   2.321   5.090   4.429
 1757SOL    HW1 6170   2.374   5.023   4.481
 1757SOL    HW2 6171   2.229   5.097   4.467
 1758SOL     OW 6172   2.069   0.282   4.386
 1758SOL    HW1 6173   1.998   0.212   4.387
 1758SOL    HW2 6174   2.159   0.238   4.391
 1759SOL     OW 6175   1.604   6.373   5.279
 1759SOL    HW1 6176   1.672   6.411   5.343
 1759SOL    HW2 6177   1.610   6.274   5.279
 1760SOL     OW 6178   5.299   1.413   2.784
 1760SOL    HW1 6179   5.301   1.492   2.723
 1760SOL    HW2 6180   5.377   1.416   2.847
 1761SOL     OW 6181   0.248   0.635   1.172
 1761SOL    HW1 6182   0.179   0.592   1.230
 1761SOL    HW2 6183   0.326   0.661   1.229
 1762SOL     OW 6184   0.392   1.190   4.475
 1762SOL    HW1 6185   0.362   1.098   4.451
 1762SOL    HW2 6186   0.312   1.249   4.486
 1763SOL     OW 6187   1.132   4.263   3.805
 1763SOL    HW1 6188   1.193   4.204   3.860
 1763SOL    HW2 6189   1.174   4.353   3.796
 1764SOL     OW 6190   2.183   3.101   2.438
 1764SOL    HW1 6191   2.185   3.024   2.503
 1764SOL    HW2 6192   2.166   3.066   2.346
 1765SOL     OW 6193   3.674   0.413   1.177
 1765SOL    HW1 6194   3.758   0.374   1.215
 1765SOL    HW2 6195   3.607   0.340   1.162
 1766SOL     OW 6196   5.116   4.422   2.548
 1766SOL    HW1 6197   5.097   4.517   2.524
 1766SOL    HW2 6198   5.038   4.365   2.523
 1767SOL     OW 6199   0.531   3.734   2.476
 1767SOL    HW1 6200   0.544   3.725   2.377
 1767SOL    HW2 6201   0.591   3.670   2.523
 1768SOL     OW 6202   4.082   1.659   6.634
 1768SOL    HW1 6203   4.021   1.596   6.586
 1768SOL    HW2 6204   4.177   1.638   6.611
 1769SOL     OW 6205   4.948   1.399   6.468
 1769SOL    HW1 6206   4.895   1.455   6.530
 1769SOL    HW2 6207   4.971   1.451   6.386
 1770SOL     OW 6208   6.751   4.733   4.502
 1770SOL    HW1 6209   6.835   4.682   4.519
 1770SOL    HW2 6210   6.672   4.676   4.520
 1771SOL     OW 6211   2.382   5.523   0.505
 1771SOL    HW1 6212   2.420   5.610   0.535
 1771SOL    HW2 6213   2.326   5.484   0.578
 1772SOL     OW 6214   3.574   7.016   3.483
 1772SOL    HW1 6215   3.670   0.023   3.474
 1772SOL    HW2 6216   3.562   6.961   3.565
 1773SOL     OW 6217   2.727   3.514   6.315
 1773SOL    HW1 6218   2.751   3.496   6.220
 1773SOL    HW2 6219   2.777   3.594   6.348
 1774SOL     OW 6220   4.564   0.231   1.795
 1774SOL    HW1 6221   4.636   0.226   1.726
 1774SOL    HW2 6222   4.517   0.144   1.801
 1775SOL     OW 6223   1.775   4.951   5.336
 1775SOL    HW1 6224   1.832   5.033   5.329
 1775SOL    HW2 6225   1.828   4.877   5.378
 1776SOL     OW 6226   5.277   1.182   6.412
 1776SOL    HW1 6227   5.240   1.197   6.320
 1776SOL    HW2 6228   5.216   1.222   6.480
 1777SOL     OW 6229   3.295   6.090   5.520
 1777SOL    HW1 6230   3.340   6.120   5.604
 1777SOL    HW2 6231   3.235   6.012   5.539
 1778SOL     OW 6232   4.349   1.810   4.429
 1778SOL    HW1 6233   4.427   1.752   4.408
 1778SOL    HW2 6234   4.339   1.819   4.528
 1779SOL     OW 6235   3.811   1.399   5.054
 1779SOL    HW1 6236   3.869   1.383   4.974
 1779SOL    HW2 6237   3.817   1.320   5.116
 1780SOL     OW 6238   2.180   4.014   6.015
 1780SOL    HW1 6239   2.184   3.920   6.049
 1780SOL    HW2 6240   2.272   4.045   5.992
 1781SOL     OW 6241   4.836   5.130   3.640
 1781SOL    HW1 6242   4.902   5.071   3.687
 1781SOL    HW2 6243   4.771   5.167   3.706
 1782SOL     OW 6244   2.917   1.809   3.314
 1782SOL    HW1 6245   2.983   1.736   3.294
 1782SOL    HW2 6246   2.887   1.802   3.409
 1783SOL     OW 6247   2.311   3.428   6.259
 1783SOL    HW1 6248   2.392   3.375   6.233
 1783SOL    HW2 6249   2.324   3.523   6.231
 1784SOL     OW 6250   2.533   1.459   2.393
 1784SOL    HW1 6251   2.575   1.549   2.409
 1784SOL    HW2 6252   2.598   1.387   2.418
 1785SOL     OW 6253   5.602   5.688   3.369
 1785SOL    HW1 6254   5.618   5.748   3.448
 1785SOL    HW2 6255   5.638   5.597   3.388
 1786SOL     OW 6256   1.247   3.817   0.485
 1786SOL    HW1 6257   1.152   3.787   0.494
 1786SOL    HW2 6258   1.261   3.857   0.395
 1787SOL     OW 6259   2.191   1.034   5.364
 1787SOL    HW1 6260   2.287   1.039   5.335
 1787SOL    HW2 6261   2.180   0.961   5.431
 1788SOL     OW 6262   3.586   4.086   6.996
 1788SOL    HW1 6263   3.605   4.128   6.907
 1788SOL    HW2 6264   3.663   4.029   0.003
 1789SOL     OW 6265   5.506   2.641   2.135
 1789SOL    HW1 6266   5.414   2.667   2.163
 1789SOL    HW2 6267   5.548   2.716   2.085
 1790SOL     OW 6268   3.626   6.838   4.349
 1790SOL    HW1 6269   3.567   6.919   4.344
 1790SOL    HW2 6270   3.624   6.802   4.442
 1791SOL     OW 6271   6.905   1.115   4.687
 1791SOL    HW1 6272   6.954   1.089   4.604
 1791SOL    HW2 6273   6.813   1.078   4.686
 1792SOL     OW 6274   0.693   0.804   4.545
 1792SOL    HW1 6275   0.787   0.803   4.582
 1792SOL    HW2 6276   0.629   0.818   4.620
 1793SOL     OW 6277   6.223   0.431   3.862
 1793SOL    HW1 6278   6.313   0.459   3.897
 1793SOL    HW2 6279   6.214   0.332   3.866
 1794SOL     OW 6280   5.029   6.236   6.114
 1794SOL    HW1 6281   4.935   6.268   6.109
 1794SOL    HW2 6282   5.068   6.233   6.022
 1795SOL     OW 6283   6.334   4.997   2.392
 1795SOL    HW1 6284   6.424   4.969   2.359
 1795SOL    HW2 6285   6.344   5.077   2.452
 1796SOL     OW 6286   2.018   0.591   4.620
 1796SOL    HW1 6287   2.007   0.602   4.521
 1796SOL    HW2 6288   2.065   0.671   4.657
 1797SOL     OW 6289   1.237   6.720   5.849
 1797SOL    HW1 6290   1.333   6.709   5.824
 1797SOL    HW2 6291   1.229   6.788   5.921
 1798SOL     OW 6292   4.608   2.736   5.251
 1798SOL    HW1 6293   4.580   2.688   5.334
 1798SOL    HW2 6294   4.600   2.835   5.266
 1799SOL     OW 6295   5.802   2.612   6.320
 1799SOL    HW1 6296   5.846   2.563   6.395
 1799SOL    HW2 6297   5.706   2.629   6.344
 1800SOL     OW 6298   5.012   4.348   3.704
 1800SOL    HW1 6299   4.977   4.347   3.798
 1800SOL    HW2 6300   5.110   4.366   3.705
 1801SOL     OW 6301   0.984   1.722   2.997
 1801SOL    HW1 6302   0.898   1.769   2.977
 1801SOL    HW2 6303   1.060   1.786   2.989
 1802SOL     OW 6304   6.277   6.193   2.983
 1802SOL    HW1 6305   6.282   6.289   2.955
 1802SOL    HW2 6306   6.300   6.134   2.905
 1803SOL     OW 6307   0.072   6.154   1.933
 1803SOL    HW1 6308   0.148   6.173   1.872
 1803SOL    HW2 6309   0.086   6.065   1.977
 1804SOL     OW 6310   3.455   3.271   5.433
 1804SOL    HW1 6311   3.398   3.261   5.515
 1804SOL    HW2 6312   3.440   3.361   5.393
 1805SOL     OW 6313   1.469   4.542   6.089
 1805SOL    HW1 6314   1.444   4.597   6.009
 1805SOL    HW2 6315   1.513   4.457   6.058
 1806SOL     OW 6316   1.217   2.254   1.733
 1806SOL    HW1 6317   1.145   2.191   1.702
 1806SOL    HW2 6318   1.175   2.339   1.764
 1807SOL     OW 6319   6.210   2.138   6.105
 1807SOL    HW1 6320   6.152   2.078   6.161
 1807SOL    HW2 6321   6.250   2.209   6.163
 1808SOL     OW 6322   5.693   4.507   4.460
 1808SOL    HW1 6323   5.662   4.551   4.544
 1808SOL    HW2 6324   5.653   4.416   4.454
 1809SOL     OW 6325   2.471   2.532   4.847
 1809SOL    HW1 6326   2.536   2.479   4.901
 1809SOL    HW2 6327   2.429   2.603   4.905
 1810SOL     OW 6328   1.150   6.924   4.826
 1810SOL    HW1 6329   1.184   6.861   4.757
 1810SOL    HW2 6330   1.169   6.888   4.917
 1811SOL     OW 6331   4.419   4.896   2.802
 1811SOL    HW1 6332   4.398   4.806   2.765
 1811SOL    HW2 6333   4.450   4.887   2.896
 1812SOL     OW 6334   5.106   6.861   6.093
 1812SOL    HW1 6335   5.086   6.802   6.171
 1812SOL    HW2 6336   5.187   6.826   6.045
 1813SOL     OW 6337   5.114   5.251   1.395
 1813SOL    HW1 6338   5.161   5.317   1.337
 1813SOL    HW2 6339   5.171   5.170   1.407
 1814SOL     OW 6340   6.119   0.584   0.895
 1814SOL    HW1 6341   6.098   0.529   0.976
 1814SOL    HW2 6342   6.214   0.616   0.900
 1815SOL     OW 6343   5.994   0.687   3.133
 1815SOL    HW1 6344   6.090   0.700   3.109
 1815SOL    HW2 6345   5.953   0.777   3.151
 1816SOL     OW 6346   2.723   4.741   0.431
 1816SOL    HW1 6347   2.705   4.826   0.382
 1816SOL    HW2 6348   2.637   4.703   0.465
 1817SOL     OW 6349   3.921   0.547   3.486
 1817SOL    HW1 6350   3.924   0.638   3.529
 1817SOL    HW2 6351   3.904   0.557   3.388
 1818SOL     OW 6352   2.192   6.371   1.135
 1818SOL    HW1 6353   2.260   6.310   1.096
 1818SOL    HW2 6354   2.148   6.423   1.062
 1819SOL     OW 6355   1.304   6.388   2.111
 1819SOL    HW1 6356   1.400   6.415   2.099
 1819SOL    HW2 6357   1.282   6.314   2.048
 1820SOL     OW 6358   3.454   0.308   2.290
 1820SOL    HW1 6359   3.379   0.331   2.229
 1820SOL    HW2 6360   3.496   0.393   2.325
 1821SOL     OW 6361   2.888   0.637   1.320
 1821SOL    HW1 6362   2.915   0.703   1.249
 1821SOL    HW2 6363   2.789   0.630   1.324
 1822SOL     OW 6364   0.754   2.463   1.540
 1822SOL    HW1 6365   0.828   2.399   1.520
 1822SOL    HW2 6366   0.677   2.413   1.580
 1823SOL     OW 6367   3.687   6.398   2.863
 1823SOL    HW1 6368   3.659   6.389   2.767
 1823SOL    HW2 6369   3.738   6.316   2.890
 1824SOL     OW 6370   4.034   3.866   0.542
 1824SOL    HW1 6371   3.968   3.863   0.468
 1824SOL    HW2 6372   4.069   3.774   0.560
 1825SOL     OW 6373   1.114   2.298   4.809
 1825SOL    HW1 6374   1.146   2.334   4.722
 1825SOL    HW2 6375   1.018   2.272   4.801
 1826SOL     OW 6376   2.738   1.612   1.766
 1826SOL    HW1 6377   2.707   1.524   1.730
 1826SOL    HW2 6378   2.811   1.648   1.708
 1827SOL     OW 6379   6.580   5.385   1.133
 1827SOL    HW1 6380   6.596   5.357   1.228
 1827SOL    HW2 6381   6.663   5.426   1.095
 1828SOL     OW 6382   1.714   2.509   0.016
 1828SOL    HW1 6383   1.671   2.465   6.958
 1828SOL    HW2 6384   1.746   2.440   0.081
 1829SOL     OW 6385   3.776   0.904   3.108
 1829SOL    HW1 6386   3.764   0.903   3.009
 1829SOL    HW2 6387   3.796   0.811   3.140
 1830SOL     OW 6388   5.471   6.089   4.689
 1830SOL    HW1 6389   5.473   6.034   4.606
 1830SOL    HW2 6390   5.562   6.092   4.730
 1831SOL     OW 6391   5.670   6.264   1.980
 1831SOL    HW1 6392   5.737   6.284   1.909
 1831SOL    HW2 6393   5.578   6.263   1.941
 1832SOL     OW 6394   4.135   1.677   0.930
 1832SOL    HW1 6395   4.158   1.638   0.841
 1832SOL    HW2 6396   4.219   1.704   0.977
 1833SOL     OW 6397   5.475   0.634   1.806
 1833SOL    HW1 6398   5.520   0.680   1.882
 1833SOL    HW2 6399   5.497   0.537   1.808
 1834SOL     OW 6400   2.138   3.775   0.562
 1834SOL    HW1 6401   2.180   3.801   0.475
 1834SOL    HW2 6402   2.040   3.762   0.548
 1835SOL     OW 6403   0.228   4.618   1.822
 1835SOL    HW1 6404   0.205   4.538   1.877
 1835SOL    HW2 6405   0.274   4.686   1.880
 1836SOL     OW 6406   5.320   2.683   1.286
 1836SOL    HW1 6407   5.333   2.639   1.375
 1836SOL    HW2 6408   5.223   2.700   1.270
 1837SOL     OW 6409   0.742   6.627   5.327
 1837SOL    HW1 6410   0.658   6.577   5.348
 1837SOL    HW2 6411   0.779   6.667   5.412
 1838SOL     OW 6412   6.485   0.988   5.194
 1838SOL    HW1 6413   6.503   1.074   5.241
 1838SOL    HW2 6414   6.565   0.962   5.140
 1839SOL     OW 6415   0.622   1.242   5.534
 1839SOL    HW1 6416   0.578   1.329   5.513
 1839SOL    HW2 6417   0.594   1.212   5.625
 1840SOL     OW 6418   4.032   6.973   2.094
 1840SOL    HW1 6419   4.084   6.993   2.011
 1840SOL    HW2 6420   3.951   0.011   2.097
 1841SOL     OW 6421   2.289   1.007   3.196
 1841SOL    HW1 6422   2.276   0.995   3.097
 1841SOL    HW2 6423   2.234   0.940   3.246
 1842SOL     OW 6424   1.722   5.715   1.012
 1842SOL    HW1 6425   1.746   5.810   0.992
 1842SOL    HW2 6426   1.786   5.653   0.967
 1843SOL     OW 6427   6.285   0.586   4.572
 1843SOL    HW1 6428   6.275   0.599   4.473
 1843SOL    HW2 6429   6.195   0.587   4.615
 1844SOL     OW 6430   3.574   6.736   5.118
 1844SOL    HW1 6431   3.556   6.658   5.059
 1844SOL    HW2 6432   3.534   6.818   5.078
 1845SOL     OW 6433   2.812   6.631   4.694
 1845SOL    HW1 6434   2.780   6.624   4.788
 1845SOL    HW2 6435   2.816   6.540   4.652
 1846SOL     OW 6436   3.591   1.138   2.336
 1846SOL    HW1 6437   3.622   1.043   2.337
 1846SOL    HW2 6438   3.636   1.188   2.410
 1847SOL     OW 6439   1.491   7.014   5.726
 1847SOL    HW1 6440   1.432   0.074   5.714
 1847SOL    HW2 6441   1.542   0.003   5.811
 1848SOL     OW 6442   1.932   6.377   3.019
 1848SOL    HW1 6443   1.979   6.420   3.096
 1848SOL    HW2 6444   1.994   6.373   2.941
 1849SOL     OW 6445   4.255   2.683   1.528
 1849SOL    HW1 6446   4.231   2.750   1.599
 1849SOL    HW2 6447   4.298   2.603   1.570
 1850SOL     OW 6448   0.015   2.374   2.408
 1850SOL    HW1 6449   0.010   2.474   2.417
 1850SOL    HW2 6450   0.097   2.350   2.356
 1851SOL     OW 6451   0.778   3.583   6.495
 1851SOL    HW1 6452   0.839   3.660   6.477
 1851SOL    HW2 6453   0.829   3.510   6.541
 1852SOL     OW 6454   6.906   4.621   2.823
 1852SOL    HW1 6455   6.838   4.683   2.863
 1852SOL    HW2 6456   6.882   4.527   2.845
 1853SOL     OW 6457   0.038   2.900   3.342
 1853SOL    HW1 6458   0.095   2.935   3.416
 1853SOL    HW2 6459   0.096   2.863   3.269
 1854SOL     OW 6460   2.182   5.276   2.755
 1854SOL    HW1 6461   2.239   5.321   2.823
 1854SOL    HW2 6462   2.149   5.189   2.791
 1855SOL     OW 6463   5.439   3.856   5.109
 1855SOL    HW1 6464   5.342   3.851   5.084
 1855SOL    HW2 6465   5.449   3.844   5.208
 1856SOL     OW 6466   4.837   3.714   6.038
 1856SOL    HW1 6467   4.783   3.788   6.078
 1856SOL    HW2 6468   4.924   3.707   6.086
 1857SOL     OW 6469   3.919   2.076   6.898
 1857SOL    HW1 6470   3.865   2.149   6.939
 1857SOL    HW2 6471   3.935   2.096   6.801
 1858SOL     OW 6472   5.615   3.437   3.262
 1858SOL    HW1 6473   5.527   3.399   3.233
 1858SOL    HW2 6474   5.689   3.378   3.229
 1859SOL     OW 6475   5.159   1.846   3.523
 1859SOL    HW1 6476   5.252   1.826   3.553
 1859SOL    HW2 6477   5.117   1.764   3.485
 1860SOL     OW 6478   0.819   0.942   5.048
 1860SOL    HW1 6479   0.730   0.916   5.010
 1860SOL    HW2 6480   0.804   1.007   5.123
 1861SOL     OW 6481   6.139   0.308   2.356
 1861SOL    HW1 6482   6.231   0.301   2.319
 1861SOL    HW2 6483   6.089   0.223   2.337
 1862SOL     OW 6484   2.773   0.491   6.438
 1862SOL    HW1 6485   2.757   0.538   6.351
 1862SOL    HW2 6486   2.748   0.551   6.513
 1863SOL     OW 6487   6.906   2.238   3.945
 1863SOL    HW1 6488   6.997   2.239   3.904
 1863SOL    HW2 6489   6.848   2.305   3.898
 1864SOL     OW 6490   2.478   5.733   4.795
 1864SOL    HW1 6491   2.443   5.657   4.740
 1864SOL    HW2 6492   2.576   5.745   4.777
 1865SOL     OW 6493   3.675   0.380   0.277
 1865SOL    HW1 6494   3.733   0.307   0.241
 1865SOL    HW2 6495   3.730   0.462   0.292
 1866SOL     OW 6496   6.346   4.967   3.902
 1866SOL    HW1 6497   6.347   5.031   3.826
 1866SOL    HW2 6498   6.282   4.892   3.882
 1867SOL     OW 6499   1.640   3.956   1.011
 1867SOL    HW1 6500   1.547   3.930   1.038
 1867SOL    HW2 6501   1.689   3.993   1.090
 1868SOL     OW 6502   4.806   3.384   6.656
 1868SOL    HW1 6503   4.888   3.329   6.636
 1868SOL    HW2 6504   4.770   3.421   6.571
 1869SOL     OW 6505   0.071   3.526   4.862
 1869SOL    HW1 6506   0.155   3.514   4.809
 1869SOL    HW2 6507   0.004   3.457   4.833
 1870SOL     OW 6508   1.271   3.264   5.105
 1870SOL    HW1 6509   1.365   3.268   5.137
 1870SOL    HW2 6510   1.209   3.260   5.184
 1871SOL     OW 6511   0.394   0.710   0.076
 1871SOL    HW1 6512   0.466   0.672   0.017
 1871SOL    HW2 6513   0.347   0.635   0.122
 1872SOL     OW 6514   4.450   1.934   0.192
 1872SOL    HW1 6515   4.527   1.896   0.141
 1872SOL    HW2 6516   4.394   1.990   0.132
 1873SOL     OW 6517   5.896   0.807   6.076
 1873SOL    HW1 6518   5.902   0.707   6.070
 1873SOL    HW2 6519   5.900   0.834   6.173
 1874SOL     OW 6520   1.954   1.175   6.515
 1874SOL    HW1 6521   1.957   1.251   6.450
 1874SOL    HW2 6522   2.047   1.142   6.532
 1875SOL     OW 6523   6.442   0.638   0.638
 1875SOL    HW1 6524   6.451   0.737   0.641
 1875SOL    HW2 6525   6.490   0.597   0.715
 1876SOL     OW 6526   3.535   5.809   5.915
 1876SOL    HW1 6527   3.615   5.859   5.948
 1876SOL    HW2 6528   3.533   5.810   5.815
 1877SOL     OW 6529   1.112   1.469   3.407
 1877SOL    HW1 6530   1.085   1.540   3.341
 1877SOL    HW2 6531   1.044   1.463   3.479
 1878SOL     OW 6532   0.014   2.711   4.384
 1878SOL    HW1 6533   6.948   2.741   4.423
 1878SOL    HW2 6534   0.019   2.611   4.386
 1879SOL     OW 6535   2.350   6.004   3.653
 1879SOL    HW1 6536   2.446   5.983   3.637
 1879SOL    HW2 6537   2.297   5.920   3.656
 1880SOL     OW 6538   0.392   1.549   2.858
 1880SOL    HW1 6539   0.410   1.531   2.954
 1880SOL    HW2 6540   0.350   1.640   2.848
 1881SOL     OW 6541   1.435   2.109   3.592
 1881SOL    HW1 6542   1.457   2.058   3.509
 1881SOL    HW2 6543   1.392   2.048   3.658
 1882SOL     OW 6544   1.185   4.531   6.446
 1882SOL    HW1 6545   1.240   4.609   6.477
 1882SOL    HW2 6546   1.238   4.477   6.381
 1883SOL     OW 6547   1.141   3.570   3.213
 1883SOL    HW1 6548   1.235   3.539   3.221
 1883SOL    HW2 6549   1.138   3.669   3.226
 1884SOL     OW 6550   5.933   2.324   0.666
 1884SOL    HW1 6551   6.003   2.392   0.647
 1884SOL    HW2 6552   5.972   2.232   0.657
 1885SOL     OW 6553   0.097   2.013   7.011
 1885SOL    HW1 6554   0.166   1.975   0.052
 1885SOL    HW2 6555   0.013   1.960   7.019
 1886SOL     OW 6556   2.695   1.301   1.135
 1886SOL    HW1 6557   2.661   1.390   1.163
 1886SOL    HW2 6558   2.635   1.262   1.065
 1887SOL     OW 6559   0.628   4.888   6.320
 1887SOL    HW1 6560   0.646   4.801   6.367
 1887SOL    HW2 6561   0.655   4.964   6.379
 1888SOL     OW 6562   3.235   2.066   6.357
 1888SOL    HW1 6563   3.236   2.018   6.445
 1888SOL    HW2 6564   3.270   2.159   6.371
 1889SOL     OW 6565   5.650   2.476   5.908
 1889SOL    HW1 6566   5.654   2.550   5.840
 1889SOL    HW2 6567   5.596   2.401   5.870
 1890SOL     OW 6568   1.459   5.820   5.175
 1890SOL    HW1 6569   1.422   5.729   5.157
 1890SOL    HW2 6570   1.545   5.831   5.124
 1891SOL     OW 6571   5.121   3.212   3.803
 1891SOL    HW1 6572   5.202   3.240   3.751
 1891SOL    HW2 6573   5.128   3.114   3.825
 1892SOL     OW 6574   3.907   0.535   0.892
 1892SOL    HW1 6575   3.807   0.535   0.894
 1892SOL    HW2 6576   3.939   0.616   0.843
 1893SOL     OW 6577   3.411   1.933   5.828
 1893SOL    HW1 6578   3.477   1.950   5.754
 1893SOL    HW2 6579   3.453   1.876   5.898
 1894SOL     OW 6580   3.870   4.040   2.567
 1894SOL    HW1 6581   3.792   4.101   2.552
 1894SOL    HW2 6582   3.904   4.007   2.479
 1895SOL     OW 6583   5.387   0.882   2.550
 1895SOL    HW1 6584   5.303   0.932   2.530
 1895SOL    HW2 6585   5.436   0.863   2.465
 1896SOL     OW 6586   0.876   0.648   2.919
 1896SOL    HW1 6587   0.920   0.725   2.873
 1896SOL    HW2 6588   0.808   0.607   2.857
 1897SOL     OW 6589   0.664   4.903   2.463
 1897SOL    HW1 6590   0.720   4.961   2.521
 1897SOL    HW2 6591   0.580   4.879   2.510
 1898SOL     OW 6592   3.153   4.858   2.343
 1898SOL    HW1 6593   3.094   4.921   2.393
 1898SOL    HW2 6594   3.111   4.768   2.340
 1899SOL     OW 6595   0.817   1.801   2.425
 1899SOL    HW1 6596   0.805   1.878   2.488
 1899SOL    HW2 6597   0.819   1.716   2.477
 1900SOL     OW 6598   1.180   0.636   5.134
 1900SOL    HW1 6599   1.140   0.701   5.068
 1900SOL    HW2 6600   1.149   0.544   5.112
 1901SOL     OW 6601   2.202   0.983   1.447
 1901SOL    HW1 6602   2.295   1.015   1.429
 1901SOL    HW2 6603   2.137   1.041   1.399
 1902SOL     OW 6604   2.146   2.390   4.428
 1902SOL    HW1 6605   2.191   2.471   4.467
 1902SOL    HW2 6606   2.213   2.334   4.381
 1903SOL     OW 6607   6.275   3.786   3.906
 1903SOL    HW1 6608   6.326   3.766   3.823
 1903SOL    HW2 6609   6.303   3.876   3.942
 1904SOL     OW 6610   5.830   6.796   4.285
 1904SOL    HW1 6611   5.780   6.784   4.371
 1904SOL    HW2 6612   5.796   6.877   4.238
 1905SOL     OW 6613   1.761   0.829   4.253
 1905SOL    HW1 6614   1.712   0.864   4.173
 1905SOL    HW2 6615   1.716   0.859   4.336
 1906SOL     OW 6616   2.541   0.558   5.386
 1906SOL    HW1 6617   2.606   0.483   5.374
 1906SOL    HW2 6618   2.460   0.524   5.433
 1907SOL     OW 6619   3.774   0.179   3.126
 1907SOL    HW1 6620   3.746   0.141   3.214
 1907SOL    HW2 6621   3.753   0.113   3.054
 1908SOL     OW 6622   3.991   0.921   4.776
 1908SOL    HW1 6623   4.032   0.830   4.768
 1908SOL    HW2 6624   4.012   0.975   4.695
 1909SOL     OW 6625   0.931   4.206   2.660
 1909SOL    HW1 6626   1.001   4.136   2.672
 1909SOL    HW2 6627   0.864   4.177   2.591
 1910SOL     OW 6628   0.489   2.508   6.898
 1910SOL    HW1 6629   0.560   2.538   6.834
 1910SOL    HW2 6630   0.442   2.588   6.935
 1911SOL     OW 6631   5.930   3.277   5.692
 1911SOL    HW1 6632   5.940   3.215   5.615
 1911SOL    HW2 6633   6.019   3.319   5.713
 1912SOL     OW 6634   3.381   6.873   1.188
 1912SOL    HW1 6635   3.465   6.890   1.239
 1912SOL    HW2 6636   3.393   6.794   1.128
 1913SOL     OW 6637   1.065   5.905   5.348
 1913SOL    HW1 6638   1.019   5.876   5.264
 1913SOL    HW2 6639   1.116   5.829   5.387
 1914SOL     OW 6640   3.514   2.968   6.567
 1914SOL    HW1 6641   3.426   2.928   6.592
 1914SOL    HW2 6642   3.545   2.929   6.480
 1915SOL     OW 6643   3.616   1.897   5.621
 1915SOL    HW1 6644   3.709   1.916   5.590
 1915SOL    HW2 6645   3.576   1.824   5.566
 1916SOL     OW 6646   3.140   6.040   1.267
 1916SOL    HW1 6647   3.217   6.084   1.220
 1916SOL    HW2 6648   3.054   6.078   1.235
 1917SOL     OW 6649   3.312   3.014   4.600
 1917SOL    HW1 6650   3.374   2.963   4.541
 1917SOL    HW2 6651   3.311   2.974   4.691
 1918SOL     OW 6652   0.530   1.359   6.891
 1918SOL    HW1 6653   0.578   1.350   6.804
 1918SOL    HW2 6654   0.431   1.364   6.874
 1919SOL     OW 6655   2.440   0.326   1.526
 1919SOL    HW1 6656   2.441   0.416   1.570
 1919SOL    HW2 6657   2.367   0.322   1.459
 1920SOL     OW 6658   1.231   4.921   2.797
 1920SOL    HW1 6659   1.181   4.998   2.837
 1920SOL    HW2 6660   1.252   4.941   2.701
 1921SOL     OW 6661   1.688   4.662   0.325
 1921SOL    HW1 6662   1.695   4.627   0.419
 1921SOL    HW2 6663   1.697   4.762   0.326
 1922SOL     OW 6664   3.335   4.348   0.606
 1922SOL    HW1 6665   3.313   4.443   0.626
 1922SOL    HW2 6666   3.278   4.317   0.530
 1923SOL     OW 6667   3.217   0.913   6.116
 1923SOL    HW1 6668   3.156   0.962   6.179
 1923SOL    HW2 6669   3.162   0.858   6.053
 1924SOL     OW 6670   5.215   4.976   1.729
 1924SOL    HW1 6671   5.302   4.934   1.755
 1924SOL    HW2 6672   5.199   5.058   1.784
 1925SOL     OW 6673   2.120   3.548   0.689
 1925SOL    HW1 6674   2.195   3.485   0.706
 1925SOL    HW2 6675   2.153   3.628   0.638
 1926SOL     OW 6676   1.612   6.872   2.765
 1926SOL    HW1 6677   1.618   6.895   2.862
 1926SOL    HW2 6678   1.660   6.941   2.711
 1927SOL     OW 6679   3.385   4.392   5.955
 1927SOL    HW1 6680   3.448   4.337   6.010
 1927SOL    HW2 6681   3.436   4.463   5.907
 1928SOL     OW 6682   6.665   4.111   5.694
 1928SOL    HW1 6683   6.721   4.116   5.776
 1928SOL    HW2 6684   6.720   4.079   5.617
 1929SOL     OW 6685   0.903   5.700   2.005
 1929SOL    HW1 6686   0.928   5.617   1.955
 1929SOL    HW2 6687   0.813   5.731   1.973
 1930SOL     OW 6688   3.599   4.026   6.468
 1930SOL    HW1 6689   3.650   3.950   6.428
 1930SOL    HW2 6690   3.620   4.032   6.566
 1931SOL     OW 6691   0.418   2.876   2.274
 1931SOL    HW1 6692   0.475   2.866   2.356
 1931SOL    HW2 6693   0.440   2.962   2.229
 1932SOL     OW 6694   5.152   3.401   3.337
 1932SOL    HW1 6695   5.119   3.469   3.403
 1932SOL    HW2 6696   5.104   3.315   3.351
 1933SOL     OW 6697   2.588   4.336   0.626
 1933SOL    HW1 6698   2.553   4.283   0.549
 1933SOL    HW2 6699   2.680   4.370   0.605
 1934SOL     OW 6700   0.997   0.018   5.075
 1934SOL    HW1 6701   1.034   0.110   5.062
 1934SOL    HW2 6702   1.004   6.987   4.990
 1935SOL     OW 6703   3.375   6.101   4.381
 1935SOL    HW1 6704   3.293   6.159   4.375
 1935SOL    HW2 6705   3.453   6.157   4.408
 1936SOL     OW 6706   6.608   3.949   4.004
 1936SOL    HW1 6707   6.529   4.008   4.022
 1936SOL    HW2 6708   6.594   3.860   4.048
 1937SOL     OW 6709   4.824   0.281   0.877
 1937SOL    HW1 6710   4.741   0.314   0.832
 1937SOL    HW2 6711   4.803   0.260   0.973
 1938SOL     OW 6712   2.588   0.942   1.671
 1938SOL    HW1 6713   2.635   0.902   1.750
 1938SOL    HW2 6714   2.614   0.893   1.588
 1939SOL     OW 6715   6.607   0.374   4.974
 1939SOL    HW1 6716   6.556   0.448   4.930
 1939SOL    HW2 6717   6.704   0.383   4.952
 1940SOL     OW 6718   4.636   5.195   0.179
 1940SOL    HW1 6719   4.630   5.107   0.132
 1940SOL    HW2 6720   4.551   5.246   0.164
 1941SOL     OW 6721   0.035   4.123   3.768
 1941SOL    HW1 6722   0.061   4.209   3.811
 1941SOL    HW2 6723   6.966   4.093   3.802
 1942SOL     OW 6724   5.299   0.490   1.525
 1942SOL    HW1 6725   5.220   0.507   1.585
 1942SOL    HW2 6726   5.274   0.512   1.431
 1943SOL     OW 6727   2.740   6.326   2.061
 1943SOL    HW1 6728   2.799   6.403   2.087
 1943SOL    HW2 6729   2.763   6.296   1.969
 1944SOL     OW 6730   5.697   2.599   0.488
 1944SOL    HW1 6731   5.764   2.652   0.436
 1944SOL    HW2 6732   5.704   2.502   0.462
 1945SOL     OW 6733   3.303   5.634   1.618
 1945SOL    HW1 6734   3.396   5.596   1.615
 1945SOL    HW2 6735   3.286   5.672   1.709
 1946SOL     OW 6736   6.214   0.359   1.456
 1946SOL    HW1 6737   6.179   0.413   1.533
 1946SOL    HW2 6738   6.143   0.296   1.424
 1947SOL     OW 6739   4.547   0.085   5.300
 1947SOL    HW1 6740   4.481   0.014   5.322
 1947SOL    HW2 6741   4.610   0.051   5.230
 1948SOL     OW 6742   5.581   5.251   3.592
 1948SOL    HW1 6743   5.513   5.242   3.519
 1948SOL    HW2 6744   5.584   5.167   3.646
 1949SOL     OW 6745   3.210   4.405   6.510
 1949SOL    HW1 6746   3.186   4.448   6.596
 1949SOL    HW2 6747   3.257   4.318   6.528
 1950SOL     OW 6748   3.983   4.391   0.423
 1950SOL    HW1 6749   4.001   4.430   0.513
 1950SOL    HW2 6750   3.944   4.461   0.363
 1951SOL     OW 6751   5.939   4.159   6.975
 1951SOL    HW1 6752   6.003   4.187   0.027
 1951SOL    HW2 6753   5.961   4.207   6.890
 1952SOL     OW 6754   4.883   2.569   0.525
 1952SOL    HW1 6755   4.883   2.514   0.608
 1952SOL    HW2 6756   4.976   2.598   0.504
 1953SOL     OW 6757   5.993   1.792   6.659
 1953SOL    HW1 6758   5.940   1.738   6.594
 1953SOL    HW2 6759   6.089   1.763   6.658
 1954SOL     OW 6760   5.633   1.505   3.274
 1954SOL    HW1 6761   5.607   1.602   3.267
 1954SOL    HW2 6762   5.731   1.498   3.295
 1955SOL     OW 6763   1.163   1.467   2.197
 1955SOL    HW1 6764   1.168   1.395   2.266
 1955SOL    HW2 6765   1.133   1.428   2.110
 1956SOL     OW 6766   4.928   6.443   2.867
 1956SOL    HW1 6767   4.843   6.456   2.816
 1956SOL    HW2 6768   4.945   6.524   2.924
 1957SOL     OW 6769   6.026   5.050   4.341
 1957SOL    HW1 6770   5.970   5.028   4.261
 1957SOL    HW2 6771   6.104   4.988   4.346
 1958SOL     OW 6772   4.872   2.409   2.767
 1958SOL    HW1 6773   4.774   2.422   2.756
 1958SOL    HW2 6774   4.920   2.455   2.692
 1959SOL     OW 6775   0.580   0.754   5.098
 1959SOL    HW1 6776   0.513   0.814   5.054
 1959SOL    HW2 6777   0.538   0.711   5.178
 1960SOL     OW 6778   6.756   4.506   2.089
 1960SOL    HW1 6779   6.825   4.481   2.157
 1960SOL    HW2 6780   6.787   4.476   1.998
 1961SOL     OW 6781   5.572   4.240   4.411
 1961SOL    HW1 6782   5.621   4.220   4.326
 1961SOL    HW2 6783   5.502   4.171   4.426
 1962SOL     OW 6784   1.893   6.802   3.683
 1962SOL    HW1 6785   1.882   6.865   3.606
 1962SOL    HW2 6786   1.870   6.710   3.654
 1963SOL     OW 6787   0.601   1.822   1.478
 1963SOL    HW1 6788   0.546   1.764   1.539
 1963SOL    HW2 6789   0.680   1.771   1.446
 1964SOL     OW 6790   4.814   4.293   0.560
 1964SOL    HW1 6791   4.804   4.391   0.549
 1964SOL    HW2 6792   4.725   4.248   0.554
 1965SOL     OW 6793   1.511   3.367   4.490
 1965SOL    HW1 6794   1.491   3.402   4.398
 1965SOL    HW2 6795   1.507   3.267   4.489
 1966SOL     OW 6796   6.804   6.246   0.159
 1966SOL    HW1 6797   6.717   6.290   0.181
 1966SOL    HW2 6798   6.795   6.147   0.169
 1967SOL     OW 6799   5.561   2.782   5.644
 1967SOL    HW1 6800   5.512   2.830   5.571
 1967SOL    HW2 6801   5.614   2.847   5.698
 1968SOL     OW 6802   2.531   0.226   6.817
 1968SOL    HW1 6803   2.561   0.132   6.801
 1968SOL    HW2 6804   2.573   0.287   6.750
 1969SOL     OW 6805   1.151   1.533   1.866
 1969SOL    HW1 6806   1.185   1.440   1.851
 1969SOL    HW2 6807   1.212   1.599   1.821
 1970SOL     OW 6808   2.286   6.671   6.145
 1970SOL    HW1 6809   2.333   6.583   6.150
 1970SOL    HW2 6810   2.256   6.698   6.236
 1971SOL     OW 6811   0.147   0.001   5.584
 1971SOL    HW1 6812   0.138   0.047   5.672
 1971SOL    HW2 6813   0.237   0.023   5.544
 1972SOL     OW 6814   5.162   2.505   2.012
 1972SOL    HW1 6815   5.201   2.566   2.081
 1972SOL    HW2 6816   5.135   2.559   1.932
 1973SOL     OW 6817   3.105   2.212   0.312
 1973SOL    HW1 6818   3.168   2.287   0.331
 1973SOL    HW2 6819   3.021   2.248   0.272
 1974SOL     OW 6820   5.877   0.023   4.719
 1974SOL    HW1 6821   5.964   6.993   4.718
 1974SOL    HW2 6822   5.859   0.057   4.811
 1975SOL     OW 6823   2.186   1.575   3.820
 1975SOL    HW1 6824   2.139   1.553   3.734
 1975SOL    HW2 6825   2.279   1.538   3.818
 1976SOL     OW 6826   0.382   6.567   0.016
 1976SOL    HW1 6827   0.332   6.556   6.950
 1976SOL    HW2 6828   0.472   6.524   0.007
 1977SOL     OW 6829   0.512   3.282   4.649
 1977SOL    HW1 6830   0.487   3.186   4.660
 1977SOL    HW2 6831   0.606   3.289   4.615
 1978SOL     OW 6832   1.548   0.409   2.940
 1978SOL    HW1 6833   1.630   0.449   2.899
 1978SOL    HW2 6834   1.504   0.349   2.873
 1979SOL     OW 6835   6.263   4.148   6.141
 1979SOL    HW1 6836   6.296   4.201   6.219
 1979SOL    HW2 6837   6.297   4.189   6.056
 1980SOL     OW 6838   3.152   0.430   4.401
 1980SOL    HW1 6839   3.146   0.349   4.342
 1980SOL    HW2 6840   3.084   0.497   4.372
 1981SOL     OW 6841   6.710   1.833   2.443
 1981SOL    HW1 6842   6.704   1.923   2.399
 1981SOL    HW2 6843   6.793   1.786   2.412
 1982SOL     OW 6844   0.144   4.205   5.222
 1982SOL    HW1 6845   0.113   4.178   5.131
 1982SOL    HW2 6846   0.071   4.257   5.267
 1983SOL     OW 6847   0.476   1.411   2.639
 1983SOL    HW1 6848   0.442   1.474   2.709
 1983SOL    HW2 6849   0.535   1.342   2.681
 1984SOL     OW 6850   5.948   1.615   5.173
 1984SOL    HW1 6851   5.893   1.606   5.256
 1984SOL    HW2 6852   6.040   1.647   5.197
 1985SOL     OW 6853   1.380   6.380   2.616
 1985SOL    HW1 6854   1.283   6.364   2.598
 1985SOL    HW2 6855   1.430   6.293   2.615
 1986SOL     OW 6856   1.602   1.167   6.850
 1986SOL    HW1 6857   1.624   1.084   6.798
 1986SOL    HW2 6858   1.667   1.239   6.826
 1987SOL     OW 6859   1.784   2.554   2.573
 1987SOL    HW1 6860   1.790   2.651   2.599
 1987SOL    HW2 6861   1.856   2.533   2.507
 1988SOL     OW 6862   5.971   4.295   0.597
 1988SOL    HW1 6863   5.997   4.377   0.647
 1988SOL    HW2 6864   5.873   4.299   0.577
 1989SOL     OW 6865   2.601   5.555   4.317
 1989SOL    HW1 6866   2.564   5.475   4.365
 1989SOL    HW2 6867   2.583   5.547   4.219
 1990SOL     OW 6868   3.700   6.082   0.653
 1990SOL    HW1 6869   3.723   6.158   0.714
 1990SOL    HW2 6870   3.654   6.118   0.571
 1991SOL     OW 6871   3.716   4.751   6.884
 1991SOL    HW1 6872   3.729   4.727   6.787
 1991SOL    HW2 6873   3.729   4.849   6.896
 1992SOL     OW 6874   1.388   0.704   0.642
 1992SOL    HW1 6875   1.344   0.757   0.569
 1992SOL    HW2 6876   1.464   0.756   0.679
 1993SOL     OW 6877   3.623   3.103   5.133
 1993SOL    HW1 6878   3.524   3.087   5.123
 1993SOL    HW2 6879   3.673   3.029   5.087
 1994SOL     OW 6880   0.576   1.143   0.587
 1994SOL    HW1 6881   0.630   1.206   0.643
 1994SOL    HW2 6882   0.618   1.053   0.589
 1995SOL     OW 6883   5.122   2.387   3.395
 1995SOL    HW1 6884   5.099   2.407   3.490
 1995SOL    HW2 6885   5.169   2.299   3.390
 1996SOL     OW 6886   1.958   3.254   0.803
 1996SOL    HW1 6887   2.007   3.313   0.867
 1996SOL    HW2 6888   2.023   3.207   0.743
 1997SOL     OW 6889   3.721   1.388   4.473
 1997SOL    HW1 6890   3.770   1.309   4.435
 1997SOL    HW2 6891   3.749   1.471   4.426
 1998SOL     OW 6892   1.926   4.609   6.346
 1998SOL    HW1 6893   1.920   4.538   6.276
 1998SOL    HW2 6894   1.957   4.695   6.304
 1999SOL     OW 6895   2.777   0.060   0.303
 1999SOL    HW1 6896   2.778   6.992   0.349
 1999SOL    HW2 6897   2.800   0.132   0.368
 2000SOL     OW 6898   4.402   2.163   5.506
 2000SOL    HW1 6899   4.432   2.088   5.565
 2000SOL    HW2 6900   4.445   2.153   5.416
 2001SOL     OW 6901   2.885   1.022   1.840
 2001SOL    HW1 6902   2.885   1.105   1.896
 2001SOL    HW2 6903   2.894   1.048   1.744
 2002SOL     OW 6904   0.938   4.735   6.655
 2002SOL    HW1 6905   1.011   4.670   6.635
 2002SOL    HW2 6906   0.850   4.698   6.624
 2003SOL     OW 6907   6.296   5.813   2.320
 2003SOL    HW1 6908   6.279   5.829   2.223
 2003SOL    HW2 6909   6.252   5.728   2.348
 2004SOL     OW 6910   5.555   0.734   5.778
 2004SOL    HW1 6911   5.461   0.700   5.783
 2004SOL    HW2 6912   5.618   0.662   5.807
 2005SOL     OW 6913   1.052   4.820   0.615
 2005SOL    HW1 6914   1.039   4.721   0.617
 2005SOL    HW2 6915   1.011   4.861   0.697
 2006SOL     OW 6916   5.002   6.700   4.270
 2006SOL    HW1 6917   5.077   6.743   4.219
 2006SOL    HW2 6918   4.998   6.739   4.362
 2007SOL     OW 6919   4.375   4.820   1.253
 2007SOL    HW1 6920   4.445   4.879   1.215
 2007SOL    HW2 6921   4.326   4.774   1.179
 2008SOL     OW 6922   3.040   4.983   3.971
 2008SOL    HW1 6923   2.953   5.022   4.001
 2008SOL    HW2 6924   3.067   4.909   4.032
 2009SOL     OW 6925   5.922   1.232   2.087
 2009SOL    HW1 6926   5.919   1.184   2.174
 2009SOL    HW2 6927   5.936   1.167   2.013
 2010SOL     OW 6928   2.139   1.601   0.784
 2010SOL    HW1 6929   2.238   1.616   0.793
 2010SOL    HW2 6930   2.090   1.662   0.846
 2011SOL     OW 6931   6.791   6.793   4.668
 2011SOL    HW1 6932   6.840   6.849   4.735
 2011SOL    HW2 6933   6.692   6.803   4.683
 2012SOL     OW 6934   1.513   3.767   1.807
 2012SOL    HW1 6935   1.429   3.717   1.826
 2012SOL    HW2 6936   1.533   3.762   1.709
 2013SOL     OW 6937   6.430   2.234   3.555
 2013SOL    HW1 6938   6.398   2.220   3.649
 2013SOL    HW2 6939   6.528   2.216   3.550
 2014SOL     OW 6940   2.392   5.171   3.761
 2014SOL    HW1 6941   2.368   5.234   3.834
 2014SOL    HW2 6942   2.402   5.221   3.675
 2015SOL     OW 6943   1.925   0.622   6.515
 2015SOL    HW1 6944   1.868   0.646   6.594
 2015SOL    HW2 6945   1.952   0.527   6.521
 2016SOL     OW 6946   1.143   6.155   5.058
 2016SOL    HW1 6947   1.196   6.220   5.113
 2016SOL    HW2 6948   1.185   6.144   4.968
 2017SOL     OW 6949   2.835   7.004   4.487
 2017SOL    HW1 6950   2.923   6.977   4.525
 2017SOL    HW2 6951   2.771   6.928   4.492
 2018SOL     OW 6952   5.634   6.785   5.633
 2018SOL    HW1 6953   5.686   6.845   5.572
 2018SOL    HW2 6954   5.537   6.789   5.610
 2019SOL     OW 6955   5.329   2.717   6.925
 2019SOL    HW1 6956   5.320   2.700   6.827
 2019SOL    HW2 6957   5.297   2.636   6.975
 2020SOL     OW 6958   1.027   6.425   4.741
 2020SOL    HW1 6959   1.015   6.493   4.813
 2020SOL    HW2 6960   1.051   6.337   4.782
 2021SOL     OW 6961   0.899   6.142   3.997
 2021SOL    HW1 6962   0.802   6.161   4.012
 2021SOL    HW2 6963   0.915   6.044   3.997
 2022SOL     OW 6964   1.835   3.966   3.333
 2022SOL    HW1 6965   1.801   4.005   3.247
 2022SOL    HW2 6966   1.811   3.869   3.337
 2023SOL     OW 6967   6.688   0.716   6.163
 2023SOL    HW1 6968   6.678   0.649   6.089
 2023SOL    HW2 6969   6.656   0.805   6.132
 2024SOL     OW 6970   0.284   0.003   3.825
 2024SOL    HW1 6971   0.349   0.075   3.799
 2024SOL    HW2 6972   0.301   6.942   3.771
 2025SOL     OW 6973   2.686   2.053   2.934
 2025SOL    HW1 6974   2.617   2.020   2.999
 2025SOL    HW2 6975   2.648   2.049   2.841
 2026SOL     OW 6976   0.213   2.806   6.117
 2026SOL    HW1 6977   0.206   2.878   6.186
 2026SOL    HW2 6978   0.296   2.818   6.064
 2027SOL     OW 6979   0.969   0.410   0.246
 2027SOL    HW1 6980   1.036   0.380   0.313
 2027SOL    HW2 6981   0.914   0.332   0.215
 2028SOL     OW 6982   2.959   6.626   5.238
 2028SOL    HW1 6983   2.959   6.546   5.298
 2028SOL    HW2 6984   3.014   6.605   5.156
 2029SOL     OW 6985   6.604   0.767   0.314
 2029SOL    HW1 6986   6.647   0.821   0.242
 2029SOL    HW2 6987   6.669   0.700   0.349
 2030SOL     OW 6988   2.485   1.347   3.040
 2030SOL    HW1 6989   2.445   1.295   2.965
 2030SOL    HW2 6990   2.419   1.354   3.115
 2031SOL     OW 6991   6.321   5.474   1.070
 2031SOL    HW1 6992   6.401   5.435   1.116
 2031SOL    HW2 6993   6.313   5.435   0.978
 2032SOL     OW 6994   4.726   0.185   2.185
 2032SOL    HW1 6995   4.725   0.172   2.284
 2032SOL    HW2 6996   4.789   0.119   2.144
 2033SOL     OW 6997   3.146   4.008   6.067
 2033SOL    HW1 6998   3.116   4.024   6.161
 2033SOL    HW2 6999   3.180   3.914   6.059
 2034SOL     OW 7000   3.030   5.724   5.288
 2034SOL    HW1 7001   2.993   5.638   5.321
 2034SOL    HW2 7002   3.068   5.711   5.196
 2035SOL     OW 7003   0.171   0.353   3.277
 2035SOL    HW1 7004   0.173   0.254   3.273
 2035SOL    HW2 7005   0.129   0.389   3.194
 2036SOL     OW 7006   1.445   4.219   2.659
 2036SOL    HW1 7007   1.379   4.148   2.682
 2036SOL    HW2 7008   1.498   4.191   2.579
 2037SOL     OW 7009   6.343   2.905   5.861
 2037SOL    HW1 7010   6.309   2.812   5.872
 2037SOL    HW2 7011   6.278   2.958   5.806
 2038SOL     OW 7012   1.798   2.363   0.261
 2038SOL    HW1 7013   1.723   2.324   0.313
 2038SOL    HW2 7014   1.874   2.385   0.323
 2039SOL     OW 7015   0.477   5.313   3.563
 2039SOL    HW1 7016   0.494   5.248   3.489
 2039SOL    HW2 7017   0.394   5.286   3.612
 2040SOL     OW 7018   3.182   3.458   5.183
 2040SOL    HW1 7019   3.115   3.384   5.188
 2040SOL    HW2 7020   3.242   3.443   5.104
 2041SOL     OW 7021   0.694   6.037   5.902
 2041SOL    HW1 7022   0.716   6.132   5.884
 2041SOL    HW2 7023   0.615   6.031   5.963
 2042SOL     OW 7024   4.728   6.138   0.175
 2042SOL    HW1 7025   4.788   6.119   0.098
 2042SOL    HW2 7026   4.779   6.128   0.260
 2043SOL     OW 7027   6.837   3.553   4.052
 2043SOL    HW1 7028   6.756   3.567   3.993
 2043SOL    HW2 7029   6.856   3.637   4.102
 2044SOL     OW 7030   6.307   6.797   1.780
 2044SOL    HW1 7031   6.357   6.743   1.713
 2044SOL    HW2 7032   6.209   6.787   1.766
 2045SOL     OW 7033   2.454   5.002   3.960
 2045SOL    HW1 7034   2.441   5.053   3.875
 2045SOL    HW2 7035   2.426   4.907   3.946
 2046SOL     OW 7036   6.388   2.172   4.191
 2046SOL    HW1 7037   6.360   2.259   4.151
 2046SOL    HW2 7038   6.475   2.184   4.238
 2047SOL     OW 7039   6.798   2.569   6.723
 2047SOL    HW1 7040   6.875   2.521   6.765
 2047SOL    HW2 7041   6.834   2.641   6.663
 2048SOL     OW 7042   1.700   6.587   5.745
 2048SOL    HW1 7043   1.684   6.492   5.719
 2048SOL    HW2 7044   1.669   6.601   5.839
 2049SOL     OW 7045   6.208   1.678   5.098
 2049SOL    HW1 7046   6.227   1.671   5.195
 2049SOL    HW2 7047   6.275   1.624   5.046
 2050SOL     OW 7048   6.522   2.676   4.350
 2050SOL    HW1 7049   6.484   2.651   4.439
 2050SOL    HW2 7050   6.467   2.750   4.310
 2051SOL     OW 7051   0.986   5.140   0.614
 2051SOL    HW1 7052   1.032   5.217   0.569
 2051SOL    HW2 7053   0.910   5.109   0.557
 2052SOL     OW 7054   1.605   3.727   1.292
 2052SOL    HW1 7055   1.582   3.658   1.224
 2052SOL    HW2 7056   1.633   3.681   1.377
 2053SOL     OW 7057   5.479   6.743   4.558
 2053SOL    HW1 7058   5.567   6.787   4.536
 2053SOL    HW2 7059   5.445   6.780   4.645
 2054SOL     OW 7060   3.633   4.141   3.188
 2054SOL    HW1 7061   3.590   4.205   3.251
 2054SOL    HW2 7062   3.572   4.124   3.111
 2055SOL     OW 7063   6.221   3.263   3.273
 2055SOL    HW1 7064   6.169   3.197   3.328
 2055SOL    HW2 7065   6.157   3.320   3.222
 2056SOL     OW 7066   4.258   5.884   2.508
 2056SOL    HW1 7067   4.293   5.960   2.563
 2056SOL    HW2 7068   4.243   5.915   2.414
 2057SOL     OW 7069   5.423   4.147   5.423
 2057SOL    HW1 7070   5.376   4.103   5.500
 2057SOL    HW2 7071   5.504   4.195   5.457
 2058SOL     OW 7072   0.652   1.692   3.178
 2058SOL    HW1 7073   0.713   1.638   3.120
 2058SOL    HW2 7074   0.698   1.714   3.264
 2059SOL     OW 7075   1.895   6.202   6.523
 2059SOL    HW1 7076   1.950   6.185   6.604
 2059SOL    HW2 7077   1.915   6.293   6.487
 2060SOL     OW 7078   0.109   4.384   1.952
 2060SOL    HW1 7079   0.014   4.362   1.930
 2060SOL    HW2 7080   0.169   4.341   1.886
 2061SOL     OW 7081   0.771   2.203   3.206
 2061SOL    HW1 7082   0.810   2.186   3.296
 2061SOL    HW2 7083   0.821   2.149   3.137
 2062SOL     OW 7084   6.225   6.360   3.819
 2062SOL    HW1 7085   6.196   6.442   3.868
 2062SOL    HW2 7086   6.314   6.329   3.854
 2063SOL     OW 7087   1.948   6.715   6.384
 2063SOL    HW1 7088   1.855   6.730   6.419
 2063SOL    HW2 7089   1.950   6.628   6.334
 2064SOL     OW 7090   1.354   2.495   5.393
 2064SOL    HW1 7091   1.397   2.574   5.438
 2064SOL    HW2 7092   1.255   2.510   5.387
 2065SOL     OW 7093   6.364   2.495   5.310
 2065SOL    HW1 7094   6.286   2.549   5.342
 2065SOL    HW2 7095   6.435   2.555   5.275
 2066SOL     OW 7096   0.629   4.468   4.246
 2066SOL    HW1 7097   0.572   4.398   4.201
 2066SOL    HW2 7098   0.605   4.473   4.343
 2067SOL     OW 7099   6.187   5.196   0.878
 2067SOL    HW1 7100   6.178   5.112   0.823
 2067SOL    HW2 7101   6.264   5.187   0.940
 2068SOL     OW 7102   2.490   6.854   4.375
 2068SOL    HW1 7103   2.530   6.821   4.461
 2068SOL    HW2 7104   2.498   6.782   4.306
 2069SOL     OW 7105   6.962   1.847   4.057
 2069SOL    HW1 7106   6.908   1.869   3.976
 2069SOL    HW2 7107   6.969   1.747   4.067
 2070SOL     OW 7108   0.881   1.296   1.656
 2070SOL    HW1 7109   0.911   1.238   1.580
 2070SOL    HW2 7110   0.904   1.391   1.637
 2071SOL     OW 7111   6.579   6.805   6.148
 2071SOL    HW1 7112   6.485   6.801   6.181
 2071SOL    HW2 7113   6.605   6.900   6.132
 2072SOL     OW 7114   4.242   6.454   4.220
 2072SOL    HW1 7115   4.222   6.386   4.149
 2072SOL    HW2 7116   4.208   6.420   4.308
 2073SOL     OW 7117   3.986   0.006   5.189
 2073SOL    HW1 7118   4.007   0.008   5.091
 2073SOL    HW2 7119   3.956   0.097   5.218
 2074SOL     OW 7120   2.039   2.532   6.652
 2074SOL    HW1 7121   2.064   2.594   6.578
 2074SOL    HW2 7122   1.945   2.551   6.680
 2075SOL     OW 7123   6.730   2.782   2.836
 2075SOL    HW1 7124   6.681   2.846   2.896
 2075SOL    HW2 7125   6.694   2.790   2.743
 2076SOL     OW 7126   6.115   0.257   6.466
 2076SOL    HW1 7127   6.031   0.204   6.460
 2076SOL    HW2 7128   6.139   0.271   6.562
 2077SOL     OW 7129   6.037   2.467   3.366
 2077SOL    HW1 7130   6.017   2.546   3.307
 2077SOL    HW2 7131   6.121   2.423   3.335
 2078SOL     OW 7132   1.136   5.837   6.135
 2078SOL    HW1 7133   1.182   5.761   6.089
 2078SOL    HW2 7134   1.066   5.875   6.075
 2079SOL     OW 7135   5.583   2.202   3.305
 2079SOL    HW1 7136   5.539   2.149   3.232
 2079SOL    HW2 7137   5.649   2.146   3.353
 2080SOL     OW 7138   1.551   6.922   4.813
 2080SOL    HW1 7139   1.589   6.829   4.822
 2080SOL    HW2 7140   1.452   6.919   4.830
 2081SOL     OW 7141   1.263   5.231   4.547
 2081SOL    HW1 7142   1.273   5.264   4.640
 2081SOL    HW2 7143   1.291   5.302   4.482
 2082SOL     OW 7144   0.475   0.137   3.159
 2082SOL    HW1 7145   0.475   0.237   3.151
 2082SOL    HW2 7146   0.521   0.098   3.079
 2083SOL     OW 7147   6.852   4.868   5.622
 2083SOL    HW1 7148   6.805   4.820   5.696
 2083SOL    HW2 7149   6.789   4.882   5.546
 2084SOL     OW 7150   0.519   4.447   3.439
 2084SOL    HW1 7151   0.590   4.507   3.476
 2084SOL    HW2 7152   0.434   4.499   3.429
 2085SOL     OW 7153   4.583   0.322   0.068
 2085SOL    HW1 7154   4.679   0.325   0.097
 2085SOL    HW2 7155   4.543   0.413   0.076
 2086SOL     OW 7156   3.977   6.455   6.416
 2086SOL    HW1 7157   4.077   6.455   6.417
 2086SOL    HW2 7158   3.944   6.361   6.430
 2087SOL     OW 7159   4.976   0.815   1.562
 2087SOL    HW1 7160   4.915   0.888   1.531
 2087SOL    HW2 7161   4.956   0.793   1.657
 2088SOL     OW 7162   1.620   6.003   0.423
 2088SOL    HW1 7163   1.525   5.973   0.437
 2088SOL    HW2 7164   1.623   6.068   0.348
 2089SOL     OW 7165   5.219   2.715   6.157
 2089SOL    HW1 7166   5.119   2.717   6.163
 2089SOL    HW2 7167   5.249   2.627   6.120
 2090SOL     OW 7168   4.390   3.560   5.576
 2090SOL    HW1 7169   4.334   3.626   5.627
 2090SOL    HW2 7170   4.365   3.563   5.479
 2091SOL     OW 7171   0.784   5.590   1.159
 2091SOL    HW1 7172   0.704   5.605   1.218
 2091SOL    HW2 7173   0.814   5.495   1.166
 2092SOL     OW 7174   4.789   3.983   0.019
 2092SOL    HW1 7175   4.855   4.009   6.970
 2092SOL    HW2 7176   4.714   3.933   6.997
 2093SOL     OW 7177   2.520   2.356   1.233
 2093SOL    HW1 7178   2.617   2.381   1.242
 2093SOL    HW2 7179   2.507   2.263   1.266
 2094SOL     OW 7180   6.244   1.746   3.187
 2094SOL    HW1 7181   6.329   1.697   3.167
 2094SOL    HW2 7182   6.252   1.841   3.156
 2095SOL     OW 7183   6.005   6.833   5.538
 2095SOL    HW1 7184   6.097   6.803   5.564
 2095SOL    HW2 7185   5.997   6.931   5.552
 2096SOL     OW 7186   4.731   4.142   2.997
 2096SOL    HW1 7187   4.740   4.075   2.924
 2096SOL    HW2 7188   4.787   4.223   2.976
 2097SOL     OW 7189   2.504   3.479   6.492
 2097SOL    HW1 7190   2.526   3.494   6.396
 2097SOL    HW2 7191   2.495   3.381   6.509
 2098SOL     OW 7192   3.718   5.997   1.779
 2098SOL    HW1 7193   3.765   5.973   1.693
 2098SOL    HW2 7194   3.654   5.924   1.804
 2099SOL     OW 7195   3.492   2.762   6.310
 2099SOL    HW1 7196   3.544   2.676   6.308
 2099SOL    HW2 7197   3.435   2.768   6.228
 2100SOL     OW 7198   5.456   2.449   6.778
 2100SOL    HW1 7199   5.360   2.458   6.804
 2100SOL    HW2 7200   5.464   2.385   6.701
 2101SOL     OW 7201   1.068   0.054   1.566
 2101SOL    HW1 7202   1.013   0.005   1.633
 2101SOL    HW2 7203   1.024   0.049   1.477
 2102SOL     OW 7204   5.522   4.916   2.640
 2102SOL    HW1 7205   5.560   4.825   2.620
 2102SOL    HW2 7206   5.489   4.919   2.734
 2103SOL     OW 7207   3.367   3.650   6.722
 2103SOL    HW1 7208   3.439   3.716   6.703
 2103SOL    HW2 7209   3.397   3.558   6.696
 2104SOL     OW 7210   1.596   4.307   1.897
 2104SOL    HW1 7211   1.543   4.295   1.981
 2104SOL    HW2 7212   1.654   4.387   1.906
 2105SOL     OW 7213   5.336   4.694   5.533
 2105SOL    HW1 7214   5.396   4.616   5.516
 2105SOL    HW2 7215   5.332   4.751   5.450
 2106SOL     OW 7216   5.031   3.664   0.734
 2106SOL    HW1 7217   5.025   3.706   0.825
 2106SOL    HW2 7218   5.068   3.730   0.669
 2107SOL     OW 7219   6.282   2.253   5.184
 2107SOL    HW1 7220   6.304   2.341   5.226
 2107SOL    HW2 7221   6.274   2.183   5.254
 2108SOL     OW 7222   6.206   5.870   4.384
 2108SOL    HW1 7223   6.305   5.876   4.395
 2108SOL    HW2 7224   6.178   5.774   4.386
 2109SOL     OW 7225   4.659   5.691   2.106
 2109SOL    HW1 7226   4.671   5.788   2.087
 2109SOL    HW2 7227   4.691   5.637   2.028
 2110SOL     OW 7228   2.572   1.222   0.283
 2110SOL    HW1 7229   2.553   1.171   0.199
 2110SOL    HW2 7230   2.665   1.259   0.279
 2111SOL     OW 7231   2.221   2.846   6.690
 2111SOL    HW1 7232   2.229   2.833   6.789
 2111SOL    HW2 7233   2.258   2.935   6.665
 2112SOL     OW 7234   5.241   2.831   0.738
 2112SOL    HW1 7235   5.250   2.807   0.835
 2112SOL    HW2 7236   5.174   2.904   0.728
 2113SOL     OW 7237   2.601   1.728   4.541
 2113SOL    HW1 7238   2.650   1.807   4.504
 2113SOL    HW2 7239   2.502   1.745   4.537
 2114SOL     OW 7240   2.205   2.032   6.197
 2114SOL    HW1 7241   2.131   2.012   6.261
 2114SOL    HW2 7242   2.290   2.046   6.249
 2115SOL     OW 7243   0.974   4.725   3.266
 2115SOL    HW1 7244   1.004   4.748   3.173
 2115SOL    HW2 7245   0.977   4.807   3.323
 2116SOL     OW 7246   0.333   4.571   3.022
 2116SOL    HW1 7247   0.403   4.507   3.053
 2116SOL    HW2 7248   0.310   4.551   2.927
 2117SOL     OW 7249   6.719   4.705   1.689
 2117SOL    HW1 7250   6.723   4.785   1.749
 2117SOL    HW2 7251   6.811   4.668   1.677
 2118SOL     OW 7252   6.247   2.611   2.922
 2118SOL    HW1 7253   6.279   2.526   2.964
 2118SOL    HW2 7254   6.151   2.627   2.947
 2119SOL     OW 7255   1.626   0.258   0.721
 2119SOL    HW1 7256   1.692   0.328   0.692
 2119SOL    HW2 7257   1.560   0.299   0.783
 2120SOL     OW 7258   0.620   4.537   3.955
 2120SOL    HW1 7259   0.696   4.580   3.904
 2120SOL    HW2 7260   0.657   4.466   4.015
 2121SOL     OW 7261   1.550   3.327   5.859
 2121SOL    HW1 7262   1.535   3.387   5.937
 2121SOL    HW2 7263   1.647   3.328   5.834
 2122SOL     OW 7264   5.588   4.826   5.822
 2122SOL    HW1 7265   5.562   4.866   5.734
 2122SOL    HW2 7266   5.511   4.774   5.859
 2123SOL     OW 7267   6.681   5.176   2.226
 2123SOL    HW1 7268   6.615   5.105   2.249
 2123SOL    HW2 7269   6.764   5.133   2.188
 2124SOL     OW 7270   2.928   2.407   1.009
 2124SOL    HW1 7271   2.853   2.472   0.997
 2124SOL    HW2 7272   3.015   2.455   1.001
 2125SOL     OW 7273   2.123   0.460   2.474
 2125SOL    HW1 7274   2.036   0.413   2.454
 2125SOL    HW2 7275   2.199   0.405   2.440
 2126SOL     OW 7276   4.116   2.434   6.529
 2126SOL    HW1 7277   4.034   2.387   6.496
 2126SOL    HW2 7278   4.195   2.372   6.520
 2127SOL     OW 7279   1.377   2.113   5.184
 2127SOL    HW1 7280   1.440   2.169   5.237
 2127SOL    HW2 7281   1.299   2.169   5.154
 2128SOL     OW 7282   6.367   3.100   4.049
 2128SOL    HW1 7283   6.387   3.044   3.969
 2128SOL    HW2 7284   6.448   3.106   4.108
 2129SOL     OW 7285   4.756   3.211   5.215
 2129SOL    HW1 7286   4.718   3.277   5.279
 2129SOL    HW2 7287   4.698   3.129   5.213
 2130SOL     OW 7288   3.394   0.536   3.018
 2130SOL    HW1 7289   3.469   0.484   3.060
 2130SOL    HW2 7290   3.374   0.498   2.928
 2131SOL     OW 7291   4.832   1.444   0.121
 2131SOL    HW1 7292   4.735   1.460   0.141
 2131SOL    HW2 7293   4.842   1.413   0.027
 2132SOL     OW 7294   4.041   0.819   0.914
 2132SOL    HW1 7295   4.061   0.879   0.837
 2132SOL    HW2 7296   3.961   0.852   0.964
 2133SOL     OW 7297   3.139   3.328   1.072
 2133SOL    HW1 7298   3.150   3.229   1.080
 2133SOL    HW2 7299   3.062   3.348   1.012
 2134SOL     OW 7300   1.140   0.616   5.492
 2134SOL    HW1 7301   1.094   0.660   5.569
 2134SOL    HW2 7302   1.212   0.556   5.525
 2135SOL     OW 7303   1.771   3.109   5.210
 2135SOL    HW1 7304   1.860   3.102   5.165
 2135SOL    HW2 7305   1.707   3.043   5.168
 2136SOL     OW 7306   0.323   4.417   4.683
 2136SOL    HW1 7307   0.313   4.341   4.618
 2136SOL    HW2 7308   0.253   4.409   4.753
 2137SOL     OW 7309   0.529   5.897   4.091
 2137SOL    HW1 7310   0.431   5.877   4.102
 2137SOL    HW2 7311   0.567   5.924   4.179
 2138SOL     OW 7312   6.842   0.655   2.152
 2138SOL    HW1 7313   6.894   0.740   2.138
 2138SOL    HW2 7314   6.839   0.603   2.066
 2139SOL     OW 7315   3.027   0.842   2.448
 2139SOL    HW1 7316   3.047   0.936   2.476
 2139SOL    HW2 7317   3.019   0.838   2.349
 2140SOL     OW 7318   3.752   6.105   4.047
 2140SOL    HW1 7319   3.758   6.129   4.144
 2140SOL    HW2 7320   3.764   6.007   4.035
 2141SOL     OW 7321   6.091   4.567   1.771
 2141SOL    HW1 7322   6.137   4.568   1.860
 2141SOL    HW2 7323   6.136   4.502   1.710
 2142SOL     OW 7324   1.389   2.084   3.061
 2142SOL    HW1 7325   1.332   2.164   3.039
 2142SOL    HW2 7326   1.430   2.096   3.151
 2143SOL     OW 7327   3.105   4.446   1.344
 2143SOL    HW1 7328   3.100   4.354   1.307
 2143SOL    HW2 7329   3.091   4.512   1.271
 2144SOL     OW 7330   1.212   5.716   4.012
 2144SOL    HW1 7331   1.196   5.629   3.967
 2144SOL    HW2 7332   1.209   5.790   3.945
 2145SOL     OW 7333   4.097   5.862   4.072
 2145SOL    HW1 7334   4.096   5.928   4.147
 2145SOL    HW2 7335   4.085   5.910   3.985
 2146SOL     OW 7336   2.748   3.905   1.187
 2146SOL    HW1 7337   2.739   3.934   1.091
 2146SOL    HW2 7338   2.826   3.843   1.195
 2147SOL     OW 7339   6.848   1.438   6.426
 2147SOL    HW1 7340   6.811   1.514   6.478
 2147SOL    HW2 7341   6.778   1.403   6.363
 2148SOL     OW 7342   5.214   2.412   4.767
 2148SOL    HW1 7343   5.217   2.347   4.843
 2148SOL    HW2 7344   5.292   2.396   4.707
 2149SOL     OW 7345   3.386   2.136   1.485
 2149SOL    HW1 7346   3.425   2.224   1.457
 2149SOL    HW2 7347   3.315   2.152   1.553
 2150SOL     OW 7348   2.977   1.831   2.357
 2150SOL    HW1 7349   3.058   1.882   2.326
 2150SOL    HW2 7350   2.957   1.855   2.452
 2151SOL     OW 7351   1.923   0.915   4.511
 2151SOL    HW1 7352   1.951   1.010   4.498
 2151SOL    HW2 7353   1.993   0.867   4.564
 2152SOL     OW 7354   3.992   6.282   1.563
 2152SOL    HW1 7355   3.961   6.273   1.658
 2152SOL    HW2 7356   4.023   6.376   1.547
 2153SOL     OW 7357   3.240   0.892   3.392
 2153SOL    HW1 7358   3.315   0.928   3.337
 2153SOL    HW2 7359   3.184   0.830   3.337
 2154SOL     OW 7360   4.607   0.349   5.173
 2154SOL    HW1 7361   4.579   0.302   5.257
 2154SOL    HW2 7362   4.703   0.376   5.181
 2155SOL     OW 7363   1.827   6.295   0.316
 2155SOL    HW1 7364   1.744   6.263   0.270
 2155SOL    HW2 7365   1.853   6.385   0.280
 2156SOL     OW 7366   2.417   0.546   4.006
 2156SOL    HW1 7367   2.351   0.561   4.079
 2156SOL    HW2 7368   2.410   0.620   3.939
 2157SOL     OW 7369   6.125   1.059   3.286
 2157SOL    HW1 7370   6.212   1.023   3.253
 2157SOL    HW2 7371   6.139   1.148   3.329
 2158SOL     OW 7372   3.809   6.279   0.815
 2158SOL    HW1 7373   3.780   6.317   0.903
 2158SOL    HW2 7374   3.906   6.298   0.800
 2159SOL     OW 7375   2.080   6.060   5.400
 2159SOL    HW1 7376   2.009   6.129   5.407
 2159SOL    HW2 7377   2.056   5.981   5.457
 2160SOL     OW 7378   4.681   3.960   0.630
 2160SOL    HW1 7379   4.633   4.046   0.643
 2160SOL    HW2 7380   4.698   3.946   0.532
 2161SOL     OW 7381   5.177   4.282   3.217
 2161SOL    HW1 7382   5.084   4.318   3.226
 2161SOL    HW2 7383   5.181   4.220   3.139
 2162SOL     OW 7384   2.839   0.633   0.857
 2162SOL    HW1 7385   2.769   0.696   0.824
 2162SOL    HW2 7386   2.798   0.543   0.874
 2163SOL     OW 7387   0.318   4.247   6.688
 2163SOL    HW1 7388   0.252   4.196   6.744
 2163SOL    HW2 7389   0.325   4.341   6.722
 2164SOL     OW 7390   1.896   2.865   0.419
 2164SOL    HW1 7391   1.814   2.848   0.472
 2164SOL    HW2 7392   1.886   2.825   0.328
 2165SOL     OW 7393   0.297   1.803   2.877
 2165SOL    HW1 7394   0.266   1.881   2.822
 2165SOL    HW2 7395   0.340   1.836   2.961
 2166SOL     OW 7396   1.559   2.312   5.319
 2166SOL    HW1 7397   1.648   2.336   5.359
 2166SOL    HW2 7398   1.488   2.368   5.362
 2167SOL     OW 7399   1.541   1.232   3.960
 2167SOL    HW1 7400   1.574   1.159   3.900
 2167SOL    HW2 7401   1.596   1.314   3.945
 2168SOL     OW 7402   0.764   1.739   3.408
 2168SOL    HW1 7403   0.714   1.814   3.452
 2168SOL    HW2 7404   0.808   1.682   3.477
 2169SOL     OW 7405   5.653   1.979   5.663
 2169SOL    HW1 7406   5.678   1.940   5.752
 2169SOL    HW2 7407   5.651   2.079   5.670
 2170SOL     OW 7408   6.232   5.791   5.195
 2170SOL    HW1 7409   6.239   5.698   5.159
 2170SOL    HW2 7410   6.154   5.797   5.257
 2171SOL     OW 7411   6.974   3.758   1.576
 2171SOL    HW1 7412   6.887   3.797   1.606
 2171SOL    HW2 7413   0.005   3.725   1.656
 2172SOL     OW 7414   2.645   2.390   0.314
 2172SOL    HW1 7415   2.573   2.382   0.245
 2172SOL    HW2 7416   2.611   2.359   0.402
 2173SOL     OW 7417   4.023   0.050   4.914
 2173SOL    HW1 7418   3.924   0.061   4.909
 2173SOL    HW2 7419   4.062   0.054   4.822
 2174SOL     OW 7420   5.447   5.003   5.015
 2174SOL    HW1 7421   5.520   4.987   5.081
 2174SOL    HW2 7422   5.487   5.020   4.925
 2175SOL     OW 7423   2.428   2.169   4.489
 2175SOL    HW1 7424   2.462   2.246   4.543
 2175SOL    HW2 7425   2.429   2.086   4.545
 2176SOL     OW 7426   0.829   2.964   7.002
 2176SOL    HW1 7427   0.871   2.908   6.930
 2176SOL    HW2 7428   0.901   3.015   0.029
 2177SOL     OW 7429   6.349   1.127   3.780
 2177SOL    HW1 7430   6.258   1.088   3.764
 2177SOL    HW2 7431   6.395   1.141   3.692
 2178SOL     OW 7432   1.018   3.766   0.249
 2178SOL    HW1 7433   1.073   3.843   0.214
 2178SOL    HW2 7434   0.922   3.793   0.253
 2179SOL     OW 7435   1.639   5.409   4.596
 2179SOL    HW1 7436   1.614   5.450   4.509
 2179SOL    HW2 7437   1.589   5.324   4.609
 2180SOL     OW 7438   2.301   2.795   1.972
 2180SOL    HW1 7439   2.381   2.804   1.913
 2180SOL    HW2 7440   2.239   2.872   1.957
 2181SOL     OW 7441   4.549   4.913   5.414
 2181SOL    HW1 7442   4.567   5.010   5.395
 2181SOL    HW2 7443   4.562   4.860   5.331
 2182SOL     OW 7444   0.504   3.561   4.917
 2182SOL    HW1 7445   0.513   3.617   4.999
 2182SOL    HW2 7446   0.579   3.495   4.914
 2183SOL     OW 7447   2.975   4.251   5.516
 2183SOL    HW1 7448   2.986   4.235   5.418
 2183SOL    HW2 7449   2.904   4.320   5.531
 2184SOL     OW 7450   4.996   1.723   6.616
 2184SOL    HW1 7451   4.972   1.801   6.558
 2184SOL    HW2 7452   4.915   1.665   6.629
 2185SOL     OW 7453   1.509   1.834   0.921
 2185SOL    HW1 7454   1.574   1.759   0.908
 2185SOL    HW2 7455   1.431   1.821   0.860
 2186SOL     OW 7456   6.973   5.129   2.389
 2186SOL    HW1 7457   6.987   5.217   2.344
 2186SOL    HW2 7458   0.030   5.069   2.370
 2187SOL     OW 7459   6.796   1.468   1.853
 2187SOL    HW1 7460   6.730   1.520   1.799
 2187SOL    HW2 7461   6.769   1.471   1.950
 2188SOL     OW 7462   5.761   6.268   4.222
 2188SOL    HW1 7463   5.670   6.262   4.264
 2188SOL    HW2 7464   5.768   6.352   4.169
 2189SOL     OW 7465   1.761   6.934   0.134
 2189SOL    HW1 7466   1.774   6.961   0.229
 2189SOL    HW2 7467   1.816   6.993   0.074
 2190SOL     OW 7468   0.392   2.389   2.074
 2190SOL    HW1 7469   0.439   2.446   2.141
 2190SOL    HW2 7470   0.310   2.435   2.043
 2191SOL     OW 7471   3.259   1.850   6.559
 2191SOL    HW1 7472   3.327   1.777   6.551
 2191SOL    HW2 7473   3.283   1.910   6.636
 2192SOL     OW 7474   3.828   0.647   3.169
 2192SOL    HW1 7475   3.864   0.573   3.112
 2192SOL    HW2 7476   3.762   0.610   3.234
 2193SOL     OW 7477   6.500   5.755   6.086
 2193SOL    HW1 7478   6.525   5.781   5.992
 2193SOL    HW2 7479   6.544   5.669   6.110
 2194SOL     OW 7480   2.227   5.078   6.468
 2194SOL    HW1 7481   2.193   4.986   6.446
 2194SOL    HW2 7482   2.295   5.105   6.401
 2195SOL     OW 7483   0.084   0.387   3.766
 2195SOL    HW1 7484   0.065   0.352   3.674
 2195SOL    HW2 7485   0.076   0.487   3.765
 2196SOL     OW 7486   3.238   0.192   5.029
 2196SOL    HW1 7487   3.213   0.166   4.936
 2196SOL    HW2 7488   3.290   0.118   5.072
 2197SOL     OW 7489   3.405   3.352   1.067
 2197SOL    HW1 7490   3.445   3.268   1.104
 2197SOL    HW2 7491   3.306   3.342   1.062
 2198SOL     OW 7492   6.671   0.986   0.111
 2198SOL    HW1 7493   6.744   0.940   0.061
 2198SOL    HW2 7494   6.673   1.084   0.091
 2199SOL     OW 7495   4.893   1.154   3.320
 2199SOL    HW1 7496   4.815   1.093   3.310
 2199SOL    HW2 7497   4.974   1.110   3.281
 2200SOL     OW 7498   3.134   0.029   4.546
 2200SOL    HW1 7499   3.178   6.992   4.477
 2200SOL    HW2 7500   3.094   0.110   4.502
 2201SOL     OW 7501   6.437   2.260   3.129
 2201SOL    HW1 7502   6.506   2.330   3.109
 2201SOL    HW2 7503   6.351   2.285   3.084
 2202SOL     OW 7504   2.767   4.844   2.659
 2202SOL    HW1 7505   2.732   4.913   2.595
 2202SOL    HW2 7506   2.780   4.885   2.749
 2203SOL     OW 7507   2.125   2.906   1.469
 2203SOL    HW1 7508   2.191   2.849   1.421
 2203SOL    HW2 7509   2.036   2.860   1.473
 2204SOL     OW 7510   3.957   1.547   6.871
 2204SOL    HW1 7511   3.982   1.476   6.936
 2204SOL    HW2 7512   4.036   1.569   6.813
 2205SOL     OW 7513   1.624   6.778   5.992
 2205SOL    HW1 7514   1.603   6.870   6.026
 2205SOL    HW2 7515   1.717   6.753   6.019
 2206SOL     OW 7516   2.216   4.348   6.053
 2206SOL    HW1 7517   2.133   4.299   6.027
 2206SOL    HW2 7518   2.206   4.445   6.029
 2207SOL     OW 7519   2.701   3.826   7.010
 2207SOL    HW1 7520   2.624   3.870   6.964
 2207SOL    HW2 7521   2.733   3.748   6.956
 2208SOL     OW 7522   1.512   6.143   2.682
 2208SOL    HW1 7523   1.516   6.044   2.678
 2208SOL    HW2 7524   1.508   6.173   2.778
 2209SOL     OW 7525   1.169   5.760   5.753
 2209SOL    HW1 7526   1.168   5.853   5.791
 2209SOL    HW2 7527   1.218   5.699   5.815
 2210SOL     OW 7528   0.198   5.012   4.376
 2210SOL    HW1 7529   0.257   5.080   4.332
 2210SOL    HW2 7530   0.106   5.049   4.386
 2211SOL     OW 7531   5.683   0.416   0.116
 2211SOL    HW1 7532   5.678   0.466   0.202
 2211SOL    HW2 7533   5.599   0.432   0.064
 2212SOL     OW 7534   2.472   6.506   6.989
 2212SOL    HW1 7535   2.555   6.533   6.940
 2212SOL    HW2 7536   2.394   6.557   6.952
 2213SOL     OW 7537   3.785   2.969   5.346
 2213SOL    HW1 7538   3.826   2.881   5.323
 2213SOL    HW2 7539   3.713   2.990   5.280
 2214SOL     OW 7540   4.212   2.597   5.770
 2214SOL    HW1 7541   4.196   2.667   5.701
 2214SOL    HW2 7542   4.282   2.629   5.834
 2215SOL     OW 7543   6.460   1.955   6.813
 2215SOL    HW1 7544   6.546   1.923   6.775
 2215SOL    HW2 7545   6.429   1.891   6.884
 2216SOL     OW 7546   1.548   0.012   6.045
 2216SOL    HW1 7547   1.616   0.051   6.108
 2216SOL    HW2 7548   1.463   0.064   6.051
 2217SOL     OW 7549   4.048   6.870   1.243
 2217SOL    HW1 7550   4.059   6.770   1.238
 2217SOL    HW2 7551   4.135   6.911   1.272
 2218SOL     OW 7552   0.217   6.670   0.613
 2218SOL    HW1 7553   0.150   6.640   0.680
 2218SOL    HW2 7554   0.301   6.696   0.659
 2219SOL     OW 7555   6.708   2.821   1.838
 2219SOL    HW1 7556   6.765   2.772   1.904
 2219SOL    HW2 7557   6.650   2.755   1.789
 2220SOL     OW 7558   0.757   0.796   3.958
 2220SOL    HW1 7559   0.674   0.829   4.003
 2220SOL    HW2 7560   0.813   0.746   4.024
 2221SOL     OW 7561   6.273   0.779   5.777
 2221SOL    HW1 7562   6.266   0.699   5.718
 2221SOL    HW2 7563   6.308   0.857   5.724
 2222SOL     OW 7564   4.106   0.229   0.650
 2222SOL    HW1 7565   4.193   0.239   0.602
 2222SOL    HW2 7566   4.107   0.285   0.732
 2223SOL     OW 7567   6.047   0.528   3.685
 2223SOL    HW1 7568   6.115   0.467   3.726
 2223SOL    HW2 7569   5.991   0.568   3.757
 2224SOL     OW 7570   1.724   4.356   1.359
 2224SOL    HW1 7571   1.784   4.298   1.415
 2224SOL    HW2 7572   1.744   4.452   1.377
 2225SOL     OW 7573   6.417   6.023   2.803
 2225SOL    HW1 7574   6.449   5.940   2.850
 2225SOL    HW2 7575   6.369   5.998   2.719
 2226SOL     OW 7576   3.817   5.487   0.773
 2226SOL    HW1 7577   3.732   5.451   0.814
 2226SOL    HW2 7578   3.803   5.499   0.675
 2227SOL     OW 7579   5.550   3.905   0.417
 2227SOL    HW1 7580   5.520   3.810   0.432
 2227SOL    HW2 7581   5.626   3.905   0.351
 2228SOL     OW 7582   2.707   5.270   1.392
 2228SOL    HW1 7583   2.710   5.182   1.345
 2228SOL    HW2 7584   2.686   5.256   1.489
 2229SOL     OW 7585   3.895   1.758   4.584
 2229SOL    HW1 7586   3.876   1.832   4.520
 2229SOL    HW2 7587   3.852   1.779   4.672
 2230SOL     OW 7588   5.927   5.662   5.242
 2230SOL    HW1 7589   5.912   5.667   5.341
 2230SOL    HW2 7590   5.881   5.580   5.206
 2231SOL     OW 7591   0.461   0.724   1.647
 2231SOL    HW1 7592   0.537   0.789   1.643
 2231SOL    HW2 7593   0.430   0.715   1.741
 2232SOL     OW 7594   1.004   2.793   4.540
 2232SOL    HW1 7595   1.052   2.781   4.627
 2232SOL    HW2 7596   1.071   2.804   4.467
 2233SOL     OW 7597   2.372   4.636   1.376
 2233SOL    HW1 7598   2.334   4.658   1.466
 2233SOL    HW2 7599   2.300   4.596   1.320
 2234SOL     OW 7600   4.315   2.175   1.908
 2234SOL    HW1 7601   4.245   2.173   1.980
 2234SOL    HW2 7602   4.290   2.111   1.835
 2235SOL     OW 7603   1.956   0.641   1.212
 2235SOL    HW1 7604   1.925   0.665   1.120
 2235SOL    HW2 7605   1.929   0.547   1.233
 2236SOL     OW 7606   0.824   4.304   6.710
 2236SOL    HW1 7607   0.916   4.294   6.672
 2236SOL    HW2 7608   0.829   4.301   6.810
 2237SOL     OW 7609   5.604   4.779   3.817
 2237SOL    HW1 7610   5.602   4.770   3.718
 2237SOL    HW2 7611   5.618   4.876   3.841
 2238SOL     OW 7612   5.458   4.876   1.807
 2238SOL    HW1 7613   5.523   4.952   1.808
 2238SOL    HW2 7614   5.487   4.807   1.873
 2239SOL     OW 7615   3.164   5.278   3.526
 2239SOL    HW1 7616   3.129   5.232   3.444
 2239SOL    HW2 7617   3.152   5.218   3.605
 2240SOL     OW 7618   5.110   6.036   3.967
 2240SOL    HW1 7619   5.014   6.010   3.953
 2240SOL    HW2 7620   5.167   5.991   3.899
 2241SOL     OW 7621   0.590   7.017   2.302
 2241SOL    HW1 7622   0.552   0.023   2.214
 2241SOL    HW2 7623   0.566   0.066   2.370
 2242SOL     OW 7624   4.944   2.409   3.045
 2242SOL    HW1 7625   5.033   2.455   3.037
 2242SOL    HW2 7626   4.901   2.404   2.955
 2243SOL     OW 7627   2.700   6.413   5.368
 2243SOL    HW1 7628   2.648   6.448   5.446
 2243SOL    HW2 7629   2.798   6.427   5.385
 2244SOL     OW 7630   2.672   6.992   2.274
 2244SOL    HW1 7631   2.695   6.901   2.240
 2244SOL    HW2 7632   2.577   7.012   2.252
 2245SOL     OW 7633   0.257   1.610   2.412
 2245SOL    HW1 7634   0.228   1.551   2.487
 2245SOL    HW2 7635   0.357   1.609   2.405
 2246SOL     OW 7636   1.048   1.298   5.883
 2246SOL    HW1 7637   0.948   1.295   5.873
 2246SOL    HW2 7638   1.089   1.329   5.797
 2247SOL     OW 7639   2.687   2.986   5.977
 2247SOL    HW1 7640   2.703   3.016   5.883
 2247SOL    HW2 7641   2.612   3.040   6.017
 2248SOL     OW 7642   3.685   3.817   6.322
 2248SOL    HW1 7643   3.624   3.808   6.243
 2248SOL    HW2 7644   3.767   3.761   6.306
 2249SOL     OW 7645   5.915   6.559   2.390
 2249SOL    HW1 7646   5.937   6.508   2.306
 2249SOL    HW2 7647   5.908   6.495   2.466
 2250SOL     OW 7648   4.465   3.889   0.294
 2250SOL    HW1 7649   4.454   3.866   0.197
 2250SOL    HW2 7650   4.561   3.877   0.320
 2251SOL     OW 7651   4.907   0.692   0.481
 2251SOL    HW1 7652   4.864   0.781   0.470
 2251SOL    HW2 7653   4.836   0.621   0.477
 2252SOL     OW 7654   5.468   2.084   3.085
 2252SOL    HW1 7655   5.536   2.124   3.023
 2252SOL    HW2 7656   5.378   2.090   3.042
 2253SOL     OW 7657   1.242   3.866   6.377
 2253SOL    HW1 7658   1.302   3.806   6.324
 2253SOL    HW2 7659   1.295   3.912   6.448
 2254SOL     OW 7660   2.578   3.313   5.553
 2254SOL    HW1 7661   2.517   3.386   5.520
 2254SOL    HW2 7662   2.528   3.226   5.554
 2255SOL     OW 7663   4.715   2.815   6.892
 2255SOL    HW1 7664   4.707   2.717   6.873
 2255SOL    HW2 7665   4.729   2.829   6.990
 2256SOL     OW 7666   4.958   6.097   1.724
 2256SOL    HW1 7667   4.948   6.099   1.824
 2256SOL    HW2 7668   4.962   6.002   1.693
 2257SOL     OW 7669   0.178   2.046   4.094
 2257SOL    HW1 7670   0.156   1.963   4.145
 2257SOL    HW2 7671   0.124   2.048   4.010
 2258SOL     OW 7672   1.316   5.657   5.994
 2258SOL    HW1 7673   1.416   5.659   5.986
 2258SOL    HW2 7674   1.286   5.564   6.013
 2259SOL     OW 7675   4.569   4.290   6.774
 2259SOL    HW1 7676   4.580   4.214   6.711
 2259SOL    HW2 7677   4.658   4.322   6.805
 2260SOL     OW 7678   5.855   4.300   3.058
 2260SOL    HW1 7679   5.828   4.241   3.134
 2260SOL    HW2 7680   5.787   4.293   2.985
 2261SOL     OW 7681   6.894   6.552   0.639
 2261SOL    HW1 7682   6.935   6.482   0.696
 2261SOL    HW2 7683   6.891   6.521   0.544
 2262SOL     OW 7684   5.000   2.146   2.039
 2262SOL    HW1 7685   5.087   2.134   2.085
 2262SOL    HW2 7686   4.966   2.239   2.057
 2263SOL     OW 7687   2.620   6.011   6.311
 2263SOL    HW1 7688   2.716   6.014   6.337
 2263SOL    HW2 7689   2.566   5.971   6.385
 2264SOL     OW 7690   3.353   2.924   0.960
 2264SOL    HW1 7691   3.292   2.994   0.922
 2264SOL    HW2 7692   3.445   2.937   0.922
 2265SOL     OW 7693   0.677   0.670   3.641
 2265SOL    HW1 7694   0.600   0.721   3.602
 2265SOL    HW2 7695   0.735   0.733   3.692
 2266SOL     OW 7696   6.340   1.889   1.345
 2266SOL    HW1 7697   6.351   1.989   1.349
 2266SOL    HW2 7698   6.357   1.858   1.251
 2267SOL     OW 7699   5.089   2.650   4.845
 2267SOL    HW1 7700   4.999   2.630   4.883
 2267SOL    HW2 7701   5.124   2.568   4.799
 2268SOL     OW 7702   6.607   3.975   6.182
 2268SOL    HW1 7703   6.704   3.976   6.206
 2268SOL    HW2 7704   6.578   4.068   6.158
 2269SOL     OW 7705   5.713   6.311   5.140
 2269SOL    HW1 7706   5.616   6.310   5.118
 2269SOL    HW2 7707   5.753   6.397   5.108
 2270SOL     OW 7708   3.595   2.513   6.259
 2270SOL    HW1 7709   3.583   2.490   6.356
 2270SOL    HW2 7710   3.512   2.488   6.209
 2271SOL     OW 7711   6.209   4.203   0.583
 2271SOL    HW1 7712   6.120   4.249   0.581
 2271SOL    HW2 7713   6.217   4.144   0.503
 2272SOL     OW 7714   5.890   1.587   4.887
 2272SOL    HW1 7715   5.929   1.594   4.979
 2272SOL    HW2 7716   5.961   1.608   4.820
 2273SOL     OW 7717   1.642   0.673   2.048
 2273SOL    HW1 7718   1.730   0.662   2.002
 2273SOL    HW2 7719   1.568   0.650   1.985
 2274SOL     OW 7720   1.979   2.322   5.946
 2274SOL    HW1 7721   2.024   2.397   5.897
 2274SOL    HW2 7722   2.037   2.294   6.022
 2275SOL     OW 7723   5.799   0.774   4.493
 2275SOL    HW1 7724   5.749   0.800   4.575
 2275SOL    HW2 7725   5.749   0.703   4.444
 2276SOL     OW 7726   2.923   4.634   1.190
 2276SOL    HW1 7727   2.862   4.596   1.121
 2276SOL    HW2 7728   2.960   4.721   1.158
 2277SOL     OW 7729   3.752   3.418   5.456
 2277SOL    HW1 7730   3.668   3.381   5.417
 2277SOL    HW2 7731   3.763   3.513   5.427
 2278SOL     OW 7732   6.614   5.323   3.809
 2278SOL    HW1 7733   6.692   5.264   3.830
 2278SOL    HW2 7734   6.617   5.349   3.713
 2279SOL     OW 7735   4.708   5.907   4.806
 2279SOL    HW1 7736   4.678   5.963   4.884
 2279SOL    HW2 7737   4.801   5.934   4.781
 2280SOL     OW 7738   7.003   6.094   4.854
 2280SOL    HW1 7739   0.038   6.137   4.926
 2280SOL    HW2 7740   6.920   6.148   4.840
 2281SOL     OW 7741   3.748   1.165   1.619
 2281SOL    HW1 7742   3.714   1.167   1.525
 2281SOL    HW2 7743   3.710   1.086   1.667
 2282SOL     OW 7744   4.739   6.961   5.167
 2282SOL    HW1 7745   4.779   0.005   5.102
 2282SOL    HW2 7746   4.709   6.879   5.117
 2283SOL     OW 7747   6.334   4.762   1.824
 2283SOL    HW1 7748   6.385   4.813   1.755
 2283SOL    HW2 7749   6.364   4.789   1.915
 2284SOL     OW 7750   2.418   1.787   0.063
 2284SOL    HW1 7751   2.352   1.712   0.074
 2284SOL    HW2 7752   2.477   1.768   7.005
 2285SOL     OW 7753   1.646   1.985   0.609
 2285SOL    HW1 7754   1.630   1.916   0.680
 2285SOL    HW2 7755   1.564   2.040   0.597
 2286SOL     OW 7756   0.394   7.009   4.676
 2286SOL    HW1 7757   0.382   0.055   4.602
 2286SOL    HW2 7758   0.379   6.917   4.642
 2287SOL     OW 7759   1.892   1.710   2.188
 2287SOL    HW1 7760   1.888   1.742   2.093
 2287SOL    HW2 7761   1.850   1.620   2.195
 2288SOL     OW 7762   6.528   5.052   4.485
 2288SOL    HW1 7763   6.537   5.033   4.387
 2288SOL    HW2 7764   6.538   5.151   4.501
 2289SOL     OW 7765   6.427   4.611   2.876
 2289SOL    HW1 7766   6.447   4.580   2.969
 2289SOL    HW2 7767   6.469   4.549   2.811
 2290SOL     OW 7768   1.241   3.594   1.981
 2290SOL    HW1 7769   1.290   3.654   2.044
 2290SOL    HW2 7770   1.301   3.519   1.953
 2291SOL     OW 7771   2.171   2.362   6.842
 2291SOL    HW1 7772   2.139   2.438   6.785
 2291SOL    HW2 7773   2.195   2.285   6.783
 2292SOL     OW 7774   5.826   2.423   3.548
 2292SOL    HW1 7775   5.825   2.474   3.634
 2292SOL    HW2 7776   5.913   2.438   3.502
 2293SOL     OW 7777   6.341   6.557   1.149
 2293SOL    HW1 7778   6.308   6.595   1.063
 2293SOL    HW2 7779   6.371   6.631   1.209
 2294SOL     OW 7780   3.645   1.023   6.286
 2294SOL    HW1 7781   3.591   0.942   6.261
 2294SOL    HW2 7782   3.594   1.077   6.354
 2295SOL     OW 7783   0.743   1.589   2.615
 2295SOL    HW1 7784   0.664   1.619   2.669
 2295SOL    HW2 7785   0.814   1.554   2.676
 2296SOL     OW 7786   3.504   5.913   2.492
 2296SOL    HW1 7787   3.508   5.856   2.410
 2296SOL    HW2 7788   3.497   6.009   2.465
 2297SOL     OW 7789   5.060   4.288   5.626
 2297SOL    HW1 7790   5.056   4.373   5.573
 2297SOL    HW2 7791   4.980   4.232   5.605
 2298SOL     OW 7792   4.006   3.687   2.353
 2298SOL    HW1 7793   4.009   3.787   2.349
 2298SOL    HW2 7794   4.035   3.657   2.443
 2299SOL     OW 7795   4.634   4.418   5.179
 2299SOL    HW1 7796   4.722   4.442   5.219
 2299SOL    HW2 7797   4.645   4.401   5.081
 2300SOL     OW 7798   2.085   5.992   2.993
 2300SOL    HW1 7799   2.064   6.025   3.085
 2300SOL    HW2 7800   2.013   6.021   2.930
 2301SOL     OW 7801   3.229   2.948   3.362
 2301SOL    HW1 7802   3.170   2.867   3.357
 2301SOL    HW2 7803   3.201   3.013   3.291
 2302SOL     OW 7804   4.000   0.303   1.052
 2302SOL    HW1 7805   4.065   0.325   1.125
 2302SOL    HW2 7806   3.933   0.377   1.044
 2303SOL     OW 7807   2.563   3.599   0.082
 2303SOL    HW1 7808   2.474   3.591   0.126
 2303SOL    HW2 7809   2.601   3.690   0.100
 2304SOL     OW 7810   5.254   6.814   4.184
 2304SOL    HW1 7811   5.279   6.745   4.253
 2304SOL    HW2 7812   5.327   6.882   4.178
 2305SOL     OW 7813   1.810   0.550   2.954
 2305SOL    HW1 7814   1.805   0.488   3.032
 2305SOL    HW2 7815   1.838   0.641   2.984
 2306SOL     OW 7816   2.389   5.495   2.330
 2306SOL    HW1 7817   2.393   5.463   2.425
 2306SOL    HW2 7818   2.294   5.514   2.306
 2307SOL     OW 7819   0.072   2.870   4.591
 2307SOL    HW1 7820   0.056   2.827   4.502
 2307SOL    HW2 7821   0.167   2.900   4.598
 2308SOL     OW 7822   2.279   4.750   1.623
 2308SOL    HW1 7823   2.235   4.838   1.638
 2308SOL    HW2 7824   2.302   4.708   1.710
 2309SOL     OW 7825   1.847   0.425   5.365
 2309SOL    HW1 7826   1.775   0.462   5.306
 2309SOL    HW2 7827   1.909   0.369   5.311
 2310SOL     OW 7828   5.557   5.657   1.331
 2310SOL    HW1 7829   5.619   5.617   1.398
 2310SOL    HW2 7830   5.566   5.757   1.333
 2311SOL     OW 7831   2.266   6.901   1.034
 2311SOL    HW1 7832   2.229   6.853   1.113
 2311SOL    HW2 7833   2.350   6.950   1.060
 2312SOL     OW 7834   4.986   5.916   3.279
 2312SOL    HW1 7835   4.901   5.903   3.330
 2312SOL    HW2 7836   4.967   5.969   3.196
 2313SOL     OW 7837   5.070   5.834   2.024
 2313SOL    HW1 7838   5.031   5.830   1.932
 2313SOL    HW2 7839   5.067   5.743   2.066
 2314SOL     OW 7840   5.304   5.933   3.743
 2314SOL    HW1 7841   5.343   5.850   3.782
 2314SOL    HW2 7842   5.260   5.912   3.655
 2315SOL     OW 7843   5.280   2.707   6.642
 2315SOL    HW1 7844   5.322   2.639   6.582
 2315SOL    HW2 7845   5.189   2.731   6.607
 2316SOL     OW 7846   4.057   1.754   3.760
 2316SOL    HW1 7847   3.976   1.781   3.708
 2316SOL    HW2 7848   4.038   1.669   3.810
 2317SOL     OW 7849   0.407   5.916   3.171
 2317SOL    HW1 7850   0.434   5.991   3.111
 2317SOL    HW2 7851   0.330   5.945   3.229
 2318SOL     OW 7852   0.838   2.902   3.629
 2318SOL    HW1 7853   0.878   2.816   3.599
 2318SOL    HW2 7854   0.787   2.888   3.713
 2319SOL     OW 7855   2.007   5.070   3.212
 2319SOL    HW1 7856   1.928   5.023   3.173
 2319SOL    HW2 7857   2.001   5.067   3.312
 2320SOL     OW 7858   0.786   2.485   4.024
 2320SOL    HW1 7859   0.740   2.569   4.052
 2320SOL    HW2 7860   0.720   2.424   3.981
 2321SOL     OW 7861   2.953   0.312   6.033
 2321SOL    HW1 7862   2.862   0.279   6.007
 2321SOL    HW2 7863   3.010   0.234   6.061
 2322SOL     OW 7864   2.491   2.032   4.929
 2322SOL    HW1 7865   2.427   2.066   4.998
 2322SOL    HW2 7866   2.578   2.008   4.973
 2323SOL     OW 7867   2.740   4.991   2.084
 2323SOL    HW1 7868   2.779   5.073   2.125
 2323SOL    HW2 7869   2.802   4.914   2.099
 2324SOL     OW 7870   6.630   6.626   1.869
 2324SOL    HW1 7871   6.662   6.550   1.814
 2324SOL    HW2 7872   6.693   6.640   1.946
 2325SOL     OW 7873   0.982   4.844   1.773
 2325SOL    HW1 7874   1.074   4.838   1.733
 2325SOL    HW2 7875   0.931   4.761   1.752
 2326SOL     OW 7876   3.429   4.905   5.389
 2326SOL    HW1 7877   3.366   4.963   5.442
 2326SOL    HW2 7878   3.402   4.907   5.293
 2327SOL     OW 7879   6.121   3.718   4.874
 2327SOL    HW1 7880   6.159   3.811   4.876
 2327SOL    HW2 7881   6.035   3.719   4.824
 2328SOL     OW 7882   3.316   2.066   3.104
 2328SOL    HW1 7883   3.319   2.061   3.204
 2328SOL    HW2 7884   3.225   2.094   3.074
 2329SOL     OW 7885   1.274   4.352   5.037
 2329SOL    HW1 7886   1.278   4.382   5.132
 2329SOL    HW2 7887   1.338   4.407   4.982
 2330SOL     OW 7888   0.673   4.325   2.318
 2330SOL    HW1 7889   0.766   4.352   2.344
 2330SOL    HW2 7890   0.626   4.404   2.279
 2331SOL     OW 7891   6.397   3.746   0.366
 2331SOL    HW1 7892   6.355   3.657   0.382
 2331SOL    HW2 7893   6.470   3.761   0.433
 2332SOL     OW 7894   4.608   1.893   5.985
 2332SOL    HW1 7895   4.618   1.820   5.917
 2332SOL    HW2 7896   4.695   1.909   6.030
 2333SOL     OW 7897   0.092   5.759   3.214
 2333SOL    HW1 7898   0.018   5.705   3.254
 2333SOL    HW2 7899   0.054   5.820   3.144
 2334SOL     OW 7900   2.782   0.382   6.956
 2334SOL    HW1 7901   2.844   0.374   6.878
 2334SOL    HW2 7902   2.711   0.312   6.949
 2335SOL     OW 7903   5.661   1.148   3.142
 2335SOL    HW1 7904   5.699   1.239   3.123
 2335SOL    HW2 7905   5.597   1.123   3.070
 2336SOL     OW 7906   4.004   1.951   5.341
 2336SOL    HW1 7907   4.015   1.881   5.270
 2336SOL    HW2 7908   3.906   1.964   5.359
 2337SOL     OW 7909   4.515   1.115   3.701
 2337SOL    HW1 7910   4.492   1.195   3.646
 2337SOL    HW2 7911   4.476   1.126   3.793
 2338SOL     OW 7912   0.696   1.016   0.027
 2338SOL    HW1 7913   0.605   1.038   7.014
 2338SOL    HW2 7914   0.764   1.040   6.978
 2339SOL     OW 7915   4.008   3.639   5.160
 2339SOL    HW1 7916   3.981   3.583   5.081
 2339SOL    HW2 7917   4.094   3.603   5.197
 2340SOL     OW 7918   5.229   5.672   6.129
 2340SOL    HW1 7919   5.202   5.754   6.079
 2340SOL    HW2 7920   5.325   5.680   6.157
 2341SOL     OW 7921   5.333   4.193   1.276
 2341SOL    HW1 7922   5.254   4.210   1.335
 2341SOL    HW2 7923   5.310   4.123   1.209
 2342SOL     OW 7924   0.713   5.611   5.464
 2342SOL    HW1 7925   0.803   5.626   5.505
 2342SOL    HW2 7926   0.652   5.686   5.489
 2343SOL     OW 7927   2.038   6.387   2.226
 2343SOL    HW1 7928   2.124   6.355   2.267
 2343SOL    HW2 7929   2.039   6.487   2.222
 2344SOL     OW 7930   1.626   1.061   1.134
 2344SOL    HW1 7931   1.685   1.116   1.075
 2344SOL    HW2 7932   1.679   1.024   1.210
 2345SOL     OW 7933   2.125   5.322   5.520
 2345SOL    HW1 7934   2.068   5.325   5.602
 2345SOL    HW2 7935   2.159   5.414   5.500
 2346SOL     OW 7936   5.186   3.076   4.884
 2346SOL    HW1 7937   5.212   2.979   4.877
 2346SOL    HW2 7938   5.087   3.083   4.894
 2347SOL     OW 7939   1.998   3.953   1.625
 2347SOL    HW1 7940   1.913   3.961   1.677
 2347SOL    HW2 7941   2.075   3.944   1.688
 2348SOL     OW 7942   3.523   5.923   3.497
 2348SOL    HW1 7943   3.514   5.969   3.409
 2348SOL    HW2 7944   3.546   5.827   3.483
 2349SOL     OW 7945   0.720   5.385   6.538
 2349SOL    HW1 7946   0.730   5.354   6.443
 2349SOL    HW2 7947   0.801   5.357   6.591
 2350SOL     OW 7948   5.095   6.717   6.415
 2350SOL    HW1 7949   5.095   6.630   6.367
 2350SOL    HW2 7950   5.132   6.705   6.507
 2351SOL     OW 7951   3.637   4.924   2.807
 2351SOL    HW1 7952   3.602   4.850   2.750
 2351SOL    HW2 7953   3.594   4.921   2.897
 2352SOL     OW 7954   0.835   3.844   2.418
 2352SOL    HW1 7955   0.872   3.752   2.406
 2352SOL    HW2 7956   0.737   3.844   2.398
 2353SOL     OW 7957   2.930   4.873   4.460
 2353SOL    HW1 7958   2.896   4.863   4.553
 2353SOL    HW2 7959   2.966   4.966   4.447
 2354SOL     OW 7960   3.344   2.479   6.613
 2354SOL    HW1 7961   3.435   2.490   6.574
 2354SOL    HW2 7962   3.341   2.520   6.704
 2355SOL     OW 7963   1.341   4.697   6.642
 2355SOL    HW1 7964   1.392   4.730   6.563
 2355SOL    HW2 7965   1.327   4.773   6.707
 2356SOL     OW 7966   2.793   3.997   0.495
 2356SOL    HW1 7967   2.702   3.969   0.523
 2356SOL    HW2 7968   2.840   3.922   0.450
 2357SOL     OW 7969   3.875   5.194   3.919
 2357SOL    HW1 7970   3.840   5.115   3.968
 2357SOL    HW2 7971   3.975   5.188   3.913
 2358SOL     OW 7972   2.698   5.110   4.661
 2358SOL    HW1 7973   2.761   5.180   4.627
 2358SOL    HW2 7974   2.670   5.051   4.585
 2359SOL     OW 7975   0.904   1.560   5.959
 2359SOL    HW1 7976   1.002   1.569   5.974
 2359SOL    HW2 7977   0.883   1.582   5.863
 2360SOL     OW 7978   5.100   6.053   5.335
 2360SOL    HW1 7979   5.056   6.018   5.418
 2360SOL    HW2 7980   5.123   5.977   5.274
 2361SOL     OW 7981   2.549   6.969   4.728
 2361SOL    HW1 7982   2.458   7.010   4.718
 2361SOL    HW2 7983   2.572   6.963   4.825
 2362SOL     OW 7984   3.843   6.792   5.167
 2362SOL    HW1 7985   3.885   6.882   5.158
 2362SOL    HW2 7986   3.747   6.796   5.138
 2363SOL     OW 7987   4.829   2.576   4.919
 2363SOL    HW1 7988   4.828   2.565   4.819
 2363SOL    HW2 7989   4.737   2.600   4.950
 2364SOL     OW 7990   0.102   1.995   3.054
 2364SOL    HW1 7991   0.048   1.979   3.137
 2364SOL    HW2 7992   0.045   2.041   2.986
 2365SOL     OW 7993   5.920   3.301   6.055
 2365SOL    HW1 7994   5.965   3.325   6.141
 2365SOL    HW2 7995   5.968   3.224   6.012
 2366SOL     OW 7996   1.416   3.735   5.582
 2366SOL    HW1 7997   1.503   3.778   5.557
 2366SOL    HW2 7998   1.366   3.709   5.500
 2367SOL     OW 7999   1.976   3.611   6.565
 2367SOL    HW1 8000   2.076   3.602   6.561
 2367SOL    HW2 8001   1.949   3.699   6.525
 2368SOL     OW 8002   5.104   1.323   4.383
 2368SOL    HW1 8003   5.178   1.289   4.325
 2368SOL    HW2 8004   5.031   1.361   4.326
 2369SOL     OW 8005   2.126   3.063   4.303
 2369SOL    HW1 8006   2.133   3.032   4.398
 2369SOL    HW2 8007   2.183   3.005   4.245
 2370SOL     OW 8008   4.343   4.439   6.775
 2370SOL    HW1 8009   4.295   4.419   6.861
 2370SOL    HW2 8010   4.417   4.372   6.762
 2371SOL     OW 8011   1.520   5.859   2.353
 2371SOL    HW1 8012   1.485   5.934   2.297
 2371SOL    HW2 8013   1.448   5.826   2.414
 2372SOL     OW 8014   0.965   1.889   0.510
 2372SOL    HW1 8015   0.897   1.962   0.510
 2372SOL    HW2 8016   0.934   1.813   0.568
 2373SOL     OW 8017   5.717   0.490   6.821
 2373SOL    HW1 8018   5.749   0.447   6.905
 2373SOL    HW2 8019   5.722   0.425   6.746
 2374SOL     OW 8020   6.185   6.141   3.644
 2374SOL    HW1 8021   6.150   6.175   3.557
 2374SOL    HW2 8022   6.212   6.219   3.701
 2375SOL     OW 8023   1.259   6.755   3.916
 2375SOL    HW1 8024   1.229   6.839   3.960
 2375SOL    HW2 8025   1.350   6.731   3.947
 2376SOL     OW 8026   6.312   2.870   4.171
 2376SOL    HW1 8027   6.354   2.959   4.152
 2376SOL    HW2 8028   6.227   2.883   4.223
 2377SOL     OW 8029   3.273   3.732   3.786
 2377SOL    HW1 8030   3.238   3.638   3.780
 2377SOL    HW2 8031   3.211   3.787   3.840
 2378SOL     OW 8032   5.110   2.251   6.711
 2378SOL    HW1 8033   5.064   2.165   6.735
 2378SOL    HW2 8034   5.185   2.232   6.648
 2379SOL     OW 8035   6.716   2.812   6.923
 2379SOL    HW1 8036   6.671   2.739   6.871
 2379SOL    HW2 8037   6.653   2.845   6.994
 2380SOL     OW 8038   6.750   0.187   5.824
 2380SOL    HW1 8039   6.759   0.145   5.734
 2380SOL    HW2 8040   6.670   0.151   5.871
 2381SOL     OW 8041   1.989   4.122   4.121
 2381SOL    HW1 8042   2.031   4.097   4.208
 2381SOL    HW2 8043   2.048   4.095   4.045
 2382SOL     OW 8044   2.455   5.467   2.605
 2382SOL    HW1 8045   2.476   5.561   2.632
 2382SOL    HW2 8046   2.507   5.404   2.663
 2383SOL     OW 8047   5.788   6.415   6.840
 2383SOL    HW1 8048   5.690   6.400   6.852
 2383SOL    HW2 8049   5.828   6.336   6.793
 2384SOL     OW 8050   1.743   1.361   1.701
 2384SOL    HW1 8051   1.830   1.334   1.659
 2384SOL    HW2 8052   1.757   1.381   1.797
 2385SOL     OW 8053   6.370   0.370   1.066
 2385SOL    HW1 8054   6.343   0.400   1.157
 2385SOL    HW2 8055   6.289   0.339   1.016
 2386SOL     OW 8056   3.966   4.813   3.970
 2386SOL    HW1 8057   4.015   4.807   4.057
 2386SOL    HW2 8058   3.870   4.835   3.988
 2387SOL     OW 8059   6.824   2.176   4.481
 2387SOL    HW1 8060   6.792   2.191   4.387
 2387SOL    HW2 8061   6.855   2.263   4.519
 2388SOL     OW 8062   1.250   1.947   4.818
 2388SOL    HW1 8063   1.243   2.003   4.901
 2388SOL    HW2 8064   1.325   1.982   4.761
 2389SOL     OW 8065   4.731   4.142   3.696
 2389SOL    HW1 8066   4.746   4.082   3.774
 2389SOL    HW2 8067   4.654   4.203   3.714
 2390SOL     OW 8068   3.589   4.211   5.003
 2390SOL    HW1 8069   3.676   4.162   4.996
 2390SOL    HW2 8070   3.606   4.302   5.042
 2391SOL     OW 8071   3.345   4.503   5.327
 2391SOL    HW1 8072   3.436   4.537   5.304
 2391SOL    HW2 8073   3.346   4.403   5.330
 2392SOL     OW 8074   3.250   5.545   5.525
 2392SOL    HW1 8075   3.170   5.497   5.559
 2392SOL    HW2 8076   3.236   5.644   5.533
 2393SOL     OW 8077   3.508   5.288   1.342
 2393SOL    HW1 8078   3.463   5.377   1.340
 2393SOL    HW2 8079   3.494   5.245   1.432
 2394SOL     OW 8080   1.352   3.606   4.832
 2394SOL    HW1 8081   1.338   3.661   4.750
 2394SOL    HW2 8082   1.449   3.584   4.842
 2395SOL     OW 8083   6.889   2.282   6.610
 2395SOL    HW1 8084   6.902   2.207   6.675
 2395SOL    HW2 8085   6.792   2.306   6.606
 2396SOL     OW 8086   5.700   6.170   1.216
 2396SOL    HW1 8087   5.786   6.141   1.258
 2396SOL    HW2 8088   5.624   6.149   1.277
 2397SOL     OW 8089   6.770   4.739   0.504
 2397SOL    HW1 8090   6.853   4.746   0.560
 2397SOL    HW2 8091   6.787   4.675   0.429
 2398SOL     OW 8092   2.332   4.838   5.891
 2398SOL    HW1 8093   2.304   4.918   5.838
 2398SOL    HW2 8094   2.424   4.851   5.926
 2399SOL     OW 8095   4.322   2.034   2.421
 2399SOL    HW1 8096   4.394   2.084   2.374
 2399SOL    HW2 8097   4.236   2.046   2.371
 2400SOL     OW 8098   3.608   4.381   0.266
 2400SOL    HW1 8099   3.549   4.301   0.271
 2400SOL    HW2 8100   3.565   4.457   0.316
 2401SOL     OW 8101   3.477   0.459   5.490
 2401SOL    HW1 8102   3.528   0.502   5.564
 2401SOL    HW2 8103   3.480   0.518   5.409
 2402SOL     OW 8104   6.966   1.918   4.425
 2402SOL    HW1 8105   6.888   1.946   4.368
 2402SOL    HW2 8106   7.016   1.999   4.455
 2403SOL     OW 8107   2.897   2.794   0.222
 2403SOL    HW1 8108   2.823   2.758   0.279
 2403SOL    HW2 8109   2.929   2.881   0.259
 2404SOL     OW 8110   5.424   1.794   2.097
 2404SOL    HW1 8111   5.380   1.799   2.008
 2404SOL    HW2 8112   5.508   1.741   2.090
 2405SOL     OW 8113   4.011   3.320   5.487
 2405SOL    HW1 8114   3.921   3.359   5.468
 2405SOL    HW2 8115   4.055   3.371   5.561
 2406SOL     OW 8116   1.960   0.343   3.293
 2406SOL    HW1 8117   1.910   0.421   3.330
 2406SOL    HW2 8118   1.897   0.268   3.274
 2407SOL     OW 8119   4.540   2.141   3.072
 2407SOL    HW1 8120   4.529   2.239   3.082
 2407SOL    HW2 8121   4.630   2.114   3.105
 2408SOL     OW 8122   3.522   5.489   2.573
 2408SOL    HW1 8123   3.599   5.428   2.554
 2408SOL    HW2 8124   3.455   5.482   2.499
 2409SOL     OW 8125   2.471   2.567   2.072
 2409SOL    HW1 8126   2.516   2.652   2.101
 2409SOL    HW2 8127   2.376   2.587   2.049
 2410SOL     OW 8128   6.400   2.680   6.153
 2410SOL    HW1 8129   6.419   2.778   6.155
 2410SOL    HW2 8130   6.364   2.655   6.063
 2411SOL     OW 8131   3.652   4.510   5.363
 2411SOL    HW1 8132   3.642   4.592   5.419
 2411SOL    HW2 8133   3.720   4.450   5.405
 2412SOL     OW 8134   2.881   4.000   0.147
 2412SOL    HW1 8135   2.805   3.954   0.102
 2412SOL    HW2 8136   2.910   3.947   0.227
 2413SOL     OW 8137   6.260   3.155   6.646
 2413SOL    HW1 8138   6.179   3.096   6.644
 2413SOL    HW2 8139   6.309   3.148   6.559
 2414SOL     OW 8140   6.081   3.900   2.905
 2414SOL    HW1 8141   6.035   3.855   2.982
 2414SOL    HW2 8142   6.173   3.862   2.895
 2415SOL     OW 8143   1.665   0.345   1.198
 2415SOL    HW1 8144   1.626   0.255   1.178
 2415SOL    HW2 8145   1.619   0.384   1.278
 2416SOL     OW 8146   3.029   1.198   4.783
 2416SOL    HW1 8147   2.969   1.134   4.735
 2416SOL    HW2 8148   3.123   1.184   4.754
 2417SOL     OW 8149   4.534   2.544   0.142
 2417SOL    HW1 8150   4.566   2.537   0.237
 2417SOL    HW2 8151   4.523   2.452   0.105
 2418SOL     OW 8152   3.654   3.757   4.832
 2418SOL    HW1 8153   3.620   3.665   4.813
 2418SOL    HW2 8154   3.723   3.782   4.765
 2419SOL     OW 8155   0.433   6.715   4.647
 2419SOL    HW1 8156   0.370   6.646   4.611
 2419SOL    HW2 8157   0.432   6.712   4.747
 2420SOL     OW 8158   4.311   6.987   2.641
 2420SOL    HW1 8159   4.354   6.901   2.669
 2420SOL    HW2 8160   4.371   0.014   2.576
 2421SOL     OW 8161   2.566   0.813   4.364
 2421SOL    HW1 8162   2.494   0.829   4.297
 2421SOL    HW2 8163   2.629   0.891   4.364
 2422SOL     OW 8164   5.529   0.390   1.151
 2422SOL    HW1 8165   5.527   0.316   1.084
 2422SOL    HW2 8166   5.479   0.361   1.234
 2423SOL     OW 8167   0.972   6.260   2.784
 2423SOL    HW1 8168   1.020   6.338   2.744
 2423SOL    HW2 8169   1.007   6.242   2.875
 2424SOL     OW 8170   5.516   5.756   5.880
 2424SOL    HW1 8171   5.521   5.674   5.937
 2424SOL    HW2 8172   5.581   5.824   5.913
 2425SOL     OW 8173   6.504   7.002   4.440
 2425SOL    HW1 8174   6.563   7.018   4.519
 2425SOL    HW2 8175   6.503   6.905   4.418
 2426SOL     OW 8176   1.164   4.454   4.328
 2426SOL    HW1 8177   1.179   4.552   4.317
 2426SOL    HW2 8178   1.066   4.435   4.334
 2427SOL     OW 8179   5.980   5.312   6.671
 2427SOL    HW1 8180   6.033   5.371   6.610
 2427SOL    HW2 8181   6.005   5.216   6.655
 2428SOL     OW 8182   1.076   0.524   3.634
 2428SOL    HW1 8183   1.057   0.585   3.711
 2428SOL    HW2 8184   1.021   0.441   3.644
 2429SOL     OW 8185   6.742   5.419   3.175
 2429SOL    HW1 8186   6.746   5.330   3.219
 2429SOL    HW2 8187   6.819   5.429   3.112
 2430SOL     OW 8188   5.623   2.755   0.751
 2430SOL    HW1 8189   5.675   2.670   0.751
 2430SOL    HW2 8190   5.602   2.781   0.846
 2431SOL     OW 8191   4.184   0.723   1.984
 2431SOL    HW1 8192   4.212   0.632   2.014
 2431SOL    HW2 8193   4.099   0.748   2.031
 2432SOL     OW 8194   4.434   6.179   3.002
 2432SOL    HW1 8195   4.348   6.128   3.002
 2432SOL    HW2 8196   4.427   6.255   3.066
 2433SOL     OW 8197   2.937   6.712   0.179
 2433SOL    HW1 8198   3.031   6.687   0.204
 2433SOL    HW2 8199   2.874   6.673   0.247
 2434SOL     OW 8200   4.657   1.611   3.614
 2434SOL    HW1 8201   4.696   1.619   3.522
 2434SOL    HW2 8202   4.625   1.701   3.644
 2435SOL     OW 8203   4.361   5.983   0.151
 2435SOL    HW1 8204   4.414   5.957   0.232
 2435SOL    HW2 8205   4.330   6.078   0.160
 2436SOL     OW 8206   2.333   6.774   0.801
 2436SOL    HW1 8207   2.420   6.811   0.767
 2436SOL    HW2 8208   2.305   6.826   0.882
 2437SOL     OW 8209   5.217   5.762   1.046
 2437SOL    HW1 8210   5.302   5.815   1.039
 2437SOL    HW2 8211   5.232   5.670   1.010
 2438SOL     OW 8212   3.914   0.778   5.120
 2438SOL    HW1 8213   3.985   0.715   5.089
 2438SOL    HW2 8214   3.945   0.873   5.107
 2439SOL     OW 8215   1.182   3.763   6.967
 2439SOL    HW1 8216   1.160   3.709   0.028
 2439SOL    HW2 8217   1.256   3.719   6.916
 2440SOL     OW 8218   3.661   6.410   5.172
 2440SOL    HW1 8219   3.657   6.313   5.147
 2440SOL    HW2 8220   3.568   6.443   5.191
 2441SOL     OW 8221   6.413   1.179   6.983
 2441SOL    HW1 8222   6.421   1.213   6.889
 2441SOL    HW2 8223   6.331   1.122   6.990
 2442SOL     OW 8224   5.643   5.733   3.649
 2442SOL    HW1 8225   5.639   5.832   3.638
 2442SOL    HW2 8226   5.685   5.711   3.738
 2443SOL     OW 8227   3.152   0.353   6.280
 2443SOL    HW1 8228   3.172   0.444   6.243
 2443SOL    HW2 8229   3.151   0.286   6.206
 2444SOL     OW 8230   4.020   4.543   6.429
 2444SOL    HW1 8231   4.042   4.447   6.412
 2444SOL    HW2 8232   4.059   4.571   6.517
 2445SOL     OW 8233   6.627   1.156   1.922
 2445SOL    HW1 8234   6.701   1.153   1.989
 2445SOL    HW2 8235   6.656   1.110   1.838
 2446SOL     OW 8236   0.238   3.132   4.216
 2446SOL    HW1 8237   0.314   3.074   4.186
 2446SOL    HW2 8238   0.175   3.079   4.272
 2447SOL     OW 8239   3.028   0.861   1.196
 2447SOL    HW1 8240   3.064   0.945   1.155
 2447SOL    HW2 8241   3.041   0.784   1.133
 2448SOL     OW 8242   6.457   1.006   4.362
 2448SOL    HW1 8243   6.446   0.948   4.442
 2448SOL    HW2 8244   6.421   0.959   4.281
 2449SOL     OW 8245   6.899   4.181   3.080
 2449SOL    HW1 8246   6.934   4.271   3.106
 2449SOL    HW2 8247   6.807   4.169   3.117
 2450SOL     OW 8248   3.546   5.583   5.508
 2450SOL    HW1 8249   3.450   5.556   5.513
 2450SOL    HW2 8250   3.582   5.560   5.417
 2451SOL     OW 8251   0.923   0.822   3.615
 2451SOL    HW1 8252   0.908   0.749   3.548
 2451SOL    HW2 8253   0.964   0.783   3.697
 2452SOL     OW 8254   2.708   2.066   3.314
 2452SOL    HW1 8255   2.623   2.078   3.262
 2452SOL    HW2 8256   2.759   1.989   3.276
 2453SOL     OW 8257   6.545   3.712   0.806
 2453SOL    HW1 8258   6.623   3.662   0.845
 2453SOL    HW2 8259   6.527   3.793   0.862
 2454SOL     OW 8260   3.823   0.956   0.087
 2454SOL    HW1 8261   3.803   0.949   0.185
 2454SOL    HW2 8262   3.742   0.929   0.035
 2455SOL     OW 8263   4.573   0.437   0.783
 2455SOL    HW1 8264   4.522   0.519   0.810
 2455SOL    HW2 8265   4.630   0.459   0.703
 2456SOL     OW 8266   6.035   2.074   0.689
 2456SOL    HW1 8267   5.971   2.004   0.722
 2456SOL    HW2 8268   6.101   2.095   0.761
 2457SOL     OW 8269   6.934   6.862   6.189
 2457SOL    HW1 8270   6.854   6.803   6.198
 2457SOL    HW2 8271   6.949   6.885   6.093
 2458SOL     OW 8272   2.149   6.053   4.395
 2458SOL    HW1 8273   2.163   6.013   4.486
 2458SOL    HW2 8274   2.094   5.991   4.339
 2459SOL     OW 8275   2.471   6.118   6.110
 2459SOL    HW1 8276   2.525   6.134   6.027
 2459SOL    HW2 8277   2.532   6.085   6.183
 2460SOL     OW 8278   2.205   1.420   1.408
 2460SOL    HW1 8279   2.304   1.431   1.405
 2460SOL    HW2 8280   2.179   1.335   1.362
 2461SOL     OW 8281   4.671   1.139   3.031
 2461SOL    HW1 8282   4.709   1.085   3.106
 2461SOL    HW2 8283   4.573   1.153   3.047
 2462SOL     OW 8284   2.135   5.880   0.352
 2462SOL    HW1 8285   2.203   5.931   0.404
 2462SOL    HW2 8286   2.053   5.866   0.408
 2463SOL     OW 8287   6.621   2.037   5.859
 2463SOL    HW1 8288   6.677   2.020   5.941
 2463SOL    HW2 8289   6.533   2.075   5.887
 2464SOL     OW 8290   1.914   3.907   2.177
 2464SOL    HW1 8291   1.974   3.833   2.208
 2464SOL    HW2 8292   1.828   3.868   2.144
 2465SOL     OW 8293   0.469   0.414   1.695
 2465SOL    HW1 8294   0.487   0.505   1.657
 2465SOL    HW2 8295   0.533   0.397   1.770
 2466SOL     OW 8296   2.090   2.118   2.360
 2466SOL    HW1 8297   2.079   2.157   2.451
 2466SOL    HW2 8298   2.000   2.106   2.318
 2467SOL     OW 8299   5.085   1.144   5.259
 2467SOL    HW1 8300   5.143   1.070   5.294
 2467SOL    HW2 8301   5.032   1.110   5.182
 2468SOL     OW 8302   4.800   6.402   2.011
 2468SOL    HW1 8303   4.897   6.387   2.031
 2468SOL    HW2 8304   4.746   6.384   2.094
 2469SOL     OW 8305   4.050   4.137   5.722
 2469SOL    HW1 8306   3.969   4.141   5.664
 2469SOL    HW2 8307   4.022   4.111   5.815
 2470SOL     OW 8308   3.812   4.888   6.095
 2470SOL    HW1 8309   3.799   4.834   6.012
 2470SOL    HW2 8310   3.903   4.869   6.133
 2471SOL     OW 8311   2.867   5.991   0.442
 2471SOL    HW1 8312   2.922   5.971   0.523
 2471SOL    HW2 8313   2.851   5.906   0.391
 2472SOL     OW 8314   5.024   2.415   4.545
 2472SOL    HW1 8315   5.070   2.405   4.633
 2472SOL    HW2 8316   4.932   2.453   4.559
 2473SOL     OW 8317   2.107   3.943   4.879
 2473SOL    HW1 8318   2.041   4.016   4.864
 2473SOL    HW2 8319   2.188   3.980   4.926
 2474SOL     OW 8320   0.813   6.060   0.928
 2474SOL    HW1 8321   0.766   5.987   0.878
 2474SOL    HW2 8322   0.905   6.031   0.951
 2475SOL     OW 8323   4.427   1.343   2.260
 2475SOL    HW1 8324   4.370   1.384   2.332
 2475SOL    HW2 8325   4.462   1.255   2.292
 2476SOL     OW 8326   0.041   1.734   3.298
 2476SOL    HW1 8327   0.106   1.658   3.297
 2476SOL    HW2 8328   0.080   1.810   3.352
 2477SOL     OW 8329   4.827   1.080   2.206
 2477SOL    HW1 8330   4.846   1.129   2.291
 2477SOL    HW2 8331   4.755   1.013   2.222
 2478SOL     OW 8332   6.164   1.481   2.585
 2478SOL    HW1 8333   6.224   1.541   2.532
 2478SOL    HW2 8334   6.153   1.394   2.537
 2479SOL     OW 8335   1.445   3.864   1.525
 2479SOL    HW1 8336   1.526   3.921   1.533
 2479SOL    HW2 8337   1.425   3.847   1.428
 2480SOL     OW 8338   5.725   4.293   0.455
 2480SOL    HW1 8339   5.745   4.261   0.362
 2480SOL    HW2 8340   5.638   4.341   0.456
 2481SOL     OW 8341   2.195   0.851   0.013
 2481SOL    HW1 8342   2.161   0.783   6.968
 2481SOL    HW2 8343   2.158   0.941   7.010
 2482SOL     OW 8344   4.869   3.525   5.835
 2482SOL    HW1 8345   4.957   3.541   5.793
 2482SOL    HW2 8346   4.854   3.591   5.908
 2483SOL     OW 8347   1.843   2.022   6.652
 2483SOL    HW1 8348   1.749   2.019   6.686
 2483SOL    HW2 8349   1.877   2.116   6.655
 2484SOL     OW 8350   3.276   0.852   0.450
 2484SOL    HW1 8351   3.250   0.823   0.542
 2484SOL    HW2 8352   3.342   0.786   0.412
 2485SOL     OW 8353   5.777   3.805   1.491
 2485SOL    HW1 8354   5.859   3.859   1.477
 2485SOL    HW2 8355   5.794   3.710   1.464
 2486SOL     OW 8356   1.865   4.753   4.724
 2486SOL    HW1 8357   1.860   4.705   4.636
 2486SOL    HW2 8358   1.780   4.804   4.739
 2487SOL     OW 8359   3.670   5.858   0.064
 2487SOL    HW1 8360   3.651   5.849   6.987
 2487SOL    HW2 8361   3.738   5.789   0.091
 2488SOL     OW 8362   2.113   4.290   2.161
 2488SOL    HW1 8363   2.095   4.257   2.254
 2488SOL    HW2 8364   2.066   4.377   2.147
 2489SOL     OW 8365   1.321   5.591   2.914
 2489SOL    HW1 8366   1.252   5.650   2.872
 2489SOL    HW2 8367   1.275   5.512   2.956
 2490SOL     OW 8368   6.382   4.926   1.471
 2490SOL    HW1 8369   6.295   4.973   1.478
 2490SOL    HW2 8370   6.366   4.829   1.451
 2491SOL     OW 8371   2.941   5.341   0.961
 2491SOL    HW1 8372   2.950   5.384   0.871
 2491SOL    HW2 8373   2.885   5.259   0.954
 2492SOL     OW 8374   4.502   2.822   0.110
 2492SOL    HW1 8375   4.485   2.724   0.119
 2492SOL    HW2 8376   4.429   2.863   0.054
 2493SOL     OW 8377   6.142   0.882   2.694
 2493SOL    HW1 8378   6.085   0.801   2.708
 2493SOL    HW2 8379   6.214   0.860   2.628
 2494SOL     OW 8380   6.040   4.115   1.818
 2494SOL    HW1 8381   6.110   4.162   1.872
 2494SOL    HW2 8382   6.025   4.024   1.855
 2495SOL     OW 8383   5.052   0.632   4.491
 2495SOL    HW1 8384   5.052   0.708   4.556
 2495SOL    HW2 8385   5.001   0.659   4.409
 2496SOL     OW 8386   0.619   4.168   5.811
 2496SOL    HW1 8387   0.591   4.092   5.869
 2496SOL    HW2 8388   0.612   4.142   5.715
 2497SOL     OW 8389   0.119   0.670   0.936
 2497SOL    HW1 8390   0.189   0.671   1.007
 2497SOL    HW2 8391   0.100   0.575   0.910
 2498SOL     OW 8392   3.197   2.135   4.288
 2498SOL    HW1 8393   3.222   2.046   4.250
 2498SOL    HW2 8394   3.131   2.180   4.228
 2499SOL     OW 8395   5.464   2.120   4.097
 2499SOL    HW1 8396   5.429   2.050   4.035
 2499SOL    HW2 8397   5.444   2.211   4.060
 2500SOL     OW 8398   4.273   3.176   6.993
 2500SOL    HW1 8399   4.231   3.174   0.063
 2500SOL    HW2 8400   4.204   3.157   6.923
 2501SOL     OW 8401   6.422   5.641   0.116
 2501SOL    HW1 8402   6.437   5.738   0.097
 2501SOL    HW2 8403   6.330   5.614   0.087
 2502SOL     OW 8404   2.137   5.730   3.000
 2502SOL    HW1 8405   2.169   5.709   3.092
 2502SOL    HW2 8406   2.120   5.828   2.991
 2503SOL     OW 8407   3.198   5.614   4.715
 2503SOL    HW1 8408   3.207   5.711   4.690
 2503SOL    HW2 8409   3.103   5.586   4.705
 2504SOL     OW 8410   2.800   5.157   4.929
 2504SOL    HW1 8411   2.760   5.113   5.009
 2504SOL    HW2 8412   2.743   5.138   4.849
 2505SOL     OW 8413   2.009   5.918   4.171
 2505SOL    HW1 8414   1.953   5.837   4.186
 2505SOL    HW2 8415   2.061   5.908   4.086
 2506SOL     OW 8416   5.866   3.060   6.467
 2506SOL    HW1 8417   5.889   3.151   6.503
 2506SOL    HW2 8418   5.808   3.012   6.533
 2507SOL     OW 8419   0.792   4.458   0.443
 2507SOL    HW1 8420   0.875   4.512   0.455
 2507SOL    HW2 8421   0.816   4.361   0.439
 2508SOL     OW 8422   2.665   1.368   1.705
 2508SOL    HW1 8423   2.753   1.361   1.657
 2508SOL    HW2 8424   2.591   1.376   1.638
 2509SOL     OW 8425   5.982   2.925   2.836
 2509SOL    HW1 8426   5.970   2.834   2.797
 2509SOL    HW2 8427   5.962   2.923   2.934
 2510SOL     OW 8428   3.358   4.266   1.360
 2510SOL    HW1 8429   3.286   4.197   1.372
 2510SOL    HW2 8430   3.439   4.238   1.412
 2511SOL     OW 8431   2.885   1.235   3.597
 2511SOL    HW1 8432   2.846   1.237   3.505
 2511SOL    HW2 8433   2.964   1.173   3.598
 2512SOL     OW 8434   4.948   4.648   4.836
 2512SOL    HW1 8435   4.989   4.733   4.803
 2512SOL    HW2 8436   5.015   4.574   4.826
 2513SOL     OW 8437   1.343   3.193   4.827
 2513SOL    HW1 8438   1.442   3.210   4.830
 2513SOL    HW2 8439   1.304   3.209   4.917
 2514SOL     OW 8440   6.591   3.612   4.479
 2514SOL    HW1 8441   6.506   3.650   4.514
 2514SOL    HW2 8442   6.586   3.512   4.479
 2515SOL     OW 8443   1.123   6.614   0.425
 2515SOL    HW1 8444   1.175   6.565   0.354
 2515SOL    HW2 8445   1.154   6.709   0.428
 2516SOL     OW 8446   5.792   0.557   3.818
 2516SOL    HW1 8447   5.766   0.495   3.745
 2516SOL    HW2 8448   5.730   0.636   3.820
 2517SOL     OW 8449   0.921   5.459   5.829
 2517SOL    HW1 8450   0.967   5.520   5.765
 2517SOL    HW2 8451   0.830   5.437   5.795
 2518SOL     OW 8452   1.966   3.378   7.006
 2518SOL    HW1 8453   1.921   3.435   6.937
 2518SOL    HW2 8454   2.062   3.406   7.014
 2519SOL     OW 8455   4.983   6.290   3.770
 2519SOL    HW1 8456   5.030   6.308   3.857
 2519SOL    HW2 8457   5.050   6.281   3.697
 2520SOL     OW 8458   1.320   2.624   0.063
 2520SOL    HW1 8459   1.402   2.679   0.043
 2520SOL    HW2 8460   1.327   2.587   0.156
 2521SOL     OW 8461   1.142   6.003   5.860
 2521SOL    HW1 8462   1.141   6.085   5.802
 2521SOL    HW2 8463   1.048   5.976   5.882
 2522SOL     OW 8464   0.154   3.262   5.757
 2522SOL    HW1 8465   0.076   3.325   5.748
 2522SOL    HW2 8466   0.237   3.315   5.778
 2523SOL     OW 8467   0.191   3.050   1.993
 2523SOL    HW1 8468   0.111   3.111   1.995
 2523SOL    HW2 8469   0.274   3.104   2.004
 2524SOL     OW 8470   0.911   5.136   5.250
 2524SOL    HW1 8471   0.886   5.218   5.301
 2524SOL    HW2 8472   1.009   5.120   5.258
 2525SOL     OW 8473   0.390   2.744   4.170
 2525SOL    HW1 8474   0.293   2.766   4.170
 2525SOL    HW2 8475   0.410   2.682   4.246
 2526SOL     OW 8476   1.911   4.417   5.325
 2526SOL    HW1 8477   1.848   4.339   5.319
 2526SOL    HW2 8478   2.005   4.384   5.317
 2527SOL     OW 8479   5.455   6.348   5.074
 2527SOL    HW1 8480   5.369   6.361   5.124
 2527SOL    HW2 8481   5.449   6.396   4.986
 2528SOL     OW 8482   5.829   4.487   0.878
 2528SOL    HW1 8483   5.899   4.494   0.807
 2528SOL    HW2 8484   5.763   4.416   0.854
 2529SOL     OW 8485   6.874   6.401   6.491
 2529SOL    HW1 8486   6.955   6.437   6.445
 2529SOL    HW2 8487   6.825   6.339   6.430
 2530SOL     OW 8488   1.287   6.755   4.634
 2530SOL    HW1 8489   1.362   6.791   4.579
 2530SOL    HW2 8490   1.304   6.659   4.655
 2531SOL     OW 8491   4.808   5.952   4.380
 2531SOL    HW1 8492   4.831   6.042   4.341
 2531SOL    HW2 8493   4.826   5.881   4.312
 2532SOL     OW 8494   1.100   5.825   0.810
 2532SOL    HW1 8495   1.078   5.877   0.727
 2532SOL    HW2 8496   1.074   5.878   0.890
 2533SOL     OW 8497   3.543   0.327   3.116
 2533SOL    HW1 8498   3.628   0.283   3.143
 2533SOL    HW2 8499   3.496   0.271   3.048
 2534SOL     OW 8500   2.739   0.862   2.869
 2534SOL    HW1 8501   2.784   0.914   2.942
 2534SOL    HW2 8502   2.732   0.766   2.895
 2535SOL     OW 8503   2.726   2.771   6.768
 2535SOL    HW1 8504   2.808   2.742   6.817
 2535SOL    HW2 8505   2.659   2.696   6.767
 2536SOL     OW 8506   6.550   1.931   3.831
 2536SOL    HW1 8507   6.635   1.976   3.857
 2536SOL    HW2 8508   6.571   1.852   3.773
 2537SOL     OW 8509   5.048   6.447   6.617
 2537SOL    HW1 8510   4.963   6.442   6.565
 2537SOL    HW2 8511   5.051   6.533   6.668
 2538SOL     OW 8512   1.347   3.848   4.684
 2538SOL    HW1 8513   1.402   3.890   4.756
 2538SOL    HW2 8514   1.261   3.898   4.674
 2539SOL     OW 8515   5.279   0.468   6.057
 2539SOL    HW1 8516   5.259   0.430   5.967
 2539SOL    HW2 8517   5.221   0.547   6.074
 2540SOL     OW 8518   4.153   0.945   2.556
 2540SOL    HW1 8519   4.089   0.869   2.541
 2540SOL    HW2 8520   4.175   0.987   2.469
 2541SOL     OW 8521   2.144   6.533   5.294
 2541SOL    HW1 8522   2.186   6.620   5.320
 2541SOL    HW2 8523   2.047   6.547   5.277
 2542SOL     OW 8524   5.209   1.271   6.155
 2542SOL    HW1 8525   5.255   1.193   6.113
 2542SOL    HW2 8526   5.114   1.247   6.177
 2543SOL     OW 8527   2.052   1.783   2.539
 2543SOL    HW1 8528   1.968   1.797   2.486
 2543SOL    HW2 8529   2.077   1.687   2.536
 2544SOL     OW 8530   0.215   4.954   1.347
 2544SOL    HW1 8531   0.143   4.884   1.342
 2544SOL    HW2 8532   0.261   4.959   1.259
 2545SOL     OW 8533   1.905   0.735   0.951
 2545SOL    HW1 8534   1.974   0.718   0.880
 2545SOL    HW2 8535   1.814   0.715   0.915
 2546SOL     OW 8536   6.928   2.650   1.979
 2546SOL    HW1 8537   7.003   2.709   1.948
 2546SOL    HW2 8538   6.965   2.563   2.012
 2547SOL     OW 8539   6.007   4.671   0.085
 2547SOL    HW1 8540   5.942   4.735   0.042
 2547SOL    HW2 8541   6.072   4.639   0.016
 2548SOL     OW 8542   2.999   6.822   5.462
 2548SOL    HW1 8543   2.979   6.750   5.395
 2548SOL    HW2 8544   2.935   6.814   5.539
 2549SOL     OW 8545   1.948   1.025   1.027
 2549SOL    HW1 8546   1.881   1.083   0.980
 2549SOL    HW2 8547   1.944   0.932   0.989
 2550SOL     OW 8548   0.145   0.262   6.347
 2550SOL    HW1 8549   0.146   0.321   6.266
 2550SOL    HW2 8550   0.152   0.318   6.429
 2551SOL     OW 8551   2.853   5.498   0.227
 2551SOL    HW1 8552   2.875   5.592   0.251
 2551SOL    HW2 8553   2.780   5.465   0.287
 2552SOL     OW 8554   1.052   5.414   6.239
 2552SOL    HW1 8555   1.124   5.365   6.192
 2552SOL    HW2 8556   1.092   5.480   6.303
 2553SOL     OW 8557   3.692   3.794   6.811
 2553SOL    HW1 8558   3.663   3.797   6.906
 2553SOL    HW2 8559   3.731   3.883   6.785
 2554SOL     OW 8560   1.340   5.904   6.712
 2554SOL    HW1 8561   1.320   5.986   6.659
 2554SOL    HW2 8562   1.438   5.900   6.734
 2555SOL     OW 8563   6.269   6.324   5.969
 2555SOL    HW1 8564   6.349   6.383   5.979
 2555SOL    HW2 8565   6.223   6.344   5.882
 2556SOL     OW 8566   3.936   5.754   0.416
 2556SOL    HW1 8567   3.957   5.832   0.475
 2556SOL    HW2 8568   4.009   5.742   0.349
 2557SOL     OW 8569   2.357   2.451   6.399
 2557SOL    HW1 8570   2.434   2.487   6.347
 2557SOL    HW2 8571   2.304   2.389   6.342
 2558SOL     OW 8572   4.115   3.455   5.714
 2558SOL    HW1 8573   4.152   3.382   5.770
 2558SOL    HW2 8574   4.148   3.543   5.748
 2559SOL     OW 8575   6.495   3.469   4.779
 2559SOL    HW1 8576   6.544   3.384   4.757
 2559SOL    HW2 8577   6.398   3.448   4.792
 2560SOL     OW 8578   5.533   3.575   4.274
 2560SOL    HW1 8579   5.623   3.565   4.315
 2560SOL    HW2 8580   5.516   3.498   4.213
 2561SOL     OW 8581   3.073   0.129   3.954
 2561SOL    HW1 8582   2.986   0.112   3.908
 2561SOL    HW2 8583   3.121   0.204   3.909
 2562SOL     OW 8584   2.117   5.533   2.196
 2562SOL    HW1 8585   2.061   5.610   2.226
 2562SOL    HW2 8586   2.062   5.450   2.196
 2563SOL     OW 8587   4.284   1.751   7.019
 2563SOL    HW1 8588   4.255   1.694   0.075
 2563SOL    HW2 8589   4.212   1.754   6.949
 2564SOL     OW 8590   1.007   6.766   6.390
 2564SOL    HW1 8591   0.920   6.722   6.366
 2564SOL    HW2 8592   1.078   6.734   6.328
 2565SOL     OW 8593   6.968   0.577   0.067
 2565SOL    HW1 8594   6.886   0.626   0.038
 2565SOL    HW2 8595   0.008   0.639   0.117
 2566SOL     OW 8596   1.561   6.928   0.961
 2566SOL    HW1 8597   1.476   6.936   0.909
 2566SOL    HW2 8598   1.639   6.943   0.900
 2567SOL     OW 8599   1.425   1.072   1.407
 2567SOL    HW1 8600   1.433   1.108   1.500
 2567SOL    HW2 8601   1.443   1.146   1.342
 2568SOL     OW 8602   3.372   0.195   6.678
 2568SOL    HW1 8603   3.286   0.162   6.717
 2568SOL    HW2 8604   3.382   0.160   6.585
 2569SOL     OW 8605   2.897   0.454   1.795
 2569SOL    HW1 8606   2.902   0.388   1.720
 2569SOL    HW2 8607   2.866   0.408   1.878
 2570SOL     OW 8608   5.993   0.501   0.188
 2570SOL    HW1 8609   6.038   0.491   0.100
 2570SOL    HW2 8610   5.894   0.511   0.174
 2571SOL     OW 8611   2.088   3.460   5.610
 2571SOL    HW1 8612   2.164   3.522   5.631
 2571SOL    HW2 8613   2.093   3.434   5.513
 2572SOL     OW 8614   2.019   6.013   0.786
 2572SOL    HW1 8615   2.045   6.091   0.728
 2572SOL    HW2 8616   1.920   6.016   0.802
 2573SOL     OW 8617   6.505   1.699   2.248
 2573SOL    HW1 8618   6.601   1.674   2.236
 2573SOL    HW2 8619   6.495   1.798   2.238
 2574SOL     OW 8620   6.745   3.363   7.000
 2574SOL    HW1 8621   6.829   3.324   6.961
 2574SOL    HW2 8622   6.672   3.295   6.996
 2575SOL     OW 8623   4.896   5.233   0.158
 2575SOL    HW1 8624   4.955   5.183   0.221
 2575SOL    HW2 8625   4.801   5.227   0.189
 2576SOL     OW 8626   4.204   6.915   4.430
 2576SOL    HW1 8627   4.153   6.947   4.350
 2576SOL    HW2 8628   4.292   6.879   4.401
 2577SOL     OW 8629   4.130   6.390   2.317
 2577SOL    HW1 8630   4.086   6.477   2.299
 2577SOL    HW2 8631   4.208   6.377   2.255
 2578SOL     OW 8632   4.633   2.273   4.628
 2578SOL    HW1 8633   4.621   2.222   4.543
 2578SOL    HW2 8634   4.704   2.229   4.684
 2579SOL     OW 8635   0.861   0.499   3.156
 2579SOL    HW1 8636   0.898   0.409   3.132
 2579SOL    HW2 8637   0.858   0.556   3.074
 2580SOL     OW 8638   2.300   2.753   6.939
 2580SOL    HW1 8639   2.376   2.818   6.942
 2580SOL    HW2 8640   2.332   2.665   6.903
 2581SOL     OW 8641   6.836   4.304   1.093
 2581SOL    HW1 8642   6.928   4.326   1.123
 2581SOL    HW2 8643   6.838   4.218   1.041
 2582SOL     OW 8644   0.863   4.386   1.945
 2582SOL    HW1 8645   0.791   4.324   1.913
 2582SOL    HW2 8646   0.933   4.333   1.993
 2583SOL     OW 8647   0.471   1.783   1.034
 2583SOL    HW1 8648   0.428   1.767   1.123
 2583SOL    HW2 8649   0.407   1.832   0.975
 2584SOL     OW 8650   4.160   5.681   0.207
 2584SOL    HW1 8651   4.201   5.736   0.279
 2584SOL    HW2 8652   4.209   5.695   0.121
 2585SOL     OW 8653   4.225   2.231   0.787
 2585SOL    HW1 8654   4.305   2.263   0.840
 2585SOL    HW2 8655   4.228   2.132   0.781
 2586SOL     OW 8656   3.479   1.580   3.872
 2586SOL    HW1 8657   3.507   1.524   3.794
 2586SOL    HW2 8658   3.445   1.521   3.946
 2587SOL     OW 8659   0.033   0.666   3.754
 2587SOL    HW1 8660   0.062   0.688   3.847
 2587SOL    HW2 8661   6.956   0.683   3.744
 2588SOL     OW 8662   4.783   0.058   6.823
 2588SOL    HW1 8663   4.758   0.153   6.804
 2588SOL    HW2 8664   4.711   7.017   6.791
 2589SOL     OW 8665   0.329   5.901   6.185
 2589SOL    HW1 8666   0.334   5.998   6.210
 2589SOL    HW2 8667   0.371   5.845   6.256
 2590SOL     OW 8668   3.206   6.318   1.884
 2590SOL    HW1 8669   3.209   6.339   1.982
 2590SOL    HW2 8670   3.201   6.219   1.872
 2591SOL     OW 8671   6.766   5.681   1.891
 2591SOL    HW1 8672   6.778   5.771   1.934
 2591SOL    HW2 8673   6.855   5.642   1.870
 2592SOL     OW 8674   3.319   6.293   1.118
 2592SOL    HW1 8675   3.326   6.391   1.100
 2592SOL    HW2 8676   3.406   6.249   1.098
 2593SOL     OW 8677   2.676   5.787   1.021
 2593SOL    HW1 8678   2.597   5.829   0.975
 2593SOL    HW2 8679   2.708   5.847   1.094
 2594SOL     OW 8680   0.441   5.874   5.920
 2594SOL    HW1 8681   0.514   5.811   5.948
 2594SOL    HW2 8682   0.396   5.909   6.002
 2595SOL     OW 8683   6.520   1.514   4.728
 2595SOL    HW1 8684   6.534   1.485   4.633
 2595SOL    HW2 8685   6.457   1.592   4.730
 2596SOL     OW 8686   3.854   1.837   1.726
 2596SOL    HW1 8687   3.795   1.898   1.673
 2596SOL    HW2 8688   3.895   1.770   1.664
 2597SOL     OW 8689   1.703   4.107   6.649
 2597SOL    HW1 8690   1.802   4.109   6.636
 2597SOL    HW2 8691   1.658   4.155   6.574
 2598SOL     OW 8692   6.088   1.437   4.280
 2598SOL    HW1 8693   6.124   1.414   4.371
 2598SOL    HW2 8694   6.063   1.353   4.232
 2599SOL     OW 8695   2.707   0.063   0.793
 2599SOL    HW1 8696   2.778   0.100   0.733
 2599SOL    HW2 8697   2.645   0.137   0.821
 2600SOL     OW 8698   4.842   3.304   4.319
 2600SOL    HW1 8699   4.923   3.362   4.321
 2600SOL    HW2 8700   4.814   3.282   4.413
 2601SOL     OW 8701   1.839   2.149   0.078
 2601SOL    HW1 8702   1.813   2.127   0.172
 2601SOL    HW2 8703   1.934   2.178   0.076
 2602SOL     OW 8704   6.683   4.735   4.087
 2602SOL    HW1 8705   6.656   4.767   3.997
 2602SOL    HW2 8706   6.669   4.636   4.094
 2603SOL     OW 8707   2.046   1.823   1.590
 2603SOL    HW1 8708   2.077   1.835   1.684
 2603SOL    HW2 8709   1.969   1.884   1.572
 2604SOL     OW 8710   4.940   1.395   3.061
 2604SOL    HW1 8711   5.019   1.369   3.117
 2604SOL    HW2 8712   4.856   1.377   3.111
 2605SOL     OW 8713   2.448   4.448   2.773
 2605SOL    HW1 8714   2.533   4.492   2.803
 2605SOL    HW2 8715   2.414   4.493   2.691
 2606SOL     OW 8716   7.009   4.762   1.394
 2606SOL    HW1 8717   6.929   4.788   1.340
 2606SOL    HW2 8718   6.982   4.695   1.463
 2607SOL     OW 8719   0.025   1.310   0.196
 2607SOL    HW1 8720   0.018   1.276   0.102
 2607SOL    HW2 8721   0.097   1.260   0.244
 2608SOL     OW 8722   5.080   4.533   1.754
 2608SOL    HW1 8723   5.009   4.464   1.742
 2608SOL    HW2 8724   5.170   4.492   1.734
 2609SOL     OW 8725   6.924   1.768   1.465
 2609SOL    HW1 8726   6.958   1.733   1.552
 2609SOL    HW2 8727   6.843   1.717   1.438
 2610SOL     OW 8728   0.193   4.801   4.561
 2610SOL    HW1 8729   0.202   4.867   4.486
 2610SOL    HW2 8730   0.279   4.797   4.612
 2611SOL     OW 8731   4.646   6.245   0.809
 2611SOL    HW1 8732   4.678   6.288   0.725
 2611SOL    HW2 8733   4.552   6.272   0.827
 2612SOL     OW 8734   6.509   0.109   5.684
 2612SOL    HW1 8735   6.575   0.110   5.609
 2612SOL    HW2 8736   6.423   0.070   5.651
 2613SOL     OW 8737   2.874   6.964   0.066
 2613SOL    HW1 8738   2.814   7.019   0.125
 2613SOL    HW2 8739   2.905   6.883   0.116
 2614SOL     OW 8740   7.018   0.689   5.970
 2614SOL    HW1 8741   6.995   0.695   6.067
 2614SOL    HW2 8742   6.976   0.766   5.922
 2615SOL     OW 8743   6.943   3.001   2.867
 2615SOL    HW1 8744   6.856   3.044   2.844
 2615SOL    HW2 8745   6.984   2.962   2.785
 2616SOL     OW 8746   3.923   3.326   5.170
 2616SOL    HW1 8747   3.829   3.330   5.204
 2616SOL    HW2 8748   3.970   3.249   5.212
 2617SOL     OW 8749   3.344   6.608   1.093
 2617SOL    HW1 8750   3.422   6.567   1.046
 2617SOL    HW2 8751   3.275   6.636   1.026
 2618SOL     OW 8752   0.320   0.153   4.262
 2618SOL    HW1 8753   0.382   0.209   4.207
 2618SOL    HW2 8754   0.238   0.132   4.210
 2619SOL     OW 8755   4.080   1.588   3.244
 2619SOL    HW1 8756   4.047   1.669   3.195
 2619SOL    HW2 8757   4.135   1.617   3.322
 2620SOL     OW 8758   0.056   6.828   2.969
 2620SOL    HW1 8759   0.116   6.902   2.998
 2620SOL    HW2 8760   6.991   6.865   2.933
 2621SOL     OW 8761   1.253   6.194   3.162
 2621SOL    HW1 8762   1.301   6.154   3.240
 2621SOL    HW2 8763   1.164   6.149   3.151
 2622SOL     OW 8764   1.999   2.945   5.933
 2622SOL    HW1 8765   2.062   2.902   5.868
 2622SOL    HW2 8766   1.945   2.875   5.979
 2623SOL     OW 8767   2.449   1.469   5.592
 2623SOL    HW1 8768   2.461   1.540   5.522
 2623SOL    HW2 8769   2.458   1.379   5.549
 2624SOL     OW 8770   6.793   2.110   5.666
 2624SOL    HW1 8771   6.721   2.110   5.736
 2624SOL    HW2 8772   6.829   2.018   5.655
 2625SOL     OW 8773   2.355   2.440   5.316
 2625SOL    HW1 8774   2.306   2.440   5.229
 2625SOL    HW2 8775   2.289   2.449   5.391
 2626SOL     OW 8776   0.437   6.894   5.678
 2626SOL    HW1 8777   0.472   6.988   5.679
 2626SOL    HW2 8778   0.507   6.833   5.715
 2627SOL     OW 8779   1.493   1.251   5.622
 2627SOL    HW1 8780   1.459   1.342   5.597
 2627SOL    HW2 8781   1.534   1.255   5.714
 2628SOL     OW 8782   2.452   5.162   6.272
 2628SOL    HW1 8783   2.462   5.160   6.173
 2628SOL    HW2 8784   2.505   5.088   6.313
 2629SOL     OW 8785   2.636   3.155   1.292
 2629SOL    HW1 8786   2.704   3.138   1.220
 2629SOL    HW2 8787   2.675   3.134   1.381
 2630SOL     OW 8788   2.923   1.862   2.631
 2630SOL    HW1 8789   2.900   1.954   2.662
 2630SOL    HW2 8790   2.885   1.795   2.696
 2631SOL     OW 8791   5.564   0.633   5.504
 2631SOL    HW1 8792   5.535   0.701   5.571
 2631SOL    HW2 8793   5.647   0.588   5.537
 2632SOL     OW 8794   4.093   2.709   6.484
 2632SOL    HW1 8795   4.083   2.612   6.507
 2632SOL    HW2 8796   4.078   2.721   6.386
 2633SOL     OW 8797   0.045   1.000   4.488
 2633SOL    HW1 8798   0.011   0.907   4.470
 2633SOL    HW2 8799   0.145   0.999   4.490
 2634SOL     OW 8800   0.814   4.507   3.229
 2634SOL    HW1 8801   0.875   4.587   3.227
 2634SOL    HW2 8802   0.803   4.476   3.323
 2635SOL     OW 8803   6.127   6.341   5.755
 2635SOL    HW1 8804   6.050   6.307   5.700
 2635SOL    HW2 8805   6.169   6.419   5.709
 2636SOL     OW 8806   4.496   0.432   5.427
 2636SOL    HW1 8807   4.495   0.532   5.425
 2636SOL    HW2 8808   4.402   0.397   5.425
 2637SOL     OW 8809   4.892   1.789   3.914
 2637SOL    HW1 8810   4.966   1.755   3.857
 2637SOL    HW2 8811   4.913   1.883   3.942
 2638SOL     OW 8812   6.773   0.507   3.232
 2638SOL    HW1 8813   6.683   0.530   3.194
 2638SOL    HW2 8814   6.774   0.411   3.258
 2639SOL     OW 8815   0.578   6.478   1.024
 2639SOL    HW1 8816   0.648   6.407   1.012
 2639SOL    HW2 8817   0.529   6.492   0.938
 2640SOL     OW 8818   0.678   5.622   5.148
 2640SOL    HW1 8819   0.727   5.660   5.226
 2640SOL    HW2 8820   0.594   5.675   5.133
 2641SOL     OW 8821   5.064   3.142   2.623
 2641SOL    HW1 8822   5.073   3.240   2.644
 2641SOL    HW2 8823   5.032   3.094   2.705
 2642SOL     OW 8824   4.128   6.785   3.911
 2642SOL    HW1 8825   4.038   6.822   3.890
 2642SOL    HW2 8826   4.123   6.685   3.913
 2643SOL     OW 8827   0.157   4.059   3.211
 2643SOL    HW1 8828   0.108   4.106   3.137
 2643SOL    HW2 8829   0.230   4.003   3.172
 2644SOL     OW 8830   6.035   6.003   5.787
 2644SOL    HW1 8831   6.115   5.951   5.759
 2644SOL    HW2 8832   5.953   5.963   5.743
 2645SOL     OW 8833   4.582   5.578   4.686
 2645SOL    HW1 8834   4.599   5.484   4.658
 2645SOL    HW2 8835   4.643   5.639   4.636
 2646SOL     OW 8836   6.246   0.546   6.703
 2646SOL    HW1 8837   6.220   0.604   6.780
 2646SOL    HW2 8838   6.292   0.464   6.737
 2647SOL     OW 8839   6.667   6.871   2.400
 2647SOL    HW1 8840   6.567   6.873   2.405
 2647SOL    HW2 8841   6.698   6.777   2.390
 2648SOL     OW 8842   0.602   0.044   4.137
 2648SOL    HW1 8843   0.641   6.987   4.187
 2648SOL    HW2 8844   0.654   0.059   4.053
 2649SOL     OW 8845   5.442   3.034   0.150
 2649SOL    HW1 8846   5.424   3.039   0.051
 2649SOL    HW2 8847   5.358   3.052   0.200
 2650SOL     OW 8848   1.145   4.022   4.682
 2650SOL    HW1 8849   1.136   4.108   4.734
 2650SOL    HW2 8850   1.106   4.034   4.591
 2651SOL     OW 8851   1.020   0.856   0.434
 2651SOL    HW1 8852   0.944   0.837   0.372
 2651SOL    HW2 8853   1.050   0.771   0.477
 2652SOL     OW 8854   3.695   3.812   4.153
 2652SOL    HW1 8855   3.616   3.798   4.093
 2652SOL    HW2 8856   3.677   3.889   4.214
 2653SOL     OW 8857   5.009   6.932   5.271
 2653SOL    HW1 8858   5.012   7.014   5.328
 2653SOL    HW2 8859   4.927   6.934   5.214
 2654SOL     OW 8860   4.902   6.112   2.037
 2654SOL    HW1 8861   4.961   6.035   2.061
 2654SOL    HW2 8862   4.930   6.193   2.088
 2655SOL     OW 8863   4.463   6.288   4.260
 2655SOL    HW1 8864   4.476   6.258   4.355
 2655SOL    HW2 8865   4.390   6.356   4.257
 2656SOL     OW 8866   3.628   4.924   4.300
 2656SOL    HW1 8867   3.545   4.876   4.274
 2656SOL    HW2 8868   3.610   4.982   4.379
 2657SOL     OW 8869   1.065   3.955   6.139
 2657SOL    HW1 8870   1.082   4.052   6.156
 2657SOL    HW2 8871   1.103   3.900   6.214
 2658SOL     OW 8872   4.993   4.249   0.788
 2658SOL    HW1 8873   4.938   4.264   0.706
 2658SOL    HW2 8874   4.973   4.321   0.855
 2659SOL     OW 8875   5.369   3.127   4.167
 2659SOL    HW1 8876   5.383   3.089   4.259
 2659SOL    HW2 8877   5.385   3.056   4.099
 2660SOL     OW 8878   1.572   0.248   1.545
 2660SOL    HW1 8879   1.641   0.187   1.508
 2660SOL    HW2 8880   1.535   0.210   1.630
 2661SOL     OW 8881   2.585   6.736   1.007
 2661SOL    HW1 8882   2.579   6.764   0.911
 2661SOL    HW2 8883   2.671   6.688   1.023
 2662SOL     OW 8884   5.011   6.681   5.017
 2662SOL    HW1 8885   5.100   6.713   5.052
 2662SOL    HW2 8886   5.021   6.588   4.981
 2663SOL     OW 8887   3.244   3.861   6.877
 2663SOL    HW1 8888   3.267   3.791   6.809
 2663SOL    HW2 8889   3.146   3.882   6.870
 2664SOL     OW 8890   4.201   4.099   5.494
 2664SOL    HW1 8891   4.176   4.129   5.586
 2664SOL    HW2 8892   4.297   4.120   5.476
 2665SOL     OW 8893   2.453   2.777   5.238
 2665SOL    HW1 8894   2.411   2.754   5.150
 2665SOL    HW2 8895   2.478   2.874   5.239
 2666SOL     OW 8896   5.749   4.340   1.175
 2666SOL    HW1 8897   5.804   4.416   1.211
 2666SOL    HW2 8898   5.806   4.284   1.115
 2667SOL     OW 8899   0.537   6.590   3.742
 2667SOL    HW1 8900   0.516   6.589   3.644
 2667SOL    HW2 8901   0.622   6.640   3.757
 2668SOL     OW 8902   0.019   3.059   4.778
 2668SOL    HW1 8903   0.035   2.974   4.728
 2668SOL    HW2 8904   0.067   3.135   4.734
 2669SOL     OW 8905   2.702   4.376   5.324
 2669SOL    HW1 8906   2.773   4.404   5.260
 2669SOL    HW2 8907   2.703   4.436   5.404
 2670SOL     OW 8908   6.050   3.307   6.304
 2670SOL    HW1 8909   6.092   3.386   6.350
 2670SOL    HW2 8910   6.119   3.236   6.290
 2671SOL     OW 8911   4.415   5.539   5.665
 2671SOL    HW1 8912   4.348   5.595   5.714
 2671SOL    HW2 8913   4.506   5.580   5.674
 2672SOL     OW 8914   1.656   5.169   0.924
 2672SOL    HW1 8915   1.564   5.194   0.951
 2672SOL    HW2 8916   1.719   5.181   1.001
 2673SOL     OW 8917   6.128   0.691   3.450
 2673SOL    HW1 8918   6.089   0.642   3.528
 2673SOL    HW2 8919   6.055   0.737   3.399
 2674SOL     OW 8920   1.402   4.429   3.646
 2674SOL    HW1 8921   1.497   4.459   3.657
 2674SOL    HW2 8922   1.400   4.336   3.611
 2675SOL     OW 8923   6.657   5.469   3.568
 2675SOL    HW1 8924   6.625   5.559   3.597
 2675SOL    HW2 8925   6.579   5.416   3.533
 2676SOL     OW 8926   4.193   2.713   0.595
 2676SOL    HW1 8927   4.144   2.793   0.630
 2676SOL    HW2 8928   4.155   2.630   0.635
 2677SOL     OW 8929   3.061   3.391   0.293
 2677SOL    HW1 8930   3.148   3.436   0.316
 2677SOL    HW2 8931   3.065   3.295   0.319
 2678SOL     OW 8932   0.378   2.860   1.503
 2678SOL    HW1 8933   0.471   2.895   1.518
 2678SOL    HW2 8934   0.383   2.772   1.458
 2679SOL     OW 8935   3.110   4.621   0.906
 2679SOL    HW1 8936   3.052   4.702   0.915
 2679SOL    HW2 8937   3.156   4.623   0.817
 2680SOL     OW 8938   0.891   1.652   0.655
 2680SOL    HW1 8939   0.811   1.710   0.668
 2680SOL    HW2 8940   0.897   1.584   0.728
 2681SOL     OW 8941   1.364   2.642   4.117
 2681SOL    HW1 8942   1.417   2.580   4.059
 2681SOL    HW2 8943   1.268   2.614   4.116
 2682SOL     OW 8944   4.914   4.218   2.492
 2682SOL    HW1 8945   4.924   4.179   2.584
 2682SOL    HW2 8946   4.920   4.144   2.424
 2683SOL     OW 8947   2.514   4.929   1.487
 2683SOL    HW1 8948   2.558   4.915   1.576
 2683SOL    HW2 8949   2.422   4.966   1.501
 2684SOL     OW 8950   4.149   5.599   1.297
 2684SOL    HW1 8951   4.149   5.681   1.241
 2684SOL    HW2 8952   4.064   5.548   1.281
 2685SOL     OW 8953   6.179   6.421   6.509
 2685SOL    HW1 8954   6.152   6.507   6.551
 2685SOL    HW2 8955   6.113   6.397   6.437
 2686SOL     OW 8956   1.801   1.717   5.745
 2686SOL    HW1 8957   1.881   1.683   5.795
 2686SOL    HW2 8958   1.827   1.797   5.691
 2687SOL     OW 8959   4.615   4.562   2.266
 2687SOL    HW1 8960   4.668   4.529   2.343
 2687SOL    HW2 8961   4.536   4.503   2.252
 2688SOL     OW 8962   3.859   4.225   6.882
 2688SOL    HW1 8963   3.889   4.289   6.811
 2688SOL    HW2 8964   3.808   4.274   6.952
 2689SOL     OW 8965   1.768   4.219   3.424
 2689SOL    HW1 8966   1.678   4.215   3.468
 2689SOL    HW2 8967   1.790   4.131   3.384
 2690SOL     OW 8968   3.274   3.404   4.037
 2690SOL    HW1 8969   3.252   3.491   4.080
 2690SOL    HW2 8970   3.369   3.407   4.004
 2691SOL     OW 8971   1.621   5.414   2.369
 2691SOL    HW1 8972   1.718   5.432   2.354
 2691SOL    HW2 8973   1.568   5.451   2.293
 2692SOL     OW 8974   3.465   5.316   2.954
 2692SOL    HW1 8975   3.405   5.270   2.889
 2692SOL    HW2 8976   3.535   5.253   2.986
 2693SOL     OW 8977   2.330   5.356   2.953
 2693SOL    HW1 8978   2.407   5.369   2.891
 2693SOL    HW2 8979   2.343   5.412   3.034
 2694SOL     OW 8980   3.839   6.083   3.226
 2694SOL    HW1 8981   3.908   6.029   3.275
 2694SOL    HW2 8982   3.775   6.021   3.179
 2695SOL     OW 8983   5.407   0.350   2.700
 2695SOL    HW1 8984   5.397   0.307   2.610
 2695SOL    HW2 8985   5.370   0.443   2.696
 2696SOL     OW 8986   3.730   3.679   5.383
 2696SOL    HW1 8987   3.757   3.767   5.422
 2696SOL    HW2 8988   3.764   3.673   5.289
 2697SOL     OW 8989   3.156   1.673   2.521
 2697SOL    HW1 8990   3.061   1.696   2.502
 2697SOL    HW2 8991   3.182   1.709   2.610
 2698SOL     OW 8992   2.157   6.600   0.093
 2698SOL    HW1 8993   2.166   6.699   0.101
 2698SOL    HW2 8994   2.166   6.559   0.184
 2699SOL     OW 8995   2.767   6.868   0.443
 2699SOL    HW1 8996   2.675   6.855   0.481
 2699SOL    HW2 8997   2.793   6.787   0.391
 2700SOL     OW 8998   2.221   3.840   0.316
 2700SOL    HW1 8999   2.194   3.909   0.249
 2700SOL    HW2 9000   2.259   3.760   0.268
 2701SOL     OW 9001   5.624   1.472   6.062
 2701SOL    HW1 9002   5.555   1.541   6.046
 2701SOL    HW2 9003   5.630   1.412   5.983
 2702SOL     OW 9004   0.773   3.014   3.375
 2702SOL    HW1 9005   0.803   3.106   3.349
 2702SOL    HW2 9006   0.824   2.983   3.455
 2703SOL     OW 9007   1.580   0.085   1.173
 2703SOL    HW1 9008   1.575   0.032   1.088
 2703SOL    HW2 9009   1.495   0.074   1.224
 2704SOL     OW 9010   6.883   5.594   1.232
 2704SOL    HW1 9011   6.871   5.525   1.303
 2704SOL    HW2 9012   6.794   5.621   1.196
 2705SOL     OW 9013   6.756   5.704   4.640
 2705SOL    HW1 9014   6.731   5.771   4.709
 2705SOL    HW2 9015   6.766   5.750   4.551
 2706SOL     OW 9016   0.330   6.260   1.887
 2706SOL    HW1 9017   0.343   6.324   1.811
 2706SOL    HW2 9018   0.366   6.170   1.861
 2707SOL     OW 9019   3.874   6.821   4.236
 2707SOL    HW1 9020   3.845   6.743   4.180
 2707SOL    HW2 9021   3.795   6.863   4.279
 2708SOL     OW 9022   0.251   2.382   0.006
 2708SOL    HW1 9023   0.291   2.335   0.084
 2708SOL    HW2 9024   0.324   2.423   6.971
 2709SOL     OW 9025   6.193   6.868   0.083
 2709SOL    HW1 9026   6.119   6.935   0.093
 2709SOL    HW2 9027   6.238   6.854   0.172
 2710SOL     OW 9028   1.412   3.907   3.493
 2710SOL    HW1 9029   1.459   3.851   3.561
 2710SOL    HW2 9030   1.355   3.849   3.435
 2711SOL     OW 9031   2.635   0.788   3.687
 2711SOL    HW1 9032   2.639   0.884   3.714
 2711SOL    HW2 9033   2.659   0.731   3.766
 2712SOL     OW 9034   2.731   4.488   1.006
 2712SOL    HW1 9035   2.814   4.437   0.984
 2712SOL    HW2 9036   2.665   4.427   1.050
 2713SOL     OW 9037   2.538   2.432   4.564
 2713SOL    HW1 9038   2.525   2.486   4.481
 2713SOL    HW2 9039   2.476   2.465   4.635
 2714SOL     OW 9040   3.817   2.422   0.709
 2714SOL    HW1 9041   3.883   2.354   0.740
 2714SOL    HW2 9042   3.769   2.388   0.628
 2715SOL     OW 9043   4.896   1.910   0.933
 2715SOL    HW1 9044   4.967   1.853   0.973
 2715SOL    HW2 9045   4.866   1.978   0.999
 2716SOL     OW 9046   5.257   4.015   2.294
 2716SOL    HW1 9047   5.240   4.113   2.287
 2716SOL    HW2 9048   5.180   3.965   2.254
 2717SOL     OW 9049   0.964   6.264   2.422
 2717SOL    HW1 9050   0.969   6.275   2.323
 2717SOL    HW2 9051   0.914   6.181   2.444
 2718SOL     OW 9052   2.109   2.001   4.777
 2718SOL    HW1 9053   2.052   2.081   4.758
 2718SOL    HW2 9054   2.075   1.954   4.858
 2719SOL     OW 9055   6.771   5.290   0.802
 2719SOL    HW1 9056   6.752   5.343   0.719
 2719SOL    HW2 9057   6.768   5.350   0.882
 2720SOL     OW 9058   2.055   6.257   1.979
 2720SOL    HW1 9059   2.131   6.192   1.978
 2720SOL    HW2 9060   2.060   6.312   2.062
 2721SOL     OW 9061   2.492   0.283   3.321
 2721SOL    HW1 9062   2.513   0.381   3.318
 2721SOL    HW2 9063   2.516   0.240   3.234
 2722SOL     OW 9064   6.791   5.485   0.999
 2722SOL    HW1 9065   6.828   5.547   0.929
 2722SOL    HW2 9066   6.857   5.476   1.073
 2723SOL     OW 9067   0.594   6.999   6.068
 2723SOL    HW1 9068   0.693   6.988   6.074
 2723SOL    HW2 9069   0.551   6.967   6.153
 2724SOL     OW 9070   1.857   6.708   0.039
 2724SOL    HW1 9071   1.803   6.783   0.078
 2724SOL    HW2 9072   1.943   6.744   0.002
 2725SOL     OW 9073   5.376   5.407   4.252
 2725SOL    HW1 9074   5.314   5.433   4.326
 2725SOL    HW2 9075   5.384   5.483   4.188
 2726SOL     OW 9076   6.939   2.814   1.091
 2726SOL    HW1 9077   7.015   2.769   1.139
 2726SOL    HW2 9078   6.976   2.882   1.027
 2727SOL     OW 9079   0.259   5.075   2.803
 2727SOL    HW1 9080   0.317   5.154   2.783
 2727SOL    HW2 9081   0.282   5.039   2.893
 2728SOL     OW 9082   4.828   6.515   5.834
 2728SOL    HW1 9083   4.805   6.418   5.845
 2728SOL    HW2 9084   4.808   6.564   5.919
 2729SOL     OW 9085   0.034   5.938   0.954
 2729SOL    HW1 9086   0.008   6.002   1.027
 2729SOL    HW2 9087   0.067   5.988   0.875
 2730SOL     OW 9088   1.527   5.775   1.476
 2730SOL    HW1 9089   1.524   5.874   1.481
 2730SOL    HW2 9090   1.538   5.746   1.381
 2731SOL     OW 9091   3.951   3.713   3.042
 2731SOL    HW1 9092   3.923   3.774   2.968
 2731SOL    HW2 9093   4.018   3.647   3.008
 2732SOL     OW 9094   5.608   2.162   1.610
 2732SOL    HW1 9095   5.584   2.117   1.524
 2732SOL    HW2 9096   5.567   2.111   1.686
 2733SOL     OW 9097   6.699   0.759   4.814
 2733SOL    HW1 9098   6.781   0.781   4.867
 2733SOL    HW2 9099   6.618   0.779   4.869
 2734SOL     OW 9100   2.817   5.928   1.214
 2734SOL    HW1 9101   2.880   5.902   1.288
 2734SOL    HW2 9102   2.796   6.025   1.221
 2735SOL     OW 9103   1.422   3.307   2.473
 2735SOL    HW1 9104   1.328   3.332   2.495
 2735SOL    HW2 9105   1.485   3.366   2.522
 2736SOL     OW 9106   4.719   6.765   5.451
 2736SOL    HW1 9107   4.733   6.800   5.359
 2736SOL    HW2 9108   4.631   6.716   5.455
 2737SOL     OW 9109   3.256   3.760   6.176
 2737SOL    HW1 9110   3.171   3.739   6.224
 2737SOL    HW2 9111   3.297   3.675   6.143
 2738SOL     OW 9112   5.007   6.239   2.464
 2738SOL    HW1 9113   4.920   6.191   2.459
 2738SOL    HW2 9114   5.043   6.233   2.557
 2739SOL     OW 9115   6.848   5.106   1.516
 2739SOL    HW1 9116   6.813   5.054   1.438
 2739SOL    HW2 9117   6.938   5.069   1.542
 2740SOL     OW 9118   6.805   3.773   2.370
 2740SOL    HW1 9119   6.803   3.872   2.382
 2740SOL    HW2 9120   6.878   3.749   2.306
 2741SOL     OW 9121   6.293   0.232   4.924
 2741SOL    HW1 9122   6.226   0.291   4.969
 2741SOL    HW2 9123   6.354   0.288   4.868
 2742SOL     OW 9124   2.657   5.556   6.593
 2742SOL    HW1 9125   2.593   5.492   6.550
 2742SOL    HW2 9126   2.745   5.512   6.607
 2743SOL     OW 9127   6.926   5.161   1.909
 2743SOL    HW1 9128   6.894   5.107   1.988
 2743SOL    HW2 9129   6.967   5.246   1.942
 2744SOL     OW 9130   5.340   2.012   6.238
 2744SOL    HW1 9131   5.370   1.939   6.176
 2744SOL    HW2 9132   5.414   2.078   6.249
 2745SOL     OW 9133   6.749   6.744   5.825
 2745SOL    HW1 9134   6.785   6.652   5.807
 2745SOL    HW2 9135   6.727   6.753   5.922
 2746SOL     OW 9136   2.516   2.040   3.614
 2746SOL    HW1 9137   2.416   2.040   3.609
 2746SOL    HW2 9138   2.549   2.131   3.639
 2747SOL     OW 9139   6.292   3.790   6.475
 2747SOL    HW1 9140   6.391   3.809   6.475
 2747SOL    HW2 9141   6.253   3.820   6.388
 2748SOL     OW 9142   5.206   1.243   1.176
 2748SOL    HW1 9143   5.132   1.182   1.203
 2748SOL    HW2 9144   5.293   1.208   1.212
 2749SOL     OW 9145   6.888   5.006   2.139
 2749SOL    HW1 9146   6.931   5.020   2.228
 2749SOL    HW2 9147   6.885   4.908   2.119
 2750SOL     OW 9148   0.852   5.288   1.200
 2750SOL    HW1 9149   0.760   5.253   1.182
 2750SOL    HW2 9150   0.901   5.226   1.261
 2751SOL     OW 9151   1.086   5.772   1.706
 2751SOL    HW1 9152   1.014   5.711   1.673
 2751SOL    HW2 9153   1.175   5.727   1.698
 2752SOL     OW 9154   4.128   5.313   5.943
 2752SOL    HW1 9155   4.075   5.259   5.879
 2752SOL    HW2 9156   4.223   5.281   5.942
 2753SOL     OW 9157   0.484   6.186   5.391
 2753SOL    HW1 9158   0.490   6.234   5.304
 2753SOL    HW2 9159   0.529   6.097   5.383
 2754SOL     OW 9160   0.491   0.807   2.797
 2754SOL    HW1 9161   0.398   0.835   2.773
 2754SOL    HW2 9162   0.488   0.726   2.855
 2755SOL     OW 9163   2.239   6.827   3.093
 2755SOL    HW1 9164   2.241   6.735   3.054
 2755SOL    HW2 9165   2.262   6.823   3.190
 2756SOL     OW 9166   6.056   4.745   6.631
 2756SOL    HW1 9167   5.972   4.694   6.611
 2756SOL    HW2 9168   6.114   4.747   6.550
 2757SOL     OW 9169   2.803   0.635   6.705
 2757SOL    HW1 9170   2.835   0.721   6.745
 2757SOL    HW2 9171   2.852   0.558   6.745
 2758SOL     OW 9172   4.477   6.520   3.760
 2758SOL    HW1 9173   4.427   6.596   3.803
 2758SOL    HW2 9174   4.426   6.488   3.680
 2759SOL     OW 9175   5.042   5.785   5.178
 2759SOL    HW1 9176   4.998   5.710   5.128
 2759SOL    HW2 9177   5.126   5.751   5.221
 2760SOL     OW 9178   0.360   5.887   2.708
 2760SOL    HW1 9179   0.340   5.807   2.652
 2760SOL    HW2 9180   0.274   5.928   2.740
 2761SOL     OW 9181   1.727   4.597   4.938
 2761SOL    HW1 9182   1.781   4.618   4.856
 2761SOL    HW2 9183   1.763   4.515   4.983
 2762SOL     OW 9184   2.107   0.241   6.182
 2762SOL    HW1 9185   2.129   0.185   6.102
 2762SOL    HW2 9186   2.053   0.320   6.155
 2763SOL     OW 9187   4.823   2.164   4.346
 2763SOL    HW1 9188   4.761   2.150   4.269
 2763SOL    HW2 9189   4.865   2.255   4.339
 2764SOL     OW 9190   6.519   1.233   1.310
 2764SOL    HW1 9191   6.527   1.271   1.402
 2764SOL    HW2 9192   6.609   1.203   1.279
 2765SOL     OW 9193   6.610   0.145   0.211
 2765SOL    HW1 9194   6.667   0.222   0.183
 2765SOL    HW2 9195   6.530   0.139   0.152
 2766SOL     OW 9196   5.157   2.653   0.557
 2766SOL    HW1 9197   5.176   2.707   0.639
 2766SOL    HW2 9198   5.241   2.609   0.526
 2767SOL     OW 9199   6.607   4.831   0.271
 2767SOL    HW1 9200   6.566   4.785   0.350
 2767SOL    HW2 9201   6.673   4.899   0.302
 2768SOL     OW 9202   4.395   0.482   1.113
 2768SOL    HW1 9203   4.492   0.459   1.110
 2768SOL    HW2 9204   4.382   0.579   1.091
 2769SOL     OW 9205   1.915   4.556   5.886
 2769SOL    HW1 9206   1.891   4.486   5.820
 2769SOL    HW2 9207   2.013   4.550   5.907
 2770SOL     OW 9208   4.290   5.745   5.938
 2770SOL    HW1 9209   4.317   5.759   6.033
 2770SOL    HW2 9210   4.262   5.833   5.898
 2771SOL     OW 9211   6.223   0.745   3.813
 2771SOL    HW1 9212   6.151   0.773   3.876
 2771SOL    HW2 9213   6.224   0.646   3.805
 2772SOL     OW 9214   4.112   2.039   0.514
 2772SOL    HW1 9215   4.045   2.109   0.490
 2772SOL    HW2 9216   4.204   2.072   0.493
 2773SOL     OW 9217   6.113   1.628   4.709
 2773SOL    HW1 9218   6.196   1.679   4.688
 2773SOL    HW2 9219   6.109   1.545   4.654
 2774SOL     OW 9220   5.242   2.632   2.975
 2774SOL    HW1 9221   5.255   2.600   3.068
 2774SOL    HW2 9222   5.144   2.642   2.956
 2775SOL     OW 9223   6.565   4.040   5.262
 2775SOL    HW1 9224   6.649   4.079   5.225
 2775SOL    HW2 9225   6.586   3.954   5.309
 2776SOL     OW 9226   4.675   4.635   6.126
 2776SOL    HW1 9227   4.677   4.688   6.041
 2776SOL    HW2 9228   4.626   4.549   6.110
 2777SOL     OW 9229   2.697   1.770   1.427
 2777SOL    HW1 9230   2.618   1.794   1.483
 2777SOL    HW2 9231   2.771   1.738   1.486
 2778SOL     OW 9232   1.853   6.895   5.320
 2778SOL    HW1 9233   1.833   6.966   5.252
 2778SOL    HW2 9234   1.829   6.806   5.282
 2779SOL     OW 9235   5.161   6.571   2.148
 2779SOL    HW1 9236   5.221   6.564   2.228
 2779SOL    HW2 9237   5.216   6.569   2.065
 2780SOL     OW 9238   0.870   6.896   0.204
 2780SOL    HW1 9239   0.795   6.893   0.138
 2780SOL    HW2 9240   0.832   6.897   0.296
 2781SOL     OW 9241   5.920   0.231   2.072
 2781SOL    HW1 9242   6.004   0.188   2.038
 2781SOL    HW2 9243   5.919   0.227   2.172
 2782SOL     OW 9244   4.575   1.183   5.255
 2782SOL    HW1 9245   4.475   1.179   5.249
 2782SOL    HW2 9246   4.605   1.278   5.250
 2783SOL     OW 9247   5.019   3.992   2.648
 2783SOL    HW1 9248   5.074   3.958   2.725
 2783SOL    HW2 9249   5.070   3.981   2.563
 2784SOL     OW 9250   3.215   1.477   2.205
 2784SOL    HW1 9251   3.293   1.538   2.218
 2784SOL    HW2 9252   3.213   1.444   2.111
 2785SOL     OW 9253   5.382   2.497   0.872
 2785SOL    HW1 9254   5.379   2.589   0.913
 2785SOL    HW2 9255   5.366   2.504   0.774
 2786SOL     OW 9256   4.638   6.733   2.895
 2786SOL    HW1 9257   4.722   6.786   2.890
 2786SOL    HW2 9258   4.637   6.665   2.822
 2787SOL     OW 9259   5.559   0.249   5.993
 2787SOL    HW1 9260   5.558   0.259   6.092
 2787SOL    HW2 9261   5.576   0.338   5.951
 2788SOL     OW 9262   1.584   5.673   5.951
 2788SOL    HW1 9263   1.637   5.725   6.019
 2788SOL    HW2 9264   1.645   5.638   5.881
 2789SOL     OW 9265   1.401   2.183   3.945
 2789SOL    HW1 9266   1.343   2.255   3.907
 2789SOL    HW2 9267   1.369   2.094   3.911
 2790SOL     OW 9268   3.507   5.669   2.034
 2790SOL    HW1 9269   3.518   5.576   1.999
 2790SOL    HW2 9270   3.417   5.679   2.077
 2791SOL     OW 9271   0.762   2.556   2.786
 2791SOL    HW1 9272   0.713   2.595   2.708
 2791SOL    HW2 9273   0.716   2.584   2.871
 2792SOL     OW 9274   1.719   0.558   3.908
 2792SOL    HW1 9275   1.762   0.471   3.934
 2792SOL    HW2 9276   1.775   0.634   3.942
 2793SOL     OW 9277   5.069   3.755   1.532
 2793SOL    HW1 9278   5.054   3.741   1.630
 2793SOL    HW2 9279   5.152   3.808   1.518
 2794SOL     OW 9280   0.077   1.769   6.176
 2794SOL    HW1 9281   0.022   1.766   6.260
 2794SOL    HW2 9282   0.092   1.864   6.149
 2795SOL     OW 9283   0.588   3.432   0.537
 2795SOL    HW1 9284   0.616   3.482   0.618
 2795SOL    HW2 9285   0.620   3.338   0.542
 2796SOL     OW 9286   0.410   6.523   3.123
 2796SOL    HW1 9287   0.318   6.558   3.108
 2796SOL    HW2 9288   0.404   6.435   3.171
 2797SOL     OW 9289   5.263   5.475   4.549
 2797SOL    HW1 9290   5.183   5.471   4.489
 2797SOL    HW2 9291   5.233   5.470   4.644
 2798SOL     OW 9292   6.862   5.402   2.051
 2798SOL    HW1 9293   6.794   5.362   1.989
 2798SOL    HW2 9294   6.842   5.374   2.145
 2799SOL     OW 9295   5.980   5.501   5.718
 2799SOL    HW1 9296   6.017   5.411   5.695
 2799SOL    HW2 9297   6.053   5.558   5.756
 2800SOL     OW 9298   4.607   6.216   6.624
 2800SOL    HW1 9299   4.703   6.201   6.646
 2800SOL    HW2 9300   4.581   6.157   6.547
 2801SOL     OW 9301   6.877   5.591   5.556
 2801SOL    HW1 9302   6.839   5.567   5.467
 2801SOL    HW2 9303   6.834   5.675   5.589
 2802SOL     OW 9304   5.404   6.097   5.662
 2802SOL    HW1 9305   5.416   6.017   5.604
 2802SOL    HW2 9306   5.384   6.177   5.605
 2803SOL     OW 9307   4.325   5.429   6.440
 2803SOL    HW1 9308   4.291   5.343   6.478
 2803SOL    HW2 9309   4.386   5.410   6.364
 2804SOL     OW 9310   0.277   4.480   5.507
 2804SOL    HW1 9311   0.246   4.565   5.549
 2804SOL    HW2 9312   0.281   4.491   5.408
 2805SOL     OW 9313   6.038   3.554   2.350
 2805SOL    HW1 9314   6.035   3.459   2.319
 2805SOL    HW2 9315   6.066   3.556   2.446
 2806SOL     OW 9316   0.700   4.291   5.232
 2806SOL    HW1 9317   0.628   4.282   5.301
 2806SOL    HW2 9318   0.788   4.302   5.278
 2807SOL     OW 9319   3.313   6.889   4.386
 2807SOL    HW1 9320   3.344   6.855   4.297
 2807SOL    HW2 9321   3.269   6.816   4.437
 2808SOL     OW 9322   6.645   4.914   1.851
 2808SOL    HW1 9323   6.653   4.986   1.782
 2808SOL    HW2 9324   6.580   4.943   1.921
 2809SOL     OW 9325   5.295   2.772   0.994
 2809SOL    HW1 9326   5.348   2.846   1.037
 2809SOL    HW2 9327   5.221   2.745   1.056
 2810SOL     OW 9328   3.073   5.752   2.927
 2810SOL    HW1 9329   2.974   5.763   2.932
 2810SOL    HW2 9330   3.117   5.811   2.995
 2811SOL     OW 9331   1.163   2.082   4.211
 2811SOL    HW1 9332   1.098   2.104   4.138
 2811SOL    HW2 9333   1.255   2.108   4.182
 2812SOL     OW 9334   5.107   2.931   6.828
 2812SOL    HW1 9335   5.115   2.883   6.915
 2812SOL    HW2 9336   5.021   2.980   6.824
 2813SOL     OW 9337   0.752   0.691   6.513
 2813SOL    HW1 9338   0.775   0.618   6.447
 2813SOL    HW2 9339   0.677   0.661   6.571
 2814SOL     OW 9340   3.547   3.910   5.682
 2814SOL    HW1 9341   3.573   3.952   5.595
 2814SOL    HW2 9342   3.610   3.837   5.705
 2815SOL     OW 9343   6.741   5.719   6.590
 2815SOL    HW1 9344   6.760   5.748   6.496
 2815SOL    HW2 9345   6.685   5.636   6.588
 2816SOL     OW 9346   6.352   5.934   3.711
 2816SOL    HW1 9347   6.278   5.998   3.689
 2816SOL    HW2 9348   6.375   5.881   3.630
 2817SOL     OW 9349   3.055   6.934   1.922
 2817SOL    HW1 9350   3.022   6.918   2.015
 2817SOL    HW2 9351   3.121   7.009   1.922
 2818SOL     OW 9352   0.592   0.411   2.172
 2818SOL    HW1 9353   0.492   0.408   2.166
 2818SOL    HW2 9354   0.620   0.497   2.216
 2819SOL     OW 9355   2.277   0.809   1.675
 2819SOL    HW1 9356   2.340   0.866   1.727
 2819SOL    HW2 9357   2.235   0.864   1.603
 2820SOL     OW 9358   0.933   2.205   3.627
 2820SOL    HW1 9359   0.914   2.154   3.543
 2820SOL    HW2 9360   1.015   2.261   3.614
 2821SOL     OW 9361   3.509   4.572   6.153
 2821SOL    HW1 9362   3.522   4.611   6.062
 2821SOL    HW2 9363   3.552   4.482   6.157
 2822SOL     OW 9364   3.828   1.921   0.528
 2822SOL    HW1 9365   3.902   1.955   0.587
 2822SOL    HW2 9366   3.743   1.968   0.552
 2823SOL     OW 9367   5.430   0.781   1.061
 2823SOL    HW1 9368   5.381   0.786   1.148
 2823SOL    HW2 9369   5.384   0.841   0.995
 2824SOL     OW 9370   2.344   1.321   4.370
 2824SOL    HW1 9371   2.335   1.417   4.344
 2824SOL    HW2 9372   2.438   1.290   4.353
 2825SOL     OW 9373   4.890   6.212   6.706
 2825SOL    HW1 9374   4.942   6.126   6.704
 2825SOL    HW2 9375   4.948   6.287   6.673
 2826SOL     OW 9376   4.816   1.524   6.660
 2826SOL    HW1 9377   4.735   1.578   6.681
 2826SOL    HW2 9378   4.851   1.481   6.743
 2827SOL     OW 9379   0.421   1.485   6.585
 2827SOL    HW1 9380   0.347   1.498   6.519
 2827SOL    HW2 9381   0.408   1.548   6.662
 2828SOL     OW 9382   2.394   2.311   0.196
 2828SOL    HW1 9383   2.432   2.224   0.228
 2828SOL    HW2 9384   2.294   2.304   0.194
 2829SOL     OW 9385   3.219   3.052   4.355
 2829SOL    HW1 9386   3.250   3.011   4.441
 2829SOL    HW2 9387   3.292   3.109   4.317
 2830SOL     OW 9388   3.316   4.235   5.334
 2830SOL    HW1 9389   3.289   4.173   5.408
 2830SOL    HW2 9390   3.238   4.250   5.273
 2831SOL     OW 9391   0.839   3.989   3.285
 2831SOL    HW1 9392   0.765   4.014   3.348
 2831SOL    HW2 9393   0.922   3.970   3.336
 2832SOL     OW 9394   0.985   2.890   1.715
 2832SOL    HW1 9395   1.075   2.865   1.680
 2832SOL    HW2 9396   0.920   2.816   1.699
 2833SOL     OW 9397   2.613   1.750   2.477
 2833SOL    HW1 9398   2.529   1.752   2.423
 2833SOL    HW2 9399   2.669   1.830   2.455
 2834SOL     OW 9400   4.143   6.578   5.852
 2834SOL    HW1 9401   4.172   6.673   5.842
 2834SOL    HW2 9402   4.223   6.519   5.860
 2835SOL     OW 9403   0.600   6.329   1.529
 2835SOL    HW1 9404   0.515   6.347   1.580
 2835SOL    HW2 9405   0.592   6.366   1.437
 2836SOL     OW 9406   0.561   6.413   2.003
 2836SOL    HW1 9407   0.531   6.367   2.087
 2836SOL    HW2 9408   0.582   6.344   1.933
 2837SOL     OW 9409   4.710   4.376   2.449
 2837SOL    HW1 9410   4.693   4.419   2.538
 2837SOL    HW2 9411   4.776   4.301   2.460
 2838SOL     OW 9412   3.861   4.021   0.937
 2838SOL    HW1 9413   3.893   4.033   0.843
 2838SOL    HW2 9414   3.773   4.067   0.948
 2839SOL     OW 9415   0.135   2.302   3.095
 2839SOL    HW1 9416   0.130   2.230   3.025
 2839SOL    HW2 9417   0.059   2.292   3.158
 2840SOL     OW 9418   2.015   0.259   1.880
 2840SOL    HW1 9419   1.916   0.269   1.873
 2840SOL    HW2 9420   2.043   0.172   1.840
 2841SOL     OW 9421   6.491   1.500   6.109
 2841SOL    HW1 9422   6.445   1.581   6.071
 2841SOL    HW2 9423   6.503   1.432   6.036
 2842SOL     OW 9424   6.990   4.526   4.109
 2842SOL    HW1 9425   0.065   4.544   4.135
 2842SOL    HW2 9426   6.941   4.612   4.100
 2843SOL     OW 9427   2.190   2.176   3.152
 2843SOL    HW1 9428   2.123   2.243   3.118
 2843SOL    HW2 9429   2.228   2.125   3.076
 2844SOL     OW 9430   6.310   5.257   6.922
 2844SOL    HW1 9431   6.224   5.306   6.935
 2844SOL    HW2 9432   6.311   5.176   6.981
 2845SOL     OW 9433   5.891   3.371   2.507
 2845SOL    HW1 9434   5.917   3.302   2.440
 2845SOL    HW2 9435   5.791   3.375   2.514
 2846SOL     OW 9436   3.784   0.628   0.289
 2846SOL    HW1 9437   3.743   0.664   0.373
 2846SOL    HW2 9438   3.856   0.691   0.257
 2847SOL     OW 9439   5.383   4.151   2.869
 2847SOL    HW1 9440   5.334   4.229   2.831
 2847SOL    HW2 9441   5.473   4.181   2.901
 2848SOL     OW 9442   1.826   2.412   5.092
 2848SOL    HW1 9443   1.904   2.442   5.038
 2848SOL    HW2 9444   1.828   2.312   5.102
 2849SOL     OW 9445   4.177   0.584   0.685
 2849SOL    HW1 9446   4.162   0.508   0.748
 2849SOL    HW2 9447   4.275   0.593   0.666
 2850SOL     OW 9448   2.000   7.017   2.332
 2850SOL    HW1 9449   2.064   0.022   2.405
 2850SOL    HW2 9450   1.933   6.952   2.368
 2851SOL     OW 9451   5.600   2.204   5.879
 2851SOL    HW1 9452   5.512   2.157   5.886
 2851SOL    HW2 9453   5.659   2.176   5.954
 2852SOL     OW 9454   6.921   4.253   6.524
 2852SOL    HW1 9455   6.949   4.339   6.481
 2852SOL    HW2 9456   6.849   4.211   6.468
 2853SOL     OW 9457   2.018   1.996   5.948
 2853SOL    HW1 9458   2.016   2.089   5.912
 2853SOL    HW2 9459   2.059   1.935   5.880
 2854SOL     OW 9460   4.559   1.036   5.767
 2854SOL    HW1 9461   4.628   0.964   5.753
 2854SOL    HW2 9462   4.589   1.097   5.840
 2855SOL     OW 9463   2.054   1.580   5.776
 2855SOL    HW1 9464   2.058   1.679   5.771
 2855SOL    HW2 9465   2.146   1.543   5.788
 2856SOL     OW 9466   0.627   3.515   5.535
 2856SOL    HW1 9467   0.578   3.461   5.467
 2856SOL    HW2 9468   0.668   3.454   5.602
 2857SOL     OW 9469   1.431   2.722   1.555
 2857SOL    HW1 9470   1.450   2.628   1.527
 2857SOL    HW2 9471   1.481   2.743   1.638
 2858SOL     OW 9472   4.417   4.970   2.071
 2858SOL    HW1 9473   4.480   5.048   2.069
 2858SOL    HW2 9474   4.470   4.885   2.079
 2859SOL     OW 9475   6.429   6.554   0.322
 2859SOL    HW1 9476   6.501   6.485   0.313
 2859SOL    HW2 9477   6.369   6.528   0.397
 2860SOL     OW 9478   2.115   1.535   1.723
 2860SOL    HW1 9479   2.078   1.534   1.816
 2860SOL    HW2 9480   2.086   1.618   1.676
 2861SOL     OW 9481   3.264   5.229   6.170
 2861SOL    HW1 9482   3.247   5.188   6.081
 2861SOL    HW2 9483   3.221   5.319   6.174
 2862SOL     OW 9484   4.394   1.786   2.093
 2862SOL    HW1 9485   4.305   1.826   2.069
 2862SOL    HW2 9486   4.390   1.687   2.083
 2863SOL     OW 9487   4.369   1.496   6.850
 2863SOL    HW1 9488   4.302   1.433   6.813
 2863SOL    HW2 9489   4.381   1.480   6.948
 2864SOL     OW 9490   4.968   2.238   1.591
 2864SOL    HW1 9491   4.872   2.224   1.617
 2864SOL    HW2 9492   5.023   2.162   1.626
 2865SOL     OW 9493   4.198   6.472   4.514
 2865SOL    HW1 9494   4.159   6.562   4.532
 2865SOL    HW2 9495   4.286   6.464   4.561
 2866SOL     OW 9496   5.447   5.060   6.527
 2866SOL    HW1 9497   5.489   4.994   6.590
 2866SOL    HW2 9498   5.402   5.011   6.452
 2867SOL     OW 9499   5.930   6.383   2.798
 2867SOL    HW1 9500   5.960   6.478   2.801
 2867SOL    HW2 9501   5.922   6.348   2.892
 2868SOL     OW 9502   1.873   1.338   5.687
 2868SOL    HW1 9503   1.929   1.414   5.721
 2868SOL    HW2 9504   1.835   1.362   5.598
 2869SOL     OW 9505   6.947   1.053   2.708
 2869SOL    HW1 9506   6.916   1.112   2.783
 2869SOL    HW2 9507   6.933   0.957   2.734
 2870SOL     OW 9508   0.405   1.825   5.668
 2870SOL    HW1 9509   0.385   1.849   5.763
 2870SOL    HW2 9510   0.335   1.864   5.608
 2871SOL     OW 9511   6.199   0.965   6.763
 2871SOL    HW1 9512   6.132   0.972   6.688
 2871SOL    HW2 9513   6.272   0.903   6.735
 2872SOL     OW 9514   2.482   2.311   1.714
 2872SOL    HW1 9515   2.406   2.375   1.723
 2872SOL    HW2 9516   2.540   2.316   1.795
 2873SOL     OW 9517   6.878   5.897   2.155
 2873SOL    HW1 9518   6.827   5.938   2.080
 2873SOL    HW2 9519   6.893   5.966   2.226
 2874SOL     OW 9520   4.991   0.123   2.886
 2874SOL    HW1 9521   4.952   0.193   2.945
 2874SOL    HW2 9522   5.055   0.067   2.938
 2875SOL     OW 9523   5.453   0.363   1.841
 2875SOL    HW1 9524   5.393   0.374   1.921
 2875SOL    HW2 9525   5.402   0.321   1.766
 2876SOL     OW 9526   2.176   0.666   2.664
 2876SOL    HW1 9527   2.272   0.671   2.691
 2876SOL    HW2 9528   2.161   0.582   2.611
 2877SOL     OW 9529   2.619   1.237   5.293
 2877SOL    HW1 9530   2.585   1.314   5.239
 2877SOL    HW2 9531   2.669   1.271   5.373
 2878SOL     OW 9532   3.894   4.392   5.433
 2878SOL    HW1 9533   3.950   4.388   5.516
 2878SOL    HW2 9534   3.944   4.348   5.358
 2879SOL     OW 9535   5.021   4.950   6.373
 2879SOL    HW1 9536   4.978   5.018   6.313
 2879SOL    HW2 9537   4.967   4.866   6.372
 2880SOL     OW 9538   0.183   1.998   2.724
 2880SOL    HW1 9539   0.191   2.093   2.752
 2880SOL    HW2 9540   0.240   1.982   2.643
 2881SOL     OW 9541   4.239   6.150   6.630
 2881SOL    HW1 9542   4.250   6.092   6.550
 2881SOL    HW2 9543   4.277   6.104   6.710
 2882SOL     OW 9544   0.293   5.594   1.670
 2882SOL    HW1 9545   0.342   5.517   1.629
 2882SOL    HW2 9546   0.196   5.589   1.647
 2883SOL     OW 9547   6.062   0.263   3.611
 2883SOL    HW1 9548   6.124   0.263   3.533
 2883SOL    HW2 9549   6.016   0.351   3.617
 2884SOL     OW 9550   0.579   6.727   3.136
 2884SOL    HW1 9551   0.534   6.788   3.071
 2884SOL    HW2 9552   0.541   6.635   3.127
 2885SOL     OW 9553   1.927   3.972   3.667
 2885SOL    HW1 9554   1.921   4.062   3.623
 2885SOL    HW2 9555   2.022   3.946   3.678
 2886SOL     OW 9556   1.093   2.994   6.321
 2886SOL    HW1 9557   1.150   3.067   6.284
 2886SOL    HW2 9558   1.056   2.940   6.245
 2887SOL     OW 9559   0.422   6.517   5.644
 2887SOL    HW1 9560   0.436   6.547   5.550
 2887SOL    HW2 9561   0.407   6.596   5.703
 2888SOL     OW 9562   6.746   4.503   6.116
 2888SOL    HW1 9563   6.832   4.464   6.151
 2888SOL    HW2 9564   6.737   4.597   6.148
 2889SOL     OW 9565   3.039   6.344   2.531
 2889SOL    HW1 9566   3.112   6.299   2.582
 2889SOL    HW2 9567   2.963   6.280   2.519
 2890SOL     OW 9568   1.285   6.168   0.577
 2890SOL    HW1 9569   1.277   6.133   0.670
 2890SOL    HW2 9570   1.287   6.092   0.513
 2891SOL     OW 9571   0.640   4.819   3.335
 2891SOL    HW1 9572   0.726   4.769   3.343
 2891SOL    HW2 9573   0.587   4.783   3.258
 2892SOL     OW 9574   6.416   3.246   1.135
 2892SOL    HW1 9575   6.317   3.233   1.147
 2892SOL    HW2 9576   6.432   3.320   1.070
 2893SOL     OW 9577   0.240   5.838   4.522
 2893SOL    HW1 9578   0.263   5.865   4.429
 2893SOL    HW2 9579   0.176   5.762   4.520
 2894SOL     OW 9580   0.517   3.128   2.072
 2894SOL    HW1 9581   0.541   3.139   1.976
 2894SOL    HW2 9582   0.585   3.071   2.118
 2895SOL     OW 9583   5.042   1.358   5.455
 2895SOL    HW1 9584   5.085   1.446   5.476
 2895SOL    HW2 9585   5.093   1.313   5.381
 2896SOL     OW 9586   4.471   6.679   5.771
 2896SOL    HW1 9587   4.515   6.617   5.837
 2896SOL    HW2 9588   4.396   6.728   5.816
 2897SOL     OW 9589   3.892   4.821   2.900
 2897SOL    HW1 9590   3.887   4.809   2.999
 2897SOL    HW2 9591   3.806   4.860   2.866
 2898SOL     OW 9592   4.473   4.643   4.180
 2898SOL    HW1 9593   4.457   4.718   4.244
 2898SOL    HW2 9594   4.534   4.675   4.107
 2899SOL     OW 9595   0.426   1.950   0.310
 2899SOL    HW1 9596   0.378   1.867   0.282
 2899SOL    HW2 9597   0.520   1.928   0.334
 2900SOL     OW 9598   2.813   4.022   6.391
 2900SOL    HW1 9599   2.808   3.936   6.340
 2900SOL    HW2 9600   2.728   4.074   6.378
 2901SOL     OW 9601   2.038   4.732   3.021
 2901SOL    HW1 9602   2.066   4.668   3.093
 2901SOL    HW2 9603   1.960   4.785   3.052
 2902SOL     OW 9604   5.954   5.533   3.520
 2902SOL    HW1 9605   5.863   5.529   3.479
 2902SOL    HW2 9606   5.967   5.453   3.578
 2903SOL     OW 9607   3.694   0.310   0.713
 2903SOL    HW1 9608   3.619   0.322   0.647
 2903SOL    HW2 9609   3.691   0.384   0.780
 2904SOL     OW 9610   2.382   4.736   3.966
 2904SOL    HW1 9611   2.452   4.728   3.894
 2904SOL    HW2 9612   2.381   4.652   4.020
 2905SOL     OW 9613   1.606   3.244   4.899
 2905SOL    HW1 9614   1.663   3.239   4.981
 2905SOL    HW2 9615   1.664   3.261   4.819
 2906SOL     OW 9616   4.906   5.042   2.513
 2906SOL    HW1 9617   4.910   4.981   2.433
 2906SOL    HW2 9618   4.813   5.040   2.551
 2907SOL     OW 9619   0.235   1.582   3.659
 2907SOL    HW1 9620   0.172   1.507   3.641
 2907SOL    HW2 9621   0.184   1.668   3.667
 2908SOL     OW 9622   4.947   6.561   3.704
 2908SOL    HW1 9623   4.881   6.606   3.764
 2908SOL    HW2 9624   4.924   6.464   3.697
 2909SOL     OW 9625   1.381   5.507   3.709
 2909SOL    HW1 9626   1.354   5.483   3.802
 2909SOL    HW2 9627   1.480   5.497   3.699
 2910SOL     OW 9628   5.347   1.276   4.277
 2910SOL    HW1 9629   5.367   1.370   4.305
 2910SOL    HW2 9630   5.392   1.256   4.190
 2911SOL     OW 9631   1.507   5.989   3.566
 2911SOL    HW1 9632   1.601   5.994   3.531
 2911SOL    HW2 9633   1.465   5.902   3.537
 2912SOL     OW 9634   5.320   6.656   0.505
 2912SOL    HW1 9635   5.383   6.728   0.476
 2912SOL    HW2 9636   5.285   6.677   0.596
 2913SOL     OW 9637   3.068   5.104   2.150
 2913SOL    HW1 9638   3.134   5.149   2.089
 2913SOL    HW2 9639   3.080   5.005   2.144
 2914SOL     OW 9640   6.662   6.040   6.181
 2914SOL    HW1 9641   6.569   6.057   6.147
 2914SOL    HW2 9642   6.697   6.124   6.223
 2915SOL     OW 9643   3.446   1.820   4.018
 2915SOL    HW1 9644   3.476   1.770   3.936
 2915SOL    HW2 9645   3.357   1.861   4.001
 2916SOL     OW 9646   1.419   5.713   0.466
 2916SOL    HW1 9647   1.372   5.656   0.398
 2916SOL    HW2 9648   1.507   5.671   0.490
 2917SOL     OW 9649   2.471   0.587   3.131
 2917SOL    HW1 9650   2.435   0.499   3.099
 2917SOL    HW2 9651   2.412   0.622   3.204
 2918SOL     OW 9652   6.281   4.692   5.188
 2918SOL    HW1 9653   6.351   4.630   5.225
 2918SOL    HW2 9654   6.190   4.657   5.211
 2919SOL     OW 9655   5.605   0.607   2.405
 2919SOL    HW1 9656   5.536   0.552   2.451
 2919SOL    HW2 9657   5.673   0.638   2.471
 2920SOL     OW 9658   3.449   1.017   1.403
 2920SOL    HW1 9659   3.386   1.093   1.385
 2920SOL    HW2 9660   3.506   1.001   1.322
 2921SOL     OW 9661   0.680   6.742   4.556
 2921SOL    HW1 9662   0.582   6.731   4.576
 2921SOL    HW2 9663   0.726   6.654   4.566
 2922SOL     OW 9664   4.557   0.098   1.136
 2922SOL    HW1 9665   4.493   0.137   1.069
 2922SOL    HW2 9666   4.638   0.156   1.144
 2923SOL     OW 9667   6.133   4.888   2.758
 2923SOL    HW1 9668   6.233   4.889   2.747
 2923SOL    HW2 9669   6.109   4.934   2.843
 2924SOL     OW 9670   6.354   1.850   5.480
 2924SOL    HW1 9671   6.311   1.939   5.462
 2924SOL    HW2 9672   6.343   1.826   5.576
 2925SOL     OW 9673   4.787   1.833   1.775
 2925SOL    HW1 9674   4.726   1.778   1.832
 2925SOL    HW2 9675   4.795   1.924   1.814
 2926SOL     OW 9676   6.070   1.505   5.597
 2926SOL    HW1 9677   6.038   1.413   5.573
 2926SOL    HW2 9678   6.011   1.543   5.668
 2927SOL     OW 9679   1.657   4.054   1.549
 2927SOL    HW1 9680   1.574   4.093   1.588
 2927SOL    HW2 9681   1.724   4.037   1.622
 2928SOL     OW 9682   0.629   0.600   6.959
 2928SOL    HW1 9683   0.699   0.664   6.991
 2928SOL    HW2 9684   0.637   0.514   7.010
 2929SOL     OW 9685   1.421   1.967   6.273
 2929SOL    HW1 9686   1.424   2.058   6.314
 2929SOL    HW2 9687   1.360   1.909   6.326
 2930SOL     OW 9688   5.432   6.715   5.310
 2930SOL    HW1 9689   5.386   6.699   5.222
 2930SOL    HW2 9690   5.363   6.723   5.382
 2931SOL     OW 9691   5.551   4.668   6.706
 2931SOL    HW1 9692   5.627   4.637   6.764
 2931SOL    HW2 9693   5.568   4.762   6.677
 2932SOL     OW 9694   1.109   5.342   2.243
 2932SOL    HW1 9695   1.148   5.393   2.321
 2932SOL    HW2 9696   1.183   5.308   2.186
 2933SOL     OW 9697   0.828   5.495   2.831
 2933SOL    HW1 9698   0.894   5.419   2.825
 2933SOL    HW2 9699   0.747   5.473   2.776
 2934SOL     OW 9700   5.181   1.225   0.193
 2934SOL    HW1 9701   5.269   1.198   0.153
 2934SOL    HW2 9702   5.180   1.323   0.208
 2935SOL     OW 9703   0.211   2.687   6.640
 2935SOL    HW1 9704   0.264   2.620   6.588
 2935SOL    HW2 9705   0.147   2.640   6.701
 2936SOL     OW 9706   4.266   6.483   0.837
 2936SOL    HW1 9707   4.210   6.564   0.856
 2936SOL    HW2 9708   4.337   6.507   0.771
 2937SOL     OW 9709   5.500   4.488   1.436
 2937SOL    HW1 9710   5.451   4.571   1.410
 2937SOL    HW2 9711   5.550   4.452   1.357
 2938SOL     OW 9712   4.683   5.463   6.830
 2938SOL    HW1 9713   4.602   5.429   6.879
 2938SOL    HW2 9714   4.659   5.486   6.736
 2939SOL     OW 9715   2.198   0.937   2.468
 2939SOL    HW1 9716   2.235   0.854   2.509
 2939SOL    HW2 9717   2.262   0.972   2.399
 2940SOL     OW 9718   5.758   4.650   5.671
 2940SOL    HW1 9719   5.715   4.693   5.750
 2940SOL    HW2 9720   5.801   4.720   5.614
 2941SOL     OW 9721   1.149   2.308   4.484
 2941SOL    HW1 9722   1.154   2.390   4.428
 2941SOL    HW2 9723   1.242   2.282   4.514
 2942SOL     OW 9724   3.480   2.407   0.694
 2942SOL    HW1 9725   3.548   2.400   0.767
 2942SOL    HW2 9726   3.525   2.407   0.605
 2943SOL     OW 9727   5.436   3.999   3.671
 2943SOL    HW1 9728   5.491   4.075   3.636
 2943SOL    HW2 9729   5.496   3.924   3.698
 2944SOL     OW 9730   2.382   6.209   4.542
 2944SOL    HW1 9731   2.312   6.278   4.525
 2944SOL    HW2 9732   2.338   6.123   4.566
 2945SOL     OW 9733   3.394   3.435   3.043
 2945SOL    HW1 9734   3.470   3.478   2.995
 2945SOL    HW2 9735   3.420   3.342   3.070
 2946SOL     OW 9736   1.264   4.837   5.586
 2946SOL    HW1 9737   1.345   4.857   5.530
 2946SOL    HW2 9738   1.217   4.922   5.607
 2947SOL     OW 9739   0.385   4.404   1.382
 2947SOL    HW1 9740   0.367   4.437   1.289
 2947SOL    HW2 9741   0.353   4.471   1.448
 2948SOL     OW 9742   0.992   3.656   4.605
 2948SOL    HW1 9743   1.041   3.574   4.636
 2948SOL    HW2 9744   1.002   3.665   4.506
 2949SOL     OW 9745   2.319   5.124   0.801
 2949SOL    HW1 9746   2.256   5.063   0.753
 2949SOL    HW2 9747   2.318   5.102   0.899
 2950SOL     OW 9748   5.315   5.193   3.811
 2950SOL    HW1 9749   5.260   5.236   3.882
 2950SOL    HW2 9750   5.308   5.248   3.727
 2951SOL     OW 9751   5.473   1.326   2.118
 2951SOL    HW1 9752   5.391   1.366   2.076
 2951SOL    HW2 9753   5.452   1.233   2.149
 2952SOL     OW 9754   6.893   4.945   4.618
 2952SOL    HW1 9755   6.838   4.865   4.594
 2952SOL    HW2 9756   6.953   4.922   4.695
 2953SOL     OW 9757   5.795   3.775   2.553
 2953SOL    HW1 9758   5.886   3.803   2.524
 2953SOL    HW2 9759   5.734   3.770   2.474
 2954SOL     OW 9760   0.918   5.053   2.184
 2954SOL    HW1 9761   0.960   5.062   2.274
 2954SOL    HW2 9762   0.987   5.067   2.113
 2955SOL     OW 9763   0.650   3.739   1.492
 2955SOL    HW1 9764   0.739   3.710   1.459
 2955SOL    HW2 9765   0.645   3.729   1.591
 2956SOL     OW 9766   5.645   5.643   3.107
 2956SOL    HW1 9767   5.565   5.654   3.047
 2956SOL    HW2 9768   5.620   5.670   3.200
 2957SOL     OW 9769   5.859   3.674   1.757
 2957SOL    HW1 9770   5.801   3.709   1.683
 2957SOL    HW2 9771   5.955   3.681   1.731
 2958SOL     OW 9772   2.438   4.538   3.187
 2958SOL    HW1 9773   2.384   4.621   3.195
 2958SOL    HW2 9774   2.526   4.559   3.143
 2959SOL     OW 9775   4.851   3.451   0.610
 2959SOL    HW1 9776   4.886   3.358   0.607
 2959SOL    HW2 9777   4.911   3.507   0.666
 2960SOL     OW 9778   3.164   0.720   0.678
 2960SOL    HW1 9779   3.081   0.688   0.632
 2960SOL    HW2 9780   3.141   0.791   0.744
 2961SOL     OW 9781   5.620   3.942   2.988
 2961SOL    HW1 9782   5.691   3.905   2.928
 2961SOL    HW2 9783   5.537   3.888   2.979
 2962SOL     OW 9784   3.935   6.638   3.234
 2962SOL    HW1 9785   4.012   6.589   3.193
 2962SOL    HW2 9786   3.850   6.587   3.218
 2963SOL     OW 9787   1.990   1.014   5.764
 2963SOL    HW1 9788   2.008   1.070   5.845
 2963SOL    HW2 9789   1.892   1.017   5.742
 2964SOL     OW 9790   0.387   0.942   4.203
 2964SOL    HW1 9791   0.336   0.885   4.267
 2964SOL    HW2 9792   0.432   0.884   4.134
 2965SOL     OW 9793   0.302   0.738   4.374
 2965SOL    HW1 9794   0.359   0.662   4.340
 2965SOL    HW2 9795   0.210   0.704   4.392
 2966SOL     OW 9796   4.463   5.714   3.312
 2966SOL    HW1 9797   4.521   5.788   3.278
 2966SOL    HW2 9798   4.502   5.675   3.395
 2967SOL     OW 9799   6.205   0.924   4.809
 2967SOL    HW1 9800   6.120   0.957   4.767
 2967SOL    HW2 9801   6.192   0.830   4.840
 2968SOL     OW 9802   0.816   2.859   0.493
 2968SOL    HW1 9803   0.847   2.765   0.512
 2968SOL    HW2 9804   0.883   2.904   0.434
 2969SOL     OW 9805   5.206   2.360   4.380
 2969SOL    HW1 9806   5.244   2.268   4.392
 2969SOL    HW2 9807   5.126   2.371   4.440
 2970SOL     OW 9808   2.371   3.138   5.600
 2970SOL    HW1 9809   2.325   3.107   5.683
 2970SOL    HW2 9810   2.326   3.100   5.520
 2971SOL     OW 9811   5.123   4.451   6.844
 2971SOL    HW1 9812   5.215   4.435   6.882
 2971SOL    HW2 9813   5.115   4.405   6.756
 2972SOL     OW 9814   6.686   4.615   6.409
 2972SOL    HW1 9815   6.641   4.581   6.492
 2972SOL    HW2 9816   6.617   4.639   6.341
 2973SOL     OW 9817   5.387   6.184   2.135
 2973SOL    HW1 9818   5.443   6.123   2.191
 2973SOL    HW2 9819   5.392   6.277   2.171
 2974SOL     OW 9820   0.908   4.561   3.982
 2974SOL    HW1 9821   0.988   4.568   3.921
 2974SOL    HW2 9822   0.879   4.466   3.987
 2975SOL     OW 9823   5.321   3.621   3.626
 2975SOL    HW1 9824   5.341   3.628   3.723
 2975SOL    HW2 9825   5.403   3.596   3.576
 2976SOL     OW 9826   3.785   2.001   3.042
 2976SOL    HW1 9827   3.810   1.948   2.961
 2976SOL    HW2 9828   3.730   2.080   3.014
 2977SOL     OW 9829   2.370   0.096   2.668
 2977SOL    HW1 9830   2.354   0.019   2.729
 2977SOL    HW2 9831   2.461   0.087   2.627
 2978SOL     OW 9832   4.286   4.809   0.105
 2978SOL    HW1 9833   4.243   4.722   0.128
 2978SOL    HW2 9834   4.257   4.838   0.014
 2979SOL     OW 9835   3.575   1.062   4.012
 2979SOL    HW1 9836   3.619   1.021   3.933
 2979SOL    HW2 9837   3.637   1.130   4.053
 2980SOL     OW 9838   1.404   5.739   4.515
 2980SOL    HW1 9839   1.400   5.734   4.415
 2980SOL    HW2 9840   1.451   5.823   4.543
 2981SOL     OW 9841   2.592   1.606   6.295
 2981SOL    HW1 9842   2.653   1.535   6.260
 2981SOL    HW2 9843   2.516   1.563   6.344
 2982SOL     OW 9844   3.085   5.477   2.178
 2982SOL    HW1 9845   2.992   5.500   2.149
 2982SOL    HW2 9846   3.091   5.486   2.278
 2983SOL     OW 9847   6.460   2.037   2.635
 2983SOL    HW1 9848   6.501   2.128   2.644
 2983SOL    HW2 9849   6.533   1.968   2.633
 2984SOL     OW 9850   5.558   4.744   0.440
 2984SOL    HW1 9851   5.502   4.791   0.371
 2984SOL    HW2 9852   5.556   4.645   0.422
 2985SOL     OW 9853   1.778   2.536   5.377
 2985SOL    HW1 9854   1.731   2.566   5.294
 2985SOL    HW2 9855   1.776   2.609   5.445
 2986SOL     OW 9856   3.491   4.139   3.470
 2986SOL    HW1 9857   3.588   4.120   3.455
 2986SOL    HW2 9858   3.477   4.163   3.566
 2987SOL     OW 9859   0.653   1.559   3.815
 2987SOL    HW1 9860   0.589   1.564   3.739
 2987SOL    HW2 9861   0.604   1.536   3.899
 2988SOL     OW 9862   1.631   5.618   2.805
 2988SOL    HW1 9863   1.727   5.603   2.783
 2988SOL    HW2 9864   1.574   5.553   2.753
 2989SOL     OW 9865   5.228   5.752   5.808
 2989SOL    HW1 9866   5.324   5.763   5.834
 2989SOL    HW2 9867   5.173   5.737   5.889
 2990SOL     OW 9868   3.529   2.070   4.583
 2990SOL    HW1 9869   3.432   2.076   4.606
 2990SOL    HW2 9870   3.583   2.063   4.667
 2991SOL     OW 9871   6.518   3.738   5.114
 2991SOL    HW1 9872   6.591   3.680   5.076
 2991SOL    HW2 9873   6.432   3.716   5.069
 2992SOL     OW 9874   1.806   5.993   4.385
 2992SOL    HW1 9875   1.883   5.929   4.390
 2992SOL    HW2 9876   1.834   6.074   4.332
 2993SOL     OW 9877   0.977   4.675   0.930
 2993SOL    HW1 9878   0.960   4.773   0.928
 2993SOL    HW2 9879   0.911   4.629   0.871
 2994SOL     OW 9880   4.129   6.879   6.581
 2994SOL    HW1 9881   4.071   6.936   6.523
 2994SOL    HW2 9882   4.072   6.818   6.636
 2995SOL     OW 9883   2.734   1.820   6.440
 2995SOL    HW1 9884   2.700   1.742   6.388
 2995SOL    HW2 9885   2.788   1.879   6.380
 2996SOL     OW 9886   1.273   1.369   4.812
 2996SOL    HW1 9887   1.242   1.348   4.719
 2996SOL    HW2 9888   1.228   1.452   4.844
 2997SOL     OW 9889   5.712   6.906   3.224
 2997SOL    HW1 9890   5.630   6.849   3.217
 2997SOL    HW2 9891   5.733   6.924   3.321
 2998SOL     OW 9892   4.538   0.070   4.035
 2998SOL    HW1 9893   4.630   0.031   4.047
 2998SOL    HW2 9894   4.546   0.166   4.006
 2999SOL     OW 9895   2.636   5.041   5.109
 2999SOL    HW1 9896   2.579   4.960   5.118
 2999SOL    HW2 9897   2.586   5.121   5.145
 3000SOL     OW 9898   3.185   3.507   6.404
 3000SOL    HW1 9899   3.126   3.541   6.478
 3000SOL    HW2 9900   3.129   3.465   6.333
 3001SOL     OW 9901   0.096   0.387   6.096
 3001SOL    HW1 9902   0.035   0.466   6.089
 3001SOL    HW2 9903   0.177   0.402   6.040
 3002SOL     OW 9904   3.288   1.721   7.004
 3002SOL    HW1 9905   3.310   1.634   6.961
 3002SOL    HW2 9906   3.281   1.792   6.934
 3003SOL     OW 9907   1.392   6.871   0.564
 3003SOL    HW1 9908   1.323   6.888   0.493
 3003SOL    HW2 9909   1.354   6.897   0.653
 3004SOL     OW 9910   0.586   4.191   3.377
 3004SOL    HW1 9911   0.540   4.279   3.386
 3004SOL    HW2 9912   0.673   4.195   3.427
 3005SOL     OW 9913   2.018   1.960   0.441
 3005SOL    HW1 9914   1.923   1.957   0.411
 3005SOL    HW2 9915   2.059   1.869   0.432
 3006SOL     OW 9916   5.301   1.384   4.597
 3006SOL    HW1 9917   5.244   1.370   4.516
 3006SOL    HW2 9918   5.282   1.473   4.637
 3007SOL     OW 9919   5.251   4.510   0.439
 3007SOL    HW1 9920   5.157   4.505   0.406
 3007SOL    HW2 9921   5.273   4.425   0.488
 3008SOL     OW 9922   4.015   2.166   5.995
 3008SOL    HW1 9923   3.982   2.239   5.935
 3008SOL    HW2 9924   4.105   2.191   6.031
 3009SOL     OW 9925   6.833   1.884   2.699
 3009SOL    HW1 9926   6.929   1.860   2.681
 3009SOL    HW2 9927   6.780   1.875   2.615
 3010SOL     OW 9928   3.664   5.434   3.665
 3010SOL    HW1 9929   3.636   5.395   3.753
 3010SOL    HW2 9930   3.691   5.360   3.603
 3011SOL     OW 9931   6.255   1.646   2.388
 3011SOL    HW1 9932   6.332   1.665   2.327
 3011SOL    HW2 9933   6.172   1.633   2.334
 3012SOL     OW 9934   1.883   3.278   6.234
 3012SOL    HW1 9935   1.928   3.351   6.183
 3012SOL    HW2 9936   1.876   3.304   6.330
 3013SOL     OW 9937   5.132   5.564   3.697
 3013SOL    HW1 9938   5.120   5.515   3.783
 3013SOL    HW2 9939   5.229   5.563   3.671
 3014SOL     OW 9940   4.403   2.259   4.772
 3014SOL    HW1 9941   4.478   2.267   4.707
 3014SOL    HW2 9942   4.320   2.300   4.733
 3015SOL     OW 9943   3.047   1.882   0.093
 3015SOL    HW1 9944   3.055   1.795   0.142
 3015SOL    HW2 9945   3.137   1.925   0.087
 3016SOL     OW 9946   2.558   6.427   3.790
 3016SOL    HW1 9947   2.581   6.331   3.808
 3016SOL    HW2 9948   2.603   6.457   3.707
 3017SOL     OW 9949   5.889   5.403   2.032
 3017SOL    HW1 9950   5.879   5.304   2.028
 3017SOL    HW2 9951   5.803   5.443   2.064
 3018SOL     OW 9952   2.745   0.460   5.756
 3018SOL    HW1 9953   2.748   0.381   5.817
 3018SOL    HW2 9954   2.683   0.529   5.793
 3019SOL     OW 9955   0.499   6.703   0.234
 3019SOL    HW1 9956   0.456   6.636   0.173
 3019SOL    HW2 9957   0.576   6.746   0.186
 3020SOL     OW 9958   3.720   2.268   1.462
 3020SOL    HW1 9959   3.666   2.332   1.516
 3020SOL    HW2 9960   3.797   2.234   1.517
 3021SOL     OW 9961   2.678   0.183   5.901
 3021SOL    HW1 9962   2.669   0.105   5.963
 3021SOL    HW2 9963   2.661   0.153   5.807
 3022SOL     OW 9964   4.164   5.244   4.793
 3022SOL    HW1 9965   4.067   5.226   4.774
 3022SOL    HW2 9966   4.215   5.158   4.794
 3023SOL     OW 9967   4.085   6.686   2.844
 3023SOL    HW1 9968   4.090   6.785   2.863
 3023SOL    HW2 9969   3.994   6.663   2.812
 3024SOL     OW 9970   4.890   0.134   5.037
 3024SOL    HW1 9971   4.870   0.221   5.083
 3024SOL    HW2 9972   4.940   0.151   4.953
 3025SOL     OW 9973   4.035   6.649   0.549
 3025SOL    HW1 9974   4.048   6.680   0.643
 3025SOL    HW2 9975   4.000   6.555   0.550
 3026SOL     OW 9976   1.640   0.142   6.359
 3026SOL    HW1 9977   1.645   0.188   6.448
 3026SOL    HW2 9978   1.650   0.210   6.287
 3027SOL     OW 9979   4.071   1.219   2.914
 3027SOL    HW1 9980   4.166   1.193   2.897
 3027SOL    HW2 9981   4.031   1.259   2.832
 3028SOL     OW 9982   1.764   3.861   6.207
 3028SOL    HW1 9983   1.821   3.871   6.126
 3028SOL    HW2 9984   1.683   3.919   6.198
 3029SOL     OW 9985   0.151   2.380   5.288
 3029SOL    HW1 9986   0.108   2.395   5.377
 3029SOL    HW2 9987   0.250   2.374   5.299
 3030SOL     OW 9988   0.859   3.342   0.003
 3030SOL    HW1 9989   0.927   3.385   6.963
 3030SOL    HW2 9990   0.852   3.395   0.088
 3031SOL     OW 9991   6.928   4.506   1.524
 3031SOL    HW1 9992   6.979   4.423   1.502
 3031SOL    HW2 9993   6.981   4.562   1.587
 3032SOL     OW 9994   2.697   6.179   1.364
 3032SOL    HW1 9995   2.795   6.181   1.346
 3032SOL    HW2 9996   2.648   6.220   1.288
 3033SOL     OW 9997   5.589   1.888   1.441
 3033SOL    HW1 9998   5.685   1.895   1.468
 3033SOL    HW2 9999   5.546   1.813   1.491
 3034SOL     OW10000   1.578   6.815   2.488
 3034SOL    HW110001   1.513   6.741   2.469
 3034SOL    HW210002   1.598   6.818   2.585
 3035SOL     OW10003   0.345   2.937   6.688
 3035SOL    HW110004   0.317   2.998   6.762
 3035SOL    HW210005   0.289   2.854   6.689
 3036SOL     OW10006   2.389   1.913   6.024
 3036SOL    HW110007   2.465   1.974   6.046
 3036SOL    HW210008   2.316   1.924   6.092
 3037SOL     OW10009   6.050   5.735   6.069
 3037SOL    HW110010   6.013   5.664   6.129
 3037SOL    HW210011   6.121   5.787   6.118
 3038SOL     OW10012   4.721   5.896   5.801
 3038SOL    HW110013   4.631   5.911   5.842
 3038SOL    HW210014   4.790   5.886   5.873
 3039SOL     OW10015   0.036   3.529   0.751
 3039SOL    HW110016   0.076   3.468   0.819
 3039SOL    HW210017   6.972   3.488   0.714
 3040SOL     OW10018   3.560   3.813   6.070
 3040SOL    HW110019   3.468   3.774   6.056
 3040SOL    HW210020   3.554   3.913   6.070
 3041SOL     OW10021   2.257   2.973   4.668
 3041SOL    HW110022   2.353   2.947   4.658
 3041SOL    HW210023   2.249   3.044   4.738
 3042SOL     OW10024   5.490   5.599   2.572
 3042SOL    HW110025   5.514   5.518   2.519
 3042SOL    HW210026   5.574   5.648   2.596
 3043SOL     OW10027   2.881   4.287   1.670
 3043SOL    HW110028   2.875   4.306   1.572
 3043SOL    HW210029   2.875   4.372   1.721
 3044SOL     OW10030   3.399   4.648   5.624
 3044SOL    HW110031   3.344   4.645   5.540
 3044SOL    HW210032   3.489   4.686   5.603
 3045SOL     OW10033   4.915   6.767   3.501
 3045SOL    HW110034   4.819   6.794   3.492
 3045SOL    HW210035   4.922   6.686   3.560
 3046SOL     OW10036   2.358   1.065   5.663
 3046SOL    HW110037   2.340   1.111   5.750
 3046SOL    HW210038   2.284   1.085   5.599
 3047SOL     OW10039   5.620   0.224   1.999
 3047SOL    HW110040   5.704   0.277   2.007
 3047SOL    HW210041   5.558   0.268   1.934
 3048SOL     OW10042   3.917   2.240   1.709
 3048SOL    HW110043   3.833   2.274   1.751
 3048SOL    HW210044   3.986   2.312   1.709
 3049SOL     OW10045   1.299   0.061   2.591
 3049SOL    HW110046   1.336   0.065   2.498
 3049SOL    HW210047   1.207   0.099   2.591
 3050SOL     OW10048   3.215   1.338   1.965
 3050SOL    HW110049   3.121   1.305   1.968
 3050SOL    HW210050   3.277   1.260   1.975
 3051SOL     OW10051   1.612   5.537   6.279
 3051SOL    HW110052   1.547   5.597   6.325
 3051SOL    HW210053   1.645   5.468   6.344
 3052SOL     OW10054   5.197   5.498   2.404
 3052SOL    HW110055   5.137   5.540   2.336
 3052SOL    HW210056   5.170   5.403   2.419
 3053SOL     OW10057   6.791   2.317   0.751
 3053SOL    HW110058   6.862   2.314   0.821
 3053SOL    HW210059   6.805   2.396   0.692
 3054SOL     OW10060   6.412   2.419   1.179
 3054SOL    HW110061   6.339   2.474   1.139
 3054SOL    HW210062   6.404   2.420   1.279
 3055SOL     OW10063   4.827   0.581   4.850
 3055SOL    HW110064   4.843   0.677   4.828
 3055SOL    HW210065   4.774   0.539   4.776
 3056SOL     OW10066   6.491   0.384   5.701
 3056SOL    HW110067   6.575   0.401   5.649
 3056SOL    HW210068   6.469   0.287   5.699
 3057SOL     OW10069   4.610   5.977   2.894
 3057SOL    HW110070   4.563   5.890   2.909
 3057SOL    HW210071   4.572   6.046   2.955
 3058SOL     OW10072   6.846   4.764   1.040
 3058SOL    HW110073   6.801   4.751   1.128
 3058SOL    HW210074   6.784   4.812   0.977
 3059SOL     OW10075   2.911   2.207   3.909
 3059SOL    HW110076   2.948   2.207   4.002
 3059SOL    HW210077   2.983   2.178   3.845
 3060SOL     OW10078   1.502   5.102   0.638
 3060SOL    HW110079   1.409   5.124   0.668
 3060SOL    HW210080   1.533   5.019   0.685
 3061SOL     OW10081   0.283   6.125   5.880
 3061SOL    HW110082   0.361   6.161   5.930
 3061SOL    HW210083   0.312   6.047   5.824
 3062SOL     OW10084   2.154   6.921   0.608
 3062SOL    HW110085   2.090   6.978   0.658
 3062SOL    HW210086   2.144   6.825   0.636
 3063SOL     OW10087   2.078   4.908   2.151
 3063SOL    HW110088   2.124   4.968   2.216
 3063SOL    HW210089   2.123   4.818   2.151
 3064SOL     OW10090   4.892   3.683   1.940
 3064SOL    HW110091   4.855   3.775   1.949
 3064SOL    HW210092   4.976   3.685   1.887
 3065SOL     OW10093   1.859   1.713   0.122
 3065SOL    HW110094   1.947   1.667   0.131
 3065SOL    HW210095   1.863   1.776   0.044
 3066SOL     OW10096   4.792   4.706   0.717
 3066SOL    HW110097   4.880   4.753   0.709
 3066SOL    HW210098   4.746   4.736   0.801
 3067SOL     OW10099   3.853   0.638   5.869
 3067SOL    HW110100   3.837   0.679   5.780
 3067SOL    HW210101   3.951   0.634   5.887
 3068SOL     OW10102   6.757   6.752   0.799
 3068SOL    HW110103   6.810   6.733   0.882
 3068SOL    HW210104   6.797   6.705   0.721
 3069SOL     OW10105   6.595   5.941   1.399
 3069SOL    HW110106   6.658   5.982   1.333
 3069SOL    HW210107   6.641   5.870   1.451
 3070SOL     OW10108   3.090   1.384   0.134
 3070SOL    HW110109   3.102   1.287   0.158
 3070SOL    HW210110   3.162   1.438   0.175
 3071SOL     OW10111   6.628   6.475   3.129
 3071SOL    HW110112   6.559   6.521   3.185
 3071SOL    HW210113   6.705   6.538   3.113
 3072SOL     OW10114   2.297   5.919   6.202
 3072SOL    HW110115   2.274   5.914   6.299
 3072SOL    HW210116   2.358   5.997   6.187
 3073SOL     OW10117   6.327   3.654   4.575
 3073SOL    HW110118   6.290   3.747   4.569
 3073SOL    HW210119   6.257   3.589   4.545
 3074SOL     OW10120   6.299   3.837   1.196
 3074SOL    HW110121   6.304   3.756   1.138
 3074SOL    HW210122   6.221   3.830   1.257
 3075SOL     OW10123   2.998   5.556   1.678
 3075SOL    HW110124   3.050   5.475   1.651
 3075SOL    HW210125   2.912   5.558   1.626
 3076SOL     OW10126   6.480   0.529   3.552
 3076SOL    HW110127   6.442   0.500   3.464
 3076SOL    HW210128   6.472   0.628   3.560
 3077SOL     OW10129   6.047   4.755   1.328
 3077SOL    HW110130   6.015   4.742   1.422
 3077SOL    HW210131   6.010   4.840   1.292
 3078SOL     OW10132   0.364   2.709   2.918
 3078SOL    HW110133   0.459   2.728   2.893
 3078SOL    HW210134   0.351   2.728   3.015
 3079SOL     OW10135   2.589   2.448   2.777
 3079SOL    HW110136   2.575   2.438   2.876
 3079SOL    HW210137   2.538   2.527   2.744
 3080SOL     OW10138   5.378   5.048   2.442
 3080SOL    HW110139   5.356   4.974   2.378
 3080SOL    HW210140   5.439   5.013   2.514
 3081SOL     OW10141   1.077   2.444   5.742
 3081SOL    HW110142   1.090   2.513   5.813
 3081SOL    HW210143   1.002   2.473   5.681
 3082SOL     OW10144   2.177   5.824   3.937
 3082SOL    HW110145   2.182   5.729   3.969
 3082SOL    HW210146   2.140   5.826   3.844
 3083SOL     OW10147   2.668   6.485   4.027
 3083SOL    HW110148   2.620   6.476   3.940
 3083SOL    HW210149   2.675   6.396   4.071
 3084SOL     OW10150   6.560   3.710   4.214
 3084SOL    HW110151   6.657   3.696   4.192
 3084SOL    HW210152   6.545   3.691   4.311
 3085SOL     OW10153   5.410   4.526   6.938
 3085SOL    HW110154   5.502   4.490   6.948
 3085SOL    HW210155   5.396   4.555   6.843
 3086SOL     OW10156   5.230   1.239   1.524
 3086SOL    HW110157   5.204   1.144   1.511
 3086SOL    HW210158   5.154   1.288   1.568
 3087SOL     OW10159   1.610   5.904   4.156
 3087SOL    HW110160   1.675   5.941   4.222
 3087SOL    HW210161   1.647   5.912   4.064
 3088SOL     OW10162   2.163   5.040   5.137
 3088SOL    HW110163   2.194   4.945   5.134
 3088SOL    HW210164   2.242   5.101   5.131
 3089SOL     OW10165   2.345   2.491   5.723
 3089SOL    HW110166   2.362   2.425   5.650
 3089SOL    HW210167   2.247   2.510   5.729
 3090SOL     OW10168   2.327   1.941   1.502
 3090SOL    HW110169   2.253   1.874   1.496
 3090SOL    HW210170   2.392   1.913   1.573
 3091SOL     OW10171   1.912   0.376   1.309
 3091SOL    HW110172   1.927   0.367   1.408
 3091SOL    HW210173   1.829   0.326   1.283
 3092SOL     OW10174   5.448   1.516   0.245
 3092SOL    HW110175   5.495   1.468   0.319
 3092SOL    HW210176   5.507   1.520   0.164
 3093SOL     OW10177   5.465   6.484   6.517
 3093SOL    HW110178   5.391   6.451   6.459
 3093SOL    HW210179   5.525   6.408   6.542
 3094SOL     OW10180   2.252   6.975   4.476
 3094SOL    HW110181   2.321   6.928   4.421
 3094SOL    HW210182   2.166   6.922   4.472
 3095SOL     OW10183   2.560   5.022   5.521
 3095SOL    HW110184   2.526   4.982   5.606
 3095SOL    HW210185   2.537   4.962   5.445
 3096SOL     OW10186   0.550   5.168   5.622
 3096SOL    HW110187   0.591   5.155   5.713
 3096SOL    HW210188   0.505   5.083   5.594
 3097SOL     OW10189   5.706   2.377   6.892
 3097SOL    HW110190   5.609   2.395   6.876
 3097SOL    HW210191   5.752   2.360   6.805
 3098SOL     OW10192   2.145   2.477   1.171
 3098SOL    HW110193   2.154   2.437   1.079
 3098SOL    HW210194   2.153   2.577   1.164
 3099SOL     OW10195   0.452   0.217   3.691
 3099SOL    HW110196   0.423   0.279   3.619
 3099SOL    HW210197   0.494   0.136   3.651
 3100SOL     OW10198   6.767   6.565   3.457
 3100SOL    HW110199   6.737   6.477   3.420
 3100SOL    HW210200   6.853   6.553   3.507
 3101SOL     OW10201   6.015   5.952   0.198
 3101SOL    HW110202   6.054   6.041   0.175
 3101SOL    HW210203   5.979   5.955   0.292
 3102SOL     OW10204   6.427   5.522   2.362
 3102SOL    HW110205   6.445   5.442   2.420
 3102SOL    HW210206   6.512   5.572   2.347
 3103SOL     OW10207   4.333   0.951   2.056
 3103SOL    HW110208   4.298   0.857   2.057
 3103SOL    HW210209   4.429   0.950   2.026
 3104SOL     OW10210   5.233   0.939   5.323
 3104SOL    HW110211   5.180   0.857   5.303
 3104SOL    HW210212   5.250   0.944   5.421
 3105SOL     OW10213   5.466   4.405   1.172
 3105SOL    HW110214   5.400   4.338   1.206
 3105SOL    HW210215   5.559   4.369   1.184
 3106SOL     OW10216   4.786   0.718   3.911
 3106SOL    HW110217   4.871   0.758   3.877
 3106SOL    HW210218   4.756   0.767   3.992
 3107SOL     OW10219   4.341   1.654   5.232
 3107SOL    HW110220   4.322   1.557   5.214
 3107SOL    HW210221   4.294   1.710   5.163
 3108SOL     OW10222   1.920   6.223   4.257
 3108SOL    HW110223   1.885   6.245   4.166
 3108SOL    HW210224   2.019   6.210   4.252
 3109SOL     OW10225   5.409   6.131   4.070
 3109SOL    HW110226   5.469   6.114   3.991
 3109SOL    HW210227   5.357   6.215   4.054
 3110SOL     OW10228   1.152   3.366   2.622
 3110SOL    HW110229   1.172   3.463   2.612
 3110SOL    HW210230   1.141   3.343   2.718
 3111SOL     OW10231   0.503   4.855   3.775
 3111SOL    HW110232   0.431   4.786   3.770
 3111SOL    HW210233   0.515   4.885   3.869
 3112SOL     OW10234   3.967   3.028   0.001
 3112SOL    HW110235   3.898   3.087   6.979
 3112SOL    HW210236   3.977   2.945   6.967
 3113SOL     OW10237   2.625   4.557   3.632
 3113SOL    HW110238   2.541   4.544   3.580
 3113SOL    HW210239   2.622   4.502   3.716
 3114SOL     OW10240   3.943   2.217   0.815
 3114SOL    HW110241   3.887   2.135   0.822
 3114SOL    HW210242   4.038   2.192   0.797
 3115SOL     OW10243   4.041   4.756   6.199
 3115SOL    HW110244   4.038   4.682   6.266
 3115SOL    HW210245   4.056   4.717   6.108
 3116SOL     OW10246   6.810   2.874   0.411
 3116SOL    HW110247   6.868   2.895   0.489
 3116SOL    HW210248   6.714   2.881   0.438
 3117SOL     OW10249   4.914   3.812   5.226
 3117SOL    HW110250   4.852   3.746   5.184
 3117SOL    HW210251   5.008   3.781   5.214
 3118SOL     OW10252   0.638   5.710   2.224
 3118SOL    HW110253   0.617   5.615   2.199
 3118SOL    HW210254   0.677   5.712   2.316
 3119SOL     OW10255   2.380   2.718   6.494
 3119SOL    HW110256   2.309   2.765   6.547
 3119SOL    HW210257   2.362   2.620   6.493
 3120SOL     OW10258   3.157   0.118   5.820
 3120SOL    HW110259   3.162   0.168   5.733
 3120SOL    HW210260   3.084   0.050   5.815
 3121SOL     OW10261   0.076   0.966   3.572
 3121SOL    HW110262   0.158   0.911   3.559
 3121SOL    HW210263   0.083   1.016   3.659
 3122SOL     OW10264   3.977   5.611   6.266
 3122SOL    HW110265   3.883   5.639   6.249
 3122SOL    HW210266   4.027   5.606   6.180
 3123SOL     OW10267   1.852   1.838   3.411
 3123SOL    HW110268   1.817   1.745   3.417
 3123SOL    HW210269   1.921   1.853   3.482
 3124SOL     OW10270   4.862   6.749   4.824
 3124SOL    HW110271   4.774   6.705   4.811
 3124SOL    HW210272   4.907   6.711   4.905
 3125SOL     OW10273   0.982   2.926   5.077
 3125SOL    HW110274   0.974   2.987   4.997
 3125SOL    HW210275   0.990   2.832   5.045
 3126SOL     OW10276   5.758   3.850   5.752
 3126SOL    HW110277   5.747   3.771   5.693
 3126SOL    HW210278   5.853   3.881   5.750
 3127SOL     OW10279   1.183   2.803   5.781
 3127SOL    HW110280   1.147   2.721   5.827
 3127SOL    HW210281   1.236   2.776   5.701
 3128SOL     OW10282   3.283   0.591   6.596
 3128SOL    HW110283   3.323   0.516   6.544
 3128SOL    HW210284   3.354   0.658   6.618
 3129SOL     OW10285   6.261   3.517   0.024
 3129SOL    HW110286   6.223   3.457   6.973
 3129SOL    HW210287   6.309   3.594   7.001
 3130SOL     OW10288   1.932   4.300   1.861
 3130SOL    HW110289   1.880   4.286   1.776
 3130SOL    HW210290   1.931   4.397   1.884
 3131SOL     OW10291   0.613   3.424   2.320
 3131SOL    HW110292   0.657   3.456   2.404
 3131SOL    HW210293   0.680   3.373   2.265
 3132SOL     OW10294   3.978   5.960   6.531
 3132SOL    HW110295   4.077   5.952   6.515
 3132SOL    HW210296   3.952   6.056   6.529
 3133SOL     OW10297   3.042   1.559   3.233
 3133SOL    HW110298   3.138   1.549   3.205
 3133SOL    HW210299   3.007   1.471   3.265
 3134SOL     OW10300   4.893   4.049   1.509
 3134SOL    HW110301   4.945   3.993   1.445
 3134SOL    HW210302   4.830   3.991   1.561
 3135SOL     OW10303   4.417   0.955   5.009
 3135SOL    HW110304   4.364   1.029   4.966
 3135SOL    HW210305   4.415   0.874   4.950
 3136SOL     OW10306   5.492   0.480   2.157
 3136SOL    HW110307   5.426   0.525   2.216
 3136SOL    HW210308   5.497   0.383   2.181
 3137SOL     OW10309   6.411   0.509   2.294
 3137SOL    HW110310   6.372   0.543   2.379
 3137SOL    HW210311   6.382   0.414   2.279
 3138SOL     OW10312   6.209   4.709   3.543
 3138SOL    HW110313   6.244   4.622   3.575
 3138SOL    HW210314   6.283   4.777   3.542
 3139SOL     OW10315   4.768   6.023   0.809
 3139SOL    HW110316   4.695   6.091   0.805
 3139SOL    HW210317   4.792   6.005   0.904
 3140SOL     OW10318   6.634   6.935   0.361
 3140SOL    HW110319   6.711   6.873   0.342
 3140SOL    HW210320   6.642   7.017   0.304
 3141SOL     OW10321   0.597   6.886   6.541
 3141SOL    HW110322   0.535   6.930   6.476
 3141SOL    HW210323   0.667   6.951   6.570
 3142SOL     OW10324   3.450   6.926   2.369
 3142SOL    HW110325   3.544   6.926   2.333
 3142SOL    HW210326   3.451   6.892   2.463
 3143SOL     OW10327   6.400   2.034   0.408
 3143SOL    HW110328   6.393   2.126   0.447
 3143SOL    HW210329   6.480   2.029   0.349
 3144SOL     OW10330   3.452   3.574   1.679
 3144SOL    HW110331   3.544   3.557   1.715
 3144SOL    HW210332   3.396   3.615   1.750
 3145SOL     OW10333   2.426   5.754   1.528
 3145SOL    HW110334   2.441   5.745   1.429
 3145SOL    HW210335   2.440   5.849   1.555
 3146SOL     OW10336   1.286   1.203   4.402
 3146SOL    HW110337   1.194   1.177   4.374
 3146SOL    HW210338   1.337   1.122   4.431
 3147SOL     OW10339   3.187   5.472   0.957
 3147SOL    HW110340   3.122   5.400   0.935
 3147SOL    HW210341   3.155   5.560   0.921
 3148SOL     OW10342   6.038   6.683   3.926
 3148SOL    HW110343   5.966   6.639   3.979
 3148SOL    HW210344   6.009   6.775   3.899
 3149SOL     OW10345   2.796   0.783   5.379
 3149SOL    HW110346   2.790   0.864   5.320
 3149SOL    HW210347   2.744   0.708   5.337
 3150SOL     OW10348   6.136   5.554   4.430
 3150SOL    HW110349   6.133   5.514   4.338
 3150SOL    HW210350   6.045   5.549   4.471
 3151SOL     OW10351   6.835   0.889   5.202
 3151SOL    HW110352   6.824   0.904   5.300
 3151SOL    HW210353   6.797   0.967   5.152
 3152SOL     OW10354   1.153   5.087   1.059
 3152SOL    HW110355   1.220   5.098   1.133
 3152SOL    HW210356   1.196   5.106   0.971
 3153SOL     OW10357   5.966   5.080   0.396
 3153SOL    HW110358   5.919   4.998   0.365
 3153SOL    HW210359   5.905   5.133   0.456
 3154SOL     OW10360   6.839   1.530   6.951
 3154SOL    HW110361   6.786   1.541   0.015
 3154SOL    HW210362   6.776   1.519   6.874
 3155SOL     OW10363   6.431   4.439   0.530
 3155SOL    HW110364   6.483   4.401   0.453
 3155SOL    HW210365   6.400   4.364   0.589
 3156SOL     OW10366   3.495   3.046   3.383
 3156SOL    HW110367   3.551   3.024   3.463
 3156SOL    HW210368   3.400   3.018   3.400
 3157SOL     OW10369   2.867   1.988   5.262
 3157SOL    HW110370   2.827   2.059   5.320
 3157SOL    HW210371   2.959   2.015   5.233
 3158SOL     OW10372   3.358   1.551   3.278
 3158SOL    HW110373   3.349   1.462   3.322
 3158SOL    HW210374   3.430   1.603   3.324
 3159SOL     OW10375   6.396   1.322   0.321
 3159SOL    HW110376   6.352   1.348   0.236
 3159SOL    HW210377   6.468   1.254   0.302
 3160SOL     OW10378   0.537   5.818   5.594
 3160SOL    HW110379   0.454   5.863   5.627
 3160SOL    HW210380   0.617   5.873   5.618
 3161SOL     OW10381   2.305   2.804   2.942
 3161SOL    HW110382   2.319   2.850   3.030
 3161SOL    HW210383   2.317   2.706   2.953
 3162SOL     OW10384   1.526   6.199   2.265
 3162SOL    HW110385   1.552   6.186   2.361
 3162SOL    HW210386   1.452   6.136   2.242
 3163SOL     OW10387   4.774   2.969   6.027
 3163SOL    HW110388   4.845   2.900   6.015
 3163SOL    HW210389   4.788   3.018   6.113
 3164SOL     OW10390   4.498   5.362   1.273
 3164SOL    HW110391   4.581   5.396   1.317
 3164SOL    HW210392   4.523   5.306   1.194
 3165SOL     OW10393   0.753   6.327   0.906
 3165SOL    HW110394   0.815   6.399   0.876
 3165SOL    HW210395   0.806   6.254   0.949
 3166SOL     OW10396   4.141   1.846   4.248
 3166SOL    HW110397   4.203   1.850   4.326
 3166SOL    HW210398   4.166   1.917   4.182
 3167SOL     OW10399   6.443   4.729   1.078
 3167SOL    HW110400   6.491   4.792   1.017
 3167SOL    HW210401   6.485   4.639   1.073
 3168SOL     OW10402   4.997   2.662   6.820
 3168SOL    HW110403   5.024   2.758   6.830
 3168SOL    HW210404   4.897   2.655   6.825
 3169SOL     OW10405   2.080   3.812   4.353
 3169SOL    HW110406   2.086   3.719   4.317
 3169SOL    HW210407   1.987   3.846   4.344
 3170SOL     OW10408   4.682   6.617   1.349
 3170SOL    HW110409   4.672   6.541   1.285
 3170SOL    HW210410   4.592   6.658   1.365
 3171SOL     OW10411   0.344   0.419   2.176
 3171SOL    HW110412   0.270   0.486   2.176
 3171SOL    HW210413   0.307   0.328   2.157
 3172SOL     OW10414   6.892   5.091   0.605
 3172SOL    HW110415   6.988   5.080   0.581
 3172SOL    HW210416   6.883   5.159   0.678
 3173SOL     OW10417   2.653   1.887   0.715
 3173SOL    HW110418   2.593   1.857   0.789
 3173SOL    HW210419   2.598   1.923   0.640
 3174SOL     OW10420   2.692   2.561   0.891
 3174SOL    HW110421   2.645   2.592   0.974
 3174SOL    HW210422   2.633   2.499   0.840
 3175SOL     OW10423   6.434   1.114   1.595
 3175SOL    HW110424   6.487   1.165   1.662
 3175SOL    HW210425   6.370   1.175   1.549
 3176SOL     OW10426   1.720   4.206   5.296
 3176SOL    HW110427   1.650   4.231   5.230
 3176SOL    HW210428   1.679   4.153   5.370
 3177SOL     OW10429   4.989   3.744   3.868
 3177SOL    HW110430   5.022   3.675   3.933
 3177SOL    HW210431   4.915   3.705   3.813
 3178SOL     OW10432   6.459   2.122   1.037
 3178SOL    HW110433   6.439   2.195   1.102
 3178SOL    HW210434   6.389   2.120   0.966
 3179SOL     OW10435   1.117   3.338   2.159
 3179SOL    HW110436   1.062   3.338   2.076
 3179SOL    HW210437   1.090   3.416   2.216
 3180SOL     OW10438   4.720   1.089   0.064
 3180SOL    HW110439   4.684   1.162   0.006
 3180SOL    HW210440   4.820   1.088   0.059
 3181SOL     OW10441   6.872   1.971   3.625
 3181SOL    HW110442   6.883   1.872   3.631
 3181SOL    HW210443   6.930   2.006   3.551
 3182SOL     OW10444   3.149   0.141   6.080
 3182SOL    HW110445   3.160   0.146   5.981
 3182SOL    HW210446   3.221   0.084   6.119
 3183SOL     OW10447   4.072   3.957   1.831
 3183SOL    HW110448   4.080   3.959   1.931
 3183SOL    HW210449   4.158   3.924   1.791
 3184SOL     OW10450   0.602   3.883   2.879
 3184SOL    HW110451   0.570   3.907   2.788
 3184SOL    HW210452   0.594   3.963   2.939
 3185SOL     OW10453   5.405   5.849   6.827
 3185SOL    HW110454   5.311   5.814   6.831
 3185SOL    HW210455   5.462   5.798   6.891
 3186SOL     OW10456   3.421   1.897   1.617
 3186SOL    HW110457   3.406   1.974   1.555
 3186SOL    HW210458   3.446   1.932   1.707
 3187SOL     OW10459   4.528   4.486   0.776
 3187SOL    HW110460   4.435   4.490   0.740
 3187SOL    HW210461   4.593   4.494   0.700
 3188SOL     OW10462   2.019   0.421   4.172
 3188SOL    HW110463   2.091   0.391   4.110
 3188SOL    HW210464   2.026   0.370   4.258
 3189SOL     OW10465   1.164   1.028   1.282
 3189SOL    HW110466   1.250   1.044   1.331
 3189SOL    HW210467   1.179   0.962   1.208
 3190SOL     OW10468   7.013   5.863   0.446
 3190SOL    HW110469   6.932   5.922   0.443
 3190SOL    HW210470   0.068   5.913   0.490
 3191SOL     OW10471   5.164   5.964   0.786
 3191SOL    HW110472   5.128   5.968   0.692
 3191SOL    HW210473   5.264   5.962   0.783
 3192SOL     OW10474   6.667   2.519   1.168
 3192SOL    HW110475   6.742   2.480   1.221
 3192SOL    HW210476   6.584   2.465   1.182
 3193SOL     OW10477   3.665   1.685   6.605
 3193SOL    HW110478   3.580   1.656   6.563
 3193SOL    HW210479   3.694   1.618   6.673
 3194SOL     OW10480   1.929   2.322   6.309
 3194SOL    HW110481   2.010   2.300   6.254
 3194SOL    HW210482   1.862   2.249   6.300
 3195SOL     OW10483   2.955   1.932   3.059
 3195SOL    HW110484   2.878   1.967   3.005
 3195SOL    HW210485   2.921   1.899   3.147
 3196SOL     OW10486   0.352   1.323   6.313
 3196SOL    HW110487   0.253   1.335   6.304
 3196SOL    HW210488   0.371   1.272   6.397
 3197SOL     OW10489   2.662   6.482   3.515
 3197SOL    HW110490   2.744   6.516   3.563
 3197SOL    HW210491   2.688   6.448   3.425
 3198SOL     OW10492   5.621   2.868   4.727
 3198SOL    HW110493   5.629   2.942   4.660
 3198SOL    HW210494   5.556   2.800   4.694
 3199SOL     OW10495   5.442   3.507   2.354
 3199SOL    HW110496   5.399   3.556   2.278
 3199SOL    HW210497   5.473   3.417   2.323
 3200SOL     OW10498   6.104   3.089   1.687
 3200SOL    HW110499   6.042   3.035   1.630
 3200SOL    HW210500   6.190   3.104   1.638
 3201SOL     OW10501   5.672   4.830   4.254
 3201SOL    HW110502   5.700   4.748   4.204
 3201SOL    HW210503   5.708   4.826   4.347
 3202SOL     OW10504   7.013   4.710   1.694
 3202SOL    HW110505   0.049   4.670   1.766
 3202SOL    HW210506   0.001   4.809   1.696
 3203SOL     OW10507   6.505   2.544   0.490
 3203SOL    HW110508   6.591   2.501   0.463
 3203SOL    HW210509   6.430   2.503   0.437
 3204SOL     OW10510   4.670   6.367   2.247
 3204SOL    HW110511   4.676   6.279   2.295
 3204SOL    HW210512   4.672   6.442   2.313
 3205SOL     OW10513   6.640   3.239   6.400
 3205SOL    HW110514   6.684   3.224   6.488
 3205SOL    HW210515   6.694   3.195   6.328
 3206SOL     OW10516   1.034   5.690   6.354
 3206SOL    HW110517   0.936   5.700   6.367
 3206SOL    HW210518   1.062   5.739   6.272
 3207SOL     OW10519   1.061   0.472   5.781
 3207SOL    HW110520   1.141   0.467   5.720
 3207SOL    HW210521   1.019   0.563   5.773
 3208SOL     OW10522   4.875   5.893   5.541
 3208SOL    HW110523   4.820   5.885   5.624
 3208SOL    HW210524   4.817   5.881   5.461
 3209SOL     OW10525   4.615   5.937   3.215
 3209SOL    HW110526   4.606   6.028   3.173
 3209SOL    HW210527   4.643   5.947   3.310
 3210SOL     OW10528   0.963   4.407   1.631
 3210SOL    HW110529   0.893   4.452   1.687
 3210SOL    HW210530   0.929   4.397   1.538
 3211SOL     OW10531   1.382   4.072   1.125
 3211SOL    HW110532   1.296   4.124   1.120
 3211SOL    HW210533   1.455   4.132   1.157
 3212SOL     OW10534   3.362   0.551   0.906
 3212SOL    HW110535   3.331   0.510   0.821
 3212SOL    HW210536   3.299   0.527   0.980
 3213SOL     OW10537   0.710   5.769   1.475
 3213SOL    HW110538   0.638   5.831   1.506
 3213SOL    HW210539   0.768   5.816   1.408
 3214SOL     OW10540   5.031   5.252   0.619
 3214SOL    HW110541   5.067   5.307   0.544
 3214SOL    HW210542   5.022   5.157   0.590
 3215SOL     OW10543   6.733   3.253   0.616
 3215SOL    HW110544   6.723   3.189   0.540
 3215SOL    HW210545   6.700   3.209   0.700
 3216SOL     OW10546   5.779   5.154   0.599
 3216SOL    HW110547   5.705   5.094   0.629
 3216SOL    HW210548   5.807   5.213   0.674
 3217SOL     OW10549   0.047   5.358   2.266
 3217SOL    HW110550   0.050   5.456   2.286
 3217SOL    HW210551   0.141   5.324   2.257
 3218SOL     OW10552   4.265   1.395   3.394
 3218SOL    HW110553   4.230   1.485   3.424
 3218SOL    HW210554   4.236   1.378   3.300
 3219SOL     OW10555   6.980   1.718   3.686
 3219SOL    HW110556   6.957   1.645   3.750
 3219SOL    HW210557   0.033   1.774   3.725
 3220SOL     OW10558   6.187   5.764   6.813
 3220SOL    HW110559   6.161   5.705   6.889
 3220SOL    HW210560   6.260   5.721   6.760
 3221SOL     OW10561   3.975   0.579   1.612
 3221SOL    HW110562   3.901   0.526   1.570
 3221SOL    HW210563   4.058   0.569   1.558
 3222SOL     OW10564   3.830   1.393   2.318
 3222SOL    HW110565   3.761   1.370   2.386
 3222SOL    HW210566   3.788   1.447   2.245
 3223SOL     OW10567   1.798   5.854   6.322
 3223SOL    HW110568   1.705   5.883   6.347
 3223SOL    HW210569   1.846   5.822   6.403
 3224SOL     OW10570   4.446   3.664   6.596
 3224SOL    HW110571   4.409   3.574   6.621
 3224SOL    HW210572   4.383   3.736   6.625
 3225SOL     OW10573   4.697   3.613   6.492
 3225SOL    HW110574   4.619   3.627   6.553
 3225SOL    HW210575   4.664   3.584   6.402
 3226SOL     OW10576   1.897   1.293   3.722
 3226SOL    HW110577   1.856   1.378   3.754
 3226SOL    HW210578   1.919   1.301   3.625
 3227SOL     OW10579   3.818   2.390   0.008
 3227SOL    HW110580   3.843   2.434   6.942
 3227SOL    HW210581   3.900   2.375   0.063
 3228SOL     OW10582   6.640   4.099   2.949
 3228SOL    HW110583   6.571   4.147   3.003
 3228SOL    HW210584   6.683   4.028   3.005
 3229SOL     OW10585   4.267   0.313   5.414
 3229SOL    HW110586   4.237   0.252   5.488
 3229SOL    HW210587   4.194   0.321   5.346
 3230SOL     OW10588   1.907   3.190   4.927
 3230SOL    HW110589   1.846   3.117   4.894
 3230SOL    HW210590   1.915   3.260   4.856
 3231SOL     OW10591   2.316   0.536   0.991
 3231SOL    HW110592   2.411   0.541   1.023
 3231SOL    HW210593   2.261   0.604   1.039
 3232SOL     OW10594   5.070   5.479   4.758
 3232SOL    HW110595   5.050   5.576   4.770
 3232SOL    HW210596   4.991   5.425   4.788
 3233SOL     OW10597   1.210   2.843   1.609
 3233SOL    HW110598   1.187   2.867   1.514
 3233SOL    HW210599   1.287   2.780   1.610
 3234SOL     OW10600   6.850   1.815   6.774
 3234SOL    HW110601   6.912   1.757   6.721
 3234SOL    HW210602   6.847   1.782   6.868
 3235SOL     OW10603   5.742   1.000   1.707
 3235SOL    HW110604   5.791   1.087   1.707
 3235SOL    HW210605   5.781   0.939   1.776
 3236SOL     OW10606   1.604   2.932   0.970
 3236SOL    HW110607   1.602   2.891   1.061
 3236SOL    HW210608   1.647   3.022   0.974
 3237SOL     OW10609   4.862   1.404   4.190
 3237SOL    HW110610   4.818   1.428   4.103
 3237SOL    HW210611   4.911   1.483   4.226
 3238SOL     OW10612   0.338   5.157   0.800
 3238SOL    HW110613   0.277   5.170   0.878
 3238SOL    HW210614   0.391   5.240   0.785
 3239SOL     OW10615   6.299   1.716   1.825
 3239SOL    HW110616   6.322   1.800   1.875
 3239SOL    HW210617   6.217   1.731   1.770
 3240SOL     OW10618   0.844   0.136   6.316
 3240SOL    HW110619   0.836   0.098   6.408
 3240SOL    HW210620   0.910   0.211   6.317
 3241SOL     OW10621   4.446   1.939   5.638
 3241SOL    HW110622   4.430   1.881   5.558
 3241SOL    HW210623   4.375   1.921   5.706
 3242SOL     OW10624   3.300   4.135   6.786
 3242SOL    HW110625   3.357   4.208   6.825
 3242SOL    HW210626   3.329   4.047   6.823
 3243SOL     OW10627   4.241   4.685   0.438
 3243SOL    HW110628   4.306   4.610   0.452
 3243SOL    HW210629   4.291   4.771   0.429
 3244SOL     OW10630   5.285   5.495   0.573
 3244SOL    HW110631   5.251   5.495   0.667
 3244SOL    HW210632   5.380   5.463   0.571
 3245SOL     OW10633   4.968   2.885   5.052
 3245SOL    HW110634   4.950   2.816   4.982
 3245SOL    HW210635   4.882   2.918   5.090
 3246SOL     OW10636   5.858   0.673   2.513
 3246SOL    HW110637   5.927   0.641   2.448
 3246SOL    HW210638   5.891   0.660   2.606
 3247SOL     OW10639   6.006   4.613   2.561
 3247SOL    HW110640   5.975   4.708   2.561
 3247SOL    HW210641   5.957   4.561   2.631
 3248SOL     OW10642   6.716   3.512   0.917
 3248SOL    HW110643   6.617   3.510   0.902
 3248SOL    HW210644   6.740   3.449   0.991
 3249SOL     OW10645   4.093   3.309   4.698
 3249SOL    HW110646   4.166   3.273   4.756
 3249SOL    HW210647   4.103   3.408   4.691
 3250SOL     OW10648   6.022   6.392   2.181
 3250SOL    HW110649   6.035   6.354   2.089
 3250SOL    HW210650   6.111   6.419   2.218
 3251SOL     OW10651   2.810   1.036   3.074
 3251SOL    HW110652   2.778   1.007   3.165
 3251SOL    HW210653   2.809   1.135   3.069
 3252SOL     OW10654   2.053   1.924   2.759
 3252SOL    HW110655   2.068   1.879   2.671
 3252SOL    HW210656   2.141   1.931   2.808
 3253SOL     OW10657   5.427   3.369   2.031
 3253SOL    HW110658   5.499   3.397   1.967
 3253SOL    HW210659   5.339   3.402   1.999
 3254SOL     OW10660   5.459   5.292   4.916
 3254SOL    HW110661   5.510   5.335   4.841
 3254SOL    HW210662   5.523   5.260   4.986
 3255SOL     OW10663   5.378   5.765   0.612
 3255SOL    HW110664   5.298   5.824   0.623
 3255SOL    HW210665   5.368   5.712   0.528
 3256SOL     OW10666   3.283   1.226   6.894
 3256SOL    HW110667   3.206   1.270   6.849
 3256SOL    HW210668   3.282   1.128   6.873
 3257SOL     OW10669   1.985   1.305   1.595
 3257SOL    HW110670   2.040   1.387   1.603
 3257SOL    HW210671   2.036   1.226   1.629
 3258SOL     OW10672   4.267   4.724   1.925
 3258SOL    HW110673   4.309   4.648   1.975
 3258SOL    HW210674   4.319   4.742   1.842
 3259SOL     OW10675   4.518   5.347   3.433
 3259SOL    HW110676   4.480   5.295   3.356
 3259SOL    HW210677   4.606   5.308   3.460
 3260SOL     OW10678   2.037   1.796   0.946
 3260SOL    HW110679   2.003   1.881   0.906
 3260SOL    HW210680   2.062   1.813   1.042
 3261SOL     OW10681   5.270   6.942   1.153
 3261SOL    HW110682   5.258   6.892   1.067
 3261SOL    HW210683   5.231   6.889   1.229
 3262SOL     OW10684   3.127   1.923   2.126
 3262SOL    HW110685   3.112   1.908   2.028
 3262SOL    HW210686   3.077   2.004   2.155
 3263SOL     OW10687   2.296   0.621   3.334
 3263SOL    HW110688   2.250   0.609   3.422
 3263SOL    HW210689   2.243   0.685   3.278
 3264SOL     OW10690   1.630   4.502   0.871
 3264SOL    HW110691   1.642   4.476   0.967
 3264SOL    HW210692   1.713   4.544   0.836
 3265SOL     OW10693   4.941   0.697   6.584
 3265SOL    HW110694   4.949   0.612   6.636
 3265SOL    HW210695   5.031   0.722   6.548
 3266SOL     OW10696   1.614   3.491   1.171
 3266SOL    HW110697   1.637   3.500   1.074
 3266SOL    HW210698   1.515   3.488   1.183
 3267SOL     OW10699   3.665   0.660   0.552
 3267SOL    HW110700   3.639   0.563   0.553
 3267SOL    HW210701   3.761   0.669   0.579
 3268SOL     OW10702   1.423   3.729   0.690
 3268SOL    HW110703   1.382   3.790   0.757
 3268SOL    HW210704   1.384   3.748   0.599
 3269SOL     OW10705   4.296   5.268   2.235
 3269SOL    HW110706   4.373   5.255   2.298
 3269SOL    HW210707   4.214   5.227   2.274
 3270SOL     OW10708   0.523   4.312   5.453
 3270SOL    HW110709   0.587   4.314   5.530
 3270SOL    HW210710   0.453   4.382   5.467
 3271SOL     OW10711   6.113   3.617   2.605
 3271SOL    HW110712   6.211   3.637   2.609
 3271SOL    HW210713   6.083   3.580   2.693
 3272SOL     OW10714   3.618   4.305   6.121
 3272SOL    HW110715   3.704   4.321   6.073
 3272SOL    HW210716   3.591   4.209   6.109
 3273SOL     OW10717   0.542   6.443   1.284
 3273SOL    HW110718   0.582   6.522   1.331
 3273SOL    HW210719   0.549   6.457   1.186
 3274SOL     OW10720   4.880   1.288   1.471
 3274SOL    HW110721   4.871   1.349   1.393
 3274SOL    HW210722   4.932   1.333   1.543
 3275SOL     OW10723   6.663   1.456   6.755
 3275SOL    HW110724   6.579   1.413   6.787
 3275SOL    HW210725   6.706   1.397   6.686
 3276SOL     OW10726   2.066   6.121   0.216
 3276SOL    HW110727   1.982   6.169   0.242
 3276SOL    HW210728   2.073   6.035   0.265
 3277SOL     OW10729   4.434   6.949   0.342
 3277SOL    HW110730   4.359   6.998   0.298
 3277SOL    HW210731   4.502   6.924   0.273
 3278SOL     OW10732   1.047   1.007   6.202
 3278SOL    HW110733   1.142   1.027   6.176
 3278SOL    HW210734   0.991   1.089   6.192
 3279SOL     OW10735   5.481   0.660   6.841
 3279SOL    HW110736   5.572   0.627   6.815
 3279SOL    HW210737   5.491   0.727   6.915
 3280SOL     OW10738   3.675   5.830   4.155
 3280SOL    HW110739   3.588   5.822   4.205
 3280SOL    HW210740   3.677   5.763   4.081
 3281SOL     OW10741   2.162   6.012   1.684
 3281SOL    HW110742   2.135   6.033   1.589
 3281SOL    HW210743   2.261   5.997   1.687
 3282SOL     OW10744   0.431   4.923   5.620
 3282SOL    HW110745   0.506   4.869   5.660
 3282SOL    HW210746   0.397   4.877   5.538
 3283SOL     OW10747   4.372   1.020   1.315
 3283SOL    HW110748   4.362   1.120   1.321
 3283SOL    HW210749   4.457   0.992   1.359
 3284SOL     OW10750   6.928   5.385   6.945
 3284SOL    HW110751   6.843   5.438   6.948
 3284SOL    HW210752   7.003   5.441   6.979
 3285SOL     OW10753   5.152   2.949   3.857
 3285SOL    HW110754   5.129   2.904   3.771
 3285SOL    HW210755   5.077   2.940   3.921
 3286SOL     OW10756   4.068   3.341   2.448
 3286SOL    HW110757   3.972   3.366   2.444
 3286SOL    HW210758   4.115   3.373   2.365
 3287SOL     OW10759   1.051   6.753   0.042
 3287SOL    HW110760   1.145   6.781   0.023
 3287SOL    HW210761   1.006   6.823   0.097
 3288SOL     OW10762   0.361   5.282   6.362
 3288SOL    HW110763   0.416   5.360   6.391
 3288SOL    HW210764   0.379   5.261   6.266
 3289SOL     OW10765   2.779   6.876   5.690
 3289SOL    HW110766   2.692   6.831   5.670
 3289SOL    HW210767   2.817   6.838   5.775
 3290SOL     OW10768   0.437   0.062   2.074
 3290SOL    HW110769   0.395   0.079   1.985
 3290SOL    HW210770   0.374   0.089   2.146
 3291SOL     OW10771   2.037   6.545   0.987
 3291SOL    HW110772   2.077   6.636   0.974
 3291SOL    HW210773   1.980   6.523   0.907
 3292SOL     OW10774   0.545   0.850   0.871
 3292SOL    HW110775   0.496   0.768   0.841
 3292SOL    HW210776   0.602   0.883   0.796
 3293SOL     OW10777   0.501   3.910   3.170
 3293SOL    HW110778   0.490   3.932   3.267
 3293SOL    HW210779   0.563   3.976   3.128
 3294SOL     OW10780   6.617   1.687   6.237
 3294SOL    HW110781   6.598   1.612   6.173
 3294SOL    HW210782   6.561   1.766   6.212
 3295SOL     OW10783   1.576   3.186   1.803
 3295SOL    HW110784   1.512   3.132   1.748
 3295SOL    HW210785   1.663   3.194   1.754
 3296SOL     OW10786   1.681   6.677   2.213
 3296SOL    HW110787   1.628   6.724   2.284
 3296SOL    HW210788   1.625   6.604   2.173
 3297SOL     OW10789   3.360   0.626   4.613
 3297SOL    HW110790   3.371   0.657   4.708
 3297SOL    HW210791   3.342   0.528   4.612
 3298SOL     OW10792   5.641   1.387   4.889
 3298SOL    HW110793   5.575   1.452   4.929
 3298SOL    HW210794   5.725   1.436   4.865
 3299SOL     OW10795   2.658   5.592   3.844
 3299SOL    HW110796   2.653   5.493   3.827
 3299SOL    HW210797   2.751   5.624   3.825
 3300SOL     OW10798   0.401   0.773   5.304
 3300SOL    HW110799   0.397   0.830   5.386
 3300SOL    HW210800   0.348   0.816   5.231
 3301SOL     OW10801   2.124   3.322   3.631
 3301SOL    HW110802   2.144   3.344   3.536
 3301SOL    HW210803   2.091   3.228   3.637
 3302SOL     OW10804   0.213   5.004   5.001
 3302SOL    HW110805   0.267   5.085   5.025
 3302SOL    HW210806   0.217   4.938   5.076
 3303SOL     OW10807   3.565   3.272   1.756
 3303SOL    HW110808   3.658   3.268   1.794
 3303SOL    HW210809   3.569   3.313   1.664
 3304SOL     OW10810   0.831   5.887   4.048
 3304SOL    HW110811   0.732   5.900   4.055
 3304SOL    HW210812   0.850   5.804   3.996
 3305SOL     OW10813   1.834   1.651   3.143
 3305SOL    HW110814   1.843   1.612   3.051
 3305SOL    HW210815   1.924   1.684   3.174
 3306SOL     OW10816   1.868   5.413   4.776
 3306SOL    HW110817   1.844   5.326   4.732
 3306SOL    HW210818   1.874   5.484   4.706
 3307SOL     OW10819   6.952   5.585   0.385
 3307SOL    HW110820   6.876   5.596   0.321
 3307SOL    HW210821   6.982   5.675   0.417
 3308SOL     OW10822   3.604   6.340   6.852
 3308SOL    HW110823   3.643   6.428   6.881
 3308SOL    HW210824   3.575   6.289   6.932
 3309SOL     OW10825   6.802   5.521   2.661
 3309SOL    HW110826   6.835   5.615   2.649
 3309SOL    HW210827   6.878   5.457   2.651
 3310SOL     OW10828   0.049   3.524   5.774
 3310SOL    HW110829   7.005   3.548   5.846
 3310SOL    HW210830   0.020   3.566   5.688
 3311SOL     OW10831   2.654   3.923   1.690
 3311SOL    HW110832   2.660   3.974   1.605
 3311SOL    HW210833   2.719   3.847   1.688
 3312SOL     OW10834   4.337   4.749   5.790
 3312SOL    HW110835   4.404   4.812   5.752
 3312SOL    HW210836   4.346   4.660   5.745
 3313SOL     OW10837   0.334   4.992   3.515
 3313SOL    HW110838   0.405   5.034   3.459
 3313SOL    HW210839   0.374   4.921   3.573
 3314SOL     OW10840   2.735   1.503   3.386
 3314SOL    HW110841   2.700   1.523   3.295
 3314SOL    HW210842   2.760   1.589   3.431
 3315SOL     OW10843   6.456   3.258   5.041
 3315SOL    HW110844   6.555   3.249   5.024
 3315SOL    HW210845   6.432   3.355   5.041
 3316SOL     OW10846   4.974   2.060   5.846
 3316SOL    HW110847   4.875   2.075   5.855
 3316SOL    HW210848   4.995   2.033   5.752
 3317SOL     OW10849   4.313   3.128   1.794
 3317SOL    HW110850   4.313   3.227   1.810
 3317SOL    HW210851   4.407   3.094   1.798
 3318SOL     OW10852   2.986   0.635   0.502
 3318SOL    HW110853   3.028   0.638   0.411
 3318SOL    HW210854   2.891   0.604   0.494
 3319SOL     OW10855   6.339   0.875   4.131
 3319SOL    HW110856   6.416   0.832   4.083
 3319SOL    HW210857   6.299   0.946   4.073
 3320SOL     OW10858   5.682   0.446   4.746
 3320SOL    HW110859   5.695   0.350   4.722
 3320SOL    HW210860   5.693   0.457   4.844
 3321SOL     OW10861   4.374   2.138   0.463
 3321SOL    HW110862   4.451   2.106   0.520
 3321SOL    HW210863   4.385   2.102   0.370
 3322SOL     OW10864   5.733   3.560   0.815
 3322SOL    HW110865   5.722   3.466   0.848
 3322SOL    HW210866   5.762   3.559   0.719
 3323SOL     OW10867   2.810   2.995   0.635
 3323SOL    HW110868   2.869   2.916   0.642
 3323SOL    HW210869   2.865   3.079   0.638
 3324SOL     OW10870   2.608   4.194   6.329
 3324SOL    HW110871   2.659   4.235   6.405
 3324SOL    HW210872   2.523   4.246   6.314
 3325SOL     OW10873   1.799   3.070   6.779
 3325SOL    HW110874   1.843   3.074   6.689
 3325SOL    HW210875   1.745   3.153   6.793
 3326SOL     OW10876   5.092   2.320   2.303
 3326SOL    HW110877   4.998   2.309   2.335
 3326SOL    HW210878   5.100   2.407   2.253
 3327SOL     OW10879   2.456   5.969   1.725
 3327SOL    HW110880   2.487   5.983   1.631
 3327SOL    HW210881   2.526   5.920   1.777
 3328SOL     OW10882   4.098   1.424   1.051
 3328SOL    HW110883   4.099   1.521   1.025
 3328SOL    HW210884   4.163   1.374   0.994
 3329SOL     OW10885   4.962   7.020   4.750
 3329SOL    HW110886   4.920   0.057   4.680
 3329SOL    HW210887   4.893   6.962   4.793
 3330SOL     OW10888   6.326   4.981   1.164
 3330SOL    HW110889   6.403   5.040   1.188
 3330SOL    HW210890   6.360   4.892   1.135
 3331SOL     OW10891   1.390   3.773   1.083
 3331SOL    HW110892   1.342   3.853   1.046
 3331SOL    HW210893   1.416   3.790   1.178
 3332SOL     OW10894   6.799   5.012   0.346
 3332SOL    HW110895   6.819   5.034   0.441
 3332SOL    HW210896   6.788   5.096   0.293
 3333SOL     OW10897   3.354   3.891   6.411
 3333SOL    HW110898   3.320   3.887   6.317
 3333SOL    HW210899   3.454   3.900   6.411
 3334SOL     OW10900   2.307   3.987   1.409
 3334SOL    HW110901   2.314   3.894   1.373
 3334SOL    HW210902   2.308   4.052   1.333
 3335SOL     OW10903   5.012   0.243   5.823
 3335SOL    HW110904   5.104   0.270   5.794
 3335SOL    HW210905   5.019   0.176   5.897
 3336SOL     OW10906   1.742   6.509   4.057
 3336SOL    HW110907   1.758   6.420   4.013
 3336SOL    HW210908   1.796   6.514   4.141
 3337SOL     OW10909   3.145   4.054   1.420
 3337SOL    HW110910   3.055   4.097   1.411
 3337SOL    HW210911   3.155   3.983   1.350
 3338SOL     OW10912   5.971   3.237   2.271
 3338SOL    HW110913   5.928   3.309   2.217
 3338SOL    HW210914   6.060   3.214   2.230
 3339SOL     OW10915   0.869   6.934   6.123
 3339SOL    HW110916   0.899   7.016   6.172
 3339SOL    HW210917   0.799   6.887   6.176
 3340SOL     OW10918   3.434   1.658   3.054
 3340SOL    HW110919   3.494   1.729   3.090
 3340SOL    HW210920   3.388   1.612   3.131
 3341SOL     OW10921   0.806   4.767   3.690
 3341SOL    HW110922   0.709   4.761   3.714
 3341SOL    HW210923   0.860   4.782   3.772
 3342SOL     OW10924   1.535   6.136   3.818
 3342SOL    HW110925   1.536   6.053   3.762
 3342SOL    HW210926   1.443   6.174   3.821
 3343SOL     OW10927   4.845   3.617   6.986
 3343SOL    HW110928   4.792   3.683   6.933
 3343SOL    HW210929   4.934   3.657   7.010
 3344SOL     OW10930   6.015   3.136   3.413
 3344SOL    HW110931   5.941   3.073   3.391
 3344SOL    HW210932   6.023   3.144   3.513
 3345SOL     OW10933   1.553   3.008   6.248
 3345SOL    HW110934   1.467   3.005   6.300
 3345SOL    HW210935   1.561   2.924   6.194
 3346SOL     OW10936   0.812   1.177   6.842
 3346SOL    HW110937   0.908   1.177   6.817
 3346SOL    HW210938   0.778   1.271   6.848
 3347SOL     OW10939   1.017   3.120   5.260
 3347SOL    HW110940   0.925   3.150   5.283
 3347SOL    HW210941   1.012   3.044   5.195
 3348SOL     OW10942   3.829   3.768   4.618
 3348SOL    HW110943   3.896   3.706   4.658
 3348SOL    HW210944   3.772   3.718   4.552
 3349SOL     OW10945   1.748   5.005   3.157
 3349SOL    HW110946   1.749   5.089   3.104
 3349SOL    HW210947   1.712   4.930   3.102
 3350SOL     OW10948   0.065   2.316   5.904
 3350SOL    HW110949   0.012   2.361   5.832
 3350SOL    HW210950   0.063   2.217   5.890
 3351SOL     OW10951   5.071   0.601   2.652
 3351SOL    HW110952   4.994   0.542   2.677
 3351SOL    HW210953   5.098   0.654   2.733
 3352SOL     OW10954   6.482   2.977   0.335
 3352SOL    HW110955   6.502   2.945   0.427
 3352SOL    HW210956   6.513   3.072   0.324
 3353SOL     OW10957   3.078   5.892   1.896
 3353SOL    HW110958   3.075   5.792   1.890
 3353SOL    HW210959   3.099   5.930   1.806
 3354SOL     OW10960   4.699   2.470   5.664
 3354SOL    HW110961   4.723   2.566   5.684
 3354SOL    HW210962   4.684   2.460   5.566
 3355SOL     OW10963   2.625   2.125   6.074
 3355SOL    HW110964   2.717   2.143   6.107
 3355SOL    HW210965   2.619   2.149   5.977
 3356SOL     OW10966   0.283   5.339   5.833
 3356SOL    HW110967   0.208   5.387   5.788
 3356SOL    HW210968   0.273   5.241   5.821
 3357SOL     OW10969   2.134   3.717   2.201
 3357SOL    HW110970   2.186   3.792   2.160
 3357SOL    HW210971   2.136   3.638   2.140
 3358SOL     OW10972   4.615   1.880   1.392
 3358SOL    HW110973   4.554   1.959   1.394
 3358SOL    HW210974   4.581   1.810   1.455
 3359SOL     OW10975   0.429   6.893   2.706
 3359SOL    HW110976   0.348   6.940   2.742
 3359SOL    HW210977   0.403   6.839   2.626
 3360SOL     OW10978   1.403   1.528   6.843
 3360SOL    HW110979   1.344   1.556   6.919
 3360SOL    HW210980   1.491   1.497   6.880
 3361SOL     OW10981   0.469   5.306   4.712
 3361SOL    HW110982   0.490   5.284   4.617
 3361SOL    HW210983   0.371   5.298   4.728
 3362SOL     OW10984   3.391   1.658   2.391
 3362SOL    HW110985   3.407   1.755   2.374
 3362SOL    HW210986   3.304   1.646   2.438
 3363SOL     OW10987   6.579   0.724   2.142
 3363SOL    HW110988   6.553   0.649   2.081
 3363SOL    HW210989   6.668   0.704   2.183
 3364SOL     OW10990   1.386   4.825   3.685
 3364SOL    HW110991   1.332   4.909   3.688
 3364SOL    HW210992   1.442   4.819   3.768
 3365SOL     OW10993   0.214   2.009   5.090
 3365SOL    HW110994   0.129   1.958   5.098
 3365SOL    HW210995   0.247   2.034   5.182
 3366SOL     OW10996   5.855   5.507   4.500
 3366SOL    HW110997   5.813   5.543   4.417
 3366SOL    HW210998   5.785   5.500   4.572
 3367SOL     OW10999   3.836   2.925   2.633
 3367SOL    HW111000   3.857   2.828   2.639
 3367SOL    HW211001   3.817   2.961   2.724
 3368SOL     OW11002   0.328   5.713   6.832
 3368SOL    HW111003   0.380   5.628   6.844
 3368SOL    HW211004   0.260   5.699   6.760
 3369SOL     OW11005   3.554   2.049   0.944
 3369SOL    HW111006   3.562   2.104   1.027
 3369SOL    HW211007   3.470   2.073   0.896
 3370SOL     OW11008   6.960   6.185   0.609
 3370SOL    HW111009   6.900   6.140   0.543
 3370SOL    HW211010   0.018   6.225   0.561
 3371SOL     OW11011   2.197   2.489   1.737
 3371SOL    HW111012   2.220   2.579   1.700
 3371SOL    HW211013   2.172   2.498   1.833
 3372SOL     OW11014   6.581   1.934   0.569
 3372SOL    HW111015   6.560   1.847   0.614
 3372SOL    HW211016   6.497   1.976   0.537
 3373SOL     OW11017   0.493   1.589   3.600
 3373SOL    HW111018   0.396   1.580   3.625
 3373SOL    HW211019   0.522   1.508   3.548
 3374SOL     OW11020   1.276   6.506   4.433
 3374SOL    HW111021   1.200   6.525   4.371
 3374SOL    HW211022   1.361   6.542   4.393
 3375SOL     OW11023   0.298   4.705   0.013
 3375SOL    HW111024   0.264   4.770   0.082
 3375SOL    HW211025   0.221   4.657   6.991
 3376SOL     OW11026   4.066   3.569   4.675
 3376SOL    HW111027   4.021   3.574   4.586
 3376SOL    HW211028   4.084   3.661   4.709
 3377SOL     OW11029   6.271   5.846   6.210
 3377SOL    HW111030   6.261   5.945   6.224
 3377SOL    HW211031   6.361   5.828   6.170
 3378SOL     OW11032   1.033   1.105   0.815
 3378SOL    HW111033   0.938   1.077   0.799
 3378SOL    HW211034   1.080   1.111   0.727
 3379SOL     OW11035   0.824   0.937   5.941
 3379SOL    HW111036   0.761   0.983   6.004
 3379SOL    HW211037   0.842   0.844   5.973
 3380SOL     OW11038   5.772   6.420   4.758
 3380SOL    HW111039   5.755   6.322   4.763
 3380SOL    HW211040   5.720   6.459   4.682
 3381SOL     OW11041   0.548   2.563   1.287
 3381SOL    HW111042   0.645   2.580   1.307
 3381SOL    HW211043   0.525   2.469   1.312
 3382SOL     OW11044   0.632   2.948   0.313
 3382SOL    HW111045   0.546   2.985   0.350
 3382SOL    HW211046   0.696   2.932   0.388
 3383SOL     OW11047   4.287   5.883   1.386
 3383SOL    HW111048   4.308   5.812   1.319
 3383SOL    HW211049   4.225   5.847   1.455
 3384SOL     OW11050   3.025   3.072   0.029
 3384SOL    HW111051   3.052   3.018   6.969
 3384SOL    HW211052   2.927   3.091   0.025
 3385SOL     OW11053   0.086   3.401   5.126
 3385SOL    HW111054   0.160   3.436   5.069
 3385SOL    HW211055   7.020   3.443   5.099
 3386SOL     OW11056   5.421   4.732   0.114
 3386SOL    HW111057   5.439   4.701   0.021
 3386SOL    HW211058   5.332   4.699   0.145
 3387SOL     OW11059   2.408   0.765   2.753
 3387SOL    HW111060   2.453   0.854   2.762
 3387SOL    HW211061   2.396   0.725   2.844
 3388SOL     OW11062   5.383   3.017   2.373
 3388SOL    HW111063   5.336   3.106   2.367
 3388SOL    HW211064   5.480   3.031   2.391
 3389SOL     OW11065   5.763   5.497   6.698
 3389SOL    HW111066   5.672   5.457   6.688
 3389SOL    HW211067   5.831   5.435   6.660
 3390SOL     OW11068   5.713   0.015   6.598
 3390SOL    HW111069   5.667   6.950   6.623
 3390SOL    HW211070   5.689   0.040   6.504
 3391SOL     OW11071   4.785   2.503   4.650
 3391SOL    HW111072   4.724   2.425   4.634
 3391SOL    HW211073   4.737   2.588   4.626
 3392SOL     OW11074   2.274   0.188   3.709
 3392SOL    HW111075   2.224   0.238   3.638
 3392SOL    HW211076   2.348   0.245   3.744
 3393SOL     OW11077   0.135   6.102   0.767
 3393SOL    HW111078   0.058   6.139   0.715
 3393SOL    HW211079   0.216   6.158   0.750
 3394SOL     OW11080   5.716   3.194   1.298
 3394SOL    HW111081   5.705   3.265   1.228
 3394SOL    HW211082   5.717   3.104   1.254
 3395SOL     OW11083   5.407   3.253   3.263
 3395SOL    HW111084   5.383   3.253   3.360
 3395SOL    HW211085   5.323   3.243   3.209
 3396SOL     OW11086   5.210   1.660   3.123
 3396SOL    HW111087   5.267   1.714   3.062
 3396SOL    HW211088   5.221   1.563   3.102
 3397SOL     OW11089   3.067   6.054   5.702
 3397SOL    HW111090   3.145   6.077   5.761
 3397SOL    HW211091   3.019   5.975   5.739
 3398SOL     OW11092   0.749   6.709   5.010
 3398SOL    HW111093   0.801   6.653   5.074
 3398SOL    HW211094   0.807   6.731   4.931
 3399SOL     OW11095   5.560   4.223   3.521
 3399SOL    HW111096   5.608   4.311   3.518
 3399SOL    HW211097   5.467   4.235   3.488
 3400SOL     OW11098   4.645   3.176   6.443
 3400SOL    HW111099   4.689   3.233   6.373
 3400SOL    HW211100   4.663   3.214   6.534
 3401SOL     OW11101   0.409   2.964   0.461
 3401SOL    HW111102   0.478   2.978   0.532
 3401SOL    HW211103   0.363   2.876   0.476
 3402SOL     OW11104   4.559   5.839   0.023
 3402SOL    HW111105   4.577   5.888   6.958
 3402SOL    HW211106   4.490   5.888   0.076
 3403SOL     OW11107   3.170   5.382   5.834
 3403SOL    HW111108   3.130   5.375   5.743
 3403SOL    HW211109   3.199   5.292   5.866
 3404SOL     OW11110   4.968   1.378   0.337
 3404SOL    HW111111   4.896   1.411   0.276
 3404SOL    HW211112   5.054   1.425   0.315
 3405SOL     OW11113   6.374   4.293   5.939
 3405SOL    HW111114   6.470   4.285   5.910
 3405SOL    HW211115   6.314   4.279   5.860
 3406SOL     OW11116   0.933   3.338   1.922
 3406SOL    HW111117   0.945   3.428   1.879
 3406SOL    HW211118   0.915   3.269   1.852
 3407SOL     OW11119   1.413   4.399   6.373
 3407SOL    HW111120   1.453   4.335   6.438
 3407SOL    HW211121   1.485   4.436   6.314
 3408SOL     OW11122   5.103   3.713   4.686
 3408SOL    HW111123   5.046   3.734   4.766
 3408SOL    HW211124   5.121   3.615   4.682
 3409SOL     OW11125   3.576   6.450   6.255
 3409SOL    HW111126   3.643   6.481   6.187
 3409SOL    HW211127   3.587   6.352   6.270
 3410SOL     OW11128   6.407   6.874   1.191
 3410SOL    HW111129   6.458   6.864   1.277
 3410SOL    HW211130   6.356   6.960   1.192
 3411SOL     OW11131   0.733   2.989   1.286
 3411SOL    HW111132   0.668   3.061   1.261
 3411SOL    HW211133   0.826   3.023   1.271
 3412SOL     OW11134   4.577   2.759   0.839
 3412SOL    HW111135   4.495   2.717   0.800
 3412SOL    HW211136   4.638   2.688   0.873
 3413SOL     OW11137   5.936   1.585   0.626
 3413SOL    HW111138   5.921   1.502   0.679
 3413SOL    HW211139   5.896   1.573   0.535
 3414SOL     OW11140   3.815   1.622   6.395
 3414SOL    HW111141   3.772   1.658   6.478
 3414SOL    HW211142   3.880   1.550   6.420
 3415SOL     OW11143   1.764   3.395   3.900
 3415SOL    HW111144   1.676   3.434   3.871
 3415SOL    HW211145   1.751   3.346   3.986
 3416SOL     OW11146   6.435   6.249   0.996
 3416SOL    HW111147   6.515   6.288   0.950
 3416SOL    HW211148   6.352   6.284   0.955
 3417SOL     OW11149   0.168   6.636   3.116
 3417SOL    HW111150   0.222   6.676   3.190
 3417SOL    HW211151   0.115   6.707   3.071
 3418SOL     OW11152   3.328   5.744   3.297
 3418SOL    HW111153   3.340   5.648   3.322
 3418SOL    HW211154   3.259   5.786   3.356
 3419SOL     OW11155   2.955   5.794   5.701
 3419SOL    HW111156   2.939   5.736   5.781
 3419SOL    HW211157   2.869   5.835   5.672
 3420SOL     OW11158   5.983   2.956   3.828
 3420SOL    HW111159   6.021   3.024   3.765
 3420SOL    HW211160   6.006   2.982   3.922
 3421SOL     OW11161   4.790   1.823   4.317
 3421SOL    HW111162   4.752   1.916   4.321
 3421SOL    HW211163   4.741   1.764   4.380
 3422SOL     OW11164   2.155   0.331   0.098
 3422SOL    HW111165   2.175   0.278   0.016
 3422SOL    HW211166   2.057   0.352   0.101
 3423SOL     OW11167   0.300   4.811   6.587
 3423SOL    HW111168   0.258   4.871   6.654
 3423SOL    HW211169   0.231   4.780   6.522
 3424SOL     OW11170   2.482   6.288   0.805
 3424SOL    HW111171   2.563   6.335   0.841
 3424SOL    HW211172   2.482   6.296   0.705
 3425SOL     OW11173   5.138   5.217   2.447
 3425SOL    HW111174   5.058   5.190   2.501
 3425SOL    HW211175   5.202   5.140   2.440
 3426SOL     OW11176   4.568   2.722   0.445
 3426SOL    HW111177   4.619   2.808   0.450
 3426SOL    HW211178   4.506   2.724   0.368
 3427SOL     OW11179   0.119   1.119   0.938
 3427SOL    HW111180   0.033   1.117   0.990
 3427SOL    HW211181   0.110   1.181   0.860
 3428SOL     OW11182   2.364   5.606   6.830
 3428SOL    HW111183   2.451   5.559   6.846
 3428SOL    HW211184   2.294   5.568   6.891
 3429SOL     OW11185   0.497   1.589   0.486
 3429SOL    HW111186   0.427   1.632   0.543
 3429SOL    HW211187   0.494   1.628   0.394
 3430SOL     OW11188   1.822   6.459   5.432
 3430SOL    HW111189   1.784   6.543   5.393
 3430SOL    HW211190   1.797   6.453   5.529
 3431SOL     OW11191   1.772   0.089   1.388
 3431SOL    HW111192   1.787   7.014   1.414
 3431SOL    HW211193   1.721   0.092   1.302
 3432SOL     OW11194   1.566   3.487   6.087
 3432SOL    HW111195   1.663   3.495   6.065
 3432SOL    HW211196   1.549   3.398   6.130
 3433SOL     OW11197   1.392   6.542   5.264
 3433SOL    HW111198   1.404   6.640   5.281
 3433SOL    HW211199   1.480   6.496   5.275
 3434SOL     OW11200   4.238   1.044   2.312
 3434SOL    HW111201   4.176   1.122   2.320
 3434SOL    HW211202   4.241   1.013   2.217
 3435SOL     OW11203   2.053   0.840   0.693
 3435SOL    HW111204   1.986   0.914   0.698
 3435SOL    HW211205   2.055   0.804   0.599
 3436SOL     OW11206   3.918   6.700   6.950
 3436SOL    HW111207   3.951   6.606   6.937
 3436SOL    HW211208   3.981   6.749   7.011
 3437SOL     OW11209   2.433   0.099   5.513
 3437SOL    HW111210   2.478   0.176   5.559
 3437SOL    HW211211   2.502   0.046   5.463
 3438SOL     OW11212   1.447   3.187   0.224
 3438SOL    HW111213   1.498   3.266   0.191
 3438SOL    HW211214   1.511   3.119   0.262
 3439SOL     OW11215   2.188   6.105   4.872
 3439SOL    HW111216   2.112   6.099   4.808
 3439SOL    HW211217   2.234   6.193   4.860
 3440SOL     OW11218   2.913   3.243   0.935
 3440SOL    HW111219   2.875   3.157   0.967
 3440SOL    HW211220   2.839   3.310   0.925
 3441SOL     OW11221   6.296   4.969   5.553
 3441SOL    HW111222   6.355   5.046   5.576
 3441SOL    HW211223   6.287   4.962   5.454
 3442SOL     OW11224   2.046   4.579   1.836
 3442SOL    HW111225   1.985   4.604   1.761
 3442SOL    HW211226   2.123   4.526   1.801
 3443SOL     OW11227   3.768   6.549   1.661
 3443SOL    HW111228   3.707   6.611   1.710
 3443SOL    HW211229   3.794   6.473   1.722
 3444SOL     OW11230   5.294   5.882   6.576
 3444SOL    HW111231   5.334   5.803   6.529
 3444SOL    HW211232   5.339   5.893   6.665
 3445SOL     OW11233   5.881   5.520   2.743
 3445SOL    HW111234   5.810   5.455   2.767
 3445SOL    HW211235   5.840   5.603   2.706
 3446SOL     OW11236   6.592   1.625   1.759
 3446SOL    HW111237   6.545   1.551   1.806
 3446SOL    HW211238   6.524   1.693   1.729
 3447SOL     OW11239   5.315   5.552   0.904
 3447SOL    HW111240   5.245   5.606   0.856
 3447SOL    HW211241   5.390   5.531   0.842
 3448SOL     OW11242   4.055   1.037   6.852
 3448SOL    HW111243   4.147   1.037   6.813
 3448SOL    HW211244   4.001   1.112   6.811
 3449SOL     OW11245   5.768   5.961   4.374
 3449SOL    HW111246   5.791   5.982   4.279
 3449SOL    HW211247   5.669   5.950   4.382
 3450SOL     OW11248   0.036   2.506   6.810
 3450SOL    HW111249   0.099   2.452   6.755
 3450SOL    HW211250   0.050   2.487   6.907
 3451SOL     OW11251   2.466   6.100   0.389
 3451SOL    HW111252   2.560   6.133   0.392
 3451SOL    HW211253   2.412   6.159   0.329
 3452SOL     OW11254   5.888   0.848   6.339
 3452SOL    HW111255   5.935   0.931   6.368
 3452SOL    HW211256   5.899   0.777   6.409
 3453SOL     OW11257   6.384   5.658   6.660
 3453SOL    HW111258   6.331   5.640   6.577
 3453SOL    HW211259   6.441   5.739   6.646
 3454SOL     OW11260   0.733   3.244   4.949
 3454SOL    HW111261   0.681   3.300   4.884
 3454SOL    HW211262   0.817   3.212   4.905
 3455SOL     OW11263   2.564   2.029   4.173
 3455SOL    HW111264   2.466   2.010   4.182
 3455SOL    HW211265   2.578   2.101   4.106
 3456SOL     OW11266   5.483   5.253   1.692
 3456SOL    HW111267   5.393   5.261   1.650
 3456SOL    HW211268   5.472   5.232   1.790
 3457SOL     OW11269   2.759   5.234   3.572
 3457SOL    HW111270   2.765   5.319   3.519
 3457SOL    HW211271   2.726   5.254   3.664
 3458SOL     OW11272   4.858   0.793   2.337
 3458SOL    HW111273   4.780   0.852   2.316
 3458SOL    HW211274   4.902   0.824   2.422
 3459SOL     OW11275   5.553   3.198   2.902
 3459SOL    HW111276   5.455   3.175   2.899
 3459SOL    HW211277   5.564   3.291   2.938
 3460SOL     OW11278   2.442   2.501   7.005
 3460SOL    HW111279   2.364   2.486   0.045
 3460SOL    HW211280   2.520   2.448   0.018
 3461SOL     OW11281   5.403   4.202   5.910
 3461SOL    HW111282   5.492   4.160   5.893
 3461SOL    HW211283   5.410   4.301   5.898
 3462SOL     OW11284   0.261   4.065   4.231
 3462SOL    HW111285   0.309   4.069   4.319
 3462SOL    HW211286   0.275   3.975   4.190
 3463SOL     OW11287   1.053   4.266   2.098
 3463SOL    HW111288   1.035   4.169   2.111
 3463SOL    HW211289   1.137   4.279   2.046
 3464SOL     OW11290   6.756   4.266   5.122
 3464SOL    HW111291   6.659   4.287   5.111
 3464SOL    HW211292   6.806   4.299   5.042
 3465SOL     OW11293   1.113   1.926   1.772
 3465SOL    HW111294   1.201   1.881   1.756
 3465SOL    HW211295   1.060   1.872   1.837
 3466SOL     OW11296   6.743   4.865   6.671
 3466SOL    HW111297   6.727   4.866   6.572
 3466SOL    HW211298   6.836   4.895   6.690
 3467SOL     OW11299   1.886   2.737   0.190
 3467SOL    HW111300   1.919   2.777   0.104
 3467SOL    HW211301   1.806   2.680   0.170
 3468SOL     OW11302   4.648   6.252   3.222
 3468SOL    HW111303   4.586   6.327   3.200
 3468SOL    HW211304   4.730   6.259   3.165
 3469SOL     OW11305   5.130   0.198   3.422
 3469SOL    HW111306   5.097   0.231   3.333
 3469SOL    HW211307   5.054   0.153   3.470
 3470SOL     OW11308   6.539   3.852   1.300
 3470SOL    HW111309   6.546   3.767   1.352
 3470SOL    HW211310   6.460   3.847   1.238
 3471SOL     OW11311   4.048   5.561   4.073
 3471SOL    HW111312   4.014   5.652   4.050
 3471SOL    HW211313   4.147   5.564   4.085
 3472SOL     OW11314   2.326   1.019   2.187
 3472SOL    HW111315   2.388   0.971   2.125
 3472SOL    HW211316   2.366   1.107   2.212
 3473SOL     OW11317   0.299   2.579   0.945
 3473SOL    HW111318   0.262   2.514   1.012
 3473SOL    HW211319   0.367   2.638   0.989
 3474SOL     OW11320   1.600   4.903   2.623
 3474SOL    HW111321   1.563   4.814   2.596
 3474SOL    HW211322   1.642   4.947   2.544
 3475SOL     OW11323   1.037   5.457   4.498
 3475SOL    HW111324   1.119   5.487   4.545
 3475SOL    HW211325   1.053   5.456   4.400
 3476SOL     OW11326   3.311   1.936   2.837
 3476SOL    HW111327   3.299   1.960   2.933
 3476SOL    HW211328   3.295   1.838   2.824
 3477SOL     OW11329   3.029   4.873   1.081
 3477SOL    HW111330   3.127   4.889   1.079
 3477SOL    HW211331   2.983   4.942   1.025
 3478SOL     OW11332   2.315   5.930   4.641
 3478SOL    HW111333   2.272   5.924   4.731
 3478SOL    HW211334   2.410   5.899   4.648
 3479SOL     OW11335   1.638   0.885   2.736
 3479SOL    HW111336   1.625   0.799   2.687
 3479SOL    HW211337   1.595   0.959   2.685
 3480SOL     OW11338   0.440   6.860   5.388
 3480SOL    HW111339   0.464   6.854   5.485
 3480SOL    HW211340   0.511   6.910   5.339
 3481SOL     OW11341   4.886   6.963   0.293
 3481SOL    HW111342   4.908   6.993   0.200
 3481SOL    HW211343   4.823   0.007   0.335
 3482SOL     OW11344   5.814   1.562   1.505
 3482SOL    HW111345   5.866   1.639   1.467
 3482SOL    HW211346   5.814   1.487   1.439
 3483SOL     OW11347   4.913   1.482   1.868
 3483SOL    HW111348   4.968   1.403   1.893
 3483SOL    HW211349   4.817   1.463   1.888
 3484SOL     OW11350   2.360   3.687   1.375
 3484SOL    HW111351   2.339   3.700   1.278
 3484SOL    HW211352   2.289   3.631   1.418
 3485SOL     OW11353   1.546   0.664   3.527
 3485SOL    HW111354   1.497   0.703   3.449
 3485SOL    HW211355   1.481   0.643   3.600
 3486SOL     OW11356   3.016   1.329   2.650
 3486SOL    HW111357   2.954   1.259   2.686
 3486SOL    HW211358   2.963   1.398   2.601
 3487SOL     OW11359   5.795   2.854   6.029
 3487SOL    HW111360   5.813   2.938   6.081
 3487SOL    HW211361   5.744   2.790   6.086
 3488SOL     OW11362   6.246   1.963   5.054
 3488SOL    HW111363   6.150   1.990   5.066
 3488SOL    HW211364   6.253   1.864   5.062
 3489SOL     OW11365   3.324   7.004   0.465
 3489SOL    HW111366   3.265   0.064   0.455
 3489SOL    HW211367   3.404   0.009   0.520
 3490SOL     OW11368   4.160   4.587   0.176
 3490SOL    HW111369   4.189   4.620   0.265
 3490SOL    HW211370   4.065   4.556   0.181
 3491SOL     OW11371   5.622   2.910   5.150
 3491SOL    HW111372   5.646   2.970   5.074
 3491SOL    HW211373   5.590   2.822   5.115
 3492SOL     OW11374   1.170   5.861   1.208
 3492SOL    HW111375   1.143   5.917   1.130
 3492SOL    HW211376   1.208   5.774   1.175
 3493SOL     OW11377   5.734   4.586   6.314
 3493SOL    HW111378   5.669   4.654   6.278
 3493SOL    HW211379   5.745   4.512   6.248
 3494SOL     OW11380   3.924   0.797   2.033
 3494SOL    HW111381   3.920   0.738   1.953
 3494SOL    HW211382   3.884   0.886   2.011
 3495SOL     OW11383   4.371   5.438   1.902
 3495SOL    HW111384   4.337   5.347   1.927
 3495SOL    HW211385   4.301   5.506   1.923
 3496SOL     OW11386   6.794   3.961   0.552
 3496SOL    HW111387   6.864   3.902   0.592
 3496SOL    HW211388   6.835   4.018   0.480
 3497SOL     OW11389   3.340   0.556   3.508
 3497SOL    HW111390   3.300   0.569   3.417
 3497SOL    HW211391   3.283   0.602   3.576
 3498SOL     OW11392   2.138   2.269   0.904
 3498SOL    HW111393   2.072   2.199   0.878
 3498SOL    HW211394   2.216   2.227   0.949
 3499SOL     OW11395   4.844   2.879   4.594
 3499SOL    HW111396   4.855   2.972   4.560
 3499SOL    HW211397   4.934   2.836   4.600
 3500SOL     OW11398   1.267   3.710   5.103
 3500SOL    HW111399   1.299   3.804   5.114
 3500SOL    HW211400   1.297   3.675   5.014
 3501SOL     OW11401   2.255   5.597   4.106
 3501SOL    HW111402   2.351   5.569   4.106
 3501SOL    HW211403   2.237   5.656   4.185
 3502SOL     OW11404   6.131   2.774   2.247
 3502SOL    HW111405   6.120   2.689   2.196
 3502SOL    HW211406   6.041   2.812   2.269
 3503SOL     OW11407   6.417   6.110   5.001
 3503SOL    HW111408   6.370   6.079   5.084
 3503SOL    HW211409   6.348   6.136   4.933
 3504SOL     OW11410   2.320   1.565   1.161
 3504SOL    HW111411   2.251   1.609   1.218
 3504SOL    HW211412   2.276   1.504   1.095
 3505SOL     OW11413   5.349   5.074   4.721
 3505SOL    HW111414   5.360   5.145   4.791
 3505SOL    HW211415   5.434   5.063   4.671
 3506SOL     OW11416   4.822   5.875   6.072
 3506SOL    HW111417   4.819   5.967   6.110
 3506SOL    HW211418   4.917   5.848   6.056
 3507SOL     OW11419   2.582   0.524   0.147
 3507SOL    HW111420   2.523   0.600   0.118
 3507SOL    HW211421   2.660   0.517   0.085
 3508SOL     OW11422   3.044   2.359   6.242
 3508SOL    HW111423   3.137   2.340   6.272
 3508SOL    HW211424   3.021   2.454   6.261
 3509SOL     OW11425   5.758   0.029   6.047
 3509SOL    HW111426   5.731   6.959   6.014
 3509SOL    HW211427   5.677   0.088   6.054
 3510SOL     OW11428   1.666   2.232   1.236
 3510SOL    HW111429   1.702   2.212   1.328
 3510SOL    HW211430   1.723   2.186   1.168
 3511SOL     OW11431   2.022   4.912   0.469
 3511SOL    HW111432   2.027   5.000   0.420
 3511SOL    HW211433   2.084   4.847   0.426
 3512SOL     OW11434   6.868   4.408   0.371
 3512SOL    HW111435   6.926   4.434   0.448
 3512SOL    HW211436   6.860   4.308   0.368
 3513SOL     OW11437   6.056   3.732   0.395
 3513SOL    HW111438   5.966   3.707   0.360
 3513SOL    HW211439   6.092   3.657   0.451
 3514SOL     OW11440   0.124   1.391   1.554
 3514SOL    HW111441   0.158   1.297   1.558
 3514SOL    HW211442   0.188   1.448   1.503
 3515SOL     OW11443   4.577   6.451   3.436
 3515SOL    HW111444   4.641   6.386   3.477
 3515SOL    HW211445   4.627   6.513   3.374
 3516SOL     OW11446   4.535   6.775   0.887
 3516SOL    HW111447   4.503   6.828   0.808
 3516SOL    HW211448   4.635   6.771   0.886
 3517SOL     OW11449   0.790   2.107   0.489
 3517SOL    HW111450   0.815   2.167   0.565
 3517SOL    HW211451   0.790   2.159   0.403
 3518SOL     OW11452   5.646   4.016   4.835
 3518SOL    HW111453   5.711   3.963   4.889
 3518SOL    HW211454   5.580   3.955   4.793
 3519SOL     OW11455   1.563   0.590   6.176
 3519SOL    HW111456   1.536   0.510   6.122
 3519SOL    HW211457   1.539   0.576   6.272
 3520SOL     OW11458   2.984   4.906   6.224
 3520SOL    HW111459   2.991   4.814   6.187
 3520SOL    HW211460   3.058   4.921   6.290
 3521SOL     OW11461   5.474   3.637   0.454
 3521SOL    HW111462   5.376   3.639   0.434
 3521SOL    HW211463   5.506   3.542   0.455
 3522SOL     OW11464   5.846   5.126   2.015
 3522SOL    HW111465   5.816   5.042   1.970
 3522SOL    HW211466   5.891   5.103   2.102
 3523SOL     OW11467   2.917   5.134   5.693
 3523SOL    HW111468   2.840   5.196   5.682
 3523SOL    HW211469   2.901   5.051   5.640
 3524SOL     OW11470   3.030   0.921   0.845
 3524SOL    HW111471   3.008   0.836   0.892
 3524SOL    HW211472   2.966   0.992   0.874
 3525SOL     OW11473   0.644   4.059   1.669
 3525SOL    HW111474   0.674   4.038   1.576
 3525SOL    HW211475   0.619   3.975   1.716
 3526SOL     OW11476   2.864   6.582   3.652
 3526SOL    HW111477   2.941   6.533   3.693
 3526SOL    HW211478   2.837   6.657   3.712
 3527SOL     OW11479   6.289   3.524   6.120
 3527SOL    HW111480   6.251   3.538   6.212
 3527SOL    HW211481   6.385   3.550   6.120
 3528SOL     OW11482   1.021   5.351   3.564
 3528SOL    HW111483   1.064   5.391   3.483
 3528SOL    HW211484   1.086   5.290   3.610
 3529SOL     OW11485   5.083   6.617   5.945
 3529SOL    HW111486   5.143   6.693   5.919
 3529SOL    HW211487   5.003   6.616   5.885
 3530SOL     OW11488   1.774   4.617   3.133
 3530SOL    HW111489   1.725   4.529   3.134
 3530SOL    HW211490   1.752   4.666   3.049
 3531SOL     OW11491   4.838   4.208   1.139
 3531SOL    HW111492   4.920   4.207   1.082
 3531SOL    HW211493   4.771   4.143   1.102
 3532SOL     OW11494   2.932   0.425   0.239
 3532SOL    HW111495   2.955   0.377   0.155
 3532SOL    HW211496   2.975   0.515   0.239
 3533SOL     OW11497   1.056   2.109   2.547
 3533SOL    HW111498   1.128   2.046   2.516
 3533SOL    HW211499   1.091   2.165   2.622
 3534SOL     OW11500   5.861   1.150   5.296
 3534SOL    HW111501   5.936   1.112   5.242
 3534SOL    HW211502   5.813   1.219   5.242
 3535SOL     OW11503   0.434   6.090   0.930
 3535SOL    HW111504   0.380   6.006   0.932
 3535SOL    HW211505   0.510   6.082   0.994
 3536SOL     OW11506   1.900   2.555   3.979
 3536SOL    HW111507   1.889   2.650   4.008
 3536SOL    HW211508   1.915   2.551   3.880
 3537SOL     OW11509   2.461   5.400   0.192
 3537SOL    HW111510   2.471   5.362   0.283
 3537SOL    HW211511   2.462   5.327   0.124
 3538SOL     OW11512   1.987   0.329   4.709
 3538SOL    HW111513   2.003   0.413   4.657
 3538SOL    HW211514   1.914   0.276   4.666
 3539SOL     OW11515   5.637   3.260   6.428
 3539SOL    HW111516   5.721   3.311   6.450
 3539SOL    HW211517   5.638   3.172   6.475
 3540SOL     OW11518   2.041   1.893   5.001
 3540SOL    HW111519   1.958   1.844   4.974
 3540SOL    HW211520   2.082   1.848   5.080
 3541SOL     OW11521   2.605   2.513   6.744
 3541SOL    HW111522   2.530   2.499   6.810
 3541SOL    HW211523   2.632   2.424   6.707
 3542SOL     OW11524   0.891   3.642   1.390
 3542SOL    HW111525   0.923   3.663   1.297
 3542SOL    HW211526   0.871   3.544   1.397
 3543SOL     OW11527   0.910   3.026   5.601
 3543SOL    HW111528   1.009   3.041   5.588
 3543SOL    HW211529   0.860   3.069   5.525
 3544SOL     OW11530   2.265   4.796   6.244
 3544SOL    HW111531   2.330   4.867   6.217
 3544SOL    HW211532   2.305   4.742   6.319
 3545SOL     OW11533   3.733   5.033   6.930
 3545SOL    HW111534   3.640   5.043   6.895
 3545SOL    HW211535   3.732   5.039   0.009
 3546SOL     OW11536   6.969   4.507   3.242
 3546SOL    HW111537   6.877   4.530   3.208
 3546SOL    HW211538   0.009   4.586   3.230
 3547SOL     OW11539   5.850   3.929   4.146
 3547SOL    HW111540   5.845   4.001   4.077
 3547SOL    HW211541   5.944   3.922   4.180
 3548SOL     OW11542   5.296   0.294   5.799
 3548SOL    HW111543   5.352   0.324   5.721
 3548SOL    HW211544   5.341   0.218   5.844
 3549SOL     OW11545   0.738   5.102   6.436
 3549SOL    HW111546   0.824   5.092   6.487
 3549SOL    HW211547   0.671   5.149   6.494
 3550SOL     OW11548   5.717   2.497   4.863
 3550SOL    HW111549   5.709   2.419   4.802
 3550SOL    HW211550   5.763   2.572   4.816
 3551SOL     OW11551   3.716   1.845   3.923
 3551SOL    HW111552   3.739   1.921   3.862
 3551SOL    HW211553   3.693   1.881   4.013
 3552SOL     OW11554   5.967   6.924   2.080
 3552SOL    HW111555   5.892   6.908   2.016
 3552SOL    HW211556   6.039   6.975   2.034
 3553SOL     OW11557   3.655   5.766   0.465
 3553SOL    HW111558   3.602   5.793   0.385
 3553SOL    HW211559   3.751   5.756   0.438
 3554SOL     OW11560   4.448   2.363   0.950
 3554SOL    HW111561   4.456   2.457   0.916
 3554SOL    HW211562   4.538   2.322   0.957
 3555SOL     OW11563   0.746   3.486   4.801
 3555SOL    HW111564   0.759   3.429   4.720
 3555SOL    HW211565   0.832   3.494   4.850
 3556SOL     OW11566   3.772   0.521   4.346
 3556SOL    HW111567   3.756   0.567   4.259
 3556SOL    HW211568   3.777   0.422   4.331
 3557SOL     OW11569   1.255   0.389   4.008
 3557SOL    HW111570   1.335   0.449   4.003
 3557SOL    HW211571   1.177   0.441   4.043
 3558SOL     OW11572   1.439   5.236   2.466
 3558SOL    HW111573   1.501   5.298   2.419
 3558SOL    HW211574   1.485   5.197   2.546
 3559SOL     OW11575   0.647   5.942   5.269
 3559SOL    HW111576   0.722   5.901   5.320
 3559SOL    HW211577   0.682   6.007   5.202
 3560SOL     OW11578   2.397   5.058   2.709
 3560SOL    HW111579   2.357   4.980   2.662
 3560SOL    HW211580   2.327   5.103   2.764
 3561SOL     OW11581   5.034   4.043   5.120
 3561SOL    HW111582   5.085   4.031   5.204
 3561SOL    HW211583   4.939   4.013   5.133
 3562SOL     OW11584   3.359   1.036   2.955
 3562SOL    HW111585   3.306   1.054   3.038
 3562SOL    HW211586   3.296   1.010   2.881
 3563SOL     OW11587   6.732   2.096   6.778
 3563SOL    HW111588   6.661   2.081   6.710
 3563SOL    HW211589   6.782   2.011   6.794
 3564SOL     OW11590   0.949   4.628   2.280
 3564SOL    HW111591   0.932   4.531   2.263
 3564SOL    HW211592   0.863   4.679   2.273
 3565SOL     OW11593   2.777   6.301   4.382
 3565SOL    HW111594   2.718   6.363   4.435
 3565SOL    HW211595   2.731   6.276   4.297
 3566SOL     OW11596   6.461   3.040   6.796
 3566SOL    HW111597   6.390   3.103   6.765
 3566SOL    HW211598   6.440   2.947   6.766
 3567SOL     OW11599   0.716   2.225   6.711
 3567SOL    HW111600   0.807   2.245   6.746
 3567SOL    HW211601   0.680   2.305   6.663
 3568SOL     OW11602   5.395   4.446   4.520
 3568SOL    HW111603   5.450   4.391   4.458
 3568SOL    HW211604   5.304   4.406   4.529
 3569SOL     OW11605   2.540   2.531   6.228
 3569SOL    HW111606   2.597   2.466   6.278
 3569SOL    HW211607   2.595   2.610   6.202
 3570SOL     OW11608   4.954   0.599   5.888
 3570SOL    HW111609   4.920   0.533   5.821
 3570SOL    HW211610   4.995   0.677   5.841
 3571SOL     OW11611   0.455   5.334   6.105
 3571SOL    HW111612   0.482   5.239   6.124
 3571SOL    HW211613   0.451   5.348   6.006
 3572SOL     OW11614   6.053   4.118   3.084
 3572SOL    HW111615   6.018   4.204   3.047
 3572SOL    HW211616   6.076   4.057   3.008
 3573SOL     OW11617   0.290   5.122   3.893
 3573SOL    HW111618   0.342   5.043   3.927
 3573SOL    HW211619   0.351   5.201   3.884
 3574SOL     OW11620   0.083   3.894   0.838
 3574SOL    HW111621   0.145   3.919   0.913
 3574SOL    HW211622   0.070   3.973   0.777
 3575SOL     OW11623   5.219   4.902   2.955
 3575SOL    HW111624   5.197   4.935   3.046
 3575SOL    HW211625   5.160   4.946   2.888
 3576SOL     OW11626   0.054   1.306   5.962
 3576SOL    HW111627   0.112   1.228   5.986
 3576SOL    HW211628   0.093   1.352   5.882
 3577SOL     OW11629   1.542   2.483   6.404
 3577SOL    HW111630   1.632   2.513   6.372
 3577SOL    HW211631   1.471   2.520   6.344
 3578SOL     OW11632   2.475   2.607   1.108
 3578SOL    HW111633   2.536   2.649   1.175
 3578SOL    HW211634   2.471   2.509   1.123
 3579SOL     OW11635   5.935   3.072   4.711
 3579SOL    HW111636   5.928   3.017   4.794
 3579SOL    HW211637   6.010   3.137   4.720
 3580SOL     OW11638   5.883   3.268   1.505
 3580SOL    HW111639   5.823   3.243   1.429
 3580SOL    HW211640   5.874   3.199   1.577
 3581SOL     OW11641   0.592   6.260   3.738
 3581SOL    HW111642   0.664   6.328   3.719
 3581SOL    HW211643   0.608   6.179   3.682
 3582SOL     OW11644   0.844   2.463   5.551
 3582SOL    HW111645   0.857   2.404   5.472
 3582SOL    HW211646   0.757   2.441   5.595
 3583SOL     OW11647   1.553   3.581   6.789
 3583SOL    HW111648   1.539   3.677   6.812
 3583SOL    HW211649   1.504   3.559   6.705
 3584SOL     OW11650   5.825   4.978   6.217
 3584SOL    HW111651   5.739   4.962   6.170
 3584SOL    HW211652   5.873   5.055   6.174
 3585SOL     OW11653   4.162   0.039   4.660
 3585SOL    HW111654   4.176   0.006   4.567
 3585SOL    HW211655   4.161   0.139   4.660
 3586SOL     OW11656   0.126   1.603   5.062
 3586SOL    HW111657   0.054   1.612   4.992
 3586SOL    HW211658   0.110   1.520   5.115
 3587SOL     OW11659   3.258   5.726   6.455
 3587SOL    HW111660   3.307   5.649   6.415
 3587SOL    HW211661   3.289   5.741   6.549
 3588SOL     OW11662   1.768   2.645   5.849
 3588SOL    HW111663   1.686   2.592   5.827
 3588SOL    HW211664   1.763   2.676   5.944
 3589SOL     OW11665   3.582   1.530   5.152
 3589SOL    HW111666   3.644   1.453   5.141
 3589SOL    HW211667   3.529   1.543   5.068
 3590SOL     OW11668   1.177   2.466   6.872
 3590SOL    HW111669   1.212   2.531   6.941
 3590SOL    HW211670   1.235   2.385   6.870
 3591SOL     OW11671   5.353   3.514   6.480
 3591SOL    HW111672   5.315   3.508   6.572
 3591SOL    HW211673   5.336   3.429   6.431
 3592SOL     OW11674   6.726   4.365   1.628
 3592SOL    HW111675   6.640   4.406   1.599
 3592SOL    HW211676   6.802   4.407   1.580
 3593SOL     OW11677   1.008   5.591   5.135
 3593SOL    HW111678   1.021   5.689   5.146
 3593SOL    HW211679   0.965   5.572   5.047
 3594SOL     OW11680   4.433   0.797   3.270
 3594SOL    HW111681   4.498   0.728   3.305
 3594SOL    HW211682   4.433   0.795   3.170
 3595SOL     OW11683   2.708   6.052   0.114
 3595SOL    HW111684   2.669   5.983   0.053
 3595SOL    HW211685   2.643   6.127   0.125
 3596SOL     OW11686   6.791   2.749   3.448
 3596SOL    HW111687   6.858   2.804   3.399
 3596SOL    HW211688   6.765   2.795   3.533
 3597SOL     OW11689   1.757   1.527   4.331
 3597SOL    HW111690   1.685   1.464   4.359
 3597SOL    HW211691   1.846   1.490   4.357
 3598SOL     OW11692   0.713   5.398   5.617
 3598SOL    HW111693   0.667   5.315   5.584
 3598SOL    HW211694   0.698   5.473   5.552
 3599SOL     OW11695   0.129   1.440   5.720
 3599SOL    HW111696   0.058   1.396   5.665
 3599SOL    HW211697   0.212   1.452   5.666
 3600SOL     OW11698   0.769   3.555   0.711
 3600SOL    HW111699   0.753   3.629   0.646
 3600SOL    HW211700   0.838   3.492   0.674
 3601SOL     OW11701   5.177   4.814   6.020
 3601SOL    HW111702   5.165   4.905   6.059
 3601SOL    HW211703   5.139   4.811   5.928
 3602SOL     OW11704   1.595   2.092   0.993
 3602SOL    HW111705   1.573   2.014   0.935
 3602SOL    HW211706   1.541   2.087   1.077
 3603SOL     OW11707   3.476   0.235   3.424
 3603SOL    HW111708   3.515   0.147   3.449
 3603SOL    HW211709   3.406   0.223   3.354
 3604SOL     OW11710   0.038   4.754   3.238
 3604SOL    HW111711   0.039   4.820   3.164
 3604SOL    HW211712   0.051   4.801   3.326
 3605SOL     OW11713   6.314   3.939   5.413
 3605SOL    HW111714   6.365   4.024   5.403
 3605SOL    HW211715   6.379   3.862   5.418
 3606SOL     OW11716   6.849   0.067   5.096
 3606SOL    HW111717   6.789   0.092   5.171
 3606SOL    HW211718   6.880   6.993   5.108
 3607SOL     OW11719   5.381   5.785   2.052
 3607SOL    HW111720   5.381   5.742   2.142
 3607SOL    HW211721   5.341   5.723   1.985
 3608SOL     OW11722   5.766   1.897   3.689
 3608SOL    HW111723   5.792   1.953   3.611
 3608SOL    HW211724   5.680   1.931   3.728
 3609SOL     OW11725   1.133   6.946   4.046
 3609SOL    HW111726   1.085   6.913   4.127
 3609SOL    HW211727   1.204   7.011   4.073
 3610SOL     OW11728   1.566   6.965   5.475
 3610SOL    HW111729   1.644   0.006   5.462
 3610SOL    HW211730   1.508   7.000   5.549
 3611SOL     OW11731   4.660   6.110   5.641
 3611SOL    HW111732   4.677   6.092   5.544
 3611SOL    HW211733   4.684   6.029   5.694
 3612SOL     OW11734   6.456   0.019   0.021
 3612SOL    HW111735   6.414   6.956   0.058
 3612SOL    HW211736   6.516   7.014   6.965
 3613SOL     OW11737   4.624   4.910   1.810
 3613SOL    HW111738   4.588   4.850   1.739
 3613SOL    HW211739   4.610   4.867   1.900
 3614SOL     OW11740   3.801   3.198   1.587
 3614SOL    HW111741   3.822   3.167   1.679
 3614SOL    HW211742   3.704   3.220   1.580
 3615SOL     OW11743   5.030   5.693   0.250
 3615SOL    HW111744   5.106   5.636   0.218
 3615SOL    HW211745   5.065   5.784   0.275
 3616SOL     OW11746   0.624   2.435   6.526
 3616SOL    HW111747   0.668   2.505   6.583
 3616SOL    HW211748   0.551   2.477   6.471
 3617SOL     OW11749   4.095   1.833   6.847
 3617SOL    HW111750   4.065   1.777   6.770
 3617SOL    HW211751   4.115   1.926   6.815
 3618SOL     OW11752   2.458   2.174   5.397
 3618SOL    HW111753   2.388   2.141   5.461
 3618SOL    HW211754   2.418   2.181   5.306
 3619SOL     OW11755   5.364   2.581   4.468
 3619SOL    HW111756   5.397   2.644   4.398
 3619SOL    HW211757   5.329   2.498   4.425
 3620SOL     OW11758   5.884   6.232   6.297
 3620SOL    HW111759   5.910   6.246   6.202
 3620SOL    HW211760   5.942   6.161   6.337
 3621SOL     OW11761   3.306   2.825   5.115
 3621SOL    HW111762   3.320   2.863   5.206
 3621SOL    HW211763   3.233   2.756   5.118
 3622SOL     OW11764   2.355   1.840   5.191
 3622SOL    HW111765   2.365   1.936   5.166
 3622SOL    HW211766   2.264   1.825   5.232
 3623SOL     OW11767   6.184   6.182   4.107
 3623SOL    HW111768   6.166   6.242   4.028
 3623SOL    HW211769   6.197   6.088   4.075
 3624SOL     OW11770   1.583   6.434   2.134
 3624SOL    HW111771   1.573   6.343   2.175
 3624SOL    HW211772   1.642   6.428   2.053
 3625SOL     OW11773   6.269   2.862   6.999
 3625SOL    HW111774   6.198   2.792   7.006
 3625SOL    HW211775   6.227   2.953   7.009
 3626SOL     OW11776   1.569   2.451   5.862
 3626SOL    HW111777   1.489   2.425   5.807
 3626SOL    HW211778   1.610   2.370   5.902
 3627SOL     OW11779   3.576   2.920   3.145
 3627SOL    HW111780   3.530   2.948   3.229
 3627SOL    HW211781   3.524   2.847   3.101
 3628SOL     OW11782   1.783   0.997   1.371
 3628SOL    HW111783   1.869   0.947   1.383
 3628SOL    HW211784   1.800   1.095   1.385
 3629SOL     OW11785   0.350   1.266   5.439
 3629SOL    HW111786   0.262   1.226   5.465
 3629SOL    HW211787   0.415   1.193   5.420
 3630SOL     OW11788   5.632   2.781   3.943
 3630SOL    HW111789   5.699   2.795   4.016
 3630SOL    HW211790   5.612   2.684   3.934
 3631SOL     OW11791   1.666   0.432   3.589
 3631SOL    HW111792   1.637   0.527   3.580
 3631SOL    HW211793   1.678   0.410   3.686
 3632SOL     OW11794   5.177   5.722   1.320
 3632SOL    HW111795   5.206   5.628   1.336
 3632SOL    HW211796   5.220   5.758   1.237
 3633SOL     OW11797   4.076   1.680   6.049
 3633SOL    HW111798   4.158   1.636   6.014
 3633SOL    HW211799   4.004   1.610   6.061
 3634SOL     OW11800   1.139   4.496   4.649
 3634SOL    HW111801   1.067   4.427   4.637
 3634SOL    HW211802   1.223   4.452   4.679
 3635SOL     OW11803   3.649   6.978   6.230
 3635SOL    HW111804   3.601   6.982   6.142
 3635SOL    HW211805   3.581   6.981   6.304
 3636SOL     OW11806   0.448   5.570   0.542
 3636SOL    HW111807   0.523   5.633   0.525
 3636SOL    HW211808   0.448   5.542   0.637
 3637SOL     OW11809   6.995   1.302   1.880
 3637SOL    HW111810   0.029   1.299   1.797
 3637SOL    HW211811   6.916   1.362   1.867
 3638SOL     OW11812   0.357   4.212   3.816
 3638SOL    HW111813   0.453   4.201   3.841
 3638SOL    HW211814   0.303   4.139   3.857
 3639SOL     OW11815   2.978   4.386   0.931
 3639SOL    HW111816   3.034   4.323   0.985
 3639SOL    HW211817   3.027   4.473   0.922
 3640SOL     OW11818   4.000   1.189   0.871
 3640SOL    HW111819   4.021   1.103   0.823
 3640SOL    HW211820   4.085   1.231   0.903
 3641SOL     OW11821   5.706   3.698   3.127
 3641SOL    HW111822   5.671   3.621   3.181
 3641SOL    HW211823   5.634   3.730   3.065
 3642SOL     OW11824   5.516   0.895   6.990
 3642SOL    HW111825   5.448   0.943   6.936
 3642SOL    HW211826   5.488   0.894   0.066
 3643SOL     OW11827   2.925   5.595   4.779
 3643SOL    HW111828   2.850   5.659   4.763
 3643SOL    HW211829   2.897   5.528   4.848
 3644SOL     OW11830   6.906   1.450   1.370
 3644SOL    HW111831   6.990   1.450   1.423
 3644SOL    HW211832   6.837   1.507   1.416
 3645SOL     OW11833   0.519   2.549   3.237
 3645SOL    HW111834   0.618   2.559   3.247
 3645SOL    HW211835   0.496   2.453   3.225
 3646SOL     OW11836   0.590   4.143   6.230
 3646SOL    HW111837   0.526   4.144   6.307
 3646SOL    HW211838   0.640   4.056   6.229
 3647SOL     OW11839   2.296   5.374   5.827
 3647SOL    HW111840   2.366   5.404   5.761
 3647SOL    HW211841   2.241   5.453   5.855
 3648SOL     OW11842   3.905   4.845   2.040
 3648SOL    HW111843   3.810   4.824   2.018
 3648SOL    HW211844   3.908   4.909   2.117
 3649SOL     OW11845   5.131   2.833   1.985
 3649SOL    HW111846   5.141   2.932   1.999
 3649SOL    HW211847   5.044   2.816   1.937
 3650SOL     OW11848   0.161   5.643   1.309
 3650SOL    HW111849   0.062   5.637   1.306
 3650SOL    HW211850   0.191   5.657   1.404
 3651SOL     OW11851   0.330   6.433   5.172
 3651SOL    HW111852   0.279   6.508   5.130
 3651SOL    HW211853   0.406   6.406   5.113
 3652SOL     OW11854   5.507   6.546   3.574
 3652SOL    HW111855   5.415   6.576   3.549
 3652SOL    HW211856   5.569   6.560   3.496
 3653SOL     OW11857   0.852   1.356   3.816
 3653SOL    HW111858   0.764   1.367   3.770
 3653SOL    HW211859   0.837   1.336   3.912
 3654SOL     OW11860   3.194   4.028   0.913
 3654SOL    HW111861   3.144   4.004   0.829
 3654SOL    HW211862   3.171   3.962   0.985
 3655SOL     OW11863   1.880   5.708   4.317
 3655SOL    HW111864   1.912   5.614   4.312
 3655SOL    HW211865   1.916   5.752   4.399
 3656SOL     OW11866   0.370   4.139   1.498
 3656SOL    HW111867   0.300   4.080   1.539
 3656SOL    HW211868   0.328   4.223   1.465
 3657SOL     OW11869   5.173   5.503   5.419
 3657SOL    HW111870   5.231   5.457   5.352
 3657SOL    HW211871   5.214   5.496   5.510
 3658SOL     OW11872   1.978   4.969   5.950
 3658SOL    HW111873   1.992   5.054   6.001
 3658SOL    HW211874   2.012   4.979   5.857
 3659SOL     OW11875   2.015   3.703   5.811
 3659SOL    HW111876   2.075   3.626   5.835
 3659SOL    HW211877   2.018   3.718   5.712
 3660SOL     OW11878   5.669   6.658   4.021
 3660SOL    HW111879   5.570   6.648   4.022
 3660SOL    HW211880   5.695   6.739   4.073
 3661SOL     OW11881   5.539   0.632   5.225
 3661SOL    HW111882   5.564   0.647   5.320
 3661SOL    HW211883   5.526   0.719   5.179
 3662SOL     OW11884   3.167   0.410   3.840
 3662SOL    HW111885   3.186   0.506   3.823
 3662SOL    HW211886   3.199   0.354   3.763
 3663SOL     OW11887   2.222   1.257   0.061
 3663SOL    HW111888   2.317   1.290   0.057
 3663SOL    HW211889   2.203   1.221   0.152
 3664SOL     OW11890   4.647   2.683   1.469
 3664SOL    HW111891   4.680   2.613   1.532
 3664SOL    HW211892   4.583   2.744   1.517
 3665SOL     OW11893   1.351   6.544   4.927
 3665SOL    HW111894   1.385   6.571   4.837
 3665SOL    HW211895   1.406   6.469   4.963
 3666SOL     OW11896   1.037   3.602   2.959
 3666SOL    HW111897   1.000   3.509   2.953
 3666SOL    HW211898   1.059   3.623   3.054
 3667SOL     OW11899   1.353   1.280   2.689
 3667SOL    HW111900   1.431   1.228   2.724
 3667SOL    HW211901   1.384   1.372   2.665
 3668SOL     OW11902   1.501   0.642   1.159
 3668SOL    HW111903   1.541   0.688   1.238
 3668SOL    HW211904   1.486   0.546   1.181
 3669SOL     OW11905   4.827   1.445   3.732
 3669SOL    HW111906   4.896   1.431   3.660
 3669SOL    HW211907   4.760   1.513   3.700
 3670SOL     OW11908   2.054   5.142   0.197
 3670SOL    HW111909   2.122   5.150   0.270
 3670SOL    HW211910   2.068   5.215   0.130
 3671SOL     OW11911   6.747   1.917   4.259
 3671SOL    HW111912   6.729   1.860   4.179
 3671SOL    HW211913   6.718   2.011   4.241
 3672SOL     OW11914   5.505   1.781   1.184
 3672SOL    HW111915   5.522   1.834   1.267
 3672SOL    HW211916   5.518   1.839   1.104
 3673SOL     OW11917   3.799   6.402   6.689
 3673SOL    HW111918   3.842   6.339   6.624
 3673SOL    HW211919   3.715   6.360   6.724
 3674SOL     OW11920   1.281   5.352   6.037
 3674SOL    HW111921   1.357   5.289   6.048
 3674SOL    HW211922   1.269   5.374   5.939
 3675SOL     OW11923   2.196   3.254   3.931
 3675SOL    HW111924   2.197   3.275   3.833
 3675SOL    HW211925   2.207   3.155   3.943
 3676SOL     OW11926   5.211   4.606   2.972
 3676SOL    HW111927   5.195   4.698   2.935
 3676SOL    HW211928   5.279   4.611   3.046
 3677SOL     OW11929   2.162   6.198   3.524
 3677SOL    HW111930   2.084   6.159   3.573
 3677SOL    HW211931   2.244   6.143   3.542
 3678SOL     OW11932   0.150   1.838   4.615
 3678SOL    HW111933   0.204   1.755   4.603
 3678SOL    HW211934   0.073   1.838   4.551
 3679SOL     OW11935   1.066   1.066   3.515
 3679SOL    HW111936   1.043   1.075   3.418
 3679SOL    HW211937   1.018   0.987   3.553
 3680SOL     OW11938   4.905   3.440   3.786
 3680SOL    HW111939   4.870   3.452   3.879
 3680SOL    HW211940   4.976   3.370   3.785
 3681SOL     OW11941   0.573   0.867   6.365
 3681SOL    HW111942   0.645   0.815   6.411
 3681SOL    HW211943   0.614   0.939   6.308
 3682SOL     OW11944   5.193   2.124   0.087
 3682SOL    HW111945   5.134   2.200   0.060
 3682SOL    HW211946   5.288   2.154   0.088
 3683SOL     OW11947   6.909   0.891   3.071
 3683SOL    HW111948   6.825   0.914   3.023
 3683SOL    HW211949   6.898   0.908   3.169
 3684SOL     OW11950   1.826   4.752   0.596
 3684SOL    HW111951   1.842   4.703   0.682
 3684SOL    HW211952   1.907   4.806   0.573
 3685SOL     OW11953   1.044   6.150   6.907
 3685SOL    HW111954   1.088   6.227   6.862
 3685SOL    HW211955   1.104   6.070   6.903
 3686SOL     OW11956   4.868   5.780   4.173
 3686SOL    HW111957   4.869   5.850   4.102
 3686SOL    HW211958   4.884   5.691   4.131
 3687SOL     OW11959   3.424   5.986   5.051
 3687SOL    HW111960   3.364   6.052   5.006
 3687SOL    HW211961   3.416   5.897   5.005
 3688SOL     OW11962   0.395   4.175   6.430
 3688SOL    HW111963   0.341   4.104   6.385
 3688SOL    HW211964   0.361   4.189   6.523
 3689SOL     OW11965   2.241   6.929   5.481
 3689SOL    HW111966   2.155   6.971   5.510
 3689SOL    HW211967   2.312   6.999   5.476
 3690SOL     OW11968   4.328   5.951   0.726
 3690SOL    HW111969   4.388   6.015   0.678
 3690SOL    HW211970   4.326   5.863   0.678
 3691SOL     OW11971   2.163   1.883   6.753
 3691SOL    HW111972   2.241   1.885   6.690
 3691SOL    HW211973   2.107   1.803   6.733
 3692SOL     OW11974   6.523   5.715   5.025
 3692SOL    HW111975   6.515   5.796   5.082
 3692SOL    HW211976   6.485   5.734   4.935
 3693SOL     OW11977   1.964   3.643   3.195
 3693SOL    HW111978   1.879   3.636   3.143
 3693SOL    HW211979   2.024   3.567   3.171
 3694SOL     OW11980   1.637   6.451   3.051
 3694SOL    HW111981   1.661   6.356   3.033
 3694SOL    HW211982   1.549   6.472   3.008
 3695SOL     OW11983   6.411   2.986   1.898
 3695SOL    HW111984   6.428   3.031   1.985
 3695SOL    HW211985   6.478   3.017   1.830
 3696SOL     OW11986   3.569   6.509   4.933
 3696SOL    HW111987   3.621   6.499   4.849
 3696SOL    HW211988   3.610   6.452   5.005
 3697SOL     OW11989   0.332   6.403   2.687
 3697SOL    HW111990   0.400   6.358   2.628
 3697SOL    HW211991   0.380   6.456   2.758
 3698SOL     OW11992   2.762   0.834   4.084
 3698SOL    HW111993   2.859   0.850   4.065
 3698SOL    HW211994   2.733   0.891   4.161
 3699SOL     OW11995   1.048   2.161   3.946
 3699SOL    HW111996   1.004   2.215   3.874
 3699SOL    HW211997   1.110   2.095   3.905
 3700SOL     OW11998   0.471   5.892   4.634
 3700SOL    HW111999   0.376   5.882   4.605
 3700SOL    HW212000   0.484   5.848   4.723
 3701SOL     OW12001   1.350   1.127   4.133
 3701SOL    HW112002   1.357   1.149   4.230
 3701SOL    HW212003   1.409   1.188   4.080
 3702SOL     OW12004   5.849   6.275   3.033
 3702SOL    HW112005   5.757   6.313   3.039
 3702SOL    HW212006   5.846   6.176   3.047
 3703SOL     OW12007   5.553   0.961   5.618
 3703SOL    HW112008   5.631   0.962   5.555
 3703SOL    HW212009   5.561   0.882   5.679
 3704SOL     OW12010   3.451   1.803   1.166
 3704SOL    HW112011   3.423   1.895   1.195
 3704SOL    HW212012   3.529   1.809   1.104
 3705SOL     OW12013   4.269   4.697   3.966
 3705SOL    HW112014   4.171   4.677   3.961
 3705SOL    HW212015   4.299   4.690   4.061
 3706SOL     OW12016   1.682   3.634   0.243
 3706SOL    HW112017   1.668   3.621   0.341
 3706SOL    HW212018   1.780   3.632   0.223
 3707SOL     OW12019   5.449   4.559   3.872
 3707SOL    HW112020   5.527   4.620   3.863
 3707SOL    HW212021   5.401   4.578   3.957
 3708SOL     OW12022   0.051   0.338   6.777
 3708SOL    HW112023   0.137   0.293   6.753
 3708SOL    HW212024   0.002   0.363   6.694
 3709SOL     OW12025   3.640   0.510   0.900
 3709SOL    HW112026   3.653   0.497   0.998
 3709SOL    HW212027   3.543   0.530   0.882
 3710SOL     OW12028   6.043   5.520   5.023
 3710SOL    HW112029   6.004   5.544   4.935
 3710SOL    HW212030   6.137   5.488   5.011
 3711SOL     OW12031   0.817   6.844   4.063
 3711SOL    HW112032   0.725   6.806   4.051
 3711SOL    HW212033   0.857   6.809   4.147
 3712SOL     OW12034   0.030   4.948   6.394
 3712SOL    HW112035   6.995   4.866   6.407
 3712SOL    HW212036   0.007   4.991   6.307
 3713SOL     OW12037   0.759   6.586   5.943
 3713SOL    HW112038   0.738   6.536   6.027
 3713SOL    HW212039   0.846   6.553   5.906
 3714SOL     OW12040   5.525   6.181   6.157
 3714SOL    HW112041   5.578   6.121   6.218
 3714SOL    HW212042   5.565   6.179   6.065
 3715SOL     OW12043   0.524   3.970   2.610
 3715SOL    HW112044   0.610   4.013   2.582
 3715SOL    HW212045   0.512   3.884   2.560
 3716SOL     OW12046   6.590   6.963   4.681
 3716SOL    HW112047   6.629   7.016   4.756
 3716SOL    HW212048   6.499   6.930   4.707
 3717SOL     OW12049   6.904   6.661   7.001
 3717SOL    HW112050   6.833   6.631   0.045
 3717SOL    HW212051   6.941   6.749   0.012
 3718SOL     OW12052   1.067   0.868   6.870
 3718SOL    HW112053   1.008   0.804   6.919
 3718SOL    HW212054   1.036   0.876   6.776
 3719SOL     OW12055   5.156   3.746   1.876
 3719SOL    HW112056   5.166   3.830   1.822
 3719SOL    HW212057   5.246   3.713   1.903
 3720SOL     OW12058   6.190   2.702   6.568
 3720SOL    HW112059   6.251   2.668   6.496
 3720SOL    HW212060   6.244   2.746   6.639
 3721SOL     OW12061   6.394   4.472   1.815
 3721SOL    HW112062   6.350   4.461   1.904
 3721SOL    HW212063   6.403   4.569   1.794
 3722SOL     OW12064   6.153   6.105   0.785
 3722SOL    HW112065   6.252   6.093   0.772
 3722SOL    HW212066   6.137   6.180   0.849
 3723SOL     OW12067   6.073   5.650   1.409
 3723SOL    HW112068   6.092   5.563   1.364
 3723SOL    HW212069   6.142   5.667   1.479
 3724SOL     OW12070   1.971   4.181   4.838
 3724SOL    HW112071   1.930   4.238   4.909
 3724SOL    HW212072   1.965   4.228   4.750
 3725SOL     OW12073   6.722   5.482   0.578
 3725SOL    HW112074   6.639   5.425   0.579
 3725SOL    HW212075   6.743   5.509   0.484
 3726SOL     OW12076   5.898   3.280   0.486
 3726SOL    HW112077   5.932   3.283   0.392
 3726SOL    HW212078   5.914   3.189   0.525
 3727SOL     OW12079   6.730   1.034   4.964
 3727SOL    HW112080   6.817   1.083   4.960
 3727SOL    HW212081   6.654   1.100   4.961
 3728SOL     OW12082   1.577   3.877   0.202
 3728SOL    HW112083   1.611   3.788   0.231
 3728SOL    HW212084   1.645   3.921   0.142
 3729SOL     OW12085   1.276   2.378   3.808
 3729SOL    HW112086   1.202   2.419   3.862
 3729SOL    HW212087   1.237   2.335   3.726
 3730SOL     OW12088   2.167   5.604   5.904
 3730SOL    HW112089   2.234   5.633   5.972
 3730SOL    HW212090   2.136   5.683   5.852
 3731SOL     OW12091   0.088   1.482   0.577
 3731SOL    HW112092   0.101   1.564   0.633
 3731SOL    HW212093   0.061   1.509   0.484
 3732SOL     OW12094   3.107   1.607   0.368
 3732SOL    HW112095   3.056   1.692   0.378
 3732SOL    HW212096   3.193   1.625   0.320
 3733SOL     OW12097   1.344   3.461   2.968
 3733SOL    HW112098   1.349   3.450   3.068
 3733SOL    HW212099   1.273   3.402   2.931
 3734SOL     OW12100   4.948   0.344   1.488
 3734SOL    HW112101   4.962   0.425   1.431
 3734SOL    HW212102   5.028   0.284   1.481
 3735SOL     OW12103   2.272   1.405   3.221
 3735SOL    HW112104   2.208   1.333   3.194
 3735SOL    HW212105   2.253   1.488   3.169
 3736SOL     OW12106   6.907   1.924   0.825
 3736SOL    HW112107   6.818   1.964   0.846
 3736SOL    HW212108   6.958   1.986   0.764
 3737SOL     OW12109   5.457   1.608   3.614
 3737SOL    HW112110   5.543   1.583   3.658
 3737SOL    HW212111   5.463   1.701   3.578
 3738SOL     OW12112   0.445   0.334   2.586
 3738SOL    HW112113   0.507   0.393   2.638
 3738SOL    HW212114   0.352   0.372   2.591
 3739SOL     OW12115   2.368   5.031   1.063
 3739SOL    HW112116   2.454   4.995   1.028
 3739SOL    HW212117   2.304   4.956   1.080
 3740SOL     OW12118   5.995   1.269   1.424
 3740SOL    HW112119   5.991   1.171   1.440
 3740SOL    HW212120   6.091   1.299   1.418
 3741SOL     OW12121   5.356   3.004   6.904
 3741SOL    HW112122   5.382   2.911   6.932
 3741SOL    HW212123   5.258   3.006   6.882
 3742SOL     OW12124   2.132   2.184   0.051
 3742SOL    HW112125   2.198   2.109   0.049
 3742SOL    HW212126   2.154   2.250   6.999
 3743SOL     OW12127   5.802   4.042   0.501
 3743SOL    HW112128   5.822   4.140   0.514
 3743SOL    HW212129   5.714   4.020   0.541
 3744SOL     OW12130   1.452   5.970   1.944
 3744SOL    HW112131   1.422   6.029   1.869
 3744SOL    HW212132   1.391   5.982   2.022
 3745SOL     OW12133   4.265   5.014   1.806
 3745SOL    HW112134   4.281   5.085   1.738
 3745SOL    HW212135   4.346   4.956   1.814
 3746SOL     OW12136   5.568   0.637   3.324
 3746SOL    HW112137   5.562   0.697   3.404
 3746SOL    HW212138   5.634   0.564   3.343
 3747SOL     OW12139   2.330   6.500   5.116
 3747SOL    HW112140   2.286   6.450   5.041
 3747SOL    HW212141   2.266   6.512   5.191
 3748SOL     OW12142   5.635   1.346   1.756
 3748SOL    HW112143   5.577   1.269   1.782
 3748SOL    HW212144   5.679   1.383   1.837
 3749SOL     OW12145   1.842   5.508   3.921
 3749SOL    HW112146   1.867   5.494   3.826
 3749SOL    HW212147   1.797   5.597   3.931
 3750SOL     OW12148   0.274   4.875   1.068
 3750SOL    HW112149   0.201   4.909   1.009
 3750SOL    HW212150   0.244   4.790   1.111
 3751SOL     OW12151   6.576   3.369   1.630
 3751SOL    HW112152   6.560   3.308   1.552
 3751SOL    HW212153   6.587   3.463   1.596
 3752SOL     OW12154   5.801   0.138   1.156
 3752SOL    HW112155   5.794   0.202   1.079
 3752SOL    HW212156   5.719   0.080   1.158
 3753SOL     OW12157   6.578   0.068   4.101
 3753SOL    HW112158   6.496   0.016   4.126
 3753SOL    HW212159   6.563   0.115   4.014
 3754SOL     OW12160   3.433   0.824   0.926
 3754SOL    HW112161   3.475   0.862   1.008
 3754SOL    HW212162   3.405   0.729   0.944
 3755SOL     OW12163   4.722   5.383   4.045
 3755SOL    HW112164   4.623   5.376   4.062
 3755SOL    HW212165   4.768   5.302   4.080
 3756SOL     OW12166   3.252   5.258   6.868
 3756SOL    HW112167   3.158   5.289   6.855
 3756SOL    HW212168   3.290   5.232   6.779
 3757SOL     OW12169   4.901   6.078   6.957
 3757SOL    HW112170   4.930   6.162   6.911
 3757SOL    HW212171   4.981   6.035   7.000
 3758SOL     OW12172   2.223   1.012   4.883
 3758SOL    HW112173   2.191   1.104   4.864
 3758SOL    HW212174   2.323   1.008   4.870
 3759SOL     OW12175   4.773   6.623   6.353
 3759SOL    HW112176   4.819   6.654   6.436
 3759SOL    HW212177   4.732   6.702   6.306
 3760SOL     OW12178   2.291   1.309   4.658
 3760SOL    HW112179   2.295   1.294   4.559
 3760SOL    HW212180   2.350   1.386   4.682
 3761SOL     OW12181   1.160   1.046   4.833
 3761SOL    HW112182   1.070   1.079   4.805
 3761SOL    HW212183   1.221   1.044   4.754
 3762SOL     OW12184   1.517   4.673   1.135
 3762SOL    HW112185   1.419   4.692   1.124
 3762SOL    HW212186   1.568   4.757   1.119
 3763SOL     OW12187   6.921   4.135   0.911
 3763SOL    HW112188   6.859   4.160   0.836
 3763SOL    HW212189   7.011   4.173   0.894
 3764SOL     OW12190   1.701   0.421   2.673
 3764SOL    HW112191   1.660   0.365   2.602
 3764SOL    HW212192   1.779   0.373   2.713
 3765SOL     OW12193   5.141   1.513   1.244
 3765SOL    HW112194   5.095   1.492   1.331
 3765SOL    HW212195   5.169   1.428   1.200
 3766SOL     OW12196   2.031   1.436   4.404
 3766SOL    HW112197   2.123   1.466   4.429
 3766SOL    HW212198   2.027   1.420   4.305
 3767SOL     OW12199   2.129   4.778   6.948
 3767SOL    HW112200   2.212   4.775   7.004
 3767SOL    HW212201   2.061   4.836   6.994
 3768SOL     OW12202   1.057   6.633   3.740
 3768SOL    HW112203   1.111   6.659   3.821
 3768SOL    HW212204   0.961   6.626   3.765
 3769SOL     OW12205   6.194   6.482   4.640
 3769SOL    HW112206   6.208   6.388   4.609
 3769SOL    HW212207   6.105   6.489   4.685
 3770SOL     OW12208   1.327   0.731   6.238
 3770SOL    HW112209   1.301   0.787   6.160
 3770SOL    HW212210   1.426   0.725   6.244
 3771SOL     OW12211   5.267   2.743   0.210
 3771SOL    HW112212   5.247   2.777   0.301
 3771SOL    HW212213   5.365   2.750   0.192
 3772SOL     OW12214   0.037   1.609   6.650
 3772SOL    HW112215   0.057   1.513   6.629
 3772SOL    HW212216   0.102   1.642   6.718
 3773SOL     OW12217   5.782   3.085   6.157
 3773SOL    HW112218   5.780   3.173   6.108
 3773SOL    HW212219   5.808   3.100   6.252
 3774SOL     OW12220   6.441   6.084   0.773
 3774SOL    HW112221   6.444   6.100   0.872
 3774SOL    HW212222   6.464   6.168   0.724
 3775SOL     OW12223   4.113   5.085   2.406
 3775SOL    HW112224   4.168   5.009   2.442
 3775SOL    HW212225   4.034   5.099   2.464
 3776SOL     OW12226   4.409   1.844   6.762
 3776SOL    HW112227   4.361   1.799   6.838
 3776SOL    HW212228   4.358   1.925   6.734
 3777SOL     OW12229   3.530   6.225   3.937
 3777SOL    HW112230   3.584   6.175   4.005
 3777SOL    HW212231   3.543   6.182   3.847
 3778SOL     OW12232   3.345   4.885   2.712
 3778SOL    HW112233   3.269   4.823   2.695
 3778SOL    HW212234   3.315   4.961   2.770
 3779SOL     OW12235   1.546   4.501   0.138
 3779SOL    HW112236   1.475   4.567   0.116
 3779SOL    HW212237   1.618   4.546   0.191
 3780SOL     OW12238   5.944   5.096   4.945
 3780SOL    HW112239   6.021   5.080   4.884
 3780SOL    HW212240   5.975   5.095   5.040
 3781SOL     OW12241   0.445   6.236   4.380
 3781SOL    HW112242   0.485   6.199   4.464
 3781SOL    HW212243   0.502   6.309   4.345
 3782SOL     OW12244   2.229   0.282   3.211
 3782SOL    HW112245   2.298   0.261   3.279
 3782SOL    HW212246   2.144   0.309   3.256
 3783SOL     OW12247   5.696   5.453   3.411
 3783SOL    HW112248   5.739   5.376   3.457
 3783SOL    HW212249   5.636   5.420   3.338
 3784SOL     OW12250   4.577   2.645   3.524
 3784SOL    HW112251   4.631   2.698   3.590
 3784SOL    HW212252   4.638   2.608   3.454
 3785SOL     OW12253   1.745   3.136   6.021
 3785SOL    HW112254   1.785   3.190   6.095
 3785SOL    HW212255   1.649   3.116   6.043
 3786SOL     OW12256   2.097   5.377   3.443
 3786SOL    HW112257   2.097   5.375   3.343
 3786SOL    HW212258   2.064   5.290   3.479
 3787SOL     OW12259   5.576   1.578   2.677
 3787SOL    HW112260   5.645   1.619   2.736
 3787SOL    HW212261   5.568   1.632   2.593
 3788SOL     OW12262   0.161   5.271   4.564
 3788SOL    HW112263   0.159   5.207   4.488
 3788SOL    HW212264   0.090   5.341   4.552
 3789SOL     OW12265   6.703   2.871   4.893
 3789SOL    HW112266   6.728   2.967   4.878
 3789SOL    HW212267   6.622   2.866   4.951
 3790SOL     OW12268   1.186   4.141   5.613
 3790SOL    HW112269   1.138   4.098   5.690
 3790SOL    HW212270   1.145   4.230   5.594
 3791SOL     OW12271   5.445   1.375   6.465
 3791SOL    HW112272   5.407   1.419   6.546
 3791SOL    HW212273   5.383   1.303   6.434
 3792SOL     OW12274   0.832   2.658   4.385
 3792SOL    HW112275   0.893   2.690   4.457
 3792SOL    HW212276   0.868   2.685   4.296
 3793SOL     OW12277   5.165   6.273   1.917
 3793SOL    HW112278   5.186   6.232   2.005
 3793SOL    HW212279   5.148   6.371   1.928
 3794SOL     OW12280   2.291   3.292   1.002
 3794SOL    HW112281   2.290   3.223   1.074
 3794SOL    HW212282   2.222   3.362   1.023
 3795SOL     OW12283   4.215   6.278   0.549
 3795SOL    HW112284   4.156   6.320   0.618
 3795SOL    HW212285   4.161   6.214   0.494
 3796SOL     OW12286   3.389   1.888   2.165
 3796SOL    HW112287   3.460   1.956   2.182
 3796SOL    HW212288   3.300   1.933   2.160
 3797SOL     OW12289   0.254   3.213   1.527
 3797SOL    HW112290   0.353   3.203   1.523
 3797SOL    HW212291   0.216   3.150   1.595
 3798SOL     OW12292   2.636   5.457   3.389
 3798SOL    HW112293   2.619   5.440   3.292
 3798SOL    HW212294   2.558   5.423   3.442
 3799SOL     OW12295   6.844   2.651   4.119
 3799SOL    HW112296   6.802   2.602   4.042
 3799SOL    HW212297   6.834   2.597   4.202
 3800SOL     OW12298   6.041   3.408   3.790
 3800SOL    HW112299   6.062   3.494   3.837
 3800SOL    HW212300   5.956   3.419   3.738
 3801SOL     OW12301   5.955   0.055   2.308
 3801SOL    HW112302   6.021   0.013   2.370
 3801SOL    HW212303   5.959   0.010   2.219
 3802SOL     OW12304   1.292   2.448   2.085
 3802SOL    HW112305   1.255   2.474   1.996
 3802SOL    HW212306   1.384   2.411   2.074
 3803SOL     OW12307   3.582   2.827   2.167
 3803SOL    HW112308   3.610   2.923   2.174
 3803SOL    HW212309   3.661   2.768   2.184
 3804SOL     OW12310   4.565   1.879   3.672
 3804SOL    HW112311   4.594   1.943   3.743
 3804SOL    HW212312   4.466   1.869   3.673
 3805SOL     OW12313   2.658   2.593   1.747
 3805SOL    HW112314   2.586   2.548   1.799
 3805SOL    HW212315   2.696   2.528   1.681
 3806SOL     OW12316   3.396   3.408   6.584
 3806SOL    HW112317   3.326   3.441   6.521
 3806SOL    HW212318   3.485   3.410   6.540
 3807SOL     OW12319   1.240   6.476   3.097
 3807SOL    HW112320   1.291   6.487   3.012
 3807SOL    HW212321   1.215   6.380   3.109
 3808SOL     OW12322   4.856   1.437   1.249
 3808SOL    HW112323   4.882   1.392   1.164
 3808SOL    HW212324   4.810   1.523   1.229
 3809SOL     OW12325   5.250   2.966   1.643
 3809SOL    HW112326   5.259   2.911   1.726
 3809SOL    HW212327   5.262   3.063   1.667
 3810SOL     OW12328   4.500   2.508   3.795
 3810SOL    HW112329   4.537   2.533   3.705
 3810SOL    HW212330   4.533   2.571   3.864
 3811SOL     OW12331   1.363   4.934   4.583
 3811SOL    HW112332   1.308   5.016   4.569
 3811SOL    HW212333   1.305   4.853   4.574
 3812SOL     OW12334   5.461   5.559   5.041
 3812SOL    HW112335   5.477   5.477   4.985
 3812SOL    HW212336   5.416   5.629   4.986
 3813SOL     OW12337   4.619   3.577   0.775
 3813SOL    HW112338   4.540   3.538   0.728
 3813SOL    HW212339   4.679   3.622   0.708
 3814SOL     OW12340   0.400   6.955   6.366
 3814SOL    HW112341   0.334   7.016   6.322
 3814SOL    HW212342   0.359   6.864   6.377
 3815SOL     OW12343   4.386   2.579   0.784
 3815SOL    HW112344   4.433   2.512   0.726
 3815SOL    HW212345   4.315   2.625   0.730
 3816SOL     OW12346   1.333   5.589   0.250
 3816SOL    HW112347   1.286   5.501   0.253
 3816SOL    HW212348   1.342   5.619   0.155
 3817SOL     OW12349   4.954   3.690   2.748
 3817SOL    HW112350   4.992   3.680   2.656
 3817SOL    HW212351   4.982   3.778   2.786
 3818SOL     OW12352   6.468   0.939   6.535
 3818SOL    HW112353   6.402   1.010   6.508
 3818SOL    HW212354   6.432   0.849   6.511
 3819SOL     OW12355   4.853   5.001   2.023
 3819SOL    HW112356   4.760   5.029   2.048
 3819SOL    HW212357   4.881   5.049   1.940
 3820SOL     OW12358   4.758   0.089   4.326
 3820SOL    HW112359   4.673   0.137   4.302
 3820SOL    HW212360   4.792   0.040   4.247
 3821SOL     OW12361   2.597   1.563   1.160
 3821SOL    HW112362   2.608   1.651   1.205
 3821SOL    HW212363   2.501   1.549   1.137
 3822SOL     OW12364   2.065   0.100   0.999
 3822SOL    HW112365   2.152   0.059   1.027
 3822SOL    HW212366   2.059   0.193   1.035
 3823SOL     OW12367   3.501   3.214   5.877
 3823SOL    HW112368   3.588   3.199   5.829
 3823SOL    HW212369   3.442   3.134   5.863
 3824SOL     OW12370   6.677   2.189   0.530
 3824SOL    HW112371   6.655   2.094   0.552
 3824SOL    HW212372   6.725   2.231   0.608
 3825SOL     OW12373   0.655   5.851   0.758
 3825SOL    HW112374   0.562   5.832   0.788
 3825SOL    HW212375   0.708   5.766   0.755
 3826SOL     OW12376   1.029   2.914   6.579
 3826SOL    HW112377   1.109   2.875   6.626
 3826SOL    HW212378   1.049   2.923   6.482
 3827SOL     OW12379   1.320   1.751   1.778
 3827SOL    HW112380   1.343   1.744   1.681
 3827SOL    HW212381   1.404   1.749   1.832
 3828SOL     OW12382   3.709   3.174   2.619
 3828SOL    HW112383   3.658   3.169   2.705
 3828SOL    HW212384   3.749   3.084   2.599
 3829SOL     OW12385   1.962   4.719   3.357
 3829SOL    HW112386   1.916   4.793   3.405
 3829SOL    HW212387   1.909   4.694   3.276
 3830SOL     OW12388   0.673   1.290   4.832
 3830SOL    HW112389   0.656   1.257   4.740
 3830SOL    HW212390   0.604   1.253   4.894
 3831SOL     OW12391   4.708   2.551   2.456
 3831SOL    HW112392   4.759   2.636   2.441
 3831SOL    HW212393   4.672   2.518   2.369
 3832SOL     OW12394   5.681   0.709   2.852
 3832SOL    HW112395   5.689   0.778   2.780
 3832SOL    HW212396   5.674   0.754   2.941
 3833SOL     OW12397   0.357   6.150   6.308
 3833SOL    HW112398   0.337   6.247   6.300
 3833SOL    HW212399   0.319   6.115   6.394
 3834SOL     OW12400   4.802   4.667   1.920
 3834SOL    HW112401   4.780   4.595   1.853
 3834SOL    HW212402   4.879   4.721   1.886
 3835SOL     OW12403   3.571   5.455   4.152
 3835SOL    HW112404   3.661   5.450   4.194
 3835SOL    HW212405   3.504   5.488   4.219
 3836SOL     OW12406   1.887   3.876   5.968
 3836SOL    HW112407   1.933   3.803   5.918
 3836SOL    HW212408   1.903   3.963   5.921
 3837SOL     OW12409   4.599   5.225   6.493
 3837SOL    HW112410   4.548   5.204   6.576
 3837SOL    HW212411   4.579   5.318   6.463
 3838SOL     OW12412   0.343   4.020   4.677
 3838SOL    HW112413   0.351   4.076   4.760
 3838SOL    HW212414   0.342   3.923   4.702
 3839SOL     OW12415   4.901   0.946   3.764
 3839SOL    HW112416   4.943   0.872   3.711
 3839SOL    HW212417   4.958   1.028   3.757
 3840SOL     OW12418   2.185   0.595   6.295
 3840SOL    HW112419   2.118   0.578   6.223
 3840SOL    HW212420   2.227   0.508   6.323
 3841SOL     OW12421   0.015   2.914   4.996
 3841SOL    HW112422   0.034   2.980   4.923
 3841SOL    HW212423   6.959   2.855   4.968
 3842SOL     OW12424   1.864   3.146   0.117
 3842SOL    HW112425   1.915   3.225   0.084
 3842SOL    HW212426   1.887   3.066   0.060
 3843SOL     OW12427   6.052   4.165   2.629
 3843SOL    HW112428   6.048   4.214   2.716
 3843SOL    HW212429   6.048   4.066   2.646
 3844SOL     OW12430   0.636   2.322   6.142
 3844SOL    HW112431   0.642   2.264   6.223
 3844SOL    HW212432   0.598   2.411   6.168
 3845SOL     OW12433   3.733   3.368   4.944
 3845SOL    HW112434   3.666   3.421   4.996
 3845SOL    HW212435   3.790   3.316   5.007
 3846SOL     OW12436   0.865   5.593   3.615
 3846SOL    HW112437   0.898   5.499   3.608
 3846SOL    HW212438   0.914   5.651   3.549
 3847SOL     OW12439   5.953   0.907   4.669
 3847SOL    HW112440   5.934   0.861   4.583
 3847SOL    HW212441   5.870   0.950   4.703
 3848SOL     OW12442   4.086   5.631   2.930
 3848SOL    HW112443   4.090   5.622   2.830
 3848SOL    HW212444   4.015   5.697   2.955
 3849SOL     OW12445   1.407   1.481   5.486
 3849SOL    HW112446   1.350   1.555   5.450
 3849SOL    HW212447   1.501   1.494   5.456
 3850SOL     OW12448   2.652   3.241   0.729
 3850SOL    HW112449   2.552   3.235   0.730
 3850SOL    HW212450   2.688   3.190   0.651
 3851SOL     OW12451   1.211   4.503   1.964
 3851SOL    HW112452   1.229   4.405   1.961
 3851SOL    HW212453   1.202   4.538   1.870
 3852SOL     OW12454   3.862   6.926   3.829
 3852SOL    HW112455   3.793   6.917   3.901
 3852SOL    HW212456   3.884   0.002   3.817
 3853SOL     OW12457   1.090   3.959   3.436
 3853SOL    HW112458   1.103   4.055   3.410
 3853SOL    HW212459   1.067   3.953   3.533
 3854SOL     OW12460   1.592   3.025   2.104
 3854SOL    HW112461   1.565   3.120   2.087
 3854SOL    HW212462   1.597   3.009   2.203
 3855SOL     OW12463   5.263   6.284   6.634
 3855SOL    HW112464   5.207   6.359   6.598
 3855SOL    HW212465   5.228   6.258   6.724
 3856SOL     OW12466   0.000   6.873   5.423
 3856SOL    HW112467   0.027   6.944   5.489
 3856SOL    HW212468   0.080   6.848   5.368
 3857SOL     OW12469   0.410   5.730   6.379
 3857SOL    HW112470   0.469   5.748   6.458
 3857SOL    HW212471   0.325   5.688   6.409
 3858SOL     OW12472   1.635   6.702   5.407
 3858SOL    HW112473   1.607   6.631   5.471
 3858SOL    HW212474   1.615   6.792   5.445
 3859SOL     OW12475   6.544   1.997   3.182
 3859SOL    HW112476   6.517   2.017   3.276
 3859SOL    HW212477   6.501   2.063   3.120
 3860SOL     OW12478   2.492   0.445   5.905
 3860SOL    HW112479   2.406   0.403   5.878
 3860SOL    HW212480   2.486   0.544   5.895
 3861SOL     OW12481   4.554   4.595   3.171
 3861SOL    HW112482   4.567   4.655   3.251
 3861SOL    HW212483   4.600   4.508   3.188
 3862SOL     OW12484   1.432   0.166   4.943
 3862SOL    HW112485   1.385   0.218   4.871
 3862SOL    HW212486   1.501   0.107   4.903
 3863SOL     OW12487   4.373   3.068   6.072
 3863SOL    HW112488   4.395   3.093   6.166
 3863SOL    HW212489   4.441   3.108   6.010
 3864SOL     OW12490   2.418   0.711   5.897
 3864SOL    HW112491   2.371   0.768   5.965
 3864SOL    HW212492   2.357   0.695   5.819
 3865SOL     OW12493   3.696   6.600   6.987
 3865SOL    HW112494   3.786   6.643   6.975
 3865SOL    HW212495   3.624   6.666   6.967
 3866SOL     OW12496   3.818   1.020   1.907
 3866SOL    HW112497   3.911   1.038   1.875
 3866SOL    HW212498   3.772   1.106   1.929
 3867SOL     OW12499   1.283   4.265   4.168
 3867SOL    HW112500   1.286   4.334   4.240
 3867SOL    HW212501   1.329   4.182   4.198
 3868SOL     OW12502   3.468   0.042   0.226
 3868SOL    HW112503   3.473   0.142   0.228
 3868SOL    HW212504   3.509   0.005   0.309
 3869SOL     OW12505   6.279   3.187   5.259
 3869SOL    HW112506   6.218   3.129   5.205
 3869SOL    HW212507   6.350   3.224   5.200
 3870SOL     OW12508   4.219   5.766   6.959
 3870SOL    HW112509   4.201   5.674   6.922
 3870SOL    HW212510   4.143   5.826   6.936
 3871SOL     OW12511   3.880   0.327   2.757
 3871SOL    HW112512   3.971   0.305   2.722
 3871SOL    HW212513   3.886   0.349   2.854
 3872SOL     OW12514   3.874   3.305   2.833
 3872SOL    HW112515   3.933   3.244   2.885
 3872SOL    HW212516   3.826   3.254   2.762
 3873SOL     OW12517   6.378   3.671   1.637
 3873SOL    HW112518   6.381   3.771   1.631
 3873SOL    HW212519   6.450   3.631   1.581
 3874SOL     OW12520   3.855   6.185   6.478
 3874SOL    HW112521   3.860   6.116   6.407
 3874SOL    HW212522   3.777   6.246   6.461
 3875SOL     OW12523   1.795   2.670   1.834
 3875SOL    HW112524   1.844   2.757   1.837
 3875SOL    HW212525   1.764   2.647   1.926
 3876SOL     OW12526   5.110   5.023   0.536
 3876SOL    HW112527   5.140   5.020   0.441
 3876SOL    HW212528   5.063   4.937   0.559
 3877SOL     OW12529   6.859   2.877   0.152
 3877SOL    HW112530   6.846   2.848   0.247
 3877SOL    HW212531   6.772   2.872   0.103
 3878SOL     OW12532   2.585   6.175   4.928
 3878SOL    HW112533   2.510   6.229   4.890
 3878SOL    HW212534   2.548   6.091   4.969
 3879SOL     OW12535   5.191   6.386   1.367
 3879SOL    HW112536   5.122   6.336   1.420
 3879SOL    HW212537   5.147   6.462   1.318
 3880SOL     OW12538   6.325   5.108   3.593
 3880SOL    HW112539   6.306   5.204   3.614
 3880SOL    HW212540   6.239   5.060   3.575
 3881SOL     OW12541   1.089   4.432   0.852
 3881SOL    HW112542   1.180   4.471   0.840
 3881SOL    HW212543   1.039   4.485   0.920
 3882SOL     OW12544   0.316   1.758   4.961
 3882SOL    HW112545   0.268   1.846   4.955
 3882SOL    HW212546   0.256   1.690   5.001
 3883SOL     OW12547   4.261   1.038   3.210
 3883SOL    HW112548   4.289   1.026   3.305
 3883SOL    HW212549   4.171   1.082   3.207
 3884SOL     OW12550   1.130   5.590   3.257
 3884SOL    HW112551   1.227   5.615   3.250
 3884SOL    HW212552   1.081   5.626   3.178
 3885SOL     OW12553   6.383   0.077   2.879
 3885SOL    HW112554   6.453   0.065   2.808
 3885SOL    HW212555   6.338   0.165   2.867
 3886SOL     OW12556   6.400   5.745   4.759
 3886SOL    HW112557   6.326   5.812   4.764
 3886SOL    HW212558   6.452   5.758   4.675
 3887SOL     OW12559   6.619   0.719   5.573
 3887SOL    HW112560   6.669   0.637   5.547
 3887SOL    HW212561   6.543   0.734   5.509
 3888SOL     OW12562   1.051   0.325   6.702
 3888SOL    HW112563   1.096   0.284   6.622
 3888SOL    HW212564   1.119   0.341   6.774
 3889SOL     OW12565   6.540   2.888   6.472
 3889SOL    HW112566   6.487   2.940   6.405
 3889SOL    HW212567   6.565   2.948   6.548
 3890SOL     OW12568   5.855   5.686   2.426
 3890SOL    HW112569   5.948   5.677   2.393
 3890SOL    HW212570   5.806   5.753   2.369
 3891SOL     OW12571   5.449   4.937   4.137
 3891SOL    HW112572   5.465   4.997   4.058
 3891SOL    HW212573   5.534   4.892   4.163
 3892SOL     OW12574   0.066   2.452   1.661
 3892SOL    HW112575   0.036   2.545   1.681
 3892SOL    HW212576   0.004   2.387   1.707
 3893SOL     OW12577   3.139   5.334   1.595
 3893SOL    HW112578   3.075   5.287   1.535
 3893SOL    HW212579   3.183   5.408   1.545
 3894SOL     OW12580   2.650   1.892   1.196
 3894SOL    HW112581   2.672   1.852   1.285
 3894SOL    HW212582   2.719   1.961   1.173
 3895SOL     OW12583   1.714   0.061   5.128
 3895SOL    HW112584   1.652   0.078   5.204
 3895SOL    HW212585   1.690   0.120   5.051
 3896SOL     OW12586   0.423   1.851   6.412
 3896SOL    HW112587   0.388   1.757   6.407
 3896SOL    HW212588   0.509   1.857   6.360
 3897SOL     OW12589   3.761   0.006   2.049
 3897SOL    HW112590   3.771   6.954   1.981
 3897SOL    HW212591   3.719   0.086   2.005
 3898SOL     OW12592   3.438   3.751   4.036
 3898SOL    HW112593   3.378   3.731   4.113
 3898SOL    HW212594   3.428   3.681   3.966
 3899SOL     OW12595   4.875   0.742   4.337
 3899SOL    HW112596   4.889   0.834   4.373
 3899SOL    HW212597   4.778   0.727   4.318
 3900SOL     OW12598   5.233   2.747   3.471
 3900SOL    HW112599   5.170   2.703   3.406
 3900SOL    HW212600   5.201   2.840   3.490
 3901SOL     OW12601   3.166   6.466   5.767
 3901SOL    HW112602   3.204   6.512   5.847
 3901SOL    HW212603   3.101   6.396   5.796
 3902SOL     OW12604   6.183   3.820   1.431
 3902SOL    HW112605   6.235   3.856   1.508
 3902SOL    HW212606   6.154   3.726   1.452
 3903SOL     OW12607   4.847   4.313   6.854
 3903SOL    HW112608   4.872   4.403   6.888
 3903SOL    HW212609   4.880   4.243   6.916
 3904SOL     OW12610   2.373   6.878   5.955
 3904SOL    HW112611   2.375   6.832   5.866
 3904SOL    HW212612   2.348   6.812   6.026
 3905SOL     OW12613   5.477   6.928   6.124
 3905SOL    HW112614   5.426   6.844   6.145
 3905SOL    HW212615   5.560   6.903   6.073
 3906SOL     OW12616   1.747   5.194   5.594
 3906SOL    HW112617   1.707   5.172   5.505
 3906SOL    HW212618   1.679   5.177   5.665
 3907SOL     OW12619   6.288   0.157   3.874
 3907SOL    HW112620   6.231   0.083   3.839
 3907SOL    HW212621   6.279   0.162   3.974
 3908SOL     OW12622   1.893   0.979   6.750
 3908SOL    HW112623   1.959   1.016   6.816
 3908SOL    HW212624   1.920   1.006   6.657
 3909SOL     OW12625   0.022   4.677   6.701
 3909SOL    HW112626   0.017   4.776   6.710
 3909SOL    HW212627   0.050   4.637   6.788
 3910SOL     OW12628   3.474   3.906   2.013
 3910SOL    HW112629   3.483   3.884   1.916
 3910SOL    HW212630   3.565   3.904   2.055
 3911SOL     OW12631   5.344   1.723   0.083
 3911SOL    HW112632   5.427   1.771   0.054
 3911SOL    HW212633   5.370   1.644   0.139
 3912SOL     OW12634   3.872   1.306   6.276
 3912SOL    HW112635   3.885   1.353   6.189
 3912SOL    HW212636   3.776   1.311   6.303
 3913SOL     OW12637   2.951   6.882   6.563
 3913SOL    HW112638   2.946   6.945   6.640
 3913SOL    HW212639   3.024   6.911   6.501
 3914SOL     OW12640   5.254   0.797   1.280
 3914SOL    HW112641   5.233   0.700   1.291
 3914SOL    HW212642   5.248   0.843   1.369
 3915SOL     OW12643   4.460   6.154   0.576
 3915SOL    HW112644   4.362   6.173   0.581
 3915SOL    HW212645   4.511   6.236   0.601
 3916SOL     OW12646   2.502   6.833   2.662
 3916SOL    HW112647   2.472   6.781   2.582
 3916SOL    HW212648   2.425   6.845   2.724
 3917SOL     OW12649   1.377   4.318   1.428
 3917SOL    HW112650   1.424   4.286   1.345
 3917SOL    HW212651   1.424   4.281   1.508
 3918SOL     OW12652   4.419   6.283   1.883
 3918SOL    HW112653   4.424   6.219   1.806
 3918SOL    HW212654   4.399   6.232   1.967
 3919SOL     OW12655   3.432   0.359   6.417
 3919SOL    HW112656   3.502   0.325   6.355
 3919SOL    HW212657   3.342   0.350   6.375
 3920SOL     OW12658   2.976   1.961   6.600
 3920SOL    HW112659   2.936   1.972   6.509
 3920SOL    HW212660   3.054   1.898   6.594
 3921SOL     OW12661   6.895   2.485   0.265
 3921SOL    HW112662   6.967   2.505   0.198
 3921SOL    HW212663   6.810   2.527   0.235
 3922SOL     OW12664   3.963   5.658   0.927
 3922SOL    HW112665   3.921   5.630   0.841
 3922SOL    HW212666   3.960   5.581   0.992
 3923SOL     OW12667   5.991   2.054   0.121
 3923SOL    HW112668   6.046   2.064   0.204
 3923SOL    HW212669   5.951   1.962   0.118
 3924SOL     OW12670   0.456   4.805   2.844
 3924SOL    HW112671   0.387   4.811   2.915
 3924SOL    HW212672   0.413   4.784   2.757
 3925SOL     OW12673   3.875   4.453   0.880
 3925SOL    HW112674   3.917   4.393   0.949
 3925SOL    HW212675   3.819   4.399   0.818
 3926SOL     OW12676   0.113   0.090   4.806
 3926SOL    HW112677   0.080   0.157   4.739
 3926SOL    HW212678   0.178   0.028   4.762
 3927SOL     OW12679   0.023   2.277   4.701
 3927SOL    HW112680   0.008   2.217   4.780
 3927SOL    HW212681   0.010   2.372   4.728
 3928SOL     OW12682   3.662   5.628   3.943
 3928SOL    HW112683   3.733   5.593   3.881
 3928SOL    HW212684   3.618   5.551   3.989
 3929SOL     OW12685   6.972   1.773   6.424
 3929SOL    HW112686   0.005   1.772   6.508
 3929SOL    HW212687   6.886   1.723   6.438
 3930SOL     OW12688   1.074   1.959   3.662
 3930SOL    HW112689   1.024   2.045   3.670
 3930SOL    HW212690   1.110   1.949   3.569
 3931SOL     OW12691   1.573   1.802   1.848
 3931SOL    HW112692   1.594   1.892   1.811
 3931SOL    HW212693   1.649   1.740   1.829
 3932SOL     OW12694   1.803   4.557   3.616
 3932SOL    HW112695   1.769   4.588   3.527
 3932SOL    HW212696   1.826   4.460   3.611
 3933SOL     OW12697   1.482   6.872   0.147
 3933SOL    HW112698   1.580   6.891   0.138
 3933SOL    HW212699   1.469   6.788   0.198
 3934SOL     OW12700   0.012   1.032   2.430
 3934SOL    HW112701   0.080   1.100   2.403
 3934SOL    HW212702   7.013   1.041   2.527
 3935SOL     OW12703   1.273   1.047   5.634
 3935SOL    HW112704   1.227   1.027   5.721
 3935SOL    HW212705   1.349   1.110   5.651
 3936SOL     OW12706   6.704   6.064   4.998
 3936SOL    HW112707   6.731   5.998   5.068
 3936SOL    HW212708   6.607   6.053   4.977
 3937SOL     OW12709   6.734   6.349   2.120
 3937SOL    HW112710   6.754   6.447   2.115
 3937SOL    HW212711   6.780   6.302   2.045
 3938SOL     OW12712   6.063   3.689   4.347
 3938SOL    HW112713   6.104   3.760   4.290
 3938SOL    HW212714   6.037   3.612   4.290
 3939SOL     OW12715   2.459   1.790   3.287
 3939SOL    HW112716   2.507   1.726   3.227
 3939SOL    HW212717   2.447   1.749   3.377
 3940SOL     OW12718   2.899   4.831   1.848
 3940SOL    HW112719   2.969   4.836   1.920
 3940SOL    HW212720   2.849   4.745   1.857
 3941SOL     OW12721   6.015   0.553   4.641
 3941SOL    HW112722   5.923   0.588   4.662
 3941SOL    HW212723   6.007   0.460   4.604
 3942SOL     OW12724   1.054   6.230   5.738
 3942SOL    HW112725   1.139   6.269   5.702
 3942SOL    HW212726   1.001   6.191   5.663
 3943SOL     OW12727   0.635   3.585   2.906
 3943SOL    HW112728   0.623   3.557   3.001
 3943SOL    HW212729   0.659   3.682   2.903
 3944SOL     OW12730   5.904   3.694   6.342
 3944SOL    HW112731   5.927   3.698   6.245
 3944SOL    HW212732   5.808   3.671   6.353
 3945SOL     OW12733   0.994   2.500   3.062
 3945SOL    HW112734   0.981   2.401   3.062
 3945SOL    HW212735   1.091   2.521   3.046
 3946SOL     OW12736   0.052   4.062   6.344
 3946SOL    HW112737   7.016   3.985   6.373
 3946SOL    HW212738   0.135   4.027   6.299
 3947SOL     OW12739   5.498   5.296   0.500
 3947SOL    HW112740   5.543   5.317   0.587
 3947SOL    HW212741   5.421   5.234   0.517
 3948SOL     OW12742   1.334   4.141   7.009
 3948SOL    HW112743   1.246   4.095   6.995
 3948SOL    HW212744   1.387   4.135   6.924
 3949SOL     OW12745   6.252   6.666   3.069
 3949SOL    HW112746   6.163   6.673   3.115
 3949SOL    HW212747   6.295   6.756   3.065
 3950SOL     OW12748   3.569   3.893   1.732
 3950SOL    HW112749   3.660   3.862   1.759
 3950SOL    HW212750   3.519   3.818   1.689
 3951SOL     OW12751   0.407   1.107   6.990
 3951SOL    HW112752   0.364   1.056   0.044
 3951SOL    HW212753   0.349   1.185   6.965
 3952SOL     OW12754   6.195   3.393   4.781
 3952SOL    HW112755   6.195   3.465   4.850
 3952SOL    HW212756   6.198   3.304   4.826
 3953SOL     OW12757   3.857   4.385   6.658
 3953SOL    HW112758   3.762   4.355   6.645
 3953SOL    HW212759   3.905   4.380   6.570
 3954SOL     OW12760   5.630   4.985   5.234
 3954SOL    HW112761   5.677   4.899   5.250
 3954SOL    HW212762   5.556   4.995   5.301
 3955SOL     OW12763   4.872   6.530   6.869
 3955SOL    HW112764   4.895   6.595   6.796
 3955SOL    HW212765   4.793   6.476   6.841
 3956SOL     OW12766   0.629   1.940   4.646
 3956SOL    HW112767   0.531   1.955   4.661
 3956SOL    HW212768   0.681   2.011   4.694
 3957SOL     OW12769   4.299   6.447   3.490
 3957SOL    HW112770   4.258   6.538   3.479
 3957SOL    HW212771   4.397   6.452   3.472
 3958SOL     OW12772   5.997   6.686   6.541
 3958SOL    HW112773   5.945   6.689   6.456
 3958SOL    HW212774   6.050   6.770   6.551
 3959SOL     OW12775   3.299   6.393   1.451
 3959SOL    HW112776   3.304   6.315   1.389
 3959SOL    HW212777   3.259   6.471   1.402
 3960SOL     OW12778   6.319   2.333   6.327
 3960SOL    HW112779   6.412   2.369   6.318
 3960SOL    HW212780   6.253   2.408   6.322
 3961SOL     OW12781   5.668   2.369   2.095
 3961SOL    HW112782   5.624   2.422   2.023
 3961SOL    HW212783   5.706   2.285   2.057
 3962SOL     OW12784   1.032   5.829   0.209
 3962SOL    HW112785   1.101   5.898   0.188
 3962SOL    HW212786   0.969   5.865   0.279
 3963SOL     OW12787   5.263   4.460   3.700
 3963SOL    HW112788   5.210   4.545   3.695
 3963SOL    HW212789   5.339   4.473   3.764
 3964SOL     OW12790   4.249   4.750   4.840
 3964SOL    HW112791   4.252   4.663   4.888
 3964SOL    HW212792   4.162   4.796   4.860
 3965SOL     OW12793   3.827   4.509   6.197
 3965SOL    HW112794   3.854   4.440   6.129
 3965SOL    HW212795   3.903   4.525   6.260
 3966SOL     OW12796   6.906   4.927   0.077
 3966SOL    HW112797   6.861   4.952   0.163
 3966SOL    HW212798   6.855   4.853   0.033
 3967SOL     OW12799   1.062   4.535   2.726
 3967SOL    HW112800   1.059   4.582   2.637
 3967SOL    HW212801   0.997   4.459   2.726
 3968SOL     OW12802   6.387   0.575   1.305
 3968SOL    HW112803   6.438   0.637   1.245
 3968SOL    HW212804   6.376   0.616   1.395
 3969SOL     OW12805   0.092   3.816   2.852
 3969SOL    HW112806   0.166   3.869   2.894
 3969SOL    HW212807   0.005   3.863   2.868
 3970SOL     OW12808   4.801   5.288   3.417
 3970SOL    HW112809   4.870   5.345   3.371
 3970SOL    HW212810   4.842   5.245   3.497
 3971SOL     OW12811   2.227   5.054   2.371
 3971SOL    HW112812   2.275   5.003   2.443
 3971SOL    HW212813   2.294   5.096   2.309
 3972SOL     OW12814   1.369   5.679   1.698
 3972SOL    HW112815   1.417   5.708   1.615
 3972SOL    HW212816   1.401   5.733   1.776
 3973SOL     OW12817   2.723   3.554   5.312
 3973SOL    HW112818   2.795   3.584   5.250
 3973SOL    HW212819   2.758   3.553   5.406
 3974SOL     OW12820   1.371   0.523   5.285
 3974SOL    HW112821   1.288   0.568   5.251
 3974SOL    HW212822   1.427   0.589   5.335
 3975SOL     OW12823   5.983   6.985   6.469
 3975SOL    HW112824   5.982   6.969   6.370
 3975SOL    HW212825   5.891   7.010   6.499
 3976SOL     OW12826   2.119   4.663   0.807
 3976SOL    HW112827   2.097   4.760   0.816
 3976SOL    HW212828   2.190   4.639   0.874
 3977SOL     OW12829   3.197   4.642   5.823
 3977SOL    HW112830   3.206   4.612   5.918
 3977SOL    HW212831   3.270   4.602   5.769
 3978SOL     OW12832   5.647   0.500   4.465
 3978SOL    HW112833   5.645   0.415   4.412
 3978SOL    HW212834   5.665   0.479   4.561
 3979SOL     OW12835   2.482   6.026   1.464
 3979SOL    HW112836   2.568   6.064   1.430
 3979SOL    HW212837   2.405   6.080   1.428
 3980SOL     OW12838   0.153   4.656   5.691
 3980SOL    HW112839   0.071   4.605   5.719
 3980SOL    HW212840   0.228   4.637   5.755
 3981SOL     OW12841   1.679   2.156   6.259
 3981SOL    HW112842   1.609   2.206   6.309
 3981SOL    HW212843   1.681   2.061   6.291
 3982SOL     OW12844   2.852   0.352   4.204
 3982SOL    HW112845   2.797   0.412   4.263
 3982SOL    HW212846   2.876   0.401   4.120
 3983SOL     OW12847   3.114   5.990   4.280
 3983SOL    HW112848   3.088   6.083   4.306
 3983SOL    HW212849   3.104   5.979   4.181
 3984SOL     OW12850   2.005   0.533   2.014
 3984SOL    HW112851   2.019   0.434   2.017
 3984SOL    HW212852   2.013   0.565   1.919
 3985SOL     OW12853   2.699   4.199   0.158
 3985SOL    HW112854   2.616   4.153   0.127
 3985SOL    HW212855   2.774   4.134   0.162
 3986SOL     OW12856   0.259   1.553   3.353
 3986SOL    HW112857   0.258   1.649   3.382
 3986SOL    HW212858   0.218   1.496   3.424
 3987SOL     OW12859   1.262   5.204   4.850
 3987SOL    HW112860   1.210   5.119   4.851
 3987SOL    HW212861   1.235   5.261   4.928
 3988SOL     OW12862   3.613   2.598   5.351
 3988SOL    HW112863   3.665   2.607   5.266
 3988SOL    HW212864   3.673   2.619   5.428
 3989SOL     OW12865   6.179   0.709   6.901
 3989SOL    HW112866   6.181   0.797   6.853
 3989SOL    HW212867   6.200   0.723   6.998
 3990SOL     OW12868   6.171   1.768   3.936
 3990SOL    HW112869   6.235   1.842   3.957
 3990SOL    HW212870   6.181   1.696   4.004
 3991SOL     OW12871   6.929   2.280   3.279
 3991SOL    HW112872   6.875   2.364   3.292
 3991SOL    HW212873   6.878   2.216   3.223
 3992SOL     OW12874   4.406   2.049   6.038
 3992SOL    HW112875   4.479   1.986   6.013
 3992SOL    HW212876   4.338   2.000   6.093
 3993SOL     OW12877   1.662   2.243   3.644
 3993SOL    HW112878   1.663   2.333   3.601
 3993SOL    HW212879   1.570   2.204   3.636
 3994SOL     OW12880   1.347   2.771   5.120
 3994SOL    HW112881   1.404   2.839   5.166
 3994SOL    HW212882   1.251   2.788   5.143
 3995SOL     OW12883   2.171   4.037   3.936
 3995SOL    HW112884   2.139   3.946   3.960
 3995SOL    HW212885   2.202   4.038   3.841
 3996SOL     OW12886   1.374   0.910   4.972
 3996SOL    HW112887   1.460   0.961   4.967
 3996SOL    HW212888   1.298   0.971   4.948
 3997SOL     OW12889   4.882   3.457   3.215
 3997SOL    HW112890   4.871   3.370   3.263
 3997SOL    HW212891   4.831   3.529   3.263
 3998SOL     OW12892   5.034   1.677   2.029
 3998SOL    HW112893   5.001   1.610   1.964
 3998SOL    HW212894   5.022   1.769   1.991
 3999SOL     OW12895   5.972   3.748   3.554
 3999SOL    HW112896   5.969   3.661   3.504
 3999SOL    HW212897   5.988   3.730   3.651
 4000SOL     OW12898   3.225   5.672   2.723
 4000SOL    HW112899   3.167   5.702   2.798
 4000SOL    HW212900   3.312   5.721   2.726
 4001SOL     OW12901   2.246   2.567   4.664
 4001SOL    HW112902   2.327   2.554   4.721
 4001SOL    HW212903   2.196   2.648   4.694
 4002SOL     OW12904   3.335   3.564   5.999
 4002SOL    HW112905   3.421   3.512   5.991
 4002SOL    HW212906   3.331   3.633   5.927
 4003SOL     OW12907   2.588   0.319   6.163
 4003SOL    HW112908   2.563   0.290   6.070
 4003SOL    HW212909   2.527   0.275   6.229
 4004SOL     OW12910   6.072   2.866   4.343
 4004SOL    HW112911   6.003   2.937   4.332
 4004SOL    HW212912   6.030   2.776   4.329
 4005SOL     OW12913   5.246   4.903   1.238
 4005SOL    HW112914   5.339   4.923   1.209
 4005SOL    HW212915   5.236   4.805   1.253
 4006SOL     OW12916   4.659   4.921   2.351
 4006SOL    HW112917   4.572   4.946   2.393
 4006SOL    HW212918   4.644   4.894   2.256
 4007SOL     OW12919   0.688   2.616   1.954
 4007SOL    HW112920   0.750   2.542   1.926
 4007SOL    HW212921   0.666   2.672   1.875
 4008SOL     OW12922   3.919   1.568   5.670
 4008SOL    HW112923   3.991   1.499   5.682
 4008SOL    HW212924   3.944   1.652   5.717
 4009SOL     OW12925   4.886   2.856   0.380
 4009SOL    HW112926   4.951   2.929   0.402
 4009SOL    HW212927   4.894   2.783   0.447
 4010SOL     OW12928   2.369   3.372   1.434
 4010SOL    HW112929   2.415   3.363   1.345
 4010SOL    HW212930   2.284   3.424   1.421
 4011SOL     OW12931   1.250   6.668   2.162
 4011SOL    HW112932   1.225   6.588   2.108
 4011SOL    HW212933   1.169   6.702   2.210
 4012SOL     OW12934   5.018   4.795   1.666
 4012SOL    HW112935   5.045   4.699   1.673
 4012SOL    HW212936   5.090   4.853   1.704
 4013SOL     OW12937   3.216   0.506   1.142
 4013SOL    HW112938   3.138   0.454   1.175
 4013SOL    HW212939   3.296   0.486   1.198
 4014SOL     OW12940   3.950   5.690   3.633
 4014SOL    HW112941   3.924   5.610   3.688
 4014SOL    HW212942   3.913   5.681   3.541
 4015SOL     OW12943   4.230   5.137   6.532
 4015SOL    HW112944   4.202   5.056   6.480
 4015SOL    HW212945   4.150   5.181   6.571
 4016SOL     OW12946   1.198   5.453   6.607
 4016SOL    HW112947   1.262   5.530   6.603
 4016SOL    HW212948   1.214   5.393   6.529
 4017SOL     OW12949   0.608   6.313   0.043
 4017SOL    HW112950   0.659   6.393   0.075
 4017SOL    HW212951   0.673   6.246   0.006
 4018SOL     OW12952   5.845   6.331   1.780
 4018SOL    HW112953   5.823   6.257   1.717
 4018SOL    HW212954   5.829   6.419   1.734
 4019SOL     OW12955   6.172   3.879   2.258
 4019SOL    HW112956   6.222   3.798   2.229
 4019SOL    HW212957   6.215   3.960   2.221
 4020SOL     OW12958   6.890   2.379   5.695
 4020SOL    HW112959   6.892   2.280   5.684
 4020SOL    HW212960   6.796   2.409   5.712
 4021SOL     OW12961   3.221   3.731   5.243
 4021SOL    HW112962   3.242   3.770   5.154
 4021SOL    HW212963   3.220   3.631   5.237
 4022SOL     OW12964   4.776   0.350   6.558
 4022SOL    HW112965   4.848   0.281   6.559
 4022SOL    HW212966   4.786   0.410   6.636
 4023SOL     OW12967   6.892   0.571   4.100
 4023SOL    HW112968   6.883   0.664   4.063
 4023SOL    HW212969   6.810   0.547   4.152
 4024SOL     OW12970   2.676   5.221   4.300
 4024SOL    HW112971   2.604   5.274   4.347
 4024SOL    HW212972   2.691   5.136   4.350
 4025SOL     OW12973   0.160   6.260   4.376
 4025SOL    HW112974   0.258   6.246   4.381
 4025SOL    HW212975   0.115   6.207   4.448
 4026SOL     OW12976   6.075   0.272   2.969
 4026SOL    HW112977   6.024   0.291   2.886
 4026SOL    HW212978   6.163   0.319   2.967
 4027SOL     OW12979   2.612   2.802   1.247
 4027SOL    HW112980   2.635   2.862   1.170
 4027SOL    HW212981   2.678   2.816   1.321
 4028SOL     OW12982   2.252   2.379   2.852
 4028SOL    HW112983   2.207   2.452   2.800
 4028SOL    HW212984   2.335   2.414   2.895
 4029SOL     OW12985   3.361   4.870   6.077
 4029SOL    HW112986   3.304   4.791   6.057
 4029SOL    HW212987   3.360   4.888   6.176
 4030SOL     OW12988   1.045   1.769   1.068
 4030SOL    HW112989   0.982   1.721   1.008
 4030SOL    HW212990   1.019   1.866   1.073
 4031SOL     OW12991   4.997   6.303   3.420
 4031SOL    HW112992   5.074   6.247   3.391
 4031SOL    HW212993   4.940   6.251   3.484
 4032SOL     OW12994   6.378   0.230   2.272
 4032SOL    HW112995   6.461   0.213   2.324
 4032SOL    HW212996   6.371   0.164   2.197
 4033SOL     OW12997   2.828   3.742   1.528
 4033SOL    HW112998   2.822   3.672   1.599
 4033SOL    HW212999   2.917   3.735   1.482
 4034SOL     OW13000   6.954   1.401   4.846
 4034SOL    HW113001   6.927   1.337   4.773
 4034SOL    HW213002   6.883   1.469   4.859
 4035SOL     OW13003   6.034   2.425   0.979
 4035SOL    HW113004   6.061   2.438   0.884
 4035SOL    HW213005   6.081   2.491   1.037
 4036SOL     OW13006   4.619   6.059   2.616
 4036SOL    HW113007   4.568   6.014   2.689
 4036SOL    HW213008   4.624   6.157   2.635
 4037SOL     OW13009   2.383   1.333   0.495
 4037SOL    HW113010   2.434   1.297   0.416
 4037SOL    HW213011   2.446   1.381   0.556
 4038SOL     OW13012   4.469   4.053   1.641
 4038SOL    HW113013   4.388   4.033   1.587
 4038SOL    HW213014   4.454   4.135   1.696
 4039SOL     OW13015   4.592   4.483   1.781
 4039SOL    HW113016   4.515   4.452   1.726
 4039SOL    HW213017   4.592   4.436   1.869
 4040SOL     OW13018   3.673   6.862   5.852
 4040SOL    HW113019   3.674   6.851   5.753
 4040SOL    HW213020   3.762   6.896   5.882
 4041SOL     OW13021   1.791   4.993   1.348
 4041SOL    HW113022   1.791   5.032   1.440
 4041SOL    HW213023   1.885   4.984   1.315
 4042SOL     OW13024   6.385   5.654   3.135
 4042SOL    HW113025   6.405   5.577   3.074
 4042SOL    HW213026   6.287   5.673   3.134
 4043SOL     OW13027   5.164   1.485   4.063
 4043SOL    HW113028   5.246   1.530   4.029
 4043SOL    HW213029   5.102   1.553   4.104
 4044SOL     OW13030   4.855   0.394   3.069
 4044SOL    HW113031   4.791   0.417   3.143
 4044SOL    HW213032   4.806   0.394   2.982
 4045SOL     OW13033   2.737   5.476   5.777
 4045SOL    HW113034   2.687   5.550   5.733
 4045SOL    HW213035   2.741   5.397   5.716
 4046SOL     OW13036   0.859   1.614   3.633
 4046SOL    HW113037   0.764   1.629   3.660
 4046SOL    HW213038   0.908   1.568   3.707
 4047SOL     OW13039   1.265   1.739   0.857
 4047SOL    HW113040   1.199   1.752   0.931
 4047SOL    HW213041   1.279   1.641   0.841
 4048SOL     OW13042   5.373   2.291   1.979
 4048SOL    HW113043   5.351   2.225   2.051
 4048SOL    HW213044   5.316   2.373   1.990
 4049SOL     OW13045   6.185   5.220   6.000
 4049SOL    HW113046   6.258   5.156   6.022
 4049SOL    HW213047   6.216   5.282   5.929
 4050SOL     OW13048   1.630   6.725   1.133
 4050SOL    HW113049   1.639   6.811   1.083
 4050SOL    HW213050   1.720   6.693   1.163
 4051SOL     OW13051   3.870   2.490   6.761
 4051SOL    HW113052   3.937   2.474   6.689
 4051SOL    HW213053   3.849   2.588   6.765
 4052SOL     OW13054   6.780   0.837   2.383
 4052SOL    HW113055   6.845   0.872   2.451
 4052SOL    HW213056   6.829   0.783   2.315
 4053SOL     OW13057   3.328   4.943   4.228
 4053SOL    HW113058   3.274   4.870   4.187
 4053SOL    HW213059   3.324   5.025   4.170
 4054SOL     OW13060   6.689   3.471   2.012
 4054SOL    HW113061   6.594   3.438   2.004
 4054SOL    HW213062   6.750   3.405   1.969
 4055SOL     OW13063   3.275   3.293   6.786
 4055SOL    HW113064   3.321   3.307   6.698
 4055SOL    HW213065   3.176   3.300   6.774
 4056SOL     OW13066   3.631   4.177   0.998
 4056SOL    HW113067   3.671   4.216   1.081
 4056SOL    HW213068   3.546   4.225   0.976
 4057SOL     OW13069   5.300   2.541   1.527
 4057SOL    HW113070   5.336   2.467   1.583
 4057SOL    HW213071   5.206   2.561   1.555
 4058SOL     OW13072   1.810   0.317   4.014
 4058SOL    HW113073   1.785   0.229   4.054
 4058SOL    HW213074   1.890   0.353   4.061
 4059SOL     OW13075   1.004   2.538   3.813
 4059SOL    HW113076   0.983   2.583   3.726
 4059SOL    HW213077   0.924   2.541   3.872
 4060SOL     OW13078   4.829   5.587   4.413
 4060SOL    HW113079   4.813   5.656   4.484
 4060SOL    HW213080   4.746   5.576   4.359
 4061SOL     OW13081   2.902   4.955   1.580
 4061SOL    HW113082   2.914   4.913   1.670
 4061SOL    HW213083   2.922   4.889   1.508
 4062SOL     OW13084   2.169   2.344   2.237
 4062SOL    HW113085   2.130   2.258   2.272
 4062SOL    HW213086   2.242   2.374   2.298
 4063SOL     OW13087   6.110   6.412   5.475
 4063SOL    HW113088   6.017   6.446   5.462
 4063SOL    HW213089   6.168   6.486   5.509
 4064SOL     OW13090   1.536   6.850   3.440
 4064SOL    HW113091   1.606   6.823   3.374
 4064SOL    HW213092   1.493   6.769   3.479
 4065SOL     OW13093   0.063   0.138   0.955
 4065SOL    HW113094   6.985   0.131   0.968
 4065SOL    HW213095   0.094   0.069   0.890
 4066SOL     OW13096   5.402   5.966   2.753
 4066SOL    HW113097   5.364   5.971   2.661
 4066SOL    HW213098   5.349   6.025   2.814
 4067SOL     OW13099   6.594   3.162   3.174
 4067SOL    HW113100   6.616   3.122   3.264
 4067SOL    HW213101   6.580   3.260   3.184
 4068SOL     OW13102   3.086   0.378   4.765
 4068SOL    HW113103   3.171   0.348   4.722
 4068SOL    HW213104   3.065   0.471   4.736
 4069SOL     OW13105   3.709   5.150   6.152
 4069SOL    HW113106   3.732   5.053   6.149
 4069SOL    HW213107   3.793   5.204   6.148
 4070SOL     OW13108   0.769   3.287   2.160
 4070SOL    HW113109   0.802   3.281   2.065
 4070SOL    HW213110   0.773   3.197   2.203
 4071SOL     OW13111   1.535   1.172   5.381
 4071SOL    HW113112   1.471   1.102   5.349
 4071SOL    HW213113   1.506   1.205   5.471
 4072SOL     OW13114   0.446   5.848   3.766
 4072SOL    HW113115   0.473   5.765   3.814
 4072SOL    HW213116   0.410   5.914   3.831
 4073SOL     OW13117   2.323   6.093   6.672
 4073SOL    HW113118   2.307   6.036   6.591
 4073SOL    HW213119   2.341   6.034   6.751
 4074SOL     OW13120   6.906   2.862   2.213
 4074SOL    HW113121   6.917   2.960   2.194
 4074SOL    HW213122   6.905   2.811   2.127
 4075SOL     OW13123   4.020   2.075   2.847
 4075SOL    HW113124   3.936   2.033   2.814
 4075SOL    HW213125   4.096   2.048   2.788
 4076SOL     OW13126   3.007   3.514   5.795
 4076SOL    HW113127   2.984   3.491   5.700
 4076SOL    HW213128   3.066   3.595   5.795
 4077SOL     OW13129   3.472   0.516   0.119
 4077SOL    HW113130   3.516   0.462   0.190
 4077SOL    HW213131   3.422   0.456   0.057
 4078SOL     OW13132   6.531   5.366   2.133
 4078SOL    HW113133   6.582   5.282   2.152
 4078SOL    HW213134   6.478   5.392   2.214
 4079SOL     OW13135   0.604   1.948   3.789
 4079SOL    HW113136   0.557   1.869   3.830
 4079SOL    HW213137   0.623   2.016   3.860
 4080SOL     OW13138   3.009   3.574   6.873
 4080SOL    HW113139   3.004   3.673   6.865
 4080SOL    HW213140   2.969   3.545   6.961
 4081SOL     OW13141   2.215   1.727   4.079
 4081SOL    HW113142   2.231   1.723   3.981
 4081SOL    HW213143   2.124   1.765   4.096
 4082SOL     OW13144   1.284   2.594   0.695
 4082SOL    HW113145   1.315   2.675   0.745
 4082SOL    HW213146   1.187   2.579   0.713
 4083SOL     OW13147   6.649   4.767   2.075
 4083SOL    HW113148   6.700   4.681   2.075
 4083SOL    HW213149   6.653   4.808   1.984
 4084SOL     OW13150   4.409   2.422   3.152
 4084SOL    HW113151   4.395   2.520   3.146
 4084SOL    HW213152   4.454   2.400   3.239
 4085SOL     OW13153   2.653   5.739   0.451
 4085SOL    HW113154   2.714   5.757   0.528
 4085SOL    HW213155   2.691   5.781   0.368
 4086SOL     OW13156   0.458   4.699   1.309
 4086SOL    HW113157   0.362   4.705   1.282
 4086SOL    HW213158   0.507   4.780   1.278
 4087SOL     OW13159   1.610   1.785   3.567
 4087SOL    HW113160   1.673   1.720   3.523
 4087SOL    HW213161   1.563   1.838   3.497
 4088SOL     OW13162   6.622   0.829   6.756
 4088SOL    HW113163   6.569   0.844   6.673
 4088SOL    HW213164   6.697   0.896   6.760
 4089SOL     OW13165   6.207   4.718   3.917
 4089SOL    HW113166   6.227   4.656   3.841
 4089SOL    HW213167   6.109   4.716   3.936
 4090SOL     OW13168   1.190   5.362   5.081
 4090SOL    HW113169   1.184   5.267   5.111
 4090SOL    HW213170   1.117   5.416   5.124
 4091SOL     OW13171   0.783   6.111   6.999
 4091SOL    HW113172   0.873   6.142   6.966
 4091SOL    HW213173   0.793   6.024   0.026
 4092SOL     OW13174   5.886   2.646   4.345
 4092SOL    HW113175   5.908   2.620   4.439
 4092SOL    HW213176   5.863   2.564   4.292
 4093SOL     OW13177   5.190   6.553   1.880
 4093SOL    HW113178   5.097   6.554   1.843
 4093SOL    HW213179   5.243   6.626   1.838
 4094SOL     OW13180   1.771   4.808   5.878
 4094SOL    HW113181   1.814   4.719   5.888
 4094SOL    HW213182   1.830   4.878   5.920
 4095SOL     OW13183   0.724   4.033   0.678
 4095SOL    HW113184   0.673   3.950   0.701
 4095SOL    HW213185   0.702   4.105   0.743
 4096SOL     OW13186   4.986   1.048   0.057
 4096SOL    HW113187   5.035   1.119   0.106
 4096SOL    HW213188   5.033   0.961   0.068
 4097SOL     OW13189   4.570   4.937   4.586
 4097SOL    HW113190   4.598   4.849   4.624
 4097SOL    HW213191   4.483   4.965   4.626
 4098SOL     OW13192   0.583   1.829   2.233
 4098SOL    HW113193   0.577   1.758   2.163
 4098SOL    HW213194   0.679   1.849   2.252
 4099SOL     OW13195   3.766   5.272   1.249
 4099SOL    HW113196   3.677   5.302   1.282
 4099SOL    HW213197   3.754   5.192   1.190
 4100SOL     OW13198   0.329   6.142   4.154
 4100SOL    HW113199   0.378   6.170   4.237
 4100SOL    HW213200   0.269   6.217   4.124
 4101SOL     OW13201   0.018   0.794   0.231
 4101SOL    HW113202   6.979   0.868   0.262
 4101SOL    HW213203   0.026   0.725   0.303
 4102SOL     OW13204   1.126   0.711   0.843
 4102SOL    HW113205   1.209   0.740   0.796
 4102SOL    HW213206   1.065   0.666   0.778
 4103SOL     OW13207   0.323   7.019   0.689
 4103SOL    HW113208   0.260   6.989   0.618
 4103SOL    HW213209   0.313   0.097   0.704
 4104SOL     OW13210   6.959   4.937   3.045
 4104SOL    HW113211   6.976   5.000   2.970
 4104SOL    HW213212   6.884   4.875   3.021
 4105SOL     OW13213   5.785   0.375   2.563
 4105SOL    HW113214   5.785   0.465   2.518
 4105SOL    HW213215   5.761   0.305   2.497
 4106SOL     OW13216   6.517   2.772   3.286
 4106SOL    HW113217   6.611   2.753   3.315
 4106SOL    HW213218   6.493   2.866   3.311
 4107SOL     OW13219   1.321   5.432   1.324
 4107SOL    HW113220   1.307   5.505   1.258
 4107SOL    HW213221   1.419   5.423   1.344
 4108SOL     OW13222   6.746   5.198   4.800
 4108SOL    HW113223   6.794   5.132   4.742
 4108SOL    HW213224   6.735   5.285   4.750
 4109SOL     OW13225   6.738   0.132   4.378
 4109SOL    HW113226   6.665   0.078   4.335
 4109SOL    HW213227   6.813   0.072   4.405
 4110SOL     OW13228   4.184   3.781   5.737
 4110SOL    HW113229   4.126   3.794   5.656
 4110SOL    HW213230   4.249   3.856   5.743
 4111SOL     OW13231   5.281   4.622   6.258
 4111SOL    HW113232   5.361   4.562   6.257
 4111SOL    HW213233   5.261   4.653   6.165
 4112SOL     OW13234   4.779   6.457   5.125
 4112SOL    HW113235   4.846   6.456   5.199
 4112SOL    HW213236   4.826   6.463   5.037
 4113SOL     OW13237   5.731   5.703   4.788
 4113SOL    HW113238   5.668   5.626   4.793
 4113SOL    HW213239   5.816   5.675   4.743
 4114SOL     OW13240   4.175   2.306   4.123
 4114SOL    HW113241   4.113   2.239   4.164
 4114SOL    HW213242   4.222   2.357   4.196
 4115SOL     OW13243   2.846   5.219   2.264
 4115SOL    HW113244   2.853   5.248   2.359
 4115SOL    HW213245   2.933   5.178   2.235
 4116SOL     OW13246   3.725   1.325   2.556
 4116SOL    HW113247   3.629   1.345   2.572
 4116SOL    HW213248   3.759   1.265   2.628
 4117SOL     OW13249   1.216   3.633   2.606
 4117SOL    HW113250   1.227   3.685   2.691
 4117SOL    HW213251   1.186   3.695   2.533
 4118SOL     OW13252   5.198   6.346   0.691
 4118SOL    HW113253   5.115   6.312   0.734
 4118SOL    HW213254   5.223   6.287   0.614
 4119SOL     OW13255   3.170   1.896   3.956
 4119SOL    HW113256   3.127   1.970   3.904
 4119SOL    HW213257   3.118   1.880   4.040
 4120SOL     OW13258   4.307   0.817   6.080
 4120SOL    HW113259   4.275   0.795   6.173
 4120SOL    HW213260   4.390   0.765   6.061
 4121SOL     OW13261   6.459   6.834   3.477
 4121SOL    HW113262   6.457   6.862   3.573
 4121SOL    HW213263   6.376   6.784   3.454
 4122SOL     OW13264   1.300   6.363   4.656
 4122SOL    HW113265   1.218   6.408   4.692
 4122SOL    HW213266   1.303   6.376   4.556
 4123SOL     OW13267   4.282   4.704   5.326
 4123SOL    HW113268   4.318   4.783   5.375
 4123SOL    HW213269   4.188   4.687   5.354
 4124SOL     OW13270   6.260   6.487   0.513
 4124SOL    HW113271   6.183   6.536   0.554
 4124SOL    HW213272   6.225   6.416   0.452
 4125SOL     OW13273   4.547   1.618   2.574
 4125SOL    HW113274   4.499   1.679   2.512
 4125SOL    HW213275   4.640   1.602   2.539
 4126SOL     OW13276   1.901   3.464   3.411
 4126SOL    HW113277   1.908   3.557   3.375
 4126SOL    HW213278   1.817   3.456   3.466
 4127SOL     OW13279   5.579   3.516   5.576
 4127SOL    HW113280   5.482   3.515   5.555
 4127SOL    HW213281   5.592   3.520   5.675
 4128SOL     OW13282   0.982   3.080   1.197
 4128SOL    HW113283   0.999   2.986   1.166
 4128SOL    HW213284   1.065   3.117   1.239
 4129SOL     OW13285   3.577   1.284   6.940
 4129SOL    HW113286   3.533   1.325   0.000
 4129SOL    HW213287   3.517   1.214   6.902
 4130SOL     OW13288   6.590   3.104   0.830
 4130SOL    HW113289   6.510   3.156   0.801
 4130SOL    HW213290   6.568   3.007   0.834
 4131SOL     OW13291   0.116   1.337   3.574
 4131SOL    HW113292   0.190   1.277   3.542
 4131SOL    HW213293   0.031   1.310   3.528
 4132SOL     OW13294   4.835   4.051   3.252
 4132SOL    HW113295   4.816   3.954   3.232
 4132SOL    HW213296   4.797   4.107   3.179
 4133SOL     OW13297   3.282   5.864   1.465
 4133SOL    HW113298   3.278   5.768   1.493
 4133SOL    HW213299   3.258   5.871   1.368
 4134SOL     OW13300   2.609   4.001   1.400
 4134SOL    HW113301   2.658   3.981   1.316
 4134SOL    HW213302   2.510   4.005   1.382
 4135SOL     OW13303   0.457   2.131   1.970
 4135SOL    HW113304   0.404   2.212   1.995
 4135SOL    HW213305   0.554   2.147   1.989
 4136SOL     OW13306   1.264   3.012   3.237
 4136SOL    HW113307   1.239   3.063   3.319
 4136SOL    HW213308   1.331   3.065   3.185
 4137SOL     OW13309   1.051   3.553   1.777
 4137SOL    HW113310   1.120   3.551   1.849
 4137SOL    HW213311   1.064   3.635   1.720
 4138SOL     OW13312   3.846   5.746   2.670
 4138SOL    HW113313   3.893   5.742   2.582
 4138SOL    HW213314   3.771   5.680   2.672
 4139SOL     OW13315   2.104   1.690   5.218
 4139SOL    HW113316   2.058   1.719   5.303
 4139SOL    HW213317   2.069   1.601   5.190
 4140SOL     OW13318   3.050   0.530   5.524
 4140SOL    HW113319   3.000   0.592   5.585
 4140SOL    HW213320   3.073   0.578   5.439
 4141SOL     OW13321   5.118   6.636   1.244
 4141SOL    HW113322   5.178   6.710   1.274
 4141SOL    HW213323   5.138   6.615   1.148
 4142SOL     OW13324   6.594   4.943   0.911
 4142SOL    HW113325   6.588   4.944   0.811
 4142SOL    HW213326   6.544   5.021   0.948
 4143SOL     OW13327   5.261   1.555   0.628
 4143SOL    HW113328   5.297   1.609   0.552
 4143SOL    HW213329   5.284   1.599   0.714
 4144SOL     OW13330   5.534   1.545   6.981
 4144SOL    HW113331   5.593   1.487   6.925
 4144SOL    HW213332   5.527   1.636   6.939
 4145SOL     OW13333   0.367   6.412   1.661
 4145SOL    HW113334   0.270   6.402   1.638
 4145SOL    HW213335   0.386   6.508   1.683
 4146SOL     OW13336   6.550   0.515   3.051
 4146SOL    HW113337   6.538   0.459   2.969
 4146SOL    HW213338   6.540   0.612   3.028
 4147SOL     OW13339   4.932   4.971   5.962
 4147SOL    HW113340   4.899   5.035   5.893
 4147SOL    HW213341   4.881   4.885   5.954
 4148SOL     OW13342   1.735   0.377   4.515
 4148SOL    HW113343   1.755   0.298   4.457
 4148SOL    HW213344   1.764   0.461   4.469
 4149SOL     OW13345   0.124   4.245   1.183
 4149SOL    HW113346   0.129   4.149   1.157
 4149SOL    HW213347   0.174   4.300   1.115
 4150SOL     OW13348   1.295   0.100   6.038
 4150SOL    HW113349   1.255   0.163   5.971
 4150SOL    HW213350   1.257   0.008   6.024
 4151SOL     OW13351   3.364   6.385   5.543
 4151SOL    HW113352   3.279   6.403   5.592
 4151SOL    HW213353   3.344   6.363   5.448
 4152SOL     OW13354   4.603   5.937   1.403
 4152SOL    HW113355   4.610   5.858   1.343
 4152SOL    HW213356   4.513   5.980   1.392
 4153SOL     OW13357   5.362   5.091   0.669
 4153SOL    HW113358   5.358   5.045   0.758
 4153SOL    HW213359   5.270   5.095   0.630
 4154SOL     OW13360   0.089   5.096   3.505
 4154SOL    HW113361   0.171   5.042   3.524
 4154SOL    HW213362   0.108   5.193   3.521
 4155SOL     OW13363   0.057   1.445   2.284
 4155SOL    HW113364   0.097   1.359   2.252
 4155SOL    HW213365   0.128   1.515   2.288
 4156SOL     OW13366   6.012   6.358   4.891
 4156SOL    HW113367   5.932   6.388   4.838
 4156SOL    HW213368   5.981   6.309   4.973
 4157SOL     OW13369   4.945   5.527   4.114
 4157SOL    HW113370   5.002   5.500   4.192
 4157SOL    HW213371   4.869   5.462   4.104
 4158SOL     OW13372   0.020   3.304   1.403
 4158SOL    HW113373   7.001   3.349   1.483
 4158SOL    HW213374   0.110   3.267   1.426
 4159SOL     OW13375   2.079   3.085   3.153
 4159SOL    HW113376   1.989   3.077   3.110
 4159SOL    HW213377   2.068   3.117   3.247
 4160SOL     OW13378   5.666   1.150   0.529
 4160SOL    HW113379   5.692   1.152   0.625
 4160SOL    HW213380   5.631   1.058   0.506
 4161SOL     OW13381   0.902   2.299   0.694
 4161SOL    HW113382   0.990   2.317   0.650
 4161SOL    HW213383   0.903   2.206   0.732
 4162SOL     OW13384   6.638   5.515   0.220
 4162SOL    HW113385   6.709   5.580   0.189
 4162SOL    HW213386   6.548   5.548   0.192
 4163SOL     OW13387   4.672   0.347   2.859
 4163SOL    HW113388   4.591   0.288   2.865
 4163SOL    HW213389   4.646   0.440   2.885
 4164SOL     OW13390   1.889   6.793   5.764
 4164SOL    HW113391   1.967   6.750   5.809
 4164SOL    HW213392   1.814   6.727   5.758
 4165SOL     OW13393   4.527   0.693   6.059
 4165SOL    HW113394   4.511   0.597   6.084
 4165SOL    HW213395   4.625   0.708   6.047
 4166SOL     OW13396   5.450   2.043   0.355
 4166SOL    HW113397   5.474   2.074   0.263
 4166SOL    HW213398   5.497   1.957   0.374
 4167SOL     OW13399   2.163   4.201   0.849
 4167SOL    HW113400   2.238   4.140   0.823
 4167SOL    HW213401   2.075   4.156   0.832
 4168SOL     OW13402   0.168   4.675   1.212
 4168SOL    HW113403   0.177   4.576   1.220
 4168SOL    HW213404   0.097   4.707   1.274
 4169SOL     OW13405   5.756   4.875   4.850
 4169SOL    HW113406   5.792   4.794   4.804
 4169SOL    HW213407   5.832   4.934   4.877
 4170SOL     OW13408   4.373   3.376   5.979
 4170SOL    HW113409   4.473   3.373   5.985
 4170SOL    HW213410   4.335   3.407   6.066
 4171SOL     OW13411   6.726   5.868   1.060
 4171SOL    HW113412   6.723   5.832   0.967
 4171SOL    HW213413   6.666   5.813   1.119
 4172SOL     OW13414   1.378   1.669   6.191
 4172SOL    HW113415   1.418   1.745   6.140
 4172SOL    HW213416   1.306   1.703   6.251
 4173SOL     OW13417   5.210   4.358   4.803
 4173SOL    HW113418   5.192   4.331   4.708
 4173SOL    HW213419   5.282   4.300   4.841
 4174SOL     OW13420   5.009   1.414   2.805
 4174SOL    HW113421   4.972   1.406   2.898
 4174SOL    HW213422   5.106   1.393   2.806
 4175SOL     OW13423   1.994   5.163   4.493
 4175SOL    HW113424   1.940   5.152   4.576
 4175SOL    HW213425   1.963   5.096   4.425
 4176SOL     OW13426   3.372   6.010   1.937
 4176SOL    HW113427   3.440   5.939   1.920
 4176SOL    HW213428   3.289   5.989   1.887
 4177SOL     OW13429   6.171   5.136   5.124
 4177SOL    HW113430   6.214   5.076   5.192
 4177SOL    HW213431   6.111   5.201   5.170
 4178SOL     OW13432   4.467   6.845   4.389
 4178SOL    HW113433   4.557   6.801   4.387
 4178SOL    HW213434   4.467   6.923   4.327
 4179SOL     OW13435   5.989   3.472   3.464
 4179SOL    HW113436   5.982   3.434   3.371
 4179SOL    HW213437   5.999   3.397   3.529
 4180SOL     OW13438   5.079   4.517   1.315
 4180SOL    HW113439   5.027   4.575   1.378
 4180SOL    HW213440   5.075   4.423   1.347
 4181SOL     OW13441   3.333   1.113   0.638
 4181SOL    HW113442   3.377   1.024   0.640
 4181SOL    HW213443   3.365   1.168   0.715
 4182SOL     OW13444   0.986   0.259   3.635
 4182SOL    HW113445   0.912   0.212   3.587
 4182SOL    HW213446   1.074   0.221   3.605
 4183SOL     OW13447   3.053   1.512   6.934
 4183SOL    HW113448   2.998   1.595   6.926
 4183SOL    HW213449   3.047   1.477   0.007
 4184SOL     OW13450   4.202   5.924   1.741
 4184SOL    HW113451   4.235   6.015   1.765
 4184SOL    HW213452   4.265   5.855   1.775
 4185SOL     OW13453   0.693   4.730   2.244
 4185SOL    HW113454   0.703   4.798   2.317
 4185SOL    HW213455   0.605   4.742   2.199
 4186SOL     OW13456   2.960   4.978   6.986
 4186SOL    HW113457   2.966   5.057   0.027
 4186SOL    HW213458   2.879   4.987   6.928
 4187SOL     OW13459   3.777   2.841   5.780
 4187SOL    HW113460   3.802   2.794   5.865
 4187SOL    HW213461   3.776   2.939   5.796
 4188SOL     OW13462   4.883   0.411   5.177
 4188SOL    HW113463   4.878   0.509   5.158
 4188SOL    HW213464   4.908   0.397   5.273
 4189SOL     OW13465   3.256   4.954   5.657
 4189SOL    HW113466   3.313   4.889   5.708
 4189SOL    HW213467   3.182   4.905   5.611
 4190SOL     OW13468   0.899   0.692   0.262
 4190SOL    HW113469   0.803   0.669   0.277
 4190SOL    HW213470   0.951   0.609   0.242
 4191SOL     OW13471   4.650   4.352   3.182
 4191SOL    HW113472   4.650   4.291   3.102
 4191SOL    HW213473   4.740   4.392   3.193
 4192SOL     OW13474   0.676   0.926   4.311
 4192SOL    HW113475   0.697   0.884   4.399
 4192SOL    HW213476   0.589   0.889   4.277
 4193SOL     OW13477   0.385   0.930   1.853
 4193SOL    HW113478   0.378   1.028   1.835
 4193SOL    HW213479   0.297   0.886   1.832
 4194SOL     OW13480   5.605   0.683   4.222
 4194SOL    HW113481   5.693   0.703   4.178
 4194SOL    HW213482   5.613   0.598   4.275
 4195SOL     OW13483   3.873   6.349   1.854
 4195SOL    HW113484   3.871   6.434   1.907
 4195SOL    HW213485   3.809   6.283   1.894
 4196SOL     OW13486   5.968   1.966   3.022
 4196SOL    HW113487   6.061   1.973   3.060
 4196SOL    HW213488   5.973   1.970   2.922
 4197SOL     OW13489   4.735   5.572   5.675
 4197SOL    HW113490   4.793   5.532   5.746
 4197SOL    HW213491   4.790   5.591   5.594
 4198SOL     OW13492   5.882   2.345   0.073
 4198SOL    HW113493   5.801   2.339   0.015
 4198SOL    HW213494   5.915   2.254   0.094
 4199SOL     OW13495   2.036   2.598   5.794
 4199SOL    HW113496   2.092   2.678   5.817
 4199SOL    HW213497   1.939   2.624   5.795
 4200SOL     OW13498   3.941   6.928   5.922
 4200SOL    HW113499   4.036   6.900   5.913
 4200SOL    HW213500   3.934   7.001   5.991
 4201SOL     OW13501   5.843   6.322   3.500
 4201SOL    HW113502   5.919   6.259   3.491
 4201SOL    HW213503   5.870   6.401   3.555
 4202SOL     OW13504   3.974   5.599   5.664
 4202SOL    HW113505   4.001   5.689   5.630
 4202SOL    HW213506   3.989   5.594   5.762
 4203SOL     OW13507   4.365   5.286   0.754
 4203SOL    HW113508   4.399   5.317   0.665
 4203SOL    HW213509   4.330   5.364   0.805
 4204SOL     OW13510   3.926   3.957   2.831
 4204SOL    HW113511   3.923   4.011   2.916
 4204SOL    HW213512   3.970   4.011   2.759
 4205SOL     OW13513   3.914   5.504   3.843
 4205SOL    HW113514   3.941   5.435   3.776
 4205SOL    HW213515   3.985   5.512   3.913
 4206SOL     OW13516   6.996   6.905   5.917
 4206SOL    HW113517   0.038   6.979   5.891
 4206SOL    HW213518   6.934   6.885   5.841
 4207SOL     OW13519   1.412   1.467   0.880
 4207SOL    HW113520   1.478   1.540   0.864
 4207SOL    HW213521   1.430   1.425   0.968
 4208SOL     OW13522   0.466   2.856   6.018
 4208SOL    HW113523   0.546   2.894   6.064
 4208SOL    HW213524   0.461   2.891   5.925
 4209SOL     OW13525   0.286   0.212   4.530
 4209SOL    HW113526   0.293   0.167   4.441
 4209SOL    HW213527   0.191   0.216   4.559
 4210SOL     OW13528   3.031   3.419   2.245
 4210SOL    HW113529   3.126   3.392   2.226
 4210SOL    HW213530   3.001   3.483   2.175
 4211SOL     OW13531   4.284   6.079   5.682
 4211SOL    HW113532   4.308   6.146   5.753
 4211SOL    HW213533   4.190   6.096   5.651
 4212SOL     OW13534   6.007   1.989   2.742
 4212SOL    HW113535   6.009   1.954   2.648
 4212SOL    HW213536   6.097   1.977   2.783
 4213SOL     OW13537   2.034   1.137   1.265
 4213SOL    HW113538   2.003   1.093   1.181
 4213SOL    HW213539   1.967   1.206   1.293
 4214SOL     OW13540   1.540   4.783   5.401
 4214SOL    HW113541   1.613   4.786   5.470
 4214SOL    HW213542   1.580   4.757   5.313
 4215SOL     OW13543   5.819   6.416   5.387
 4215SOL    HW113544   5.808   6.381   5.480
 4215SOL    HW213545   5.827   6.338   5.324
 4216SOL     OW13546   0.891   1.479   2.806
 4216SOL    HW113547   0.835   1.416   2.858
 4216SOL    HW213548   0.913   1.559   2.863
 4217SOL     OW13549   1.240   0.202   1.940
 4217SOL    HW113550   1.231   0.183   2.038
 4217SOL    HW213551   1.163   0.159   1.891
 4218SOL     OW13552   4.513   0.875   1.663
 4218SOL    HW113553   4.431   0.821   1.683
 4218SOL    HW213554   4.518   0.952   1.726
 4219SOL     OW13555   3.027   5.351   4.209
 4219SOL    HW113556   2.962   5.426   4.223
 4219SOL    HW213557   3.117   5.378   4.243
 4220SOL     OW13558   5.402   2.889   4.023
 4220SOL    HW113559   5.490   2.870   3.979
 4220SOL    HW213560   5.329   2.845   3.972
 4221SOL     OW13561   6.050   5.088   6.370
 4221SOL    HW113562   6.131   5.032   6.385
 4221SOL    HW213563   5.979   5.034   6.325
 4222SOL     OW13564   6.197   2.278   2.971
 4222SOL    HW113565   6.214   2.271   2.872
 4222SOL    HW213566   6.101   2.300   2.986
 4223SOL     OW13567   3.602   3.439   5.982
 4223SOL    HW113568   3.668   3.405   6.049
 4223SOL    HW213569   3.570   3.363   5.926
 4224SOL     OW13570   5.395   3.670   3.896
 4224SOL    HW113571   5.321   3.738   3.894
 4224SOL    HW213572   5.477   3.708   3.854
 4225SOL     OW13573   4.190   0.837   6.318
 4225SOL    HW113574   4.093   0.863   6.313
 4225SOL    HW213575   4.204   0.780   6.399
 4226SOL     OW13576   0.923   0.205   2.323
 4226SOL    HW113577   0.834   0.244   2.343
 4226SOL    HW213578   0.912   0.115   2.281
 4227SOL     OW13579   3.632   4.586   1.278
 4227SOL    HW113580   3.611   4.555   1.185
 4227SOL    HW213581   3.656   4.507   1.334
 4228SOL     OW13582   0.719   3.936   5.183
 4228SOL    HW113583   0.653   3.982   5.242
 4228SOL    HW213584   0.719   3.838   5.203
 4229SOL     OW13585   5.262   5.505   5.668
 4229SOL    HW113586   5.329   5.459   5.727
 4229SOL    HW213587   5.246   5.597   5.701
 4230SOL     OW13588   1.314   6.843   2.735
 4230SOL    HW113589   1.309   6.924   2.677
 4230SOL    HW213590   1.410   6.824   2.757
 4231SOL     OW13591   5.538   6.512   5.459
 4231SOL    HW113592   5.635   6.509   5.435
 4231SOL    HW213593   5.497   6.593   5.417
 4232SOL     OW13594   6.670   4.569   2.550
 4232SOL    HW113595   6.679   4.510   2.469
 4232SOL    HW213596   6.711   4.658   2.531
 4233SOL     OW13597   0.068   0.517   6.466
 4233SOL    HW113598   0.056   0.586   6.536
 4233SOL    HW213599   0.146   0.540   6.409
 4234SOL     OW13600   2.549   6.737   5.584
 4234SOL    HW113601   2.462   6.736   5.632
 4234SOL    HW213602   2.534   6.757   5.487
 4235SOL     OW13603   5.936   3.764   6.080
 4235SOL    HW113604   5.990   3.694   6.033
 4235SOL    HW213605   5.841   3.758   6.050
 4236SOL     OW13606   0.252   3.375   3.098
 4236SOL    HW113607   0.168   3.422   3.071
 4236SOL    HW213608   0.329   3.412   3.045
 4237SOL     OW13609   5.655   5.334   2.619
 4237SOL    HW113610   5.569   5.307   2.576
 4237SOL    HW213611   5.636   5.386   2.702
 4238SOL     OW13612   3.183   5.145   2.969
 4238SOL    HW113613   3.219   5.182   2.883
 4238SOL    HW213614   3.088   5.176   2.982
 4239SOL     OW13615   5.678   1.764   2.869
 4239SOL    HW113616   5.643   1.848   2.827
 4239SOL    HW213617   5.661   1.768   2.968
 4240SOL     OW13618   2.610   0.183   0.114
 4240SOL    HW113619   2.675   0.155   0.185
 4240SOL    HW213620   2.621   0.281   0.096
 4241SOL     OW13621   6.217   0.979   0.100
 4241SOL    HW113622   6.252   0.887   0.114
 4241SOL    HW213623   6.124   0.985   0.138
 4242SOL     OW13624   2.137   0.839   3.336
 4242SOL    HW113625   2.045   0.817   3.303
 4242SOL    HW213626   2.130   0.884   3.425
 4243SOL     OW13627   6.660   3.067   3.426
 4243SOL    HW113628   6.757   3.075   3.453
 4243SOL    HW213629   6.604   3.057   3.508
 4244SOL     OW13630   4.927   4.314   1.618
 4244SOL    HW113631   4.849   4.357   1.574
 4244SOL    HW213632   4.924   4.215   1.602
 4245SOL     OW13633   6.907   0.939   5.884
 4245SOL    HW113634   6.977   0.938   5.813
 4245SOL    HW213635   6.823   0.897   5.850
 4246SOL     OW13636   6.481   3.343   2.614
 4246SOL    HW113637   6.524   3.332   2.525
 4246SOL    HW213638   6.542   3.394   2.675
 4247SOL     OW13639   2.509   5.047   3.442
 4247SOL    HW113640   2.456   5.004   3.370
 4247SOL    HW213641   2.607   5.038   3.422
 4248SOL     OW13642   1.951   1.551   3.969
 4248SOL    HW113643   2.036   1.574   3.921
 4248SOL    HW213644   1.972   1.493   4.047
 4249SOL     OW13645   5.792   2.410   4.208
 4249SOL    HW113646   5.790   2.310   4.207
 4249SOL    HW213647   5.822   2.443   4.118
 4250SOL     OW13648   6.939   5.741   3.637
 4250SOL    HW113649   6.852   5.695   3.653
 4250SOL    HW213650   6.923   5.839   3.624
 4251SOL     OW13651   5.625   4.013   1.154
 4251SOL    HW113652   5.552   3.996   1.088
 4251SOL    HW213653   5.599   3.978   1.243
 4252SOL     OW13654   6.379   6.861   6.515
 4252SOL    HW113655   6.313   6.899   6.579
 4252SOL    HW213656   6.472   6.885   6.545
 4253SOL     OW13657   3.047   6.440   1.052
 4253SOL    HW113658   3.076   6.354   1.094
 4253SOL    HW213659   3.121   6.476   0.995
 4254SOL     OW13660   1.419   3.405   2.200
 4254SOL    HW113661   1.446   3.371   2.290
 4254SOL    HW213662   1.326   3.374   2.179
 4255SOL     OW13663   6.931   4.265   4.077
 4255SOL    HW113664   6.961   4.229   4.166
 4255SOL    HW213665   6.936   4.365   4.078
 4256SOL     OW13666   1.767   6.294   0.968
 4256SOL    HW113667   1.812   6.330   1.050
 4256SOL    HW213668   1.698   6.360   0.937
 4257SOL     OW13669   3.433   0.368   4.313
 4257SOL    HW113670   3.435   0.460   4.351
 4257SOL    HW213671   3.369   0.364   4.237
 4258SOL     OW13672   3.414   5.947   1.139
 4258SOL    HW113673   3.436   6.007   1.215
 4258SOL    HW213674   3.337   5.888   1.164
 4259SOL     OW13675   2.215   0.421   0.764
 4259SOL    HW113676   2.261   0.469   0.838
 4259SOL    HW213677   2.124   0.392   0.795
 4260SOL     OW13678   5.947   0.756   1.804
 4260SOL    HW113679   5.947   0.665   1.844
 4260SOL    HW213680   5.907   0.821   1.869
 4261SOL     OW13681   2.281   0.302   2.325
 4261SOL    HW113682   2.280   0.222   2.265
 4261SOL    HW213683   2.365   0.355   2.308
 4262SOL     OW13684   0.736   4.041   6.558
 4262SOL    HW113685   0.791   4.116   6.521
 4262SOL    HW213686   0.789   3.990   6.625
 4263SOL     OW13687   2.902   0.673   2.639
 4263SOL    HW113688   2.933   0.730   2.563
 4263SOL    HW213689   2.803   0.661   2.632
 4264SOL     OW13690   6.106   1.650   3.683
 4264SOL    HW113691   6.112   1.698   3.771
 4264SOL    HW213692   6.178   1.582   3.677
 4265SOL     OW13693   4.084   1.204   0.507
 4265SOL    HW113694   4.064   1.146   0.428
 4265SOL    HW213695   4.056   1.298   0.487
 4266SOL     OW13696   1.535   6.210   6.564
 4266SOL    HW113697   1.595   6.138   6.599
 4266SOL    HW213698   1.590   6.288   6.533
 4267SOL     OW13699   2.192   3.822   3.621
 4267SOL    HW113700   2.183   3.805   3.523
 4267SOL    HW213701   2.178   3.736   3.671
 4268SOL     OW13702   0.940   5.667   6.647
 4268SOL    HW113703   0.855   5.617   6.632
 4268SOL    HW213704   0.992   5.671   6.561
 4269SOL     OW13705   2.884   0.478   2.215
 4269SOL    HW113706   2.806   0.517   2.264
 4269SOL    HW213707   2.950   0.550   2.194
 4270SOL     OW13708   4.077   3.608   3.285
 4270SOL    HW113709   4.093   3.511   3.271
 4270SOL    HW213710   4.062   3.653   3.197
 4271SOL     OW13711   6.420   1.310   6.740
 4271SOL    HW113712   6.495   1.270   6.688
 4271SOL    HW213713   6.347   1.339   6.676
 4272SOL     OW13714   6.556   1.989   4.620
 4272SOL    HW113715   6.547   1.933   4.537
 4272SOL    HW213716   6.653   2.007   4.637
 4273SOL     OW13717   4.165   6.778   5.298
 4273SOL    HW113718   4.202   6.736   5.215
 4273SOL    HW213719   4.084   6.832   5.276
 4274SOL     OW13720   0.986   0.456   1.635
 4274SOL    HW113721   0.947   0.370   1.602
 4274SOL    HW213722   0.914   0.514   1.672
 4275SOL     OW13723   6.037   2.170   4.662
 4275SOL    HW113724   6.001   2.141   4.751
 4275SOL    HW213725   6.116   2.114   4.638
 4276SOL     OW13726   2.563   5.239   4.043
 4276SOL    HW113727   2.544   5.143   4.024
 4276SOL    HW213728   2.609   5.247   4.131
 4277SOL     OW13729   6.253   4.646   3.260
 4277SOL    HW113730   6.182   4.613   3.198
 4277SOL    HW213731   6.214   4.660   3.351
 4278SOL     OW13732   6.968   6.892   4.872
 4278SOL    HW113733   6.956   6.793   4.875
 4278SOL    HW213734   6.952   6.931   4.963
 4279SOL     OW13735   3.543   1.343   3.720
 4279SOL    HW113736   3.641   1.322   3.725
 4279SOL    HW213737   3.493   1.282   3.781
 4280SOL     OW13738   5.349   0.533   6.358
 4280SOL    HW113739   5.332   0.618   6.409
 4280SOL    HW213740   5.313   0.541   6.265
 4281SOL     OW13741   6.627   4.364   3.593
 4281SOL    HW113742   6.635   4.269   3.565
 4281SOL    HW213743   6.711   4.413   3.570
 4282SOL     OW13744   3.797   4.730   6.637
 4282SOL    HW113745   3.841   4.818   6.620
 4282SOL    HW213746   3.747   4.701   6.556
 4283SOL     OW13747   1.568   0.654   3.127
 4283SOL    HW113748   1.523   0.579   3.078
 4283SOL    HW213749   1.532   0.742   3.095
 4284SOL     OW13750   3.542   4.496   1.038
 4284SOL    HW113751   3.464   4.434   1.043
 4284SOL    HW213752   3.528   4.561   0.963
 4285SOL     OW13753   1.594   0.342   5.770
 4285SOL    HW113754   1.638   0.253   5.758
 4285SOL    HW213755   1.578   0.384   5.681
 4286SOL     OW13756   5.147   6.548   5.589
 4286SOL    HW113757   5.126   6.550   5.686
 4286SOL    HW213758   5.083   6.606   5.539
 4287SOL     OW13759   5.649   0.872   6.013
 4287SOL    HW113760   5.616   0.831   5.928
 4287SOL    HW213761   5.737   0.830   6.037
 4288SOL     OW13762   0.827   5.816   2.751
 4288SOL    HW113763   0.845   5.718   2.744
 4288SOL    HW213764   0.771   5.835   2.831
 4289SOL     OW13765   6.813   3.113   6.222
 4289SOL    HW113766   6.859   3.107   6.133
 4289SOL    HW213767   6.804   3.021   6.261
 4290SOL     OW13768   1.419   6.629   3.569
 4290SOL    HW113769   1.467   6.549   3.533
 4290SOL    HW213770   1.328   6.603   3.599
 4291SOL     OW13771   4.691   3.814   0.373
 4291SOL    HW113772   4.760   3.822   0.300
 4291SOL    HW213773   4.680   3.717   0.398
 4292SOL     OW13774   5.240   3.127   0.311
 4292SOL    HW113775   5.247   3.068   0.391
 4292SOL    HW213776   5.225   3.222   0.340
 4293SOL     OW13777   2.578   2.833   0.174
 4293SOL    HW113778   2.607   2.749   0.220
 4293SOL    HW213779   2.508   2.879   0.229
 4294SOL     OW13780   2.196   2.160   6.652
 4294SOL    HW113781   2.114   2.189   6.603
 4294SOL    HW213782   2.187   2.064   6.679
 4295SOL     OW13783   3.668   5.583   5.020
 4295SOL    HW113784   3.611   5.662   5.044
 4295SOL    HW213785   3.739   5.611   4.956
 4296SOL     OW13786   3.334   6.843   0.714
 4296SOL    HW113787   3.281   6.815   0.634
 4296SOL    HW213788   3.367   6.937   0.702
 4297SOL     OW13789   5.056   0.091   1.149
 4297SOL    HW113790   4.973   0.047   1.115
 4297SOL    HW213791   5.132   0.026   1.142
 4298SOL     OW13792   3.998   5.382   0.298
 4298SOL    HW113793   4.038   5.469   0.324
 4298SOL    HW213794   4.036   5.308   0.354
 4299SOL     OW13795   1.381   3.099   6.710
 4299SOL    HW113796   1.409   3.190   6.740
 4299SOL    HW213797   1.378   3.037   6.789
 4300SOL     OW13798   3.192   6.797   0.296
 4300SOL    HW113799   3.231   6.766   0.209
 4300SOL    HW213800   3.240   6.880   0.326
 4301SOL     OW13801   4.302   0.741   1.721
 4301SOL    HW113802   4.257   0.720   1.807
 4301SOL    HW213803   4.267   0.680   1.649
 4302SOL     OW13804   0.888   0.256   5.922
 4302SOL    HW113805   0.905   0.167   5.878
 4302SOL    HW213806   0.922   0.329   5.863
 4303SOL     OW13807   6.963   5.117   4.081
 4303SOL    HW113808   7.019   5.098   4.000
 4303SOL    HW213809   6.988   5.207   4.118
 4304SOL     OW13810   3.245   3.656   2.713
 4304SOL    HW113811   3.331   3.605   2.699
 4304SOL    HW213812   3.185   3.641   2.634
 4305SOL     OW13813   0.638   6.737   5.745
 4305SOL    HW113814   0.712   6.751   5.678
 4305SOL    HW213815   0.673   6.684   5.822
 4306SOL     OW13816   4.785   4.835   4.985
 4306SOL    HW113817   4.862   4.789   4.942
 4306SOL    HW213818   4.720   4.865   4.915
 4307SOL     OW13819   5.538   3.870   6.304
 4307SOL    HW113820   5.549   3.950   6.363
 4307SOL    HW213821   5.560   3.787   6.356
 4308SOL     OW13822   5.945   4.556   1.174
 4308SOL    HW113823   5.919   4.595   1.085
 4308SOL    HW213824   5.975   4.629   1.235
 4309SOL     OW13825   1.137   1.072   0.072
 4309SOL    HW113826   1.227   1.099   0.039
 4309SOL    HW213827   1.096   1.007   0.008
 4310SOL     OW13828   2.150   2.517   2.007
 4310SOL    HW113829   2.118   2.607   2.036
 4310SOL    HW213830   2.170   2.460   2.087
 4311SOL     OW13831   1.764   6.112   2.472
 4311SOL    HW113832   1.822   6.090   2.393
 4311SOL    HW213833   1.729   6.027   2.512
 4312SOL     OW13834   2.004   5.850   1.930
 4312SOL    HW113835   2.046   5.920   1.872
 4312SOL    HW213836   2.068   5.773   1.941
 4313SOL     OW13837   4.555   1.320   1.154
 4313SOL    HW113838   4.575   1.417   1.164
 4313SOL    HW213839   4.501   1.289   1.232
 4314SOL     OW13840   5.762   1.489   4.399
 4314SOL    HW113841   5.789   1.451   4.487
 4314SOL    HW213842   5.789   1.427   4.326
 4315SOL     OW13843   2.695   6.573   2.875
 4315SOL    HW113844   2.754   6.553   2.954
 4315SOL    HW213845   2.708   6.668   2.846
 4316SOL     OW13846   5.188   0.979   1.950
 4316SOL    HW113847   5.211   0.903   1.889
 4316SOL    HW213848   5.101   1.019   1.922
 4317SOL     OW13849   5.346   2.389   5.053
 4317SOL    HW113850   5.428   2.362   5.103
 4317SOL    HW213851   5.269   2.333   5.083
 4318SOL     OW13852   0.046   2.524   4.896
 4318SOL    HW113853   0.140   2.554   4.915
 4318SOL    HW213854   0.009   2.478   4.977
 4319SOL     OW13855   1.878   1.458   0.448
 4319SOL    HW113856   1.963   1.474   0.497
 4319SOL    HW213857   1.820   1.397   0.502
 4320SOL     OW13858   4.628   4.837   0.902
 4320SOL    HW113859   4.646   4.845   1.000
 4320SOL    HW213860   4.648   4.924   0.857
 4321SOL     OW13861   0.197   5.699   5.288
 4321SOL    HW113862   0.144   5.676   5.369
 4321SOL    HW213863   0.199   5.621   5.225
 4322SOL     OW13864   6.069   3.058   0.023
 4322SOL    HW113865   6.008   2.992   0.067
 4322SOL    HW213866   6.031   3.149   0.032
 4323SOL     OW13867   4.588   4.152   0.419
 4323SOL    HW113868   4.610   4.182   0.326
 4323SOL    HW213869   4.505   4.096   0.417
 4324SOL     OW13870   5.908   4.146   6.680
 4324SOL    HW113871   5.952   4.176   6.596
 4324SOL    HW213872   5.938   4.053   6.702
 4325SOL     OW13873   2.423   1.148   1.405
 4325SOL    HW113874   2.430   1.113   1.311
 4325SOL    HW213875   2.474   1.234   1.412
 4326SOL     OW13876   4.611   4.719   3.398
 4326SOL    HW113877   4.564   4.670   3.472
 4326SOL    HW213878   4.681   4.780   3.437
 4327SOL     OW13879   5.706   5.943   1.841
 4327SOL    HW113880   5.716   5.927   1.743
 4327SOL    HW213881   5.613   5.975   1.861
 4328SOL     OW13882   4.347   3.990   5.805
 4328SOL    HW113883   4.411   4.036   5.743
 4328SOL    HW213884   4.389   3.981   5.895
 4329SOL     OW13885   4.704   2.230   5.310
 4329SOL    HW113886   4.742   2.310   5.262
 4329SOL    HW213887   4.756   2.214   5.394
 4330SOL     OW13888   1.947   6.168   4.734
 4330SOL    HW113889   1.961   6.192   4.638
 4330SOL    HW213890   1.853   6.135   4.746
 4331SOL     OW13891   6.327   1.453   1.942
 4331SOL    HW113892   6.306   1.543   1.903
 4331SOL    HW213893   6.242   1.403   1.958
 4332SOL     OW13894   4.841   3.077   2.792
 4332SOL    HW113895   4.811   2.985   2.765
 4332SOL    HW213896   4.811   3.143   2.723
 4333SOL     OW13897   4.411   1.358   5.904
 4333SOL    HW113898   4.410   1.455   5.925
 4333SOL    HW213899   4.424   1.305   5.988
 4334SOL     OW13900   1.534   1.953   2.827
 4334SOL    HW113901   1.509   2.010   2.906
 4334SOL    HW213902   1.491   1.863   2.835
 4335SOL     OW13903   3.399   4.076   2.554
 4335SOL    HW113904   3.362   4.060   2.462
 4335SOL    HW213905   3.325   4.075   2.621
 4336SOL     OW13906   3.565   6.654   5.980
 4336SOL    HW113907   3.465   6.645   5.975
 4336SOL    HW213908   3.592   6.742   5.941
 4337SOL     OW13909   1.015   4.532   0.596
 4337SOL    HW113910   0.999   4.463   0.667
 4337SOL    HW213911   1.107   4.519   0.558
 4338SOL     OW13912   6.004   6.826   6.191
 4338SOL    HW113913   5.918   6.802   6.236
 4338SOL    HW213914   5.992   6.819   6.092
 4339SOL     OW13915   4.671   3.354   5.957
 4339SOL    HW113916   4.639   3.269   5.915
 4339SOL    HW213917   4.752   3.387   5.909
 4340SOL     OW13918   6.145   3.273   1.082
 4340SOL    HW113919   6.125   3.267   0.984
 4340SOL    HW213920   6.159   3.369   1.107
 4341SOL     OW13921   1.090   5.055   1.960
 4341SOL    HW113922   1.070   4.983   1.893
 4341SOL    HW213923   1.094   5.144   1.913
 4342SOL     OW13924   5.107   3.862   3.341
 4342SOL    HW113925   5.204   3.875   3.359
 4342SOL    HW213926   5.071   3.941   3.289
 4343SOL     OW13927   3.013   5.983   4.856
 4343SOL    HW113928   3.049   6.024   4.772
 4343SOL    HW213929   2.965   6.053   4.909
 4344SOL     OW13930   0.404   4.128   2.064
 4344SOL    HW113931   0.364   4.068   1.994
 4344SOL    HW213932   0.375   4.097   2.154
 4345SOL     OW13933   3.576   4.402   5.691
 4345SOL    HW113934   3.548   4.306   5.698
 4345SOL    HW213935   3.495   4.460   5.686
 4346SOL     OW13936   1.952   3.667   2.797
 4346SOL    HW113937   1.894   3.609   2.854
 4346SOL    HW213938   2.038   3.619   2.777
 4347SOL     OW13939   6.219   6.821   2.208
 4347SOL    HW113940   6.273   6.740   2.185
 4347SOL    HW213941   6.123   6.803   2.188
 4348SOL     OW13942   0.338   5.397   3.326
 4348SOL    HW113943   0.350   5.424   3.230
 4348SOL    HW213944   0.414   5.434   3.380
 4349SOL     OW13945   5.473   1.887   2.705
 4349SOL    HW113946   5.437   1.980   2.699
 4349SOL    HW213947   5.462   1.842   2.616
 4350SOL     OW13948   3.373   1.908   3.641
 4350SOL    HW113949   3.406   1.965   3.716
 4350SOL    HW213950   3.286   1.866   3.667
 4351SOL     OW13951   1.660   5.966   1.211
 4351SOL    HW113952   1.580   5.914   1.241
 4351SOL    HW213953   1.674   5.953   1.113
 4352SOL     OW13954   6.393   3.719   2.626
 4352SOL    HW113955   6.464   3.677   2.682
 4352SOL    HW213956   6.432   3.748   2.539
 4353SOL     OW13957   3.991   2.804   6.846
 4353SOL    HW113958   4.038   2.744   6.910
 4353SOL    HW213959   3.892   2.794   6.856
 4354SOL     OW13960   2.038   0.769   5.896
 4354SOL    HW113961   2.049   0.687   5.840
 4354SOL    HW213962   2.011   0.846   5.837
 4355SOL     OW13963   2.729   0.229   2.874
 4355SOL    HW113964   2.635   0.258   2.854
 4355SOL    HW213965   2.762   0.170   2.801
 4356SOL     OW13966   5.315   3.787   0.139
 4356SOL    HW113967   5.321   3.864   0.203
 4356SOL    HW213968   5.327   3.701   0.188
 4357SOL     OW13969   6.296   1.024   1.246
 4357SOL    HW113970   6.268   1.120   1.248
 4357SOL    HW213971   6.396   1.019   1.245
 4358SOL     OW13972   0.171   0.772   0.679
 4358SOL    HW113973   0.222   0.858   0.680
 4358SOL    HW213974   0.137   0.752   0.771
 4359SOL     OW13975   1.686   0.760   5.876
 4359SOL    HW113976   1.742   0.679   5.859
 4359SOL    HW213977   1.675   0.772   5.975
 4360SOL     OW13978   0.990   3.219   3.513
 4360SOL    HW113979   1.078   3.228   3.467
 4360SOL    HW213980   0.931   3.296   3.488
 4361SOL     OW13981   2.627   3.616   1.411
 4361SOL    HW113982   2.694   3.680   1.448
 4361SOL    HW213983   2.542   3.664   1.389
 4362SOL     OW13984   6.501   5.449   3.313
 4362SOL    HW113985   6.459   5.533   3.280
 4362SOL    HW213986   6.597   5.447   3.284
 4363SOL     OW13987   5.084   1.989   1.210
 4363SOL    HW113988   5.010   1.953   1.267
 4363SOL    HW213989   5.151   2.036   1.268
 4364SOL     OW13990   3.099   4.064   4.372
 4364SOL    HW113991   3.176   4.060   4.435
 4364SOL    HW213992   3.013   4.067   4.423
 4365SOL     OW13993   2.728   0.634   1.679
 4365SOL    HW113994   2.810   0.579   1.694
 4365SOL    HW213995   2.742   0.693   1.600
 4366SOL     OW13996   6.175   6.936   6.668
 4366SOL    HW113997   6.193   7.002   6.741
 4366SOL    HW213998   6.109   6.974   6.604
 4367SOL     OW13999   2.356   4.329   4.297
 4367SOL    HW114000   2.334   4.283   4.211
 4367SOL    HW214001   2.278   4.325   4.358
 4368SOL     OW14002   3.755   5.747   1.168
 4368SOL    HW114003   3.691   5.785   1.235
 4368SOL    HW214004   3.751   5.801   1.084
 4369SOL     OW14005   4.602   5.672   2.808
 4369SOL    HW114006   4.597   5.638   2.903
 4369SOL    HW214007   4.531   5.628   2.754
 4370SOL     OW14008   3.678   4.892   1.744
 4370SOL    HW114009   3.656   4.843   1.660
 4370SOL    HW214010   3.653   4.836   1.823
 4371SOL     OW14011   0.589   2.078   2.317
 4371SOL    HW114012   0.663   2.064   2.382
 4371SOL    HW214013   0.560   1.990   2.279
 4372SOL     OW14014   2.215   2.397   3.672
 4372SOL    HW114015   2.190   2.326   3.737
 4372SOL    HW214016   2.315   2.405   3.667
 4373SOL     OW14017   5.316   1.312   6.962
 4373SOL    HW114018   5.387   1.338   0.007
 4373SOL    HW214019   5.305   1.385   6.895
 4374SOL     OW14020   0.737   1.389   0.663
 4374SOL    HW114021   0.695   1.435   0.585
 4374SOL    HW214022   0.833   1.368   0.641
 4375SOL     OW14023   4.174   6.714   3.431
 4375SOL    HW114024   4.223   6.771   3.366
 4375SOL    HW214025   4.076   6.732   3.424
 4376SOL     OW14026   6.028   6.634   2.804
 4376SOL    HW114027   6.084   6.623   2.886
 4376SOL    HW214028   6.088   6.652   2.726
 4377SOL     OW14029   5.718   5.271   6.933
 4377SOL    HW114030   5.637   5.327   6.950
 4377SOL    HW214031   5.779   5.274   7.012
 4378SOL     OW14032   2.190   2.882   2.599
 4378SOL    HW114033   2.128   2.884   2.677
 4378SOL    HW214034   2.259   2.811   2.613
 4379SOL     OW14035   2.049   2.215   2.676
 4379SOL    HW114036   1.986   2.274   2.727
 4379SOL    HW214037   2.034   2.120   2.702
 4380SOL     OW14038   0.968   6.775   3.104
 4380SOL    HW114039   0.936   6.777   3.199
 4380SOL    HW214040   1.011   6.863   3.082
 4381SOL     OW14041   2.146   3.969   5.537
 4381SOL    HW114042   2.097   3.882   5.548
 4381SOL    HW214043   2.163   3.985   5.440
 4382SOL     OW14044   5.881   3.355   6.521
 4382SOL    HW114045   5.948   3.345   6.447
 4382SOL    HW214046   5.920   3.412   6.593
 4383SOL     OW14047   0.604   1.942   5.893
 4383SOL    HW114048   0.683   1.954   5.832
 4383SOL    HW214049   0.545   2.022   5.888
 4384SOL     OW14050   6.059   1.796   5.850
 4384SOL    HW114051   6.039   1.780   5.946
 4384SOL    HW214052   6.016   1.880   5.820
 4385SOL     OW14053   6.101   2.686   5.225
 4385SOL    HW114054   6.002   2.697   5.232
 4385SOL    HW214055   6.134   2.625   5.297
 4386SOL     OW14056   2.334   3.577   0.208
 4386SOL    HW114057   2.369   3.518   0.281
 4386SOL    HW214058   2.284   3.522   0.142
 4387SOL     OW14059   6.743   1.066   1.696
 4387SOL    HW114060   6.772   1.143   1.639
 4387SOL    HW214061   6.820   1.036   1.753
 4388SOL     OW14062   5.400   1.917   6.507
 4388SOL    HW114063   5.376   1.943   6.413
 4388SOL    HW214064   5.361   1.827   6.528
 4389SOL     OW14065   0.580   3.819   0.747
 4389SOL    HW114066   0.580   3.749   0.818
 4389SOL    HW214067   0.547   3.779   0.661
 4390SOL     OW14068   3.627   0.731   1.142
 4390SOL    HW114069   3.554   0.684   1.192
 4390SOL    HW214070   3.714   0.685   1.159
 4391SOL     OW14071   1.690   5.581   0.216
 4391SOL    HW114072   1.676   5.503   0.155
 4391SOL    HW214073   1.604   5.629   0.231
 4392SOL     OW14074   0.208   3.360   6.244
 4392SOL    HW114075   0.251   3.310   6.169
 4392SOL    HW214076   0.271   3.363   6.322
 4393SOL     OW14077   5.954   1.082   2.312
 4393SOL    HW114078   5.903   1.056   2.394
 4393SOL    HW214079   5.959   1.003   2.251
 4394SOL     OW14080   5.655   5.785   2.237
 4394SOL    HW114081   5.567   5.798   2.284
 4394SOL    HW214082   5.694   5.874   2.213
 4395SOL     OW14083   3.453   6.972   1.542
 4395SOL    HW114084   3.551   6.977   1.522
 4395SOL    HW214085   3.403   0.014   1.482
 4396SOL     OW14086   2.093   2.210   3.960
 4396SOL    HW114087   2.085   2.304   3.995
 4396SOL    HW214088   2.003   2.166   3.965
 4397SOL     OW14089   0.307   0.946   4.556
 4397SOL    HW114090   0.319   0.871   4.490
 4397SOL    HW214091   0.321   0.912   4.648
 4398SOL     OW14092   0.857   4.623   5.522
 4398SOL    HW114093   0.919   4.701   5.517
 4398SOL    HW214094   0.790   4.628   5.448
 4399SOL     OW14095   1.986   0.812   1.453
 4399SOL    HW114096   1.988   0.746   1.378
 4399SOL    HW214097   2.071   0.866   1.452
 4400SOL     OW14098   3.571   6.580   5.554
 4400SOL    HW114099   3.486   6.528   5.551
 4400SOL    HW214100   3.640   6.535   5.497
 4401SOL     OW14101   4.816   6.704   6.630
 4401SOL    HW114102   4.910   6.739   6.627
 4401SOL    HW214103   4.760   6.767   6.684
 4402SOL     OW14104   2.835   6.875   1.315
 4402SOL    HW114105   2.891   6.911   1.390
 4402SOL    HW214106   2.807   6.781   1.337
 4403SOL     OW14107   0.644   0.448   3.449
 4403SOL    HW114108   0.704   0.370   3.433
 4403SOL    HW214109   0.663   0.487   3.539
 4404SOL     OW14110   0.393   4.648   5.897
 4404SOL    HW114111   0.461   4.575   5.891
 4404SOL    HW214112   0.418   4.722   5.835
 4405SOL     OW14113   1.778   4.581   1.479
 4405SOL    HW114114   1.719   4.650   1.522
 4405SOL    HW214115   1.873   4.609   1.487
 4406SOL     OW14116   0.172   4.162   0.790
 4406SOL    HW114117   0.187   4.259   0.805
 4406SOL    HW214118   0.259   4.113   0.799
 4407SOL     OW14119   6.638   4.942   0.638
 4407SOL    HW114120   6.711   5.005   0.665
 4407SOL    HW214121   6.676   4.871   0.578
 4408SOL     OW14122   3.144   0.910   1.785
 4408SOL    HW114123   3.219   0.969   1.813
 4408SOL    HW214124   3.061   0.936   1.835
 4409SOL     OW14125   4.904   0.391   2.697
 4409SOL    HW114126   4.966   0.314   2.685
 4409SOL    HW214127   4.838   0.370   2.769
 4410SOL     OW14128   1.180   5.186   6.797
 4410SOL    HW114129   1.141   5.190   6.890
 4410SOL    HW214130   1.195   5.279   6.764
 4411SOL     OW14131   3.478   4.164   4.338
 4411SOL    HW114132   3.573   4.189   4.356
 4411SOL    HW214133   3.418   4.212   4.403
 4412SOL     OW14134   4.342   6.368   5.021
 4412SOL    HW114135   4.427   6.326   5.053
 4412SOL    HW214136   4.268   6.301   5.028
 4413SOL     OW14137   6.470   5.455   4.231
 4413SOL    HW114138   6.564   5.490   4.239
 4413SOL    HW214139   6.409   5.528   4.202
 4414SOL     OW14140   3.731   4.406   1.446
 4414SOL    HW114141   3.823   4.432   1.473
 4414SOL    HW214142   3.680   4.374   1.526
 4415SOL     OW14143   3.939   3.461   0.294
 4415SOL    HW114144   3.888   3.460   0.209
 4415SOL    HW214145   4.032   3.495   0.277
 4416SOL     OW14146   2.693   0.634   3.899
 4416SOL    HW114147   2.695   0.676   3.989
 4416SOL    HW214148   2.772   0.573   3.889
 4417SOL     OW14149   5.835   4.167   3.341
 4417SOL    HW114150   5.747   4.141   3.382
 4417SOL    HW214151   5.903   4.098   3.363
 4418SOL     OW14152   5.817   1.887   2.080
 4418SOL    HW114153   5.745   1.818   2.081
 4418SOL    HW214154   5.851   1.901   2.173
 4419SOL     OW14155   5.871   6.133   6.702
 4419SOL    HW114156   5.930   6.100   6.776
 4419SOL    HW214157   5.909   6.105   6.614
 4420SOL     OW14158   5.289   1.820   1.836
 4420SOL    HW114159   5.196   1.852   1.856
 4420SOL    HW214160   5.286   1.754   1.761
 4421SOL     OW14161   1.663   0.525   5.210
 4421SOL    HW114162   1.596   0.473   5.158
 4421SOL    HW214163   1.666   0.619   5.176
 4422SOL     OW14164   2.724   3.711   6.718
 4422SOL    HW114165   2.644   3.654   6.700
 4422SOL    HW214166   2.698   3.807   6.716
 4423SOL     OW14167   1.370   3.162   5.996
 4423SOL    HW114168   1.402   3.068   5.988
 4423SOL    HW214169   1.431   3.222   5.944
 4424SOL     OW14170   5.998   0.808   4.314
 4424SOL    HW114171   6.083   0.757   4.331
 4424SOL    HW214172   5.926   0.773   4.374
 4425SOL     OW14173   3.238   4.911   0.143
 4425SOL    HW114174   3.265   4.896   0.048
 4425SOL    HW214175   3.148   4.953   0.146
 4426SOL     OW14176   0.094   0.699   4.705
 4426SOL    HW114177   0.157   0.628   4.675
 4426SOL    HW214178   0.001   0.674   4.677
 4427SOL     OW14179   0.632   6.096   2.349
 4427SOL    HW114180   0.701   6.073   2.417
 4427SOL    HW214181   0.676   6.129   2.265
 4428SOL     OW14182   3.108   0.212   2.695
 4428SOL    HW114183   3.171   0.226   2.619
 4428SOL    HW214184   3.028   0.271   2.683
 4429SOL     OW14185   2.788   6.824   2.717
 4429SOL    HW114186   2.695   6.819   2.683
 4429SOL    HW214187   2.794   6.890   2.792
 4430SOL     OW14188   5.194   3.788   4.992
 4430SOL    HW114189   5.216   3.871   4.941
 4430SOL    HW214190   5.100   3.762   4.972
 4431SOL     OW14191   1.793   1.444   1.954
 4431SOL    HW114192   1.880   1.439   2.004
 4431SOL    HW214193   1.717   1.432   2.017
 4432SOL     OW14194   3.513   3.520   4.739
 4432SOL    HW114195   3.542   3.424   4.734
 4432SOL    HW214196   3.413   3.524   4.749
 4433SOL     OW14197   4.367   1.522   4.554
 4433SOL    HW114198   4.278   1.549   4.517
 4433SOL    HW214199   4.367   1.534   4.653
 4434SOL     OW14200   5.195   1.968   4.037
 4434SOL    HW114201   5.217   1.900   4.107
 4434SOL    HW214202   5.104   2.006   4.055
 4435SOL     OW14203   4.456   3.501   1.674
 4435SOL    HW114204   4.382   3.453   1.722
 4435SOL    HW214205   4.543   3.456   1.694
 4436SOL     OW14206   4.591   0.900   1.076
 4436SOL    HW114207   4.682   0.865   1.058
 4436SOL    HW214208   4.568   0.886   1.173
 4437SOL     OW14209   6.232   2.016   3.051
 4437SOL    HW114210   6.226   2.114   3.065
 4437SOL    HW214211   6.253   1.998   2.955
 4438SOL     OW14212   5.479   6.726   0.079
 4438SOL    HW114213   5.515   6.818   0.094
 4438SOL    HW214214   5.556   6.662   0.071
 4439SOL     OW14215   0.154   5.308   1.981
 4439SOL    HW114216   0.126   5.342   2.071
 4439SOL    HW214217   0.242   5.348   1.956
 4440SOL     OW14218   2.427   5.270   0.445
 4440SOL    HW114219   2.440   5.369   0.440
 4440SOL    HW214220   2.491   5.230   0.510
 4441SOL     OW14221   6.922   1.452   2.810
 4441SOL    HW114222   6.911   1.466   2.712
 4441SOL    HW214223   7.011   1.486   2.839
 4442SOL     OW14224   2.702   5.792   4.464
 4442SOL    HW114225   2.650   5.710   4.440
 4442SOL    HW214226   2.792   5.789   4.422
 4443SOL     OW14227   0.005   3.272   0.527
 4443SOL    HW114228   0.044   3.181   0.514
 4443SOL    HW214229   6.939   3.265   0.578
 4444SOL     OW14230   3.074   4.756   5.584
 4444SOL    HW114231   3.071   4.705   5.499
 4444SOL    HW214232   3.125   4.704   5.653
 4445SOL     OW14233   0.661   0.312   1.055
 4445SOL    HW114234   0.585   0.355   1.104
 4445SOL    HW214235   0.747   0.334   1.100
 4446SOL     OW14236   5.667   1.086   2.140
 4446SOL    HW114237   5.649   1.120   2.232
 4446SOL    HW214238   5.599   1.123   2.077
 4447SOL     OW14239   5.585   3.613   6.360
 4447SOL    HW114240   5.576   3.567   6.272
 4447SOL    HW214241   5.510   3.584   6.420
 4448SOL     OW14242   2.888   4.013   1.463
 4448SOL    HW114243   2.911   3.956   1.542
 4448SOL    HW214244   2.805   3.979   1.420
 4449SOL     OW14245   4.954   0.346   6.249
 4449SOL    HW114246   4.985   0.386   6.163
 4449SOL    HW214247   4.864   0.383   6.272
 4450SOL     OW14248   3.911   3.334   4.262
 4450SOL    HW114249   3.978   3.271   4.301
 4450SOL    HW214250   3.823   3.323   4.308
 4451SOL     OW14251   5.917   4.688   3.472
 4451SOL    HW114252   5.989   4.690   3.541
 4451SOL    HW214253   5.907   4.595   3.437
 4452SOL     OW14254   5.291   6.510   4.728
 4452SOL    HW114255   5.210   6.564   4.749
 4452SOL    HW214256   5.362   6.527   4.796
 4453SOL     OW14257   0.279   2.639   1.767
 4453SOL    HW114258   0.217   2.697   1.714
 4453SOL    HW214259   0.297   2.555   1.717
 4454SOL     OW14260   1.435   2.271   0.245
 4454SOL    HW114261   1.477   2.283   0.155
 4454SOL    HW214262   1.368   2.198   0.241
 4455SOL     OW14263   4.295   6.443   6.125
 4455SOL    HW114264   4.344   6.411   6.044
 4455SOL    HW214265   4.361   6.475   6.193
 4456SOL     OW14266   3.702   6.164   2.023
 4456SOL    HW114267   3.696   6.098   1.948
 4456SOL    HW214268   3.693   6.117   2.110
 4457SOL     OW14269   4.661   1.439   2.088
 4457SOL    HW114270   4.742   1.446   2.146
 4457SOL    HW214271   4.580   1.429   2.146
 4458SOL     OW14272   1.514   2.730   6.595
 4458SOL    HW114273   1.460   2.672   6.534
 4458SOL    HW214274   1.593   2.679   6.628
 4459SOL     OW14275   3.639   0.741   5.025
 4459SOL    HW114276   3.605   0.834   5.043
 4459SOL    HW214277   3.733   0.733   5.059
 4460SOL     OW14278   2.728   2.697   5.959
 4460SOL    HW114279   2.655   2.697   5.891
 4460SOL    HW214280   2.795   2.767   5.937
 4461SOL     OW14281   1.101   0.666   1.517
 4461SOL    HW114282   1.071   0.591   1.575
 4461SOL    HW214283   1.187   0.703   1.552
 4462SOL     OW14284   6.021   4.875   1.843
 4462SOL    HW114285   6.100   4.821   1.811
 4462SOL    HW214286   6.040   4.909   1.936
 4463SOL     OW14287   5.401   2.146   6.849
 4463SOL    HW114288   5.406   2.196   6.763
 4463SOL    HW214289   5.366   2.054   6.833
 4464SOL     OW14290   6.387   5.072   0.599
 4464SOL    HW114291   6.325   5.050   0.675
 4464SOL    HW214292   6.467   5.013   0.604
 4465SOL     OW14293   2.853   5.460   1.195
 4465SOL    HW114294   2.757   5.445   1.219
 4465SOL    HW214295   2.871   5.423   1.104
 4466SOL     OW14296   1.471   1.931   3.381
 4466SOL    HW114297   1.380   1.898   3.355
 4466SOL    HW214298   1.538   1.905   3.311
 4467SOL     OW14299   1.926   6.503   2.568
 4467SOL    HW114300   1.844   6.464   2.526
 4467SOL    HW214301   1.902   6.544   2.656
 4468SOL     OW14302   2.061   2.627   0.596
 4468SOL    HW114303   2.009   2.705   0.562
 4468SOL    HW214304   2.127   2.598   0.526
 4469SOL     OW14305   3.930   0.871   1.645
 4469SOL    HW114306   3.858   0.865   1.713
 4469SOL    HW214307   3.978   0.783   1.639
 4470SOL     OW14308   5.852   2.408   2.511
 4470SOL    HW114309   5.885   2.502   2.509
 4470SOL    HW214310   5.930   2.346   2.504
 4471SOL     OW14311   0.553   1.834   6.661
 4471SOL    HW114312   0.649   1.834   6.635
 4471SOL    HW214313   0.496   1.840   6.579
 4472SOL     OW14314   1.460   3.126   3.065
 4472SOL    HW114315   1.530   3.198   3.056
 4472SOL    HW214316   1.444   3.085   2.975
 4473SOL     OW14317   6.220   3.156   4.923
 4473SOL    HW114318   6.171   3.105   4.993
 4473SOL    HW214319   6.309   3.186   4.958
 4474SOL     OW14320   2.725   0.815   1.888
 4474SOL    HW114321   2.803   0.878   1.887
 4474SOL    HW214322   2.744   0.738   1.826
 4475SOL     OW14323   1.853   3.866   2.656
 4475SOL    HW114324   1.772   3.835   2.607
 4475SOL    HW214325   1.892   3.790   2.708
 4476SOL     OW14326   3.826   0.108   3.423
 4476SOL    HW114327   3.924   0.124   3.420
 4476SOL    HW214328   3.779   0.193   3.449
 4477SOL     OW14329   1.822   6.674   5.153
 4477SOL    HW114330   1.866   6.656   5.065
 4477SOL    HW214331   1.723   6.670   5.143
 4478SOL     OW14332   3.722   0.041   2.895
 4478SOL    HW114333   3.696   0.107   2.824
 4478SOL    HW214334   3.640   7.018   2.931
 4479SOL     OW14335   0.874   1.274   1.925
 4479SOL    HW114336   0.967   1.289   1.957
 4479SOL    HW214337   0.873   1.272   1.825
 4480SOL     OW14338   1.981   3.745   5.420
 4480SOL    HW114339   2.029   3.722   5.335
 4480SOL    HW214340   1.897   3.691   5.426
 4481SOL     OW14341   2.852   6.175   5.021
 4481SOL    HW114342   2.851   6.101   5.088
 4481SOL    HW214343   2.760   6.186   4.983
 4482SOL     OW14344   1.089   3.331   4.393
 4482SOL    HW114345   1.094   3.272   4.473
 4482SOL    HW214346   1.141   3.415   4.410
 4483SOL     OW14347   5.492   3.098   2.069
 4483SOL    HW114348   5.470   3.195   2.068
 4483SOL    HW214349   5.415   3.047   2.107
 4484SOL     OW14350   2.865   3.022   6.186
 4484SOL    HW114351   2.778   2.980   6.160
 4484SOL    HW214352   2.938   2.954   6.182
 4485SOL     OW14353   5.632   1.700   5.287
 4485SOL    HW114354   5.697   1.629   5.311
 4485SOL    HW214355   5.602   1.748   5.369
 4486SOL     OW14356   5.317   4.401   5.333
 4486SOL    HW114357   5.346   4.305   5.336
 4486SOL    HW214358   5.359   4.446   5.255
 4487SOL     OW14359   2.020   3.242   5.920
 4487SOL    HW114360   2.010   3.147   5.949
 4487SOL    HW214361   1.932   3.278   5.891
 4488SOL     OW14362   0.152   3.600   6.524
 4488SOL    HW114363   0.099   3.645   6.452
 4488SOL    HW214364   0.216   3.535   6.483
 4489SOL     OW14365   5.461   5.747   3.887
 4489SOL    HW114366   5.500   5.755   3.979
 4489SOL    HW214367   5.510   5.677   3.836
 4490SOL     OW14368   6.404   2.871   2.935
 4490SOL    HW114369   6.351   2.786   2.943
 4490SOL    HW214370   6.363   2.941   2.993
 4491SOL     OW14371   6.886   2.643   4.717
 4491SOL    HW114372   6.809   2.663   4.778
 4491SOL    HW214373   6.964   2.610   4.770
 4492SOL     OW14374   5.594   3.979   1.418
 4492SOL    HW114375   5.661   3.916   1.456
 4492SOL    HW214376   5.629   4.072   1.422
 4493SOL     OW14377   4.479   5.222   4.750
 4493SOL    HW114378   4.406   5.159   4.725
 4493SOL    HW214379   4.518   5.262   4.667
 4494SOL     OW14380   0.009   0.964   6.311
 4494SOL    HW114381   0.059   0.891   6.265
 4494SOL    HW214382   6.953   0.994   6.253
 4495SOL     OW14383   3.525   6.483   4.558
 4495SOL    HW114384   3.459   6.557   4.567
 4495SOL    HW214385   3.616   6.517   4.582
 4496SOL     OW14386   5.470   5.979   1.311
 4496SOL    HW114387   5.371   5.969   1.323
 4496SOL    HW214388   5.512   6.003   1.399
 4497SOL     OW14389   5.155   1.527   0.217
 4497SOL    HW114390   5.138   1.573   0.129
 4497SOL    HW214391   5.254   1.526   0.235
 4498SOL     OW14392   0.298   3.706   0.198
 4498SOL    HW114393   0.282   3.725   0.102
 4498SOL    HW214394   0.265   3.614   0.220
 4499SOL     OW14395   6.525   3.787   5.415
 4499SOL    HW114396   6.610   3.791   5.468
 4499SOL    HW214397   6.547   3.791   5.317
 4500SOL     OW14398   3.029   3.282   4.301
 4500SOL    HW114399   3.039   3.184   4.319
 4500SOL    HW214400   2.957   3.320   4.360
 4501SOL     OW14401   0.539   3.323   3.547
 4501SOL    HW114402   0.524   3.233   3.588
 4501SOL    HW214403   0.537   3.316   3.448
 4502SOL     OW14404   0.974   2.766   6.835
 4502SOL    HW114405   0.973   2.808   6.745
 4502SOL    HW214406   1.053   2.706   6.844
 4503SOL     OW14407   3.429   0.081   1.785
 4503SOL    HW114408   3.463   0.045   1.698
 4503SOL    HW214409   3.332   0.057   1.796
 4504SOL     OW14410   6.448   0.790   4.905
 4504SOL    HW114411   6.383   0.862   4.883
 4504SOL    HW214412   6.417   0.741   4.987
 4505SOL     OW14413   5.564   4.899   2.117
 4505SOL    HW114414   5.627   4.901   2.194
 4505SOL    HW214415   5.561   4.806   2.079
 4506SOL     OW14416   4.680   1.994   3.392
 4506SOL    HW114417   4.597   1.995   3.336
 4506SOL    HW214418   4.661   1.949   3.479
 4507SOL     OW14419   5.452   4.347   2.258
 4507SOL    HW114420   5.437   4.304   2.347
 4507SOL    HW214421   5.459   4.276   2.187
 4508SOL     OW14422   1.229   4.917   6.801
 4508SOL    HW114423   1.221   5.016   6.804
 4508SOL    HW214424   1.230   4.880   6.894
 4509SOL     OW14425   4.297   2.302   2.912
 4509SOL    HW114426   4.207   2.274   2.944
 4509SOL    HW214427   4.351   2.336   2.989
 4510SOL     OW14428   3.895   1.330   3.988
 4510SOL    HW114429   3.952   1.399   3.943
 4510SOL    HW214430   3.816   1.375   4.029
 4511SOL     OW14431   6.546   2.874   0.095
 4511SOL    HW114432   6.465   2.837   0.050
 4511SOL    HW214433   6.522   2.904   0.187
 4512SOL     OW14434   3.057   1.572   5.806
 4512SOL    HW114435   3.142   1.548   5.758
 4512SOL    HW214436   3.064   1.664   5.844
 4513SOL     OW14437   6.116   5.385   0.525
 4513SOL    HW114438   6.166   5.454   0.578
 4513SOL    HW214439   6.180   5.318   0.489
 4514SOL     OW14440   4.347   1.636   6.528
 4514SOL    HW114441   4.426   1.634   6.590
 4514SOL    HW214442   4.347   1.722   6.477
 4515SOL     OW14443   6.599   1.129   5.600
 4515SOL    HW114444   6.519   1.168   5.555
 4515SOL    HW214445   6.673   1.196   5.601
 4516SOL     OW14446   2.015   0.364   6.808
 4516SOL    HW114447   2.079   0.309   6.861
 4516SOL    HW214448   2.048   0.459   6.804
 4517SOL     OW14449   4.155   1.118   0.077
 4517SOL    HW114450   4.091   1.103   0.002
 4517SOL    HW214451   4.107   1.109   0.165
 4518SOL     OW14452   6.920   0.788   2.767
 4518SOL    HW114453   6.990   0.745   2.825
 4518SOL    HW214454   6.856   0.719   2.736
 4519SOL     OW14455   6.651   0.827   1.571
 4519SOL    HW114456   6.676   0.921   1.592
 4519SOL    HW214457   6.577   0.798   1.632
 4520SOL     OW14458   4.481   6.332   4.549
 4520SOL    HW114459   4.512   6.239   4.568
 4520SOL    HW214460   4.558   6.395   4.562
 4521SOL     OW14461   6.306   1.777   4.313
 4521SOL    HW114462   6.223   1.799   4.365
 4521SOL    HW214463   6.296   1.810   4.219
 4522SOL     OW14464   6.085   6.050   3.142
 4522SOL    HW114465   6.163   6.070   3.083
 4522SOL    HW214466   6.000   6.063   3.091
 4523SOL     OW14467   0.941   4.486   0.078
 4523SOL    HW114468   0.878   4.424   0.031
 4523SOL    HW214469   1.019   4.434   0.113
 4524SOL     OW14470   6.256   2.547   3.613
 4524SOL    HW114471   6.286   2.474   3.674
 4524SOL    HW214472   6.221   2.508   3.528
 4525SOL     OW14473   4.686   1.012   5.456
 4525SOL    HW114474   4.659   1.049   5.546
 4525SOL    HW214475   4.674   1.082   5.386
 4526SOL     OW14476   6.722   0.639   1.173
 4526SOL    HW114477   6.777   0.572   1.123
 4526SOL    HW214478   6.746   0.635   1.270
 4527SOL     OW14479   4.938   1.363   3.483
 4527SOL    HW114480   4.895   1.436   3.431
 4527SOL    HW214481   4.930   1.277   3.434
 4528SOL     OW14482   5.364   0.243   0.374
 4528SOL    HW114483   5.312   0.172   0.421
 4528SOL    HW214484   5.453   0.206   0.346
 4529SOL     OW14485   3.051   0.610   5.251
 4529SOL    HW114486   2.954   0.618   5.273
 4529SOL    HW214487   3.076   0.513   5.246
 4530SOL     OW14488   1.954   4.788   5.520
 4530SOL    HW114489   2.034   4.778   5.578
 4530SOL    HW214490   1.965   4.734   5.436
 4531SOL     OW14491   0.238   2.952   5.286
 4531SOL    HW114492   0.193   3.005   5.357
 4531SOL    HW214493   0.178   2.876   5.258
 4532SOL     OW14494   6.530   1.643   3.287
 4532SOL    HW114495   6.565   1.699   3.362
 4532SOL    HW214496   6.570   1.675   3.201
 4533SOL     OW14497   1.120   1.371   1.420
 4533SOL    HW114498   1.103   1.462   1.383
 4533SOL    HW214499   1.073   1.303   1.364
 4534SOL     OW14500   4.889   4.013   3.870
 4534SOL    HW114501   4.956   3.941   3.889
 4534SOL    HW214502   4.937   4.100   3.857
 4535SOL     OW14503   3.758   0.904   2.848
 4535SOL    HW114504   3.752   0.840   2.772
 4535SOL    HW214505   3.759   0.998   2.812
 4536SOL     OW14506   3.732   1.564   4.273
 4536SOL    HW114507   3.810   1.598   4.220
 4536SOL    HW214508   3.648   1.606   4.239
 4537SOL     OW14509   4.472   3.221   6.785
 4537SOL    HW114510   4.417   3.211   6.869
 4537SOL    HW214511   4.493   3.131   6.748
 4538SOL     OW14512   1.726   0.173   3.237
 4538SOL    HW114513   1.654   0.236   3.267
 4538SOL    HW214514   1.712   0.085   3.283
 4539SOL     OW14515   2.518   0.220   4.851
 4539SOL    HW114516   2.615   0.201   4.838
 4539SOL    HW214517   2.466   0.176   4.778
 4540SOL     OW14518   3.184   2.724   5.493
 4540SOL    HW114519   3.197   2.627   5.472
 4540SOL    HW214520   3.092   2.739   5.528
 4541SOL     OW14521   5.711   1.980   0.670
 4541SOL    HW114522   5.789   1.921   0.689
 4541SOL    HW214523   5.724   2.069   0.714
 4542SOL     OW14524   6.823   1.332   2.276
 4542SOL    HW114525   6.781   1.320   2.366
 4542SOL    HW214526   6.911   1.379   2.286
 4543SOL     OW14527   4.304   2.007   1.679
 4543SOL    HW114528   4.373   2.065   1.635
 4543SOL    HW214529   4.216   2.020   1.634
 4544SOL     OW14530   3.031   6.354   6.016
 4544SOL    HW114531   3.033   6.444   6.058
 4544SOL    HW214532   3.096   6.294   6.063
 4545SOL     OW14533   5.133   3.926   4.542
 4545SOL    HW114534   5.045   3.955   4.503
 4545SOL    HW214535   5.122   3.839   4.589
 4546SOL     OW14536   1.499   0.756   5.400
 4546SOL    HW114537   1.579   0.811   5.424
 4546SOL    HW214538   1.438   0.750   5.480
 4547SOL     OW14539   5.539   2.384   2.552
 4547SOL    HW114540   5.495   2.437   2.480
 4547SOL    HW214541   5.634   2.414   2.562
 4548SOL     OW14542   0.878   3.298   3.981
 4548SOL    HW114543   0.893   3.240   3.901
 4548SOL    HW214544   0.818   3.374   3.957
 4549SOL     OW14545   7.003   4.244   1.415
 4549SOL    HW114546   0.043   4.272   1.340
 4549SOL    HW214547   6.914   4.217   1.378
 4550SOL     OW14548   0.832   4.952   2.893
 4550SOL    HW114549   0.873   4.908   2.813
 4550SOL    HW214550   0.743   4.910   2.912
 4551SOL     OW14551   0.363   2.058   5.310
 4551SOL    HW114552   0.429   2.093   5.377
 4551SOL    HW214553   0.382   1.961   5.293
 4552SOL     OW14554   6.615   3.577   1.441
 4552SOL    HW114555   6.708   3.615   1.439
 4552SOL    HW214556   6.612   3.493   1.386
 4553SOL     OW14557   3.168   4.580   6.714
 4553SOL    HW114558   3.242   4.606   6.776
 4553SOL    HW214559   3.117   4.662   6.688
 4554SOL     OW14560   5.958   0.064   1.751
 4554SOL    HW114561   5.946   0.138   1.686
 4554SOL    HW214562   5.998   0.100   1.836
 4555SOL     OW14563   2.914   2.288   5.795
 4555SOL    HW114564   2.924   2.303   5.697
 4555SOL    HW214565   2.830   2.333   5.827
 4556SOL     OW14566   5.220   3.352   4.095
 4556SOL    HW114567   5.138   3.342   4.037
 4556SOL    HW214568   5.250   3.261   4.124
 4557SOL     OW14569   4.686   6.274   5.852
 4557SOL    HW114570   4.713   6.210   5.925
 4557SOL    HW214571   4.676   6.224   5.766
 4558SOL     OW14572   0.638   4.156   4.998
 4558SOL    HW114573   0.581   4.087   5.043
 4558SOL    HW214574   0.684   4.212   5.067
 4559SOL     OW14575   0.109   4.031   1.566
 4559SOL    HW114576   0.028   4.077   1.530
 4559SOL    HW214577   0.085   3.983   1.651
 4560SOL     OW14578   5.026   4.193   1.962
 4560SOL    HW114579   4.933   4.224   1.942
 4560SOL    HW214580   5.068   4.255   2.028
 4561SOL     OW14581   1.817   2.100   2.301
 4561SOL    HW114582   1.777   2.108   2.209
 4561SOL    HW214583   1.809   2.006   2.333
 4562SOL     OW14584   2.273   6.389   5.666
 4562SOL    HW114585   2.277   6.351   5.574
 4562SOL    HW214586   2.195   6.350   5.715
 4563SOL     OW14587   0.360   3.074   1.037
 4563SOL    HW114588   0.334   2.993   1.090
 4563SOL    HW214589   0.325   3.066   0.944
 4564SOL     OW14590   6.762   6.059   1.230
 4564SOL    HW114591   6.739   5.990   1.161
 4564SOL    HW214592   6.802   6.139   1.184
 4565SOL     OW14593   0.870   1.168   5.236
 4565SOL    HW114594   0.969   1.176   5.237
 4565SOL    HW214595   0.841   1.101   5.304
 4566SOL     OW14596   6.565   2.840   0.541
 4566SOL    HW114597   6.529   2.749   0.520
 4566SOL    HW214598   6.564   2.854   0.640
 4567SOL     OW14599   6.275   0.257   0.019
 4567SOL    HW114600   6.325   0.343   0.028
 4567SOL    HW214601   6.339   0.181   0.027
 4568SOL     OW14602   2.463   4.160   5.958
 4568SOL    HW114603   2.428   4.253   5.957
 4568SOL    HW214604   2.452   4.119   5.867
 4569SOL     OW14605   1.856   1.927   2.934
 4569SOL    HW114606   1.773   1.891   2.891
 4569SOL    HW214607   1.930   1.929   2.867
 4570SOL     OW14608   0.446   6.602   3.456
 4570SOL    HW114609   0.446   6.546   3.374
 4570SOL    HW214610   0.483   6.692   3.435
 4571SOL     OW14611   4.026   4.273   6.424
 4571SOL    HW114612   4.111   4.222   6.416
 4571SOL    HW214613   3.949   4.209   6.419
 4572SOL     OW14614   1.594   0.233   6.915
 4572SOL    HW114615   1.664   0.271   6.975
 4572SOL    HW214616   1.561   0.147   6.953
 4573SOL     OW14617   6.375   0.626   0.379
 4573SOL    HW114618   6.446   0.684   0.339
 4573SOL    HW214619   6.389   0.622   0.478
 4574SOL     OW14620   5.989   3.844   0.729
 4574SOL    HW114621   5.959   3.869   0.637
 4574SOL    HW214622   6.078   3.884   0.747
 4575SOL     OW14623   6.183   0.768   6.267
 4575SOL    HW114624   6.108   0.705   6.287
 4575SOL    HW214625   6.267   0.734   6.310
 4576SOL     OW14626   2.766   6.329   6.018
 4576SOL    HW114627   2.865   6.346   6.012
 4576SOL    HW214628   2.733   6.296   5.930
 4577SOL     OW14629   1.275   2.593   4.663
 4577SOL    HW114630   1.191   2.644   4.682
 4577SOL    HW214631   1.330   2.586   4.746
 4578SOL     OW14632   0.776   3.168   5.382
 4578SOL    HW114633   0.715   3.136   5.310
 4578SOL    HW214634   0.786   3.268   5.375
 4579SOL     OW14635   4.148   0.702   3.264
 4579SOL    HW114636   4.080   0.774   3.252
 4579SOL    HW214637   4.239   0.743   3.270
 4580SOL     OW14638   5.531   5.183   0.258
 4580SOL    HW114639   5.573   5.218   0.341
 4580SOL    HW214640   5.570   5.094   0.236
 4581SOL     OW14641   2.300   4.576   2.571
 4581SOL    HW114642   2.249   4.606   2.652
 4581SOL    HW214643   2.239   4.571   2.493
 4582SOL     OW14644   5.402   0.155   5.233
 4582SOL    HW114645   5.408   0.254   5.241
 4582SOL    HW214646   5.335   0.120   5.299
 4583SOL     OW14647   2.984   2.634   6.298
 4583SOL    HW114648   2.892   2.661   6.324
 4583SOL    HW214649   3.043   2.634   6.378
 4584SOL     OW14650   0.661   4.776   6.044
 4584SOL    HW114651   0.628   4.815   6.130
 4584SOL    HW214652   0.759   4.756   6.052
 4585SOL     OW14653   3.214   5.907   3.125
 4585SOL    HW114654   3.280   5.945   3.060
 4585SOL    HW214655   3.263   5.850   3.192
 4586SOL     OW14656   3.371   5.296   0.692
 4586SOL    HW114657   3.376   5.395   0.707
 4586SOL    HW214658   3.449   5.267   0.636
 4587SOL     OW14659   3.663   3.832   2.970
 4587SOL    HW114660   3.623   3.807   3.058
 4587SOL    HW214661   3.745   3.886   2.985
 4588SOL     OW14662   3.312   3.393   4.950
 4588SOL    HW114663   3.277   3.449   4.876
 4588SOL    HW214664   3.294   3.296   4.931
 4589SOL     OW14665   6.131   1.237   2.465
 4589SOL    HW114666   6.079   1.241   2.380
 4589SOL    HW214667   6.138   1.142   2.495
 4590SOL     OW14668   5.198   6.126   1.632
 4590SOL    HW114669   5.104   6.116   1.666
 4590SOL    HW214670   5.256   6.162   1.705
 4591SOL     OW14671   0.636   6.259   4.646
 4591SOL    HW114672   0.652   6.329   4.716
 4591SOL    HW214673   0.720   6.245   4.594
 4592SOL     OW14674   2.727   1.546   2.034
 4592SOL    HW114675   2.766   1.541   1.943
 4592SOL    HW214676   2.784   1.605   2.092
 4593SOL     OW14677   4.875   5.449   2.833
 4593SOL    HW114678   4.914   5.538   2.809
 4593SOL    HW214679   4.861   5.444   2.932
 4594SOL     OW14680   2.602   1.561   3.149
 4594SOL    HW114681   2.684   1.566   3.091
 4594SOL    HW214682   2.541   1.489   3.115
 4595SOL     OW14683   4.035   3.054   6.518
 4595SOL    HW114684   3.969   3.105   6.572
 4595SOL    HW214685   4.026   2.956   6.538
 4596SOL     OW14686   5.688   6.881   2.523
 4596SOL    HW114687   5.735   6.841   2.602
 4596SOL    HW214688   5.737   6.856   2.439
 4597SOL     OW14689   4.082   5.576   5.987
 4597SOL    HW114690   4.102   5.479   5.970
 4597SOL    HW214691   4.167   5.629   5.978
 4598SOL     OW14692   2.468   6.361   6.619
 4598SOL    HW114693   2.432   6.268   6.615
 4598SOL    HW214694   2.542   6.365   6.686
 4599SOL     OW14695   1.325   4.882   0.846
 4599SOL    HW114696   1.423   4.896   0.858
 4599SOL    HW214697   1.293   4.936   0.768
 4600SOL     OW14698   1.002   5.320   5.568
 4600SOL    HW114699   0.932   5.354   5.630
 4600SOL    HW214700   0.975   5.339   5.474
 4601SOL     OW14701   2.223   0.626   5.657
 4601SOL    HW114702   2.239   0.548   5.596
 4601SOL    HW214703   2.172   0.697   5.608
 4602SOL     OW14704   1.900   6.345   1.195
 4602SOL    HW114705   1.865   6.283   1.265
 4602SOL    HW214706   2.000   6.345   1.198
 4603SOL     OW14707   3.232   6.393   0.783
 4603SOL    HW114708   3.264   6.302   0.756
 4603SOL    HW214709   3.301   6.461   0.757
 4604SOL     OW14710   4.441   0.688   0.821
 4604SOL    HW114711   4.384   0.685   0.902
 4604SOL    HW214712   4.509   0.761   0.830
 4605SOL     OW14713   2.720   0.606   2.973
 4605SOL    HW114714   2.796   0.542   2.974
 4605SOL    HW214715   2.656   0.584   3.047
 4606SOL     OW14716   1.046   6.306   2.165
 4606SOL    HW114717   1.060   6.250   2.083
 4606SOL    HW214718   1.124   6.367   2.178
 4607SOL     OW14719   1.851   2.804   1.495
 4607SOL    HW114720   1.852   2.726   1.432
 4607SOL    HW214721   1.809   2.777   1.581
 4608SOL     OW14722   0.323   6.249   3.751
 4608SOL    HW114723   0.413   6.276   3.717
 4608SOL    HW214724   0.285   6.323   3.806
 4609SOL     OW14725   4.157   5.516   6.739
 4609SOL    HW114726   4.206   5.449   6.794
 4609SOL    HW214727   4.133   5.475   6.651
 4610SOL     OW14728   5.035   2.980   0.639
 4610SOL    HW114729   4.953   2.952   0.689
 4610SOL    HW214730   5.033   3.079   0.625
 4611SOL     OW14731   0.611   5.604   6.240
 4611SOL    HW114732   0.627   5.510   6.209
 4611SOL    HW214733   0.532   5.605   6.302
 4612SOL     OW14734   1.522   5.840   0.184
 4612SOL    HW114735   1.545   5.878   0.273
 4612SOL    HW214736   1.605   5.809   0.137
 4613SOL     OW14737   2.446   6.230   1.788
 4613SOL    HW114738   2.450   6.131   1.775
 4613SOL    HW214739   2.506   6.274   1.721
 4614SOL     OW14740   6.778   3.132   4.872
 4614SOL    HW114741   6.767   3.204   4.940
 4614SOL    HW214742   6.875   3.118   4.853
 4615SOL     OW14743   1.894   0.070   6.961
 4615SOL    HW114744   1.854   0.151   7.004
 4615SOL    HW214745   1.845   0.051   6.875
 4616SOL     OW14746   6.504   0.325   5.235
 4616SOL    HW114747   6.536   0.343   5.142
 4616SOL    HW214748   6.478   0.411   5.278
 4617SOL     OW14749   0.262   2.342   2.314
 4617SOL    HW114750   0.322   2.312   2.240
 4617SOL    HW214751   0.303   2.421   2.360
 4618SOL     OW14752   2.054   2.805   4.716
 4618SOL    HW114753   2.050   2.814   4.815
 4618SOL    HW214754   2.131   2.858   4.680
 4619SOL     OW14755   3.315   6.288   3.297
 4619SOL    HW114756   3.263   6.275   3.213
 4619SOL    HW214757   3.252   6.305   3.373
 4620SOL     OW14758   2.503   4.626   0.491
 4620SOL    HW114759   2.410   4.642   0.524
 4620SOL    HW214760   2.543   4.548   0.540
 4621SOL     OW14761   5.515   0.839   2.300
 4621SOL    HW114762   5.542   0.746   2.277
 4621SOL    HW214763   5.572   0.903   2.248
 4622SOL     OW14764   2.446   4.811   0.687
 4622SOL    HW114765   2.524   4.749   0.695
 4622SOL    HW214766   2.361   4.758   0.694
 4623SOL     OW14767   5.109   6.521   0.394
 4623SOL    HW114768   5.071   6.582   0.324
 4623SOL    HW214769   5.193   6.561   0.430
 4624SOL     OW14770   4.489   0.052   3.341
 4624SOL    HW114771   4.578   0.074   3.382
 4624SOL    HW214772   4.436   0.135   3.330
 4625SOL     OW14773   2.381   4.556   1.000
 4625SOL    HW114774   2.468   4.557   1.048
 4625SOL    HW214775   2.394   4.520   0.908
 4626SOL     OW14776   5.307   4.568   2.164
 4626SOL    HW114777   5.347   4.492   2.216
 4626SOL    HW214778   5.269   4.533   2.078
 4627SOL     OW14779   2.481   4.461   4.524
 4627SOL    HW114780   2.445   4.407   4.448
 4627SOL    HW214781   2.424   4.447   4.605
 4628SOL     OW14782   6.261   4.278   4.045
 4628SOL    HW114783   6.262   4.289   4.145
 4628SOL    HW214784   6.252   4.368   4.002
 4629SOL     OW14785   2.376   5.228   5.414
 4629SOL    HW114786   2.283   5.237   5.452
 4629SOL    HW214787   2.425   5.156   5.463
 4630SOL     OW14788   3.346   5.212   2.728
 4630SOL    HW114789   3.440   5.205   2.696
 4630SOL    HW214790   3.285   5.224   2.650
 4631SOL     OW14791   1.691   6.134   3.046
 4631SOL    HW114792   1.603   6.135   2.998
 4631SOL    HW214793   1.765   6.153   2.982
 4632SOL     OW14794   3.422   4.903   2.420
 4632SOL    HW114795   3.425   4.925   2.518
 4632SOL    HW214796   3.328   4.883   2.393
 4633SOL     OW14797   5.230   0.269   4.626
 4633SOL    HW114798   5.137   0.266   4.663
 4633SOL    HW214799   5.253   0.181   4.586
 4634SOL     OW14800   3.565   4.584   5.892
 4634SOL    HW114801   3.602   4.519   5.825
 4634SOL    HW214802   3.587   4.677   5.863
 4635SOL     OW14803   4.945   3.862   1.292
 4635SOL    HW114804   4.847   3.852   1.277
 4635SOL    HW214805   4.971   3.814   1.375
 4636SOL     OW14806   1.945   4.445   7.014
 4636SOL    HW114807   2.024   4.445   6.951
 4636SOL    HW214808   1.868   4.490   6.970
 4637SOL     OW14809   0.908   6.537   0.767
 4637SOL    HW114810   0.985   6.481   0.735
 4637SOL    HW214811   0.842   6.549   0.693
 4638SOL     OW14812   4.625   4.493   6.486
 4638SOL    HW114813   4.594   4.483   6.581
 4638SOL    HW214814   4.555   4.540   6.433
 4639SOL     OW14815   2.874   4.353   5.992
 4639SOL    HW114816   2.856   4.410   5.912
 4639SOL    HW214817   2.967   4.316   5.986
 4640SOL     OW14818   5.243   3.901   3.808
 4640SOL    HW114819   5.150   3.883   3.776
 4640SOL    HW214820   5.297   3.941   3.733
 4641SOL     OW14821   2.416   6.947   5.088
 4641SOL    HW114822   2.375   0.017   5.069
 4641SOL    HW214823   2.489   6.958   5.154
 4642SOL     OW14824   1.062   5.345   4.177
 4642SOL    HW114825   1.137   5.282   4.159
 4642SOL    HW214826   0.987   5.327   4.113
 4643SOL     OW14827   6.170   2.565   1.160
 4643SOL    HW114828   6.207   2.551   1.252
 4643SOL    HW214829   6.126   2.655   1.156
 4644SOL     OW14830   6.546   5.114   4.971
 4644SOL    HW114831   6.466   5.122   4.912
 4644SOL    HW214832   6.621   5.169   4.934
 4645SOL     OW14833   0.757   0.501   4.410
 4645SOL    HW114834   0.729   0.510   4.505
 4645SOL    HW214835   0.739   0.407   4.379
 4646SOL     OW14836   1.974   6.102   3.812
 4646SOL    HW114837   2.072   6.102   3.835
 4646SOL    HW214838   1.963   6.092   3.713
 4647SOL     OW14839   1.405   0.851   2.979
 4647SOL    HW114840   1.351   0.928   2.944
 4647SOL    HW214841   1.435   0.794   2.902
 4648SOL     OW14842   3.369   1.070   2.485
 4648SOL    HW114843   3.447   1.111   2.439
 4648SOL    HW214844   3.343   1.127   2.564
 4649SOL     OW14845   5.511   6.985   0.123
 4649SOL    HW114846   5.421   0.007   0.133
 4649SOL    HW214847   5.581   0.023   0.165
 4650SOL     OW14848   4.640   5.312   2.748
 4650SOL    HW114849   4.711   5.378   2.772
 4650SOL    HW214850   4.558   5.331   2.803
 4651SOL     OW14851   7.005   2.905   0.621
 4651SOL    HW114852   7.012   2.952   0.709
 4651SOL    HW214853   6.967   2.814   0.635
 4652SOL     OW14854   6.286   6.712   3.800
 4652SOL    HW114855   6.199   6.724   3.846
 4652SOL    HW214856   6.323   6.802   3.774
 4653SOL     OW14857   5.332   4.945   0.943
 4653SOL    HW114858   5.419   4.980   0.977
 4653SOL    HW214859   5.344   4.852   0.908
 4654SOL     OW14860   0.938   7.003   0.503
 4654SOL    HW114861   0.975   0.066   0.545
 4654SOL    HW214862   0.839   7.002   0.512
 4655SOL     OW14863   5.068   4.215   1.333
 4655SOL    HW114864   5.001   4.225   1.260
 4655SOL    HW214865   5.023   4.175   1.413
 4656SOL     OW14866   1.392   0.626   2.339
 4656SOL    HW114867   1.426   0.538   2.305
 4656SOL    HW214868   1.464   0.695   2.329
 4657SOL     OW14869   4.888   6.523   1.547
 4657SOL    HW114870   4.920   6.431   1.524
 4657SOL    HW214871   4.819   6.552   1.481
 4658SOL     OW14872   3.568   1.182   2.903
 4658SOL    HW114873   3.497   1.115   2.923
 4658SOL    HW214874   3.534   1.248   2.837
 4659SOL     OW14875   3.428   4.955   5.073
 4659SOL    HW114876   3.354   4.897   5.108
 4659SOL    HW214877   3.451   4.928   4.980
 4660SOL     OW14878   1.332   4.091   6.186
 4660SOL    HW114879   1.276   4.011   6.206
 4660SOL    HW214880   1.317   4.120   6.091
 4661SOL     OW14881   2.740   4.423   5.600
 4661SOL    HW114882   2.704   4.514   5.580
 4661SOL    HW214883   2.763   4.417   5.697
 4662SOL     OW14884   3.203   7.000   5.578
 4662SOL    HW114885   3.140   6.945   5.523
 4662SOL    HW214886   3.282   6.944   5.604
 4663SOL     OW14887   0.288   2.062   1.733
 4663SOL    HW114888   0.325   2.068   1.826
 4663SOL    HW214889   0.237   1.977   1.724
 4664SOL     OW14890   1.519   1.187   0.807
 4664SOL    HW114891   1.435   1.239   0.818
 4664SOL    HW214892   1.504   1.112   0.742
 4665SOL     OW14893   3.483   7.015   6.488
 4665SOL    HW114894   3.428   6.939   6.522
 4665SOL    HW214895   3.552   0.020   6.555
 4666SOL     OW14896   1.518   2.219   0.508
 4666SOL    HW114897   1.490   2.249   0.416
 4666SOL    HW214898   1.484   2.284   0.576
 4667SOL     OW14899   6.377   3.412   2.264
 4667SOL    HW114900   6.370   3.324   2.216
 4667SOL    HW214901   6.302   3.420   2.330
 4668SOL     OW14902   4.316   2.356   2.428
 4668SOL    HW114903   4.228   2.310   2.442
 4668SOL    HW214904   4.363   2.366   2.516
 4669SOL     OW14905   4.800   6.422   6.126
 4669SOL    HW114906   4.747   6.396   6.208
 4669SOL    HW214907   4.886   6.463   6.154
 4670SOL     OW14908   2.613   2.492   5.209
 4670SOL    HW114909   2.526   2.477   5.255
 4670SOL    HW214910   2.663   2.566   5.254
 4671SOL     OW14911   6.633   2.754   1.309
 4671SOL    HW114912   6.549   2.793   1.271
 4671SOL    HW214913   6.652   2.667   1.265
 4672SOL     OW14914   2.542   4.445   6.080
 4672SOL    HW114915   2.630   4.424   6.123
 4672SOL    HW214916   2.467   4.421   6.143
 4673SOL     OW14917   5.189   0.316   1.961
 4673SOL    HW114918   5.152   0.398   1.918
 4673SOL    HW214919   5.160   0.312   2.057
 4674SOL     OW14920   5.148   0.417   6.524
 4674SOL    HW114921   5.193   0.472   6.453
 4674SOL    HW214922   5.109   0.335   6.483
 4675SOL     OW14923   1.841   1.609   6.163
 4675SOL    HW114924   1.932   1.578   6.137
 4675SOL    HW214925   1.810   1.678   6.097
 4676SOL     OW14926   6.772   6.329   3.664
 4676SOL    HW114927   6.734   6.264   3.597
 4676SOL    HW214928   6.800   6.279   3.746
 4677SOL     OW14929   2.495   1.639   6.838
 4677SOL    HW114930   2.427   1.583   6.790
 4677SOL    HW214931   2.582   1.635   6.789
 4678SOL     OW14932   2.015   4.283   3.031
 4678SOL    HW114933   1.930   4.318   3.071
 4678SOL    HW214934   2.024   4.317   2.937
 4679SOL     OW14935   4.120   0.999   0.680
 4679SOL    HW114936   4.191   0.932   0.658
 4679SOL    HW214937   4.099   1.054   0.600
 4680SOL     OW14938   3.252   1.555   0.624
 4680SOL    HW114939   3.342   1.527   0.592
 4680SOL    HW214940   3.190   1.562   0.546
 4681SOL     OW14941   5.135   5.496   6.420
 4681SOL    HW114942   5.137   5.402   6.387
 4681SOL    HW214943   5.095   5.555   6.351
 4682SOL     OW14944   4.345   4.518   5.614
 4682SOL    HW114945   4.322   4.502   5.518
 4682SOL    HW214946   4.440   4.491   5.631
 4683SOL     OW14947   4.246   4.931   2.613
 4683SOL    HW114948   4.172   4.865   2.626
 4683SOL    HW214949   4.307   4.929   2.692
 4684SOL     OW14950   6.276   1.186   5.042
 4684SOL    HW114951   6.343   1.120   5.075
 4684SOL    HW214952   6.316   1.238   4.967
 4685SOL     OW14953   0.778   5.950   5.662
 4685SOL    HW114954   0.747   5.956   5.757
 4685SOL    HW214955   0.839   6.027   5.642
 4686SOL     OW14956   4.002   5.380   0.020
 4686SOL    HW114957   4.000   5.360   0.118
 4686SOL    HW214958   3.961   5.470   0.003
 4687SOL     OW14959   6.259   3.966   4.883
 4687SOL    HW114960   6.353   3.963   4.917
 4687SOL    HW214961   6.202   4.015   4.950
 4688SOL     OW14962   5.984   4.233   4.792
 4688SOL    HW114963   6.021   4.310   4.740
 4688SOL    HW214964   5.933   4.173   4.731
 4689SOL     OW14965   5.462   1.196   0.214
 4689SOL    HW114966   5.461   1.097   0.232
 4689SOL    HW214967   5.479   1.245   0.299
 4690SOL     OW14968   0.984   6.968   6.762
 4690SOL    HW114969   0.967   7.004   6.853
 4690SOL    HW214970   1.082   6.963   6.745
 4691SOL     OW14971   2.680   5.253   1.660
 4691SOL    HW114972   2.666   5.346   1.693
 4691SOL    HW214973   2.643   5.188   1.726
 4692SOL     OW14974   5.655   5.526   1.805
 4692SOL    HW114975   5.655   5.543   1.903
 4692SOL    HW214976   5.676   5.430   1.787
 4693SOL     OW14977   1.023   1.681   3.255
 4693SOL    HW114978   1.019   1.673   3.156
 4693SOL    HW214979   0.930   1.687   3.292
 4694SOL     OW14980   1.621   0.592   6.904
 4694SOL    HW114981   1.569   0.627   6.981
 4694SOL    HW214982   1.594   0.497   6.886
 4695SOL     OW14983   1.427   3.445   1.837
 4695SOL    HW114984   1.459   3.351   1.846
 4695SOL    HW214985   1.466   3.485   1.754
 4696SOL     OW14986   0.486   4.389   7.018
 4696SOL    HW114987   0.411   4.341   0.044
 4696SOL    HW214988   0.449   4.442   6.941
 4697SOL     OW14989   1.639   2.918   0.567
 4697SOL    HW114990   1.681   2.870   0.643
 4697SOL    HW214991   1.596   3.003   0.599
 4698SOL     OW14992   4.672   5.056   2.655
 4698SOL    HW114993   4.588   5.004   2.667
 4698SOL    HW214994   4.664   5.144   2.703
 4699SOL     OW14995   1.951   6.690   2.160
 4699SOL    HW114996   2.002   6.768   2.196
 4699SOL    HW214997   1.854   6.699   2.185
 4700SOL     OW14998   6.976   1.358   3.145
 4700SOL    HW114999   0.015   1.433   3.173
 4700SOL    HW215000   6.882   1.391   3.139
 4701SOL     OW15001   2.606   2.207   6.995
 4701SOL    HW115002   2.511   2.176   7.005
 4701SOL    HW215003   2.659   2.182   0.055
 4702SOL     OW15004   4.348   5.340   0.192
 4702SOL    HW115005   4.345   5.252   0.143
 4702SOL    HW215006   4.388   5.409   0.132
 4703SOL     OW15007   0.906   1.578   1.607
 4703SOL    HW115008   0.903   1.609   1.512
 4703SOL    HW215009   0.987   1.615   1.653
 4704SOL     OW15010   0.616   6.094   0.332
 4704SOL    HW115011   0.614   6.038   0.249
 4704SOL    HW215012   0.570   6.046   0.406
 4705SOL     OW15013   3.473   3.429   2.099
 4705SOL    HW115014   3.435   3.511   2.142
 4705SOL    HW215015   3.419   3.349   2.126
 4706SOL     OW15016   3.183   0.405   0.096
 4706SOL    HW115017   3.161   0.311   0.072
 4706SOL    HW215018   3.153   0.467   0.023
 4707SOL     OW15019   1.858   6.614   1.272
 4707SOL    HW115020   1.908   6.683   1.219
 4707SOL    HW215021   1.872   6.524   1.232
 4708SOL     OW15022   1.217   1.415   6.470
 4708SOL    HW115023   1.174   1.498   6.506
 4708SOL    HW215024   1.312   1.410   6.502
 4709SOL     OW15025   4.775   5.719   5.310
 4709SOL    HW115026   4.685   5.699   5.270
 4709SOL    HW215027   4.841   5.737   5.237
 4710SOL     OW15028   4.448   0.694   5.415
 4710SOL    HW115029   4.498   0.746   5.345
 4710SOL    HW215030   4.375   0.752   5.453
 4711SOL     OW15031   6.285   1.340   1.529
 4711SOL    HW115032   6.228   1.356   1.610
 4711SOL    HW215033   6.286   1.422   1.473
 4712SOL     OW15034   2.842   4.404   0.253
 4712SOL    HW115035   2.908   4.443   0.189
 4712SOL    HW215036   2.777   4.347   0.204
 4713SOL     OW15037   3.716   4.460   0.525
 4713SOL    HW115038   3.757   4.414   0.446
 4713SOL    HW215039   3.707   4.395   0.601
 4714SOL     OW15040   0.781   1.958   6.586
 4714SOL    HW115041   0.739   2.039   6.626
 4714SOL    HW215042   0.865   1.983   6.539
 4715SOL     OW15043   5.413   2.512   2.354
 4715SOL    HW115044   5.358   2.585   2.395
 4715SOL    HW215045   5.460   2.547   2.273
 4716SOL     OW15046   4.569   6.023   6.428
 4716SOL    HW115047   4.487   5.967   6.415
 4716SOL    HW215048   4.641   5.968   6.471
 4717SOL     OW15049   7.009   0.323   4.083
 4717SOL    HW115050   6.940   0.395   4.077
 4717SOL    HW215051   0.017   0.296   3.991
 4718SOL     OW15052   5.352   2.740   1.786
 4718SOL    HW115053   5.286   2.670   1.759
 4718SOL    HW215054   5.345   2.757   1.884
 4719SOL     OW15055   4.660   3.323   1.687
 4719SOL    HW115056   4.672   3.274   1.600
 4719SOL    HW215057   4.636   3.259   1.759
 4720SOL     OW15058   1.906   5.699   6.117
 4720SOL    HW115059   1.985   5.652   6.155
 4720SOL    HW215060   1.871   5.765   6.184
 4721SOL     OW15061   6.464   2.397   2.210
 4721SOL    HW115062   6.429   2.308   2.241
 4721SOL    HW215063   6.448   2.466   2.280
 4722SOL     OW15064   0.777   5.738   6.406
 4722SOL    HW115065   0.779   5.829   6.364
 4722SOL    HW215066   0.706   5.683   6.362
 4723SOL     OW15067   2.354   3.739   6.221
 4723SOL    HW115068   2.387   3.831   6.241
 4723SOL    HW215069   2.256   3.743   6.198
 4724SOL     OW15070   6.374   6.663   2.490
 4724SOL    HW115071   6.347   6.585   2.433
 4724SOL    HW215072   6.292   6.709   2.525
 4725SOL     OW15073   6.286   5.227   1.974
 4725SOL    HW115074   6.331   5.291   2.037
 4725SOL    HW215075   6.215   5.276   1.924
 4726SOL     OW15076   1.914   2.335   5.556
 4726SOL    HW115077   1.836   2.272   5.564
 4726SOL    HW215078   1.890   2.410   5.495
 4727SOL     OW15079   1.540   5.720   1.217
 4727SOL    HW115080   1.600   5.710   1.138
 4727SOL    HW215081   1.450   5.682   1.196
 4728SOL     OW15082   6.489   1.331   1.784
 4728SOL    HW115083   6.409   1.365   1.834
 4728SOL    HW215084   6.532   1.259   1.838
 4729SOL     OW15085   3.079   1.959   0.658
 4729SOL    HW115086   3.018   1.956   0.738
 4729SOL    HW215087   3.173   1.939   0.687
 4730SOL     OW15088   3.386   6.428   5.245
 4730SOL    HW115089   3.421   6.335   5.258
 4730SOL    HW215090   3.313   6.426   5.176
 4731SOL     OW15091   4.150   0.445   7.017
 4731SOL    HW115092   4.155   0.346   7.019
 4731SOL    HW215093   4.089   0.474   6.943
 4732SOL     OW15094   1.382   3.908   5.826
 4732SOL    HW115095   1.359   3.866   5.738
 4732SOL    HW215096   1.462   3.862   5.865
 4733SOL     OW15097   1.294   4.027   3.819
 4733SOL    HW115098   1.274   3.961   3.892
 4733SOL    HW215099   1.272   3.986   3.730
 4734SOL     OW15100   4.161   2.647   0.003
 4734SOL    HW115101   4.221   2.697   6.960
 4734SOL    HW215102   4.185   2.670   0.097
 4735SOL     OW15103   6.347   5.612   4.015
 4735SOL    HW115104   6.408   5.686   3.985
 4735SOL    HW215105   6.355   5.534   3.953
 4736SOL     OW15106   7.020   1.339   5.511
 4736SOL    HW115107   0.009   1.398   5.431
 4736SOL    HW215108   0.007   1.244   5.483
 4737SOL     OW15109   2.546   4.550   2.050
 4737SOL    HW115110   2.640   4.577   2.029
 4737SOL    HW215111   2.541   4.521   2.146
 4738SOL     OW15112   0.296   6.217   2.890
 4738SOL    HW115113   0.282   6.300   2.835
 4738SOL    HW215114   0.240   6.143   2.852
 4739SOL     OW15115   3.914   0.820   3.533
 4739SOL    HW115116   3.944   0.862   3.447
 4739SOL    HW215117   3.933   0.882   3.609
 4740SOL     OW15118   0.963   1.170   1.183
 4740SOL    HW115119   0.972   1.184   1.084
 4740SOL    HW215120   1.040   1.116   1.216
 4741SOL     OW15121   4.058   3.507   1.043
 4741SOL    HW115122   4.104   3.519   1.131
 4741SOL    HW215123   4.023   3.595   1.011
 4742SOL     OW15124   3.360   6.790   6.620
 4742SOL    HW115125   3.432   6.728   6.653
 4742SOL    HW215126   3.297   6.739   6.562
 4743SOL     OW15127   1.522   3.199   3.610
 4743SOL    HW115128   1.613   3.232   3.635
 4743SOL    HW215129   1.527   3.101   3.590
 4744SOL     OW15130   1.928   4.099   0.705
 4744SOL    HW115131   1.896   4.174   0.646
 4744SOL    HW215132   1.862   4.024   0.700
 4745SOL     OW15133   2.780   4.416   6.239
 4745SOL    HW115134   2.797   4.327   6.281
 4745SOL    HW215135   2.841   4.428   6.160
 4746SOL     OW15136   5.371   5.727   2.329
 4746SOL    HW115137   5.352   5.801   2.394
 4746SOL    HW215138   5.321   5.645   2.356
 4747SOL     OW15139   1.966   3.579   0.209
 4747SOL    HW115140   2.003   3.537   0.292
 4747SOL    HW215141   1.963   3.510   0.136
 4748SOL     OW15142   1.963   5.180   0.811
 4748SOL    HW115143   1.947   5.268   0.768
 4748SOL    HW215144   1.876   5.137   0.834
 4749SOL     OW15145   2.113   6.678   5.893
 4749SOL    HW115146   2.146   6.696   5.986
 4749SOL    HW215147   2.063   6.591   5.892
 4750SOL     OW15148   0.690   4.075   4.333
 4750SOL    HW115149   0.700   4.013   4.412
 4750SOL    HW215150   0.761   4.054   4.265
 4751SOL     OW15151   4.002   1.682   2.146
 4751SOL    HW115152   4.038   1.588   2.146
 4751SOL    HW215153   3.905   1.680   2.121
 4752SOL     OW15154   4.540   1.261   6.586
 4752SOL    HW115155   4.533   1.162   6.576
 4752SOL    HW215156   4.521   1.305   6.498
 4753SOL     OW15157   5.523   0.349   3.927
 4753SOL    HW115158   5.530   0.403   3.843
 4753SOL    HW215159   5.477   0.263   3.907
 4754SOL     OW15160   5.894   6.436   4.451
 4754SOL    HW115161   5.879   6.341   4.422
 4754SOL    HW215162   5.807   6.486   4.448
 4755SOL     OW15163   3.227   0.441   0.698
 4755SOL    HW115164   3.246   0.410   0.605
 4755SOL    HW215165   3.160   0.516   0.696
 4756SOL     OW15166   5.517   2.430   0.175
 4756SOL    HW115167   5.590   2.423   0.243
 4756SOL    HW215168   5.429   2.426   0.220
 4757SOL     OW15169   2.834   1.675   0.927
 4757SOL    HW115170   2.902   1.740   0.893
 4757SOL    HW215171   2.842   1.588   0.879
 4758SOL     OW15172   1.832   6.561   3.577
 4758SOL    HW115173   1.816   6.468   3.609
 4758SOL    HW215174   1.871   6.559   3.485
 4759SOL     OW15175   6.488   4.349   5.084
 4759SOL    HW115176   6.426   4.387   5.153
 4759SOL    HW215177   6.453   4.371   4.993
 4760SOL     OW15178   2.330   1.949   1.005
 4760SOL    HW115179   2.390   1.871   0.987
 4760SOL    HW215180   2.250   1.918   1.057
 4761SOL     OW15181   0.860   5.710   0.417
 4761SOL    HW115182   0.775   5.760   0.399
 4761SOL    HW215183   0.927   5.731   0.346
 4762SOL     OW15184   1.173   6.028   2.432
 4762SOL    HW115185   1.192   5.932   2.452
 4762SOL    HW215186   1.147   6.075   2.516
 4763SOL     OW15187   5.990   6.713   3.179
 4763SOL    HW115188   5.969   6.616   3.189
 4763SOL    HW215189   5.991   6.756   3.269
 4764SOL     OW15190   4.870   3.903   4.356
 4764SOL    HW115191   4.851   3.814   4.399
 4764SOL    HW215192   4.845   3.976   4.419
 4765SOL     OW15193   4.732   1.331   4.575
 4765SOL    HW115194   4.812   1.274   4.558
 4765SOL    HW215195   4.743   1.419   4.528
 4766SOL     OW15196   5.248   5.978   4.299
 4766SOL    HW115197   5.220   5.882   4.298
 4766SOL    HW215198   5.252   6.013   4.206
 4767SOL     OW15199   3.296   5.386   5.292
 4767SOL    HW115200   3.386   5.417   5.260
 4767SOL    HW215201   3.264   5.447   5.364
 4768SOL     OW15202   4.575   2.285   6.125
 4768SOL    HW115203   4.503   2.216   6.133
 4768SOL    HW215204   4.562   2.338   6.041
 4769SOL     OW15205   4.538   4.564   7.007
 4769SOL    HW115206   4.493   4.517   0.063
 4769SOL    HW215207   4.474   4.572   6.931
 4770SOL     OW15208   0.606   1.107   4.106
 4770SOL    HW115209   0.606   1.064   4.196
 4770SOL    HW215210   0.525   1.077   4.055
 4771SOL     OW15211   2.931   5.962   5.203
 4771SOL    HW115212   2.973   5.876   5.231
 4771SOL    HW215213   2.972   6.037   5.254
 4772SOL     OW15214   4.005   5.064   1.183
 4772SOL    HW115215   4.064   5.137   1.216
 4772SOL    HW215216   3.989   4.998   1.257
 4773SOL     OW15217   6.786   5.055   3.702
 4773SOL    HW115218   6.793   5.055   3.602
 4773SOL    HW215219   6.877   5.069   3.741
 4774SOL     OW15220   1.466   3.173   1.395
 4774SOL    HW115221   1.481   3.268   1.420
 4774SOL    HW215222   1.544   3.118   1.427
 4775SOL     OW15223   5.245   6.572   2.790
 4775SOL    HW115224   5.296   6.490   2.766
 4775SOL    HW215225   5.147   6.552   2.793
 4776SOL     OW15226   1.272   6.313   5.550
 4776SOL    HW115227   1.277   6.241   5.481
 4776SOL    HW215228   1.334   6.387   5.526
 4777SOL     OW15229   2.126   5.208   1.039
 4777SOL    HW115230   2.075   5.188   0.956
 4777SOL    HW215231   2.088   5.290   1.082
 4778SOL     OW15232   6.485   2.504   4.058
 4778SOL    HW115233   6.504   2.600   4.035
 4778SOL    HW215234   6.441   2.499   4.147
 4779SOL     OW15235   6.100   5.476   2.618
 4779SOL    HW115236   6.006   5.486   2.651
 4779SOL    HW215237   6.108   5.516   2.526
 4780SOL     OW15238   5.895   1.216   0.082
 4780SOL    HW115239   5.883   1.129   0.033
 4780SOL    HW215240   5.878   1.201   0.179
 4781SOL     OW15241   2.504   6.028   2.444
 4781SOL    HW115242   2.561   6.084   2.384
 4781SOL    HW215243   2.452   6.088   2.505
 4782SOL     OW15244   6.193   5.723   0.355
 4782SOL    HW115245   6.147   5.737   0.443
 4782SOL    HW215246   6.128   5.690   0.288
 4783SOL     OW15247   4.968   4.051   0.478
 4783SOL    HW115248   4.919   4.135   0.498
 4783SOL    HW215249   4.950   4.023   0.384
 4784SOL     OW15250   6.160   3.343   6.841
 4784SOL    HW115251   6.067   3.371   6.819
 4784SOL    HW215252   6.198   3.290   6.765
 4785SOL     OW15253   1.397   6.526   2.883
 4785SOL    HW115254   1.390   6.515   2.784
 4785SOL    HW215255   1.402   6.623   2.906
 4786SOL     OW15256   2.604   0.864   0.264
 4786SOL    HW115257   2.563   0.953   0.244
 4786SOL    HW215258   2.532   0.794   0.267
 4787SOL     OW15259   4.187   1.753   2.665
 4787SOL    HW115260   4.142   1.733   2.577
 4787SOL    HW215261   4.152   1.839   2.701
 4788SOL     OW15262   6.815   6.265   6.257
 4788SOL    HW115263   6.787   6.332   6.188
 4788SOL    HW215264   6.908   6.234   6.238
 4789SOL     OW15265   4.499   2.143   1.537
 4789SOL    HW115266   4.516   2.128   1.440
 4789SOL    HW215267   4.586   2.163   1.583
 4790SOL     OW15268   6.465   1.910   5.225
 4790SOL    HW115269   6.442   1.875   5.316
 4790SOL    HW215270   6.382   1.941   5.178
 4791SOL     OW15271   0.131   2.939   1.416
 4791SOL    HW115272   0.220   2.923   1.457
 4791SOL    HW215273   0.093   3.026   1.450
 4792SOL     OW15274   2.410   4.544   3.466
 4792SOL    HW115275   2.333   4.482   3.481
 4792SOL    HW215276   2.444   4.533   3.373
 4793SOL     OW15277   2.033   2.714   4.984
 4793SOL    HW115278   2.054   2.618   4.966
 4793SOL    HW215279   1.978   2.721   5.068
 4794SOL     OW15280   4.891   0.414   4.576
 4794SOL    HW115281   4.970   0.465   4.543
 4794SOL    HW215282   4.810   0.472   4.575
 4795SOL     OW15283   6.086   2.123   4.236
 4795SOL    HW115284   6.175   2.110   4.191
 4795SOL    HW215285   6.100   2.169   4.323
 4796SOL     OW15286   4.626   1.810   4.798
 4796SOL    HW115287   4.699   1.823   4.731
 4796SOL    HW215288   4.666   1.800   4.890
 4797SOL     OW15289   0.929   6.268   5.294
 4797SOL    HW115290   0.904   6.213   5.215
 4797SOL    HW215291   1.013   6.319   5.274
 4798SOL     OW15292   0.251   3.703   5.648
 4798SOL    HW115293   0.207   3.739   5.730
 4798SOL    HW215294   0.346   3.736   5.645
 4799SOL     OW15295   4.574   1.688   0.577
 4799SOL    HW115296   4.589   1.589   0.567
 4799SOL    HW215297   4.511   1.718   0.505
 4800SOL     OW15298   2.843   2.514   6.582
 4800SOL    HW115299   2.818   2.483   6.675
 4800SOL    HW215300   2.788   2.594   6.558
 4801SOL     OW15301   3.250   2.232   6.705
 4801SOL    HW115302   3.183   2.237   6.779
 4801SOL    HW215303   3.281   2.324   6.682
 4802SOL     OW15304   1.141   6.560   1.769
 4802SOL    HW115305   1.075   6.501   1.814
 4802SOL    HW215306   1.141   6.650   1.812
 4803SOL     OW15307   0.162   5.015   0.591
 4803SOL    HW115308   0.195   5.051   0.678
 4803SOL    HW215309   0.161   5.088   0.522
 4804SOL     OW15310   6.628   6.173   1.599
 4804SOL    HW115311   6.566   6.163   1.677
 4804SOL    HW215312   6.590   6.124   1.520
 4805SOL     OW15313   6.387   2.175   2.354
 4805SOL    HW115314   6.371   2.086   2.312
 4805SOL    HW215315   6.395   2.165   2.453
 4806SOL     OW15316   0.737   4.237   2.868
 4806SOL    HW115317   0.756   4.324   2.913
 4806SOL    HW215318   0.817   4.211   2.812
 4807SOL     OW15319   0.732   5.018   0.188
 4807SOL    HW115320   0.731   5.044   0.285
 4807SOL    HW215321   0.827   5.007   0.158
 4808SOL     OW15322   4.826   4.976   0.533
 4808SOL    HW115323   4.759   4.948   0.602
 4808SOL    HW215324   4.857   4.897   0.481
 4809SOL     OW15325   3.480   4.593   0.350
 4809SOL    HW115326   3.408   4.659   0.368
 4809SOL    HW215327   3.558   4.609   0.411
 4810SOL     OW15328   1.793   4.656   2.450
 4810SOL    HW115329   1.815   4.573   2.398
 4810SOL    HW215330   1.698   4.653   2.479
 4811SOL     OW15331   2.596   4.206   1.585
 4811SOL    HW115332   2.674   4.195   1.646
 4811SOL    HW215333   2.606   4.145   1.507
 4812SOL     OW15334   0.333   5.290   2.221
 4812SOL    HW115335   0.338   5.192   2.203
 4812SOL    HW215336   0.414   5.319   2.271
 4813SOL     OW15337   6.378   2.163   6.980
 4813SOL    HW115338   6.281   2.170   7.003
 4813SOL    HW215339   6.391   2.090   6.913
 4814SOL     OW15340   0.130   3.488   1.179
 4814SOL    HW115341   0.112   3.403   1.228
 4814SOL    HW215342   0.096   3.565   1.234
 4815SOL     OW15343   5.407   3.753   2.506
 4815SOL    HW115344   5.440   3.664   2.474
 4815SOL    HW215345   5.464   3.826   2.468
 4816SOL     OW15346   2.237   4.800   1.071
 4816SOL    HW115347   2.205   4.802   1.166
 4816SOL    HW215348   2.292   4.717   1.056
 4817SOL     OW15349   1.612   1.523   6.300
 4817SOL    HW115350   1.529   1.568   6.267
 4817SOL    HW215351   1.681   1.525   6.228
 4818SOL     OW15352   0.868   6.555   4.579
 4818SOL    HW115353   0.921   6.629   4.537
 4818SOL    HW215354   0.926   6.503   4.641
 4819SOL     OW15355   1.541   1.700   0.512
 4819SOL    HW115356   1.574   1.670   0.602
 4819SOL    HW215357   1.545   1.799   0.507
 4820SOL     OW15358   6.340   2.625   2.666
 4820SOL    HW115359   6.398   2.707   2.670
 4820SOL    HW215360   6.284   2.620   2.748
 4821SOL     OW15361   0.542   6.552   2.433
 4821SOL    HW115362   0.598   6.622   2.478
 4821SOL    HW215363   0.559   6.555   2.334
 4822SOL     OW15364   2.068   3.537   4.567
 4822SOL    HW115365   2.134   3.488   4.624
 4822SOL    HW215366   1.975   3.509   4.592
 4823SOL     OW15367   1.946   0.657   4.336
 4823SOL    HW115368   1.951   0.582   4.269
 4823SOL    HW215369   1.872   0.719   4.310
 4824SOL     OW15370   5.318   2.100   4.343
 4824SOL    HW115371   5.348   2.032   4.410
 4824SOL    HW215372   5.375   2.094   4.262
 4825SOL     OW15373   1.520   2.503   3.961
 4825SOL    HW115374   1.594   2.442   3.990
 4825SOL    HW215375   1.475   2.464   3.881
 4826SOL     OW15376   6.247   1.410   6.528
 4826SOL    HW115377   6.229   1.417   6.430
 4826SOL    HW215378   6.173   1.453   6.579
 4827SOL     OW15379   6.501   1.671   1.084
 4827SOL    HW115380   6.596   1.643   1.097
 4827SOL    HW215381   6.444   1.589   1.071
 4828SOL     OW15382   5.304   2.872   0.450
 4828SOL    HW115383   5.400   2.867   0.479
 4828SOL    HW215384   5.245   2.846   0.526
 4829SOL     OW15385   4.395   6.956   6.606
 4829SOL    HW115386   4.386   0.035   6.596
 4829SOL    HW215387   4.306   6.918   6.631
 4830SOL     OW15388   4.276   6.825   3.675
 4830SOL    HW115389   4.254   6.769   3.595
 4830SOL    HW215390   4.214   6.803   3.750
 4831SOL     OW15391   0.109   4.554   6.232
 4831SOL    HW115392   0.036   4.514   6.288
 4831SOL    HW215393   0.068   4.616   6.164
 4832SOL     OW15394   3.579   3.350   4.408
 4832SOL    HW115395   3.483   3.376   4.399
 4832SOL    HW215396   3.599   3.328   4.503
 4833SOL     OW15397   4.611   2.310   3.362
 4833SOL    HW115398   4.647   2.219   3.344
 4833SOL    HW215399   4.568   2.312   3.452
 4834SOL     OW15400   3.547   6.511   0.973
 4834SOL    HW115401   3.569   6.557   0.887
 4834SOL    HW215402   3.630   6.478   1.016
 4835SOL     OW15403   6.060   1.483   6.708
 4835SOL    HW115404   6.042   1.386   6.725
 4835SOL    HW215405   6.033   1.537   6.788
 4836SOL     OW15406   5.468   3.013   4.389
 4836SOL    HW115407   5.421   3.057   4.465
 4836SOL    HW215408   5.567   3.031   4.395
 4837SOL     OW15409   6.313   3.738   2.921
 4837SOL    HW115410   6.377   3.729   2.844
 4837SOL    HW215411   6.363   3.758   3.005
 4838SOL     OW15412   1.065   5.222   0.021
 4838SOL    HW115413   0.996   5.291   7.018
 4838SOL    HW215414   1.019   5.137   0.047
 4839SOL     OW15415   1.893   3.580   6.837
 4839SOL    HW115416   1.990   3.604   6.825
 4839SOL    HW215417   1.844   3.598   6.752
 4840SOL     OW15418   6.893   4.867   6.031
 4840SOL    HW115419   6.984   4.827   6.024
 4840SOL    HW215420   6.835   4.834   5.957
 4841SOL     OW15421   2.788   5.630   1.873
 4841SOL    HW115422   2.780   5.584   1.961
 4841SOL    HW215423   2.877   5.610   1.833
 4842SOL     OW15424   3.615   5.149   3.186
 4842SOL    HW115425   3.584   5.063   3.143
 4842SOL    HW215426   3.679   5.195   3.124
 4843SOL     OW15427   0.037   3.321   0.934
 4843SOL    HW115428   6.970   3.278   0.956
 4843SOL    HW215429   0.068   3.375   1.012
 4844SOL     OW15430   1.217   3.219   6.226
 4844SOL    HW115431   1.308   3.257   6.245
 4844SOL    HW215432   1.205   3.211   6.127
 4845SOL     OW15433   4.991   5.477   6.098
 4845SOL    HW115434   5.033   5.387   6.085
 4845SOL    HW215435   5.059   5.540   6.136
 4846SOL     OW15436   6.982   2.900   3.980
 4846SOL    HW115437   0.036   2.870   4.039
 4846SOL    HW215438   6.899   2.913   4.035
 4847SOL     OW15439   2.694   0.981   6.527
 4847SOL    HW115440   2.740   0.939   6.449
 4847SOL    HW215441   2.756   1.046   6.571
 4848SOL     OW15442   1.469   0.832   4.077
 4848SOL    HW115443   1.548   0.846   4.016
 4848SOL    HW215444   1.415   0.915   4.080
 4849SOL     OW15445   1.350   5.604   6.955
 4849SOL    HW115446   1.396   5.640   6.874
 4849SOL    HW215447   1.251   5.609   6.943
 4850SOL     OW15448   3.786   1.289   2.011
 4850SOL    HW115449   3.817   1.344   1.934
 4850SOL    HW215450   3.860   1.282   2.078
 4851SOL     OW15451   4.247   0.201   5.738
 4851SOL    HW115452   4.262   0.226   5.833
 4851SOL    HW215453   4.307   0.125   5.713
 4852SOL     OW15454   1.621   5.780   4.935
 4852SOL    HW115455   1.545   5.844   4.932
 4852SOL    HW215456   1.593   5.692   4.896
 4853SOL     OW15457   3.427   1.148   3.314
 4853SOL    HW115458   3.355   1.163   3.247
 4853SOL    HW215459   3.423   1.219   3.385
 4854SOL     OW15460   4.346   6.758   1.085
 4854SOL    HW115461   4.423   6.749   1.022
 4854SOL    HW215462   4.316   6.854   1.087
 4855SOL     OW15463   6.197   2.774   3.762
 4855SOL    HW115464   6.104   2.804   3.781
 4855SOL    HW215465   6.195   2.693   3.704
 4856SOL     OW15466   1.129   3.300   2.887
 4856SOL    HW115467   1.107   3.208   2.854
 4856SOL    HW215468   1.109   3.307   2.984
 4857SOL     OW15469   2.935   1.832   4.819
 4857SOL    HW115470   2.973   1.740   4.826
 4857SOL    HW215471   2.891   1.857   4.906
 4858SOL     OW15472   1.005   0.247   4.275
 4858SOL    HW115473   1.020   0.303   4.194
 4858SOL    HW215474   1.066   0.278   4.348
 4859SOL     OW15475   0.902   0.059   4.520
 4859SOL    HW115476   0.975   0.121   4.491
 4859SOL    HW215477   0.828   0.111   4.562
 4860SOL     OW15478   4.378   4.401   1.634
 4860SOL    HW115479   4.392   4.330   1.703
 4860SOL    HW215480   4.352   4.359   1.547
 4861SOL     OW15481   6.061   5.355   6.910
 4861SOL    HW115482   6.035   5.336   6.815
 4861SOL    HW215483   5.987   5.326   6.971
 4862SOL     OW15484   2.273   4.516   5.055
 4862SOL    HW115485   2.254   4.424   5.019
 4862SOL    HW215486   2.366   4.518   5.093
 4863SOL     OW15487   5.344   3.781   0.934
 4863SOL    HW115488   5.403   3.768   0.854
 4863SOL    HW215489   5.335   3.694   0.983
 4864SOL     OW15490   3.857   1.018   2.550
 4864SOL    HW115491   3.834   1.057   2.639
 4864SOL    HW215492   3.957   1.020   2.537
 4865SOL     OW15493   2.085   6.455   4.089
 4865SOL    HW115494   2.139   6.514   4.030
 4865SOL    HW215495   2.143   6.418   4.161
 4866SOL     OW15496   6.364   3.955   1.592
 4866SOL    HW115497   6.450   3.984   1.551
 4866SOL    HW215498   6.338   4.018   1.665
 4867SOL     OW15499   3.966   5.324   1.897
 4867SOL    HW115500   4.057   5.304   1.934
 4867SOL    HW215501   3.947   5.261   1.822
 4868SOL     OW15502   6.627   5.107   2.944
 4868SOL    HW115503   6.642   5.184   2.882
 4868SOL    HW215504   6.712   5.086   2.992
 4869SOL     OW15505   0.959   1.060   1.493
 4869SOL    HW115506   1.039   1.032   1.439
 4869SOL    HW215507   0.876   1.046   1.439
 4870SOL     OW15508   0.135   5.904   2.003
 4870SOL    HW115509   0.047   5.862   2.025
 4870SOL    HW215510   0.207   5.860   2.058
 4871SOL     OW15511   0.946   0.835   4.645
 4871SOL    HW115512   0.942   0.920   4.698
 4871SOL    HW215513   1.038   0.796   4.652
 4872SOL     OW15514   6.501   6.324   3.823
 4872SOL    HW115515   6.524   6.420   3.841
 4872SOL    HW215516   6.514   6.304   3.726
 4873SOL     OW15517   6.452   4.839   3.605
 4873SOL    HW115518   6.512   4.838   3.685
 4873SOL    HW215519   6.430   4.933   3.580
 4874SOL     OW15520   6.151   2.834   3.224
 4874SOL    HW115521   6.151   2.917   3.169
 4874SOL    HW215522   6.198   2.852   3.311
 4875SOL     OW15523   5.597   2.745   1.224
 4875SOL    HW115524   5.501   2.716   1.232
 4875SOL    HW215525   5.625   2.790   1.309
 4876SOL     OW15526   5.732   1.643   4.094
 4876SOL    HW115527   5.776   1.568   4.045
 4876SOL    HW215528   5.760   1.642   4.190
 4877SOL     OW15529   1.205   2.119   6.602
 4877SOL    HW115530   1.236   2.037   6.651
 4877SOL    HW215531   1.279   2.185   6.597
 4878SOL     OW15532   6.644   0.269   2.975
 4878SOL    HW115533   6.704   0.294   3.050
 4878SOL    HW215534   6.609   0.177   2.990
 4879SOL     OW15535   4.355   5.780   3.024
 4879SOL    HW115536   4.373   5.807   3.119
 4879SOL    HW215537   4.333   5.683   3.021
 4880SOL     OW15538   5.636   3.477   0.192
 4880SOL    HW115539   5.709   3.514   0.250
 4880SOL    HW215540   5.605   3.390   0.229
 4881SOL     OW15541   1.696   0.815   6.170
 4881SOL    HW115542   1.721   0.847   6.261
 4881SOL    HW215543   1.662   0.721   6.175
 4882SOL     OW15544   5.139   1.493   4.810
 4882SOL    HW115545   5.097   1.402   4.815
 4882SOL    HW215546   5.220   1.495   4.869
 4883SOL     OW15547   5.631   4.250   1.659
 4883SOL    HW115548   5.682   4.218   1.579
 4883SOL    HW215549   5.635   4.350   1.662
 4884SOL     OW15550   3.044   0.045   1.433
 4884SOL    HW115551   3.117   0.104   1.467
 4884SOL    HW215552   3.069   0.011   1.343
 4885SOL     OW15553   1.569   5.146   2.718
 4885SOL    HW115554   1.664   5.177   2.722
 4885SOL    HW215555   1.565   5.047   2.722
 4886SOL     OW15556   0.703   5.595   0.854
 4886SOL    HW115557   0.784   5.567   0.801
 4886SOL    HW215558   0.731   5.615   0.948
 4887SOL     OW15559   0.710   0.644   2.662
 4887SOL    HW115560   0.785   0.693   2.617
 4887SOL    HW215561   0.631   0.704   2.669
 4888SOL     OW15562   2.173   6.658   4.473
 4888SOL    HW115563   2.113   6.733   4.445
 4888SOL    HW215564   2.229   6.630   4.396
 4889SOL     OW15565   6.463   1.115   6.243
 4889SOL    HW115566   6.503   1.039   6.191
 4889SOL    HW215567   6.364   1.107   6.244
 4890SOL     OW15568   1.141   2.113   6.905
 4890SOL    HW115569   1.068   2.163   6.859
 4890SOL    HW215570   1.106   2.023   6.934
 4891SOL     OW15571   1.748   4.989   6.820
 4891SOL    HW115572   1.831   4.953   6.865
 4891SOL    HW215573   1.674   4.923   6.831
 4892SOL     OW15574   3.542   6.371   1.968
 4892SOL    HW115575   3.501   6.352   1.879
 4892SOL    HW215576   3.593   6.290   1.999
 4893SOL     OW15577   6.667   3.908   1.528
 4893SOL    HW115578   6.647   3.921   1.431
 4893SOL    HW215579   6.647   3.992   1.578
 4894SOL     OW15580   2.237   1.617   3.036
 4894SOL    HW115581   2.174   1.683   3.076
 4894SOL    HW215582   2.322   1.663   3.010
 4895SOL     OW15583   0.562   5.073   3.384
 4895SOL    HW115584   0.586   4.976   3.372
 4895SOL    HW215585   0.636   5.119   3.433
 4896SOL     OW15586   1.768   5.735   2.389
 4896SOL    HW115587   1.683   5.783   2.368
 4896SOL    HW215588   1.837   5.758   2.321
 4897SOL     OW15589   3.088   4.034   6.333
 4897SOL    HW115590   3.012   4.091   6.363
 4897SOL    HW215591   3.163   4.042   6.400
 4898SOL     OW15592   3.342   1.021   4.194
 4898SOL    HW115593   3.431   0.989   4.226
 4898SOL    HW215594   3.342   1.026   4.094
 4899SOL     OW15595   6.342   5.154   2.979
 4899SOL    HW115596   6.315   5.148   2.883
 4899SOL    HW215597   6.440   5.132   2.987
 4900SOL     OW15598   2.063   5.810   4.510
 4900SOL    HW115599   2.101   5.807   4.603
 4900SOL    HW215600   2.138   5.815   4.444
 4901SOL     OW15601   3.271   6.591   5.991
 4901SOL    HW115602   3.221   6.628   6.070
 4901SOL    HW215603   3.311   6.503   6.015
 4902SOL     OW15604   2.730   1.914   4.347
 4902SOL    HW115605   2.674   1.966   4.283
 4902SOL    HW215606   2.781   1.977   4.405
 4903SOL     OW15607   3.503   6.237   6.585
 4903SOL    HW115608   3.546   6.244   6.675
 4903SOL    HW215609   3.540   6.157   6.537
 4904SOL     OW15610   1.810   0.073   4.149
 4904SOL    HW115611   1.790   7.003   4.188
 4904SOL    HW215612   1.892   0.067   4.092
 4905SOL     OW15613   4.058   0.399   2.223
 4905SOL    HW115614   4.064   0.324   2.288
 4905SOL    HW215615   4.040   0.484   2.272
 4906SOL     OW15616   4.820   1.907   5.460
 4906SOL    HW115617   4.846   1.991   5.508
 4906SOL    HW215618   4.820   1.924   5.361
 4907SOL     OW15619   4.429   6.305   0.995
 4907SOL    HW115620   4.383   6.371   0.936
 4907SOL    HW215621   4.362   6.260   1.054
 4908SOL     OW15622   4.914   4.862   6.867
 4908SOL    HW115623   4.937   4.943   6.814
 4908SOL    HW215624   4.950   4.780   6.822
 4909SOL     OW15625   6.587   0.434   4.432
 4909SOL    HW115626   6.548   0.342   4.423
 4909SOL    HW215627   6.584   0.462   4.528
 4910SOL     OW15628   5.208   6.815   4.657
 4910SOL    HW115629   5.134   6.768   4.609
 4910SOL    HW215630   5.173   6.857   4.741
 4911SOL     OW15631   0.985   3.461   4.187
 4911SOL    HW115632   1.038   3.391   4.235
 4911SOL    HW215633   0.936   3.419   4.111
 4912SOL     OW15634   5.645   1.357   6.801
 4912SOL    HW115635   5.566   1.353   6.740
 4912SOL    HW215636   5.645   1.278   6.862
 4913SOL     OW15637   4.176   3.242   5.278
 4913SOL    HW115638   4.121   3.257   5.360
 4913SOL    HW215639   4.240   3.167   5.293
 4914SOL     OW15640   3.447   6.938   4.975
 4914SOL    HW115641   3.451   7.016   4.913
 4914SOL    HW215642   3.353   6.924   5.006
 4915SOL     OW15643   4.390   0.526   4.655
 4915SOL    HW115644   4.407   0.429   4.673
 4915SOL    HW215645   4.294   0.539   4.631
 4916SOL     OW15646   1.459   0.571   4.015
 4916SOL    HW115647   1.542   0.571   3.960
 4916SOL    HW215648   1.443   0.663   4.052
 4917SOL     OW15649   2.168   4.828   1.343
 4917SOL    HW115650   2.105   4.787   1.409
 4917SOL    HW215651   2.262   4.802   1.367
 4918SOL     OW15652   4.096   5.938   2.199
 4918SOL    HW115653   4.136   5.875   2.133
 4918SOL    HW215654   4.066   6.021   2.151
 4919SOL     OW15655   3.089   2.251   6.920
 4919SOL    HW115656   3.084   2.334   6.976
 4919SOL    HW215657   2.999   2.205   6.920
 4920SOL     OW15658   5.706   0.716   4.970
 4920SOL    HW115659   5.627   0.751   5.020
 4920SOL    HW215660   5.706   0.616   4.973
 4921SOL     OW15661   1.527   4.400   0.574
 4921SOL    HW115662   1.540   4.499   0.569
 4921SOL    HW215663   1.495   4.374   0.665
 4922SOL     OW15664   1.942   2.493   4.659
 4922SOL    HW115665   1.883   2.533   4.589
 4922SOL    HW215666   2.030   2.468   4.619
 4923SOL     OW15667   3.887   1.703   1.492
 4923SOL    HW115668   3.986   1.689   1.485
 4923SOL    HW215669   3.852   1.744   1.408
 4924SOL     OW15670   2.801   1.932   5.595
 4924SOL    HW115671   2.811   2.010   5.532
 4924SOL    HW215672   2.877   1.931   5.659
 4925SOL     OW15673   6.074   6.298   1.923
 4925SOL    HW115674   5.990   6.310   1.870
 4925SOL    HW215675   6.149   6.274   1.861
 4926SOL     OW15676   5.656   1.645   0.436
 4926SOL    HW115677   5.718   1.569   0.415
 4926SOL    HW215678   5.686   1.727   0.388
 4927SOL     OW15679   4.019   3.820   4.332
 4927SOL    HW115680   4.116   3.839   4.347
 4927SOL    HW215681   3.995   3.842   4.238
 4928SOL     OW15682   1.439   0.243   6.549
 4928SOL    HW115683   1.394   0.271   6.634
 4928SOL    HW215684   1.371   0.231   6.477
 4929SOL     OW15685   0.813   5.154   4.577
 4929SOL    HW115686   0.802   5.088   4.651
 4929SOL    HW215687   0.792   5.246   4.610
 4930SOL     OW15688   4.701   0.963   3.281
 4930SOL    HW115689   4.622   0.906   3.259
 4930SOL    HW215690   4.699   0.987   3.378
 4931SOL     OW15691   6.859   0.150   0.670
 4931SOL    HW115692   6.798   0.071   0.658
 4931SOL    HW215693   6.815   0.232   0.633
 4932SOL     OW15694   2.553   3.425   1.668
 4932SOL    HW115695   2.486   3.430   1.741
 4932SOL    HW215696   2.507   3.422   1.579
 4933SOL     OW15697   2.087   0.059   3.131
 4933SOL    HW115698   2.155   7.007   3.125
 4933SOL    HW215699   2.132   0.147   3.144
 4934SOL     OW15700   2.631   5.676   3.094
 4934SOL    HW115701   2.556   5.673   3.160
 4934SOL    HW215702   2.674   5.586   3.089
 4935SOL     OW15703   1.393   1.164   6.007
 4935SOL    HW115704   1.360   1.189   6.098
 4935SOL    HW215705   1.383   1.243   5.945
 4936SOL     OW15706   2.350   5.012   1.868
 4936SOL    HW115707   2.437   5.061   1.875
 4936SOL    HW215708   2.363   4.916   1.893
 4937SOL     OW15709   6.914   2.723   6.515
 4937SOL    HW115710   6.884   2.817   6.533
 4937SOL    HW215711   7.010   2.723   6.490
 4938SOL     OW15712   2.333   6.332   5.945
 4938SOL    HW115713   2.392   6.371   6.016
 4938SOL    HW215714   2.374   6.346   5.855
 4939SOL     OW15715   6.374   1.922   4.088
 4939SOL    HW115716   6.397   2.013   4.123
 4939SOL    HW215717   6.456   1.879   4.051
 4940SOL     OW15718   0.504   0.784   4.764
 4940SOL    HW115719   0.553   0.848   4.824
 4940SOL    HW215720   0.455   0.717   4.820
 4941SOL     OW15721   5.008   2.461   5.088
 4941SOL    HW115722   5.051   2.371   5.084
 4941SOL    HW215723   4.928   2.462   5.027
 4942SOL     OW15724   5.514   3.377   6.201
 4942SOL    HW115725   5.559   3.329   6.277
 4942SOL    HW215726   5.567   3.364   6.117
 4943SOL     OW15727   4.260   3.663   5.991
 4943SOL    HW115728   4.322   3.589   5.967
 4943SOL    HW215729   4.248   3.724   5.913
 4944SOL     OW15730   2.498   4.434   1.682
 4944SOL    HW115731   2.513   4.341   1.648
 4944SOL    HW215732   2.576   4.491   1.658
 4945SOL     OW15733   1.312   0.326   4.570
 4945SOL    HW115734   1.282   0.355   4.479
 4945SOL    HW215735   1.243   0.267   4.611
 4946SOL     OW15736   1.424   5.140   0.178
 4946SOL    HW115737   1.471   5.140   0.266
 4946SOL    HW215738   1.462   5.212   0.120
 4947SOL     OW15739   2.401   0.328   0.587
 4947SOL    HW115740   2.382   0.308   0.491
 4947SOL    HW215741   2.315   0.351   0.634
 4948SOL     OW15742   1.467   3.034   2.520
 4948SOL    HW115743   1.401   2.964   2.495
 4948SOL    HW215744   1.430   3.124   2.499
 4949SOL     OW15745   5.927   5.213   5.671
 4949SOL    HW115746   5.983   5.131   5.661
 4949SOL    HW215747   5.840   5.189   5.713
 4950SOL     OW15748   1.976   5.413   4.409
 4950SOL    HW115749   1.989   5.326   4.456
 4950SOL    HW215750   1.942   5.396   4.316
 4951SOL     OW15751   5.937   0.881   5.024
 4951SOL    HW115752   6.008   0.840   4.967
 4951SOL    HW215753   5.848   0.845   4.996
 4952SOL     OW15754   0.454   0.903   5.823
 4952SOL    HW115755   0.356   0.881   5.825
 4952SOL    HW215756   0.504   0.828   5.780
 4953SOL     OW15757   1.772   6.897   3.032
 4953SOL    HW115758   1.800   6.981   2.985
 4953SOL    HW215759   1.808   6.818   2.982
 4954SOL     OW15760   3.702   3.128   0.308
 4954SOL    HW115761   3.728   3.203   0.246
 4954SOL    HW215762   3.654   3.058   0.256
 4955SOL     OW15763   3.136   6.425   7.010
 4955SOL    HW115764   3.038   6.404   7.007
 4955SOL    HW215765   3.186   6.357   6.956
 4956SOL     OW15766   2.104   6.981   5.204
 4956SOL    HW115767   2.040   6.909   5.228
 4956SOL    HW215768   2.197   6.945   5.204
 4957SOL     OW15769   5.483   2.406   1.697
 4957SOL    HW115770   5.492   2.375   1.792
 4957SOL    HW215771   5.532   2.343   1.637
 4958SOL     OW15772   0.250   5.056   5.803
 4958SOL    HW115773   0.153   5.031   5.797
 4958SOL    HW215774   0.303   4.997   5.743
 4959SOL     OW15775   5.929   1.782   0.172
 4959SOL    HW115776   5.910   1.697   0.123
 4959SOL    HW215777   6.018   1.776   0.217
 4960SOL     OW15778   3.334   4.987   3.387
 4960SOL    HW115779   3.319   4.967   3.290
 4960SOL    HW215780   3.399   5.062   3.396
 4961SOL     OW15781   4.216   1.179   5.775
 4961SOL    HW115782   4.234   1.090   5.817
 4961SOL    HW215783   4.271   1.249   5.821
 4962SOL     OW15784   5.726   2.329   0.352
 4962SOL    HW115785   5.752   2.257   0.416
 4962SOL    HW215786   5.787   2.326   0.272
 4963SOL     OW15787   6.501   5.969   0.543
 4963SOL    HW115788   6.467   5.982   0.636
 4963SOL    HW215789   6.496   5.872   0.519
 4964SOL     OW15790   2.917   0.429   3.942
 4964SOL    HW115791   2.863   0.349   3.915
 4964SOL    HW215792   3.005   0.426   3.895
 4965SOL     OW15793   0.389   1.070   2.150
 4965SOL    HW115794   0.379   0.975   2.121
 4965SOL    HW215795   0.467   1.111   2.104
 4966SOL     OW15796   2.322   6.734   5.319
 4966SOL    HW115797   2.289   6.812   5.373
 4966SOL    HW215798   2.414   6.754   5.285
 4967SOL     OW15799   4.127   5.318   5.183
 4967SOL    HW115800   4.188   5.393   5.210
 4967SOL    HW215801   4.114   5.319   5.084
 4968SOL     OW15802   6.610   1.723   4.085
 4968SOL    HW115803   6.673   1.646   4.101
 4968SOL    HW215804   6.617   1.751   3.989
 4969SOL     OW15805   2.829   5.820   2.953
 4969SOL    HW115806   2.776   5.753   3.006
 4969SOL    HW215807   2.785   5.910   2.960
 4970SOL     OW15808   2.373   2.636   2.735
 4970SOL    HW115809   2.300   2.620   2.670
 4970SOL    HW215810   2.355   2.720   2.787
 4971SOL     OW15811   6.209   5.652   3.621
 4971SOL    HW115812   6.129   5.637   3.564
 4971SOL    HW215813   6.190   5.726   3.687
 4972SOL     OW15814   1.113   3.740   0.738
 4972SOL    HW115815   1.027   3.790   0.724
 4972SOL    HW215816   1.178   3.766   0.667
 4973SOL     OW15817   1.729   6.395   2.406
 4973SOL    HW115818   1.740   6.296   2.405
 4973SOL    HW215819   1.644   6.421   2.360
 4974SOL     OW15820   6.172   4.356   1.084
 4974SOL    HW115821   6.159   4.263   1.049
 4974SOL    HW215822   6.120   4.420   1.028
 4975SOL     OW15823   6.028   3.689   5.491
 4975SOL    HW115824   6.006   3.720   5.399
 4975SOL    HW215825   5.971   3.611   5.515
 4976SOL     OW15826   1.679   1.088   3.771
 4976SOL    HW115827   1.762   1.142   3.756
 4976SOL    HW215828   1.637   1.066   3.683
 4977SOL     OW15829   3.983   4.905   0.261
 4977SOL    HW115830   4.015   4.984   0.314
 4977SOL    HW215831   4.016   4.912   0.167
 4978SOL     OW15832   6.928   3.926   4.832
 4978SOL    HW115833   6.941   3.829   4.812
 4978SOL    HW215834   6.856   3.937   4.901
 4979SOL     OW15835   0.072   7.001   6.667
 4979SOL    HW115836   0.087   6.916   6.617
 4979SOL    HW215837   0.007   6.986   6.741
 4980SOL     OW15838   5.241   6.198   3.353
 4980SOL    HW115839   5.296   6.246   3.284
 4980SOL    HW215840   5.246   6.099   3.337
 4981SOL     OW15841   4.680   5.759   0.247
 4981SOL    HW115842   4.649   5.783   0.155
 4981SOL    HW215843   4.779   5.772   0.253
 4982SOL     OW15844   2.874   1.128   5.577
 4982SOL    HW115845   2.818   1.107   5.657
 4982SOL    HW215846   2.970   1.106   5.596
 4983SOL     OW15847   5.949   3.488   4.677
 4983SOL    HW115848   6.036   3.449   4.708
 4983SOL    HW215849   5.955   3.588   4.678
 4984SOL     OW15850   5.609   3.902   3.271
 4984SOL    HW115851   5.583   3.961   3.194
 4984SOL    HW215852   5.657   3.821   3.235
 4985SOL     OW15853   6.206   6.751   3.511
 4985SOL    HW115854   6.161   6.676   3.463
 4985SOL    HW215855   6.232   6.722   3.603
 4986SOL     OW15856   6.846   4.361   1.881
 4986SOL    HW115857   6.852   4.263   1.900
 4986SOL    HW215858   6.808   4.374   1.789
 4987SOL     OW15859   1.531   0.835   2.247
 4987SOL    HW115860   1.579   0.790   2.171
 4987SOL    HW215861   1.497   0.924   2.216
 4988SOL     OW15862   5.354   0.603   2.588
 4988SOL    HW115863   5.384   0.696   2.609
 4988SOL    HW215864   5.255   0.598   2.596
 4989SOL     OW15865   5.161   0.191   1.445
 4989SOL    HW115866   5.146   0.104   1.399
 4989SOL    HW215867   5.238   0.238   1.404
 4990SOL     OW15868   2.551   1.815   5.554
 4990SOL    HW115869   2.641   1.846   5.583
 4990SOL    HW215870   2.559   1.759   5.472
 4991SOL     OW15871   6.083   5.309   4.152
 4991SOL    HW115872   6.114   5.227   4.199
 4991SOL    HW215873   6.081   5.292   4.053
 4992SOL     OW15874   5.074   1.159   3.711
 4992SOL    HW115875   5.100   1.214   3.631
 4992SOL    HW215876   5.118   1.197   3.793
 4993SOL     OW15877   2.460   5.835   4.008
 4993SOL    HW115878   2.367   5.828   3.971
 4993SOL    HW215879   2.460   5.901   4.083
 4994SOL     OW15880   1.541   0.307   3.387
 4994SOL    HW115881   1.449   0.275   3.412
 4994SOL    HW215882   1.580   0.360   3.462
 4995SOL     OW15883   0.242   1.942   5.890
 4995SOL    HW115884   0.172   1.966   5.956
 4995SOL    HW215885   0.216   1.859   5.841
 4996SOL     OW15886   1.082   1.309   2.624
 4996SOL    HW115887   1.179   1.303   2.646
 4996SOL    HW215888   1.044   1.393   2.663
 4997SOL     OW15889   5.432   2.623   2.699
 4997SOL    HW115890   5.471   2.541   2.658
 4997SOL    HW215891   5.367   2.597   2.771
 4998SOL     OW15892   2.211   4.280   4.943
 4998SOL    HW115893   2.251   4.193   4.971
 4998SOL    HW215894   2.112   4.269   4.932
 4999SOL     OW15895   6.411   3.454   0.384
 4999SOL    HW115896   6.509   3.469   0.397
 4999SOL    HW215897   6.396   3.403   0.300
 5000SOL     OW15898   2.711   6.887   3.355
 5000SOL    HW115899   2.649   6.818   3.316
 5000SOL    HW215900   2.780   6.842   3.411
 5001SOL     OW15901   0.422   4.064   0.804
 5001SOL    HW115902   0.447   3.995   0.872
 5001SOL    HW215903   0.466   4.042   0.717
 5002SOL     OW15904   0.772   3.728   3.349
 5002SOL    HW115905   0.693   3.743   3.409
 5002SOL    HW215906   0.815   3.816   3.329
 5003SOL     OW15907   2.766   6.205   2.666
 5003SOL    HW115908   2.732   6.154   2.744
 5003SOL    HW215909   2.727   6.297   2.667
 5004SOL     OW15910   3.482   5.164   6.310
 5004SOL    HW115911   3.398   5.192   6.264
 5004SOL    HW215912   3.560   5.175   6.248
 5005SOL     OW15913   3.260   2.573   0.688
 5005SOL    HW115914   3.322   2.497   0.706
 5005SOL    HW215915   3.200   2.550   0.611
 5006SOL     OW15916   5.446   0.508   0.502
 5006SOL    HW115917   5.512   0.542   0.569
 5006SOL    HW215918   5.388   0.582   0.470
 5007SOL     OW15919   1.173   6.906   0.393
 5007SOL    HW115920   1.088   6.925   0.442
 5007SOL    HW215921   1.181   6.968   0.315
 5008SOL     OW15922   6.739   6.591   2.455
 5008SOL    HW115923   6.686   6.509   2.434
 5008SOL    HW215924   6.754   6.597   2.554
 5009SOL     OW15925   0.620   0.061   0.975
 5009SOL    HW115926   0.568   0.043   1.059
 5009SOL    HW215927   0.645   0.157   0.971
 5010SOL     OW15928   3.836   3.674   2.744
 5010SOL    HW115929   3.926   3.659   2.701
 5010SOL    HW215930   3.800   3.586   2.776
 5011SOL     OW15931   1.739   3.828   2.410
 5011SOL    HW115932   1.763   3.732   2.423
 5011SOL    HW215933   1.788   3.864   2.331
 5012SOL     OW15934   5.892   4.210   5.794
 5012SOL    HW115935   5.958   4.135   5.805
 5012SOL    HW215936   5.938   4.289   5.754
 5013SOL     OW15937   5.255   1.701   6.549
 5013SOL    HW115938   5.165   1.709   6.593
 5013SOL    HW215939   5.303   1.622   6.587
 5014SOL     OW15940   5.287   4.279   0.537
 5014SOL    HW115941   5.304   4.218   0.460
 5014SOL    HW215942   5.282   4.225   0.621
 5015SOL     OW15943   4.600   1.848   4.113
 5015SOL    HW115944   4.596   1.831   4.212
 5015SOL    HW215945   4.570   1.767   4.064
 5016SOL     OW15946   1.856   2.133   0.617
 5016SOL    HW115947   1.766   2.090   0.615
 5016SOL    HW215948   1.922   2.075   0.569
 5017SOL     OW15949   2.137   2.527   0.042
 5017SOL    HW115950   2.160   2.460   6.991
 5017SOL    HW215951   2.095   2.608   7.020
 5018SOL     OW15952   6.966   4.118   2.179
 5018SOL    HW115953   0.022   4.181   2.192
 5018SOL    HW215954   6.960   4.057   2.259
 5019SOL     OW15955   1.425   4.778   6.370
 5019SOL    HW115956   1.465   4.868   6.349
 5019SOL    HW215957   1.497   4.708   6.366
 5020SOL     OW15958   5.113   0.380   6.783
 5020SOL    HW115959   5.134   0.391   6.686
 5020SOL    HW215960   5.018   0.405   6.800
 5021SOL     OW15961   1.182   1.575   6.011
 5021SOL    HW115962   1.261   1.603   6.067
 5021SOL    HW215963   1.205   1.492   5.960
 5022SOL     OW15964   1.156   1.734   6.773
 5022SOL    HW115965   1.165   1.644   6.815
 5022SOL    HW215966   1.091   1.789   6.825
 5023SOL     OW15967   6.379   2.821   1.536
 5023SOL    HW115968   6.348   2.914   1.560
 5023SOL    HW215969   6.432   2.825   1.452
 5024SOL     OW15970   5.317   5.622   1.819
 5024SOL    HW115971   5.304   5.716   1.788
 5024SOL    HW215972   5.387   5.577   1.764
 5025SOL     OW15973   3.133   1.571   1.861
 5025SOL    HW115974   3.197   1.511   1.909
 5025SOL    HW215975   3.095   1.638   1.925
 5026SOL     OW15976   6.233   5.633   5.853
 5026SOL    HW115977   6.235   5.709   5.789
 5026SOL    HW215978   6.186   5.661   5.937
 5027SOL     OW15979   0.340   6.040   2.307
 5027SOL    HW115980   0.439   6.035   2.318
 5027SOL    HW215981   0.308   5.960   2.255
 5028SOL     OW15982   0.659   1.420   3.015
 5028SOL    HW115983   0.566   1.448   3.038
 5028SOL    HW215984   0.715   1.419   3.098
 5029SOL     OW15985   6.956   2.606   2.791
 5029SOL    HW115986   6.883   2.663   2.829
 5029SOL    HW215987   6.967   2.626   2.693
 5030SOL     OW15988   0.173   6.518   6.824
 5030SOL    HW115989   0.094   6.479   6.871
 5030SOL    HW215990   0.216   6.448   6.767
 5031SOL     OW15991   5.935   0.220   5.190
 5031SOL    HW115992   5.871   0.223   5.266
 5031SOL    HW215993   6.002   0.148   5.205
 5032SOL     OW15994   1.667   2.836   1.222
 5032SOL    HW115995   1.581   2.840   1.272
 5032SOL    HW215996   1.716   2.753   1.246
 5033SOL     OW15997   2.835   6.208   5.676
 5033SOL    HW115998   2.924   6.166   5.692
 5033SOL    HW215999   2.846   6.307   5.666
 5034SOL     OW16000   4.792   0.950   2.852
 5034SOL    HW116001   4.716   0.990   2.903
 5034SOL    HW216002   4.757   0.892   2.779
 5035SOL     OW16003   0.690   4.542   0.193
 5035SOL    HW116004   0.778   4.539   0.145
 5035SOL    HW216005   0.704   4.514   0.288
 5036SOL     OW16006   0.169   4.913   0.160
 5036SOL    HW116007   0.216   4.992   0.120
 5036SOL    HW216008   0.071   4.931   0.165
 5037SOL     OW16009   5.504   2.840   3.321
 5037SOL    HW116010   5.413   2.823   3.359
 5037SOL    HW216011   5.573   2.795   3.378
 5038SOL     OW16012   1.906   3.903   6.463
 5038SOL    HW116013   1.890   3.875   6.369
 5038SOL    HW216014   1.938   3.998   6.464
 5039SOL     OW16015   3.039   4.238   5.243
 5039SOL    HW116016   3.008   4.334   5.238
 5039SOL    HW216017   2.975   4.181   5.192
 5040SOL     OW16018   2.200   5.367   6.283
 5040SOL    HW116019   2.109   5.328   6.280
 5040SOL    HW216020   2.264   5.309   6.231
 5041SOL     OW16021   1.782   1.659   1.710
 5041SOL    HW116022   1.811   1.564   1.726
 5041SOL    HW216023   1.791   1.681   1.613
 5042SOL     OW16024   6.400   3.356   0.666
 5042SOL    HW116025   6.322   3.307   0.626
 5042SOL    HW216026   6.448   3.406   0.593
 5043SOL     OW16027   3.462   0.567   5.881
 5043SOL    HW116028   3.409   0.565   5.966
 5043SOL    HW216029   3.440   0.650   5.830
 5044SOL     OW16030   0.440   6.539   0.784
 5044SOL    HW116031   0.413   6.536   0.688
 5044SOL    HW216032   0.431   6.632   0.819
 5045SOL     OW16033   5.670   1.926   6.542
 5045SOL    HW116034   5.696   1.834   6.571
 5045SOL    HW216035   5.572   1.928   6.521
 5046SOL     OW16036   3.311   4.142   3.223
 5046SOL    HW116037   3.342   4.141   3.318
 5046SOL    HW216038   3.230   4.085   3.213
 5047SOL     OW16039   6.751   3.203   2.779
 5047SOL    HW116040   6.692   3.152   2.841
 5047SOL    HW216041   6.748   3.163   2.688
 5048SOL     OW16042   0.633   0.669   2.232
 5048SOL    HW116043   0.604   0.726   2.155
 5048SOL    HW216044   0.696   0.720   2.290
 5049SOL     OW16045   6.201   1.658   5.365
 5049SOL    HW116046   6.245   1.725   5.424
 5049SOL    HW216047   6.133   1.607   5.418
 5050SOL     OW16048   1.528   0.467   1.393
 5050SOL    HW116049   1.429   0.457   1.378
 5050SOL    HW216050   1.555   0.408   1.469
 5051SOL     OW16051   4.979   4.668   1.088
 5051SOL    HW116052   5.003   4.619   1.171
 5051SOL    HW216053   4.957   4.763   1.109
 5052SOL     OW16054   2.232   6.792   6.412
 5052SOL    HW116055   2.261   6.713   6.466
 5052SOL    HW216056   2.132   6.795   6.410
 5053SOL     OW16057   2.198   4.050   2.780
 5053SOL    HW116058   2.141   4.000   2.844
 5053SOL    HW216059   2.244   4.125   2.827
 5054SOL     OW16060   3.303   6.341   4.728
 5054SOL    HW116061   3.328   6.246   4.747
 5054SOL    HW216062   3.359   6.376   4.653
 5055SOL     OW16063   1.783   0.662   5.562
 5055SOL    HW116064   1.733   0.626   5.641
 5055SOL    HW216065   1.754   0.613   5.479
 5056SOL     OW16066   6.701   4.475   0.715
 5056SOL    HW116067   6.660   4.489   0.624
 5056SOL    HW216068   6.752   4.390   0.715
 5057SOL     OW16069   6.345   6.137   5.284
 5057SOL    HW116070   6.375   6.224   5.325
 5057SOL    HW216071   6.250   6.120   5.310
 5058SOL     OW16072   2.702   3.121   5.326
 5058SOL    HW116073   2.618   3.098   5.278
 5058SOL    HW216074   2.692   3.211   5.370
 5059SOL     OW16075   5.853   2.324   3.239
 5059SOL    HW116076   5.792   2.258   3.284
 5059SOL    HW216077   5.907   2.371   3.308
 5060SOL     OW16078   0.792   1.669   5.323
 5060SOL    HW116079   0.877   1.620   5.340
 5060SOL    HW216080   0.719   1.603   5.307
 5061SOL     OW16081   3.755   3.471   3.072
 5061SOL    HW116082   3.799   3.556   3.102
 5061SOL    HW216083   3.814   3.424   3.006
 5062SOL     OW16084   5.293   0.620   3.286
 5062SOL    HW116085   5.392   0.632   3.292
 5062SOL    HW216086   5.254   0.690   3.227
 5063SOL     OW16087   1.172   0.177   2.209
 5063SOL    HW116088   1.236   0.132   2.271
 5063SOL    HW216089   1.082   0.185   2.252
 5064SOL     OW16090   4.677   3.907   1.621
 5064SOL    HW116091   4.601   3.972   1.625
 5064SOL    HW216092   4.708   3.887   1.714
 5065SOL     OW16093   1.592   2.076   4.150
 5065SOL    HW116094   1.589   2.016   4.070
 5065SOL    HW216095   1.563   2.168   4.123
 5066SOL     OW16096   3.848   4.673   1.021
 5066SOL    HW116097   3.864   4.585   0.977
 5066SOL    HW216098   3.812   4.658   1.113
 5067SOL     OW16099   3.153   0.963   2.810
 5067SOL    HW116100   3.090   0.894   2.848
 5067SOL    HW216101   3.109   1.009   2.733
 5068SOL     OW16102   2.927   5.118   6.637
 5068SOL    HW116103   2.904   5.183   6.564
 5068SOL    HW216104   2.980   5.043   6.598
 5069SOL     OW16105   2.110   3.155   5.430
 5069SOL    HW116106   2.153   3.068   5.405
 5069SOL    HW216107   2.158   3.230   5.385
 5070SOL     OW16108   4.672   4.325   4.159
 5070SOL    HW116109   4.652   4.380   4.241
 5070SOL    HW216110   4.683   4.230   4.186
 5071SOL     OW16111   4.037   1.192   3.215
 5071SOL    HW116112   3.977   1.251   3.269
 5071SOL    HW216113   4.014   1.200   3.118
 5072SOL     OW16114   1.109   0.959   1.706
 5072SOL    HW116115   1.023   0.993   1.669
 5072SOL    HW216116   1.182   1.024   1.687
 5073SOL     OW16117   1.199   4.760   1.414
 5073SOL    HW116118   1.285   4.721   1.380
 5073SOL    HW216119   1.127   4.747   1.346
 5074SOL     OW16120   3.141   2.332   1.436
 5074SOL    HW116121   3.091   2.369   1.514
 5074SOL    HW216122   3.080   2.272   1.383
 5075SOL     OW16123   1.255   2.401   6.082
 5075SOL    HW116124   1.228   2.386   6.177
 5075SOL    HW216125   1.282   2.315   6.040
 5076SOL     OW16126   5.102   0.764   0.827
 5076SOL    HW116127   5.080   0.667   0.837
 5076SOL    HW216128   5.116   0.804   0.917
 5077SOL     OW16129   2.169   4.426   5.694
 5077SOL    HW116130   2.269   4.417   5.687
 5077SOL    HW216131   2.126   4.338   5.670
 5078SOL     OW16132   0.150   1.059   3.835
 5078SOL    HW116133   0.133   1.149   3.875
 5078SOL    HW216134   0.248   1.047   3.820
 5079SOL     OW16135   2.218   3.354   4.729
 5079SOL    HW116136   2.318   3.358   4.725
 5079SOL    HW216137   2.190   3.273   4.781
 5080SOL     OW16138   5.801   6.725   6.354
 5080SOL    HW116139   5.721   6.785   6.354
 5080SOL    HW216140   5.772   6.631   6.367
 5081SOL     OW16141   3.573   3.551   5.064
 5081SOL    HW116142   3.523   3.526   5.147
 5081SOL    HW216143   3.508   3.563   4.989
 5082SOL     OW16144   5.206   5.378   1.696
 5082SOL    HW116145   5.144   5.353   1.622
 5082SOL    HW216146   5.205   5.477   1.709
 5083SOL     OW16147   2.496   0.307   2.802
 5083SOL    HW116148   2.447   0.240   2.746
 5083SOL    HW216149   2.438   0.336   2.878
 5084SOL     OW16150   0.493   4.253   4.174
 5084SOL    HW116151   0.401   4.215   4.183
 5084SOL    HW216152   0.552   4.214   4.245
 5085SOL     OW16153   6.177   2.557   6.266
 5085SOL    HW116154   6.252   2.586   6.206
 5085SOL    HW216155   6.132   2.637   6.304
 5086SOL     OW16156   1.211   5.339   2.975
 5086SOL    HW116157   1.130   5.304   3.022
 5086SOL    HW216158   1.290   5.284   2.999
 5087SOL     OW16159   1.824   5.507   3.206
 5087SOL    HW116160   1.773   5.563   3.141
 5087SOL    HW216161   1.786   5.519   3.298
 5088SOL     OW16162   5.971   0.338   4.253
 5088SOL    HW116163   5.906   0.329   4.178
 5088SOL    HW216164   6.038   0.410   4.231
 5089SOL     OW16165   5.783   3.739   3.963
 5089SOL    HW116166   5.810   3.795   4.042
 5089SOL    HW216167   5.800   3.643   3.983
 5090SOL     OW16168   2.117   3.654   2.492
 5090SOL    HW116169   2.135   3.746   2.528
 5090SOL    HW216170   2.151   3.648   2.398
 5091SOL     OW16171   0.140   1.326   1.176
 5091SOL    HW116172   0.204   1.255   1.206
 5091SOL    HW216173   0.047   1.290   1.177
 5092SOL     OW16174   3.559   3.807   3.210
 5092SOL    HW116175   3.502   3.735   3.249
 5092SOL    HW216176   3.599   3.861   3.284
 5093SOL     OW16177   3.127   1.337   0.460
 5093SOL    HW116178   3.139   1.422   0.408
 5093SOL    HW216179   3.214   1.311   0.502
 5094SOL     OW16180   2.104   5.857   5.826
 5094SOL    HW116181   2.147   5.877   5.914
 5094SOL    HW216182   2.013   5.898   5.823
 5095SOL     OW16183   6.319   2.077   3.810
 5095SOL    HW116184   6.408   2.031   3.813
 5095SOL    HW216185   6.261   2.041   3.882
 5096SOL     OW16186   3.916   5.250   6.836
 5096SOL    HW116187   3.926   5.318   6.908
 5096SOL    HW216188   3.842   5.186   6.861
 5097SOL     OW16189   1.228   0.160   6.288
 5097SOL    HW116190   1.231   0.072   6.335
 5097SOL    HW216191   1.259   0.148   6.194
 5098SOL     OW16192   2.813   0.309   2.013
 5098SOL    HW116193   2.839   0.334   2.107
 5098SOL    HW216194   2.721   0.342   1.995
 5099SOL     OW16195   0.896   0.227   0.643
 5099SOL    HW116196   0.871   0.309   0.695
 5099SOL    HW216197   0.814   0.186   0.603
 5100SOL     OW16198   3.349   5.410   4.665
 5100SOL    HW116199   3.328   5.356   4.747
 5100SOL    HW216200   3.302   5.498   4.670
 5101SOL     OW16201   4.860   0.392   0.161
 5101SOL    HW116202   4.956   0.373   0.141
 5101SOL    HW216203   4.852   0.480   0.206
 5102SOL     OW16204   5.354   0.085   4.226
 5102SOL    HW116205   5.257   0.060   4.228
 5102SOL    HW216206   5.369   0.155   4.157
 5103SOL     OW16207   0.493   0.308   4.140
 5103SOL    HW116208   0.531   0.221   4.109
 5103SOL    HW216209   0.500   0.376   4.067
 5104SOL     OW16210   1.894   6.159   2.212
 5104SOL    HW116211   1.834   6.160   2.132
 5104SOL    HW216212   1.931   6.251   2.227
 5105SOL     OW16213   2.315   2.695   0.904
 5105SOL    HW116214   2.369   2.662   0.981
 5105SOL    HW216215   2.293   2.618   0.844
 5106SOL     OW16216   4.186   2.379   0.402
 5106SOL    HW116217   4.248   2.307   0.431
 5106SOL    HW216218   4.147   2.424   0.482
 5107SOL     OW16219   3.511   1.810   0.828
 5107SOL    HW116220   3.444   1.835   0.758
 5107SOL    HW216221   3.551   1.893   0.866
 5108SOL     OW16222   3.847   4.147   5.086
 5108SOL    HW116223   3.920   4.209   5.113
 5108SOL    HW216224   3.870   4.103   4.999
 5109SOL     OW16225   1.005   1.789   0.260
 5109SOL    HW116226   1.014   1.828   0.351
 5109SOL    HW216227   1.018   1.690   0.265
 5110SOL     OW16228   1.034   0.749   5.723
 5110SOL    HW116229   1.077   0.829   5.766
 5110SOL    HW216230   0.945   0.775   5.686
 5111SOL     OW16231   1.351   0.637   4.922
 5111SOL    HW116232   1.304   0.639   5.010
 5111SOL    HW216233   1.363   0.731   4.888
 5112SOL     OW16234   1.715   1.321   3.475
 5112SOL    HW116235   1.641   1.290   3.535
 5112SOL    HW216236   1.756   1.241   3.430
 5113SOL     OW16237   1.920   6.877   1.137
 5113SOL    HW116238   1.992   6.868   1.205
 5113SOL    HW216239   1.933   6.962   1.086
 5114SOL     OW16240   3.545   1.275   6.390
 5114SOL    HW116241   3.457   1.262   6.436
 5114SOL    HW216242   3.538   1.347   6.322
 5115SOL     OW16243   2.056   5.221   4.100
 5115SOL    HW116244   2.025   5.158   4.029
 5115SOL    HW216245   2.110   5.171   4.167
 5116SOL     OW16246   0.516   0.188   5.935
 5116SOL    HW116247   0.521   0.174   5.836
 5116SOL    HW216248   0.564   0.114   5.982
 5117SOL     OW16249   2.299   4.395   4.707
 5117SOL    HW116250   2.283   4.351   4.796
 5117SOL    HW216251   2.230   4.365   4.642
 5118SOL     OW16252   4.916   0.065   0.060
 5118SOL    HW116253   4.961   0.154   0.068
 5118SOL    HW216254   4.861   0.063   6.997
 5119SOL     OW16255   5.145   0.777   2.196
 5119SOL    HW116256   5.047   0.784   2.213
 5119SOL    HW216257   5.175   0.855   2.142
 5120SOL     OW16258   3.949   0.319   4.016
 5120SOL    HW116259   3.860   0.278   4.038
 5120SOL    HW216260   4.015   0.294   4.086
 5121SOL     OW16261   2.727   2.349   6.347
 5121SOL    HW116262   2.822   2.341   6.316
 5121SOL    HW216263   2.725   2.359   6.446
 5122SOL     OW16264   3.325   6.582   3.544
 5122SOL    HW116265   3.336   6.664   3.488
 5122SOL    HW216266   3.403   6.521   3.531
 5123SOL     OW16267   4.002   2.218   4.683
 5123SOL    HW116268   4.089   2.231   4.634
 5123SOL    HW216269   3.934   2.182   4.619
 5124SOL     OW16270   2.447   5.337   4.427
 5124SOL    HW116271   2.384   5.406   4.461
 5124SOL    HW216272   2.399   5.250   4.415
 5125SOL     OW16273   5.779   3.598   4.399
 5125SOL    HW116274   5.874   3.626   4.416
 5125SOL    HW216275   5.722   3.680   4.388
 5126SOL     OW16276   6.307   4.945   5.282
 5126SOL    HW116277   6.403   4.972   5.279
 5126SOL    HW216278   6.291   4.870   5.218
 5127SOL     OW16279   1.407   4.464   6.783
 5127SOL    HW116280   1.431   4.375   6.743
 5127SOL    HW216281   1.388   4.529   6.710
 5128SOL     OW16282   6.843   0.416   6.581
 5128SOL    HW116283   6.856   0.384   6.487
 5128SOL    HW216284   6.850   0.515   6.584
 5129SOL     OW16285   5.445   6.942   2.678
 5129SOL    HW116286   5.527   6.888   2.664
 5129SOL    HW216287   5.468   0.005   2.730
 5130SOL     OW16288   0.912   6.000   3.609
 5130SOL    HW116289   0.852   5.928   3.643
 5130SOL    HW216290   0.887   6.024   3.515
 5131SOL     OW16291   2.643   4.968   3.686
 5131SOL    HW116292   2.736   4.992   3.714
 5131SOL    HW216293   2.612   5.031   3.614
 5132SOL     OW16294   3.272   2.358   6.382
 5132SOL    HW116295   3.321   2.386   6.464
 5132SOL    HW216296   3.306   2.411   6.304
 5133SOL     OW16297   1.530   5.362   0.040
 5133SOL    HW116298   1.468   5.429   7.019
 5133SOL    HW216299   1.581   5.315   6.988
 5134SOL     OW16300   6.756   2.291   2.375
 5134SOL    HW116301   6.789   2.309   2.468
 5134SOL    HW216302   6.822   2.325   2.309
 5135SOL     OW16303   5.765   3.435   3.972
 5135SOL    HW116304   5.668   3.423   3.990
 5135SOL    HW216305   5.785   3.407   3.878
 5136SOL     OW16306   5.090   0.304   0.033
 5136SOL    HW116307   5.132   0.379   0.084
 5136SOL    HW216308   5.086   0.329   6.956
 5137SOL     OW16309   5.257   4.109   5.658
 5137SOL    HW116310   5.185   4.171   5.628
 5137SOL    HW216311   5.328   4.161   5.706
 5138SOL     OW16312   4.073   2.873   5.628
 5138SOL    HW116313   4.025   2.961   5.625
 5138SOL    HW216314   4.072   2.832   5.537
 5139SOL     OW16315   1.388   1.378   3.465
 5139SOL    HW116316   1.384   1.399   3.563
 5139SOL    HW216317   1.296   1.384   3.426
 5140SOL     OW16318   4.054   2.713   6.190
 5140SOL    HW116319   3.963   2.687   6.156
 5140SOL    HW216320   4.073   2.807   6.162
 5141SOL     OW16321   6.245   3.949   0.783
 5141SOL    HW116322   6.246   4.021   0.714
 5141SOL    HW216323   6.339   3.926   0.809
 5142SOL     OW16324   6.076   6.721   2.525
 5142SOL    HW116325   6.111   6.810   2.494
 5142SOL    HW216326   6.007   6.689   2.460
 5143SOL     OW16327   6.447   4.774   4.256
 5143SOL    HW116328   6.537   4.777   4.211
 5143SOL    HW216329   6.387   4.841   4.213
 5144SOL     OW16330   0.636   4.766   5.729
 5144SOL    HW116331   0.696   4.696   5.690
 5144SOL    HW216332   0.628   4.752   5.828
 5145SOL     OW16333   3.518   5.847   5.603
 5145SOL    HW116334   3.546   5.751   5.595
 5145SOL    HW216335   3.430   5.860   5.557
 5146SOL     OW16336   3.211   4.166   5.650
 5146SOL    HW116337   3.134   4.214   5.610
 5146SOL    HW216338   3.229   4.082   5.599
 5147SOL     OW16339   6.499   5.447   2.999
 5147SOL    HW116340   6.586   5.453   3.048
 5147SOL    HW216341   6.459   5.357   3.015
 5148SOL     OW16342   6.447   0.047   1.724
 5148SOL    HW116343   6.444   0.120   1.793
 5148SOL    HW216344   6.402   6.986   1.761
 5149SOL     OW16345   6.377   5.916   3.237
 5149SOL    HW116346   6.285   5.922   3.199
 5149SOL    HW216347   6.413   6.008   3.253
 5150SOL     OW16348   2.164   5.836   3.334
 5150SOL    HW116349   2.260   5.819   3.309
 5150SOL    HW216350   2.136   5.925   3.297
 5151SOL     OW16351   6.831   3.251   1.877
 5151SOL    HW116352   6.768   3.189   1.830
 5151SOL    HW216353   6.873   3.313   1.810
 5152SOL     OW16354   1.947   4.923   0.065
 5152SOL    HW116355   1.997   4.992   0.117
 5152SOL    HW216356   1.851   4.921   0.095
 5153SOL     OW16357   1.295   1.096   6.757
 5153SOL    HW116358   1.353   1.080   6.676
 5153SOL    HW216359   1.351   1.136   6.830
 5154SOL     OW16360   1.058   2.607   5.966
 5154SOL    HW116361   1.141   2.556   5.991
 5154SOL    HW216362   0.981   2.573   6.019
 5155SOL     OW16363   4.359   0.711   2.316
 5155SOL    HW116364   4.442   0.709   2.261
 5155SOL    HW216365   4.283   0.674   2.263
 5156SOL     OW16366   5.299   4.176   6.412
 5156SOL    HW116367   5.234   4.113   6.369
 5156SOL    HW216368   5.376   4.125   6.450
 5157SOL     OW16369   3.654   2.034   3.345
 5157SOL    HW116370   3.715   1.962   3.377
 5157SOL    HW216371   3.645   2.028   3.245
 5158SOL     OW16372   3.369   1.602   1.416
 5158SOL    HW116373   3.403   1.646   1.334
 5158SOL    HW216374   3.415   1.639   1.496
 5159SOL     OW16375   5.764   3.821   5.278
 5159SOL    HW116376   5.784   3.918   5.294
 5159SOL    HW216377   5.847   3.774   5.250
 5160SOL     OW16378   0.298   4.621   3.461
 5160SOL    HW116379   0.273   4.663   3.548
 5160SOL    HW216380   0.257   4.529   3.456
 5161SOL     OW16381   1.789   3.525   5.924
 5161SOL    HW116382   1.797   3.493   5.830
 5161SOL    HW216383   1.864   3.587   5.945
 5162SOL     OW16384   0.722   4.622   2.619
 5162SOL    HW116385   0.646   4.581   2.568
 5162SOL    HW216386   0.741   4.713   2.583
 5163SOL     OW16387   3.298   6.233   6.862
 5163SOL    HW116388   3.356   6.294   6.809
 5163SOL    HW216389   3.354   6.176   6.922
 5164SOL     OW16390   4.561   2.252   6.643
 5164SOL    HW116391   4.640   2.313   6.647
 5164SOL    HW216392   4.493   2.282   6.710
 5165SOL     OW16393   6.560   3.843   5.710
 5165SOL    HW116394   6.468   3.882   5.701
 5165SOL    HW216395   6.619   3.882   5.640
 5166SOL     OW16396   0.606   5.443   2.176
 5166SOL    HW116397   0.551   5.423   2.095
 5166SOL    HW216398   0.685   5.382   2.178
 5167SOL     OW16399   6.764   5.823   5.674
 5167SOL    HW116400   6.775   5.881   5.754
 5167SOL    HW216401   6.691   5.757   5.690
 5168SOL     OW16402   4.878   3.413   1.864
 5168SOL    HW116403   4.883   3.502   1.909
 5168SOL    HW216404   4.810   3.417   1.790
 5169SOL     OW16405   4.034   2.121   4.280
 5169SOL    HW116406   4.046   2.159   4.371
 5169SOL    HW216407   3.988   2.033   4.286
 5170SOL     OW16408   0.255   4.496   5.200
 5170SOL    HW116409   0.251   4.401   5.170
 5170SOL    HW216410   0.350   4.526   5.204
 5171SOL     OW16411   0.679   5.006   5.253
 5171SOL    HW116412   0.770   5.036   5.283
 5171SOL    HW216413   0.618   5.085   5.247
 5172SOL     OW16414   1.352   2.745   2.522
 5172SOL    HW116415   1.337   2.654   2.561
 5172SOL    HW216416   1.310   2.751   2.431
 5173SOL     OW16417   5.136   5.004   5.002
 5173SOL    HW116418   5.201   4.934   4.973
 5173SOL    HW216419   5.155   5.089   4.953
 5174SOL     OW16420   2.283   5.125   3.110
 5174SOL    HW116421   2.185   5.120   3.132
 5174SOL    HW216422   2.301   5.207   3.056
 5175SOL     OW16423   2.469   3.569   6.836
 5175SOL    HW116424   2.443   3.478   6.803
 5175SOL    HW216425   2.504   3.562   6.929
 5176SOL     OW16426   5.232   3.451   6.717
 5176SOL    HW116427   5.148   3.418   6.674
 5176SOL    HW216428   5.215   3.466   6.814
 5177SOL     OW16429   5.896   0.649   0.488
 5177SOL    HW116430   5.879   0.633   0.586
 5177SOL    HW216431   5.990   0.622   0.466
 5178SOL     OW16432   0.974   3.711   2.054
 5178SOL    HW116433   1.059   3.660   2.041
 5178SOL    HW216434   0.897   3.648   2.056
 5179SOL     OW16435   4.141   5.156   3.888
 5179SOL    HW116436   4.146   5.061   3.856
 5179SOL    HW216437   4.154   5.217   3.810
 5180SOL     OW16438   2.386   2.216   0.985
 5180SOL    HW116439   2.437   2.261   1.058
 5180SOL    HW216440   2.376   2.119   1.007
 5181SOL     OW16441   5.596   0.975   2.724
 5181SOL    HW116442   5.513   0.940   2.680
 5181SOL    HW216443   5.572   1.015   2.813
 5182SOL     OW16444   4.005   4.150   1.628
 5182SOL    HW116445   4.028   4.104   1.713
 5182SOL    HW216446   3.921   4.111   1.590
 5183SOL     OW16447   3.818   1.614   2.580
 5183SOL    HW116448   3.738   1.663   2.546
 5183SOL    HW216449   3.812   1.518   2.552
 5184SOL     OW16450   0.413   1.406   4.894
 5184SOL    HW116451   0.490   1.459   4.861
 5184SOL    HW216452   0.393   1.432   4.989
 5185SOL     OW16453   5.972   0.649   2.765
 5185SOL    HW116454   5.906   0.677   2.835
 5185SOL    HW216455   6.046   0.597   2.808
 5186SOL     OW16456   6.442   2.512   0.755
 5186SOL    HW116457   6.465   2.529   0.659
 5186SOL    HW216458   6.526   2.514   0.809
 5187SOL     OW16459   1.026   6.763   4.234
 5187SOL    HW116460   1.018   6.663   4.235
 5187SOL    HW216461   1.032   6.796   4.328
 5188SOL     OW16462   0.864   5.834   1.266
 5188SOL    HW116463   0.858   5.748   1.214
 5188SOL    HW216464   0.959   5.862   1.274
 5189SOL     OW16465   3.633   5.110   1.052
 5189SOL    HW116466   3.575   5.190   1.066
 5189SOL    HW216467   3.585   5.028   1.086
 5190SOL     OW16468   0.693   1.696   4.521
 5190SOL    HW116469   0.646   1.777   4.555
 5190SOL    HW216470   0.732   1.645   4.598
 5191SOL     OW16471   4.092   0.157   1.886
 5191SOL    HW116472   4.010   0.186   1.836
 5191SOL    HW216473   4.123   0.230   1.946
 5192SOL     OW16474   2.664   5.594   2.249
 5192SOL    HW116475   2.714   5.672   2.286
 5192SOL    HW216476   2.615   5.548   2.322
 5193SOL     OW16477   4.713   4.649   4.414
 5193SOL    HW116478   4.676   4.671   4.504
 5193SOL    HW216479   4.710   4.730   4.356
 5194SOL     OW16480   4.679   1.802   0.055
 5194SOL    HW116481   4.743   1.737   0.094
 5194SOL    HW216482   4.647   1.769   6.987
 5195SOL     OW16483   7.017   6.170   3.992
 5195SOL    HW116484   0.076   6.231   3.999
 5195SOL    HW216485   0.027   6.077   3.975
 5196SOL     OW16486   3.584   6.149   0.982
 5196SOL    HW116487   3.658   6.085   0.963
 5196SOL    HW216488   3.497   6.098   0.985
 5197SOL     OW16489   1.952   5.021   5.669
 5197SOL    HW116490   1.919   4.945   5.613
 5197SOL    HW216491   1.902   5.105   5.645
 5198SOL     OW16492   4.606   6.813   3.424
 5198SOL    HW116493   4.565   6.807   3.514
 5198SOL    HW216494   4.570   6.892   3.375
 5199SOL     OW16495   1.853   5.862   0.461
 5199SOL    HW116496   1.811   5.788   0.514
 5199SOL    HW216497   1.780   5.919   0.421
 5200SOL     OW16498   1.011   2.819   5.371
 5200SOL    HW116499   1.024   2.807   5.273
 5200SOL    HW216500   0.990   2.914   5.391
 5201SOL     OW16501   0.261   0.013   3.065
 5201SOL    HW116502   0.260   0.047   2.971
 5201SOL    HW216503   0.341   0.049   3.113
 5202SOL     OW16504   6.244   3.541   5.757
 5202SOL    HW116505   6.248   3.588   5.669
 5202SOL    HW216506   6.161   3.566   5.805
 5203SOL     OW16507   2.172   1.656   6.961
 5203SOL    HW116508   2.191   1.599   6.881
 5203SOL    HW216509   2.140   1.746   6.931
 5204SOL     OW16510   4.002   5.919   6.842
 5204SOL    HW116511   3.999   6.017   6.863
 5204SOL    HW216512   3.975   5.906   6.747
 5205SOL     OW16513   1.090   6.031   1.010
 5205SOL    HW116514   1.168   6.058   0.953
 5205SOL    HW216515   1.071   6.103   1.077
 5206SOL     OW16516   1.059   4.931   6.128
 5206SOL    HW116517   1.046   4.847   6.180
 5206SOL    HW216518   1.067   5.009   6.191
 5207SOL     OW16519   0.990   6.219   3.756
 5207SOL    HW116520   0.979   6.130   3.712
 5207SOL    HW216521   0.958   6.213   3.851
 5208SOL     OW16522   4.679   2.568   6.184
 5208SOL    HW116523   4.602   2.631   6.194
 5208SOL    HW216524   4.650   2.475   6.208
 5209SOL     OW16525   5.530   6.332   2.415
 5209SOL    HW116526   5.615   6.330   2.361
 5209SOL    HW216527   5.553   6.335   2.512
 5210SOL     OW16528   4.576   2.959   6.668
 5210SOL    HW116529   4.538   2.903   6.594
 5210SOL    HW216530   4.642   2.904   6.720
 5211SOL     OW16531   3.755   2.628   5.598
 5211SOL    HW116532   3.761   2.719   5.640
 5211SOL    HW216533   3.727   2.562   5.668
 5212SOL     OW16534   0.068   3.033   0.854
 5212SOL    HW116535   0.166   3.016   0.845
 5212SOL    HW216536   0.053   3.129   0.876
 5213SOL     OW16537   4.690   4.069   6.510
 5213SOL    HW116538   4.750   4.145   6.485
 5213SOL    HW216539   4.620   4.058   6.439
 5214SOL     OW16540   5.375   1.795   6.087
 5214SOL    HW116541   5.351   1.700   6.106
 5214SOL    HW216542   5.316   1.830   6.014
 5215SOL     OW16543   0.249   4.831   4.145
 5215SOL    HW116544   0.236   4.735   4.168
 5215SOL    HW216545   0.236   4.887   4.228
 5216SOL     OW16546   4.979   4.927   2.234
 5216SOL    HW116547   5.068   4.903   2.196
 5216SOL    HW216548   4.919   4.960   2.160
 5217SOL     OW16549   4.279   5.161   4.120
 5217SOL    HW116550   4.214   5.138   4.047
 5217SOL    HW216551   4.229   5.174   4.205
 5218SOL     OW16552   0.981   0.759   2.587
 5218SOL    HW116553   1.043   0.836   2.604
 5218SOL    HW216554   1.030   0.673   2.602
 5219SOL     OW16555   4.422   1.553   4.839
 5219SOL    HW116556   4.347   1.533   4.902
 5219SOL    HW216557   4.466   1.639   4.865
 5220SOL     OW16558   0.782   5.981   2.537
 5220SOL    HW116559   0.814   5.900   2.586
 5220SOL    HW216560   0.703   6.019   2.585
 5221SOL     OW16561   5.655   2.236   3.729
 5221SOL    HW116562   5.667   2.226   3.630
 5221SOL    HW216563   5.701   2.160   3.776
 5222SOL     OW16564   3.849   6.329   3.090
 5222SOL    HW116565   3.943   6.362   3.080
 5222SOL    HW216566   3.850   6.235   3.123
 5223SOL     OW16567   6.154   2.501   0.719
 5223SOL    HW116568   6.251   2.503   0.743
 5223SOL    HW216569   6.129   2.585   0.670
 5224SOL     OW16570   6.745   2.442   4.584
 5224SOL    HW116571   6.668   2.421   4.644
 5224SOL    HW216572   6.799   2.517   4.624
 5225SOL     OW16573   0.269   0.740   3.615
 5225SOL    HW116574   0.271   0.683   3.533
 5225SOL    HW216575   0.180   0.731   3.660
 5226SOL     OW16576   6.795   6.327   4.923
 5226SOL    HW116577   6.752   6.239   4.941
 5226SOL    HW216578   6.735   6.401   4.955
 5227SOL     OW16579   0.517   3.621   5.168
 5227SOL    HW116580   0.617   3.614   5.165
 5227SOL    HW216581   0.482   3.557   5.236
 5228SOL     OW16582   6.097   2.216   1.151
 5228SOL    HW116583   6.030   2.143   1.156
 5228SOL    HW216584   6.059   2.293   1.099
 5229SOL     OW16585   1.716   6.256   6.868
 5229SOL    HW116586   1.763   6.177   6.906
 5229SOL    HW216587   1.618   6.236   6.859
 5230SOL     OW16588   0.656   5.513   1.732
 5230SOL    HW116589   0.738   5.551   1.688
 5230SOL    HW216590   0.675   5.499   1.830
 5231SOL     OW16591   4.576   2.691   4.618
 5231SOL    HW116592   4.562   2.754   4.543
 5231SOL    HW216593   4.545   2.733   4.703
 5232SOL     OW16594   2.694   3.359   5.986
 5232SOL    HW116595   2.744   3.445   5.996
 5232SOL    HW216596   2.617   3.372   5.923
 5233SOL     OW16597   5.021   1.243   2.457
 5233SOL    HW116598   4.929   1.223   2.493
 5233SOL    HW216599   5.090   1.214   2.524
 5234SOL     OW16600   2.970   1.410   6.051
 5234SOL    HW116601   2.925   1.323   6.031
 5234SOL    HW216602   2.984   1.461   5.966
 5235SOL     OW16603   1.910   2.088   0.885
 5235SOL    HW116604   1.821   2.050   0.912
 5235SOL    HW216605   1.912   2.099   0.786
 5236SOL     OW16606   5.312   4.826   2.225
 5236SOL    HW116607   5.317   4.726   2.228
 5236SOL    HW216608   5.353   4.858   2.139
 5237SOL     OW16609   1.849   1.171   4.858
 5237SOL    HW116610   1.861   1.072   4.853
 5237SOL    HW216611   1.933   1.214   4.890
 5238SOL     OW16612   0.633   4.737   6.935
 5238SOL    HW116613   0.712   4.696   6.888
 5238SOL    HW216614   0.606   4.821   6.888
 5239SOL     OW16615   3.579   2.941   4.496
 5239SOL    HW116616   3.660   2.998   4.485
 5239SOL    HW216617   3.571   2.879   4.418
 5240SOL     OW16618   3.066   1.825   5.942
 5240SOL    HW116619   3.149   1.878   5.958
 5240SOL    HW216620   3.006   1.874   5.878
 5241SOL     OW16621   0.427   5.459   4.948
 5241SOL    HW116622   0.433   5.554   4.919
 5241SOL    HW216623   0.457   5.399   4.873
 5242SOL     OW16624   0.058   6.181   6.237
 5242SOL    HW116625   0.104   6.268   6.219
 5242SOL    HW216626   0.123   6.116   6.275
 5243SOL     OW16627   0.933   4.944   0.997
 5243SOL    HW116628   0.889   4.935   1.087
 5243SOL    HW216629   1.014   5.002   1.005
 5244SOL     OW16630   3.525   5.432   6.905
 5244SOL    HW116631   3.456   5.362   6.886
 5244SOL    HW216632   3.558   5.423   6.998
 5245SOL     OW16633   3.910   4.645   0.282
 5245SOL    HW116634   3.954   4.733   0.260
 5245SOL    HW216635   3.812   4.651   0.261
 5246SOL     OW16636   6.000   3.855   1.911
 5246SOL    HW116637   5.933   3.787   1.881
 5246SOL    HW216638   6.089   3.811   1.924
 5247SOL     OW16639   1.773   0.931   0.019
 5247SOL    HW116640   1.752   1.024   0.052
 5247SOL    HW216641   1.787   0.933   6.941
 5248SOL     OW16642   5.937   1.315   3.528
 5248SOL    HW116643   5.950   1.405   3.489
 5248SOL    HW216644   5.843   1.307   3.563
 5249SOL     OW16645   0.002   5.016   5.769
 5249SOL    HW116646   7.005   5.113   5.788
 5249SOL    HW216647   6.956   4.984   5.701
 5250SOL     OW16648   1.976   6.400   5.961
 5250SOL    HW116649   2.025   6.325   5.915
 5250SOL    HW216650   1.883   6.371   5.982
 5251SOL     OW16651   0.758   3.702   6.979
 5251SOL    HW116652   0.675   3.727   6.928
 5251SOL    HW216653   0.738   3.621   0.015
 5252SOL     OW16654   1.580   6.622   0.308
 5252SOL    HW116655   1.679   6.607   0.306
 5252SOL    HW216656   1.558   6.692   0.376
 5253SOL     OW16657   5.537   4.592   4.681
 5253SOL    HW116658   5.490   4.639   4.756
 5253SOL    HW216659   5.470   4.544   4.625
 5254SOL     OW16660   4.401   1.225   3.057
 5254SOL    HW116661   4.340   1.151   3.085
 5254SOL    HW216662   4.357   1.313   3.077
 5255SOL     OW16663   6.008   0.897   5.815
 5255SOL    HW116664   6.104   0.870   5.808
 5255SOL    HW216665   5.978   0.886   5.910
 5256SOL     OW16666   4.228   1.408   3.716
 5256SOL    HW116667   4.320   1.435   3.744
 5256SOL    HW216668   4.234   1.336   3.646
 5257SOL     OW16669   5.473   6.458   2.132
 5257SOL    HW116670   5.455   6.539   2.076
 5257SOL    HW216671   5.515   6.486   2.219
 5258SOL     OW16672   6.244   3.674   1.893
 5258SOL    HW116673   6.326   3.681   1.836
 5258SOL    HW216674   6.270   3.677   1.989
 5259SOL     OW16675   5.758   6.183   1.570
 5259SOL    HW116676   5.800   6.136   1.492
 5259SOL    HW216677   5.660   6.195   1.552
 5260SOL     OW16678   4.944   3.489   1.146
 5260SOL    HW116679   4.963   3.584   1.119
 5260SOL    HW216680   4.870   3.453   1.089
 5261SOL     OW16681   1.073   4.040   6.965
 5261SOL    HW116682   1.068   3.941   6.950
 5261SOL    HW216683   1.030   4.063   0.032
 5262SOL     OW16684   2.720   0.934   2.598
 5262SOL    HW116685   2.775   1.016   2.592
 5262SOL    HW216686   2.714   0.904   2.693
 5263SOL     OW16687   1.702   1.771   4.445
 5263SOL    HW116688   1.634   1.753   4.516
 5263SOL    HW216689   1.727   1.684   4.401
 5264SOL     OW16690   5.985   2.643   2.809
 5264SOL    HW116691   5.934   2.571   2.856
 5264SOL    HW216692   5.991   2.622   2.711
 5265SOL     OW16693   6.225   4.234   4.330
 5265SOL    HW116694   6.146   4.188   4.372
 5265SOL    HW216695   6.255   4.309   4.389
 5266SOL     OW16696   2.410   5.769   0.664
 5266SOL    HW116697   2.389   5.867   0.664
 5266SOL    HW216698   2.456   5.745   0.749
 5267SOL     OW16699   4.927   3.737   4.878
 5267SOL    HW116700   4.870   3.692   4.947
 5267SOL    HW216701   4.878   3.814   4.839
 5268SOL     OW16702   5.571   0.219   6.868
 5268SOL    HW116703   5.513   0.142   6.841
 5268SOL    HW216704   5.641   0.186   6.931
 5269SOL     OW16705   1.207   6.941   3.699
 5269SOL    HW116706   1.233   6.845   3.708
 5269SOL    HW216707   1.114   6.954   3.732
 5270SOL     OW16708   5.745   1.537   1.078
 5270SOL    HW116709   5.649   1.511   1.094
 5270SOL    HW216710   5.799   1.516   1.159
 5271SOL     OW16711   5.973   5.796   4.559
 5271SOL    HW116712   6.048   5.827   4.500
 5271SOL    HW216713   5.888   5.843   4.532
 5272SOL     OW16714   2.829   5.476   2.099
 5272SOL    HW116715   2.839   5.380   2.124
 5272SOL    HW216716   2.749   5.515   2.145
 5273SOL     OW16717   7.007   2.985   3.719
 5273SOL    HW116718   7.004   2.966   3.817
 5273SOL    HW216719   0.079   2.965   3.684
 5274SOL     OW16720   6.411   6.920   2.507
 5274SOL    HW116721   6.461   6.976   2.573
 5274SOL    HW216722   6.436   6.824   2.518
 5275SOL     OW16723   3.583   2.027   0.583
 5275SOL    HW116724   3.610   2.118   0.615
 5275SOL    HW216725   3.501   2.034   0.527
 5276SOL     OW16726   1.692   7.011   0.734
 5276SOL    HW116727   1.644   0.078   0.731
 5276SOL    HW216728   1.657   6.951   0.663
 5277SOL     OW16729   1.438   1.635   2.905
 5277SOL    HW116730   1.350   1.668   2.872
 5277SOL    HW216731   1.424   1.575   2.984
 5278SOL     OW16732   5.536   0.357   3.246
 5278SOL    HW116733   5.468   0.367   3.318
 5278SOL    HW216734   5.496   0.382   3.158
 5279SOL     OW16735   2.038   5.234   6.052
 5279SOL    HW116736   2.031   5.321   6.004
 5279SOL    HW216737   1.987   5.238   6.137
 5280SOL     OW16738   2.715   6.137   4.608
 5280SOL    HW116739   2.736   6.222   4.561
 5280SOL    HW216740   2.658   6.156   4.688
 5281SOL     OW16741   0.666   1.238   2.337
 5281SOL    HW116742   0.587   1.232   2.276
 5281SOL    HW216743   0.714   1.324   2.321
 5282SOL     OW16744   2.267   2.089   2.899
 5282SOL    HW116745   2.248   2.186   2.880
 5282SOL    HW216746   2.338   2.056   2.836
 5283SOL     OW16747   4.450   6.498   1.541
 5283SOL    HW116748   4.509   6.535   1.613
 5283SOL    HW216749   4.452   6.559   1.462
 5284SOL     OW16750   5.058   3.691   3.533
 5284SOL    HW116751   5.067   3.763   3.465
 5284SOL    HW216752   5.149   3.668   3.569
 5285SOL     OW16753   2.365   4.818   3.555
 5285SOL    HW116754   2.424   4.744   3.521
 5285SOL    HW216755   2.421   4.885   3.605
 5286SOL     OW16756   1.388   3.980   0.845
 5286SOL    HW116757   1.445   4.012   0.768
 5286SOL    HW216758   1.383   4.052   0.914
 5287SOL     OW16759   2.607   6.318   1.139
 5287SOL    HW116760   2.580   6.414   1.152
 5287SOL    HW216761   2.526   6.263   1.119
 5288SOL     OW16762   3.889   0.278   1.735
 5288SOL    HW116763   3.830   0.204   1.703
 5288SOL    HW216764   3.842   0.329   1.807
 5289SOL     OW16765   1.660   4.336   6.224
 5289SOL    HW116766   1.611   4.304   6.143
 5289SOL    HW216767   1.743   4.385   6.196
 5290SOL     OW16768   1.448   4.968   5.209
 5290SOL    HW116769   1.492   4.893   5.258
 5290SOL    HW216770   1.498   5.053   5.226
 5291SOL     OW16771   2.491   5.531   5.637
 5291SOL    HW116772   2.402   5.569   5.611
 5291SOL    HW216773   2.525   5.474   5.562
 5292SOL     OW16774   7.013   3.754   6.968
 5292SOL    HW116775   6.970   3.665   6.953
 5292SOL    HW216776   6.974   3.820   6.904
 5293SOL     OW16777   1.218   0.552   4.350
 5293SOL    HW116778   1.133   0.516   4.390
 5293SOL    HW216779   1.208   0.650   4.333
 5294SOL     OW16780   4.674   3.520   5.611
 5294SOL    HW116781   4.713   3.545   5.700
 5294SOL    HW216782   4.575   3.529   5.615
 5295SOL     OW16783   5.298   0.028   2.458
 5295SOL    HW116784   5.348   6.993   2.524
 5295SOL    HW216785   5.326   0.124   2.467
 5296SOL     OW16786   2.232   5.104   0.395
 5296SOL    HW116787   2.315   5.159   0.404
 5296SOL    HW216788   2.255   5.008   0.412
 5297SOL     OW16789   3.200   2.266   1.034
 5297SOL    HW116790   3.236   2.353   1.001
 5297SOL    HW216791   3.108   2.280   1.072
 5298SOL     OW16792   1.036   5.626   6.909
 5298SOL    HW116793   1.017   5.650   6.813
 5298SOL    HW216794   1.007   5.532   6.926
 5299SOL     OW16795   2.332   2.727   1.616
 5299SOL    HW116796   2.398   2.770   1.678
 5299SOL    HW216797   2.378   2.655   1.563
 5300SOL     OW16798   0.348   6.044   1.705
 5300SOL    HW116799   0.254   6.072   1.687
 5300SOL    HW216800   0.349   5.948   1.734
 5301SOL     OW16801   4.798   2.909   0.734
 5301SOL    HW116802   4.720   2.866   0.778
 5301SOL    HW216803   4.769   2.951   0.647
 5302SOL     OW16804   6.389   4.253   2.958
 5302SOL    HW116805   6.391   4.153   2.952
 5302SOL    HW216806   6.432   4.292   2.877
 5303SOL     OW16807   6.703   5.984   2.830
 5303SOL    HW116808   6.683   6.078   2.857
 5303SOL    HW216809   6.661   5.921   2.895
 5304SOL     OW16810   6.720   1.647   5.901
 5304SOL    HW116811   6.798   1.710   5.893
 5304SOL    HW216812   6.739   1.581   5.973
 5305SOL     OW16813   1.215   5.996   4.314
 5305SOL    HW116814   1.266   6.026   4.395
 5305SOL    HW216815   1.251   5.908   4.282
 5306SOL     OW16816   0.442   5.789   5.144
 5306SOL    HW116817   0.506   5.850   5.192
 5306SOL    HW216818   0.366   5.766   5.205
 5307SOL     OW16819   4.443   0.463   6.689
 5307SOL    HW116820   4.484   0.538   6.637
 5307SOL    HW216821   4.428   0.492   6.783
 5308SOL     OW16822   1.049   6.247   4.224
 5308SOL    HW116823   1.004   6.214   4.141
 5308SOL    HW216824   1.127   6.189   4.245
 5309SOL     OW16825   3.257   4.119   1.875
 5309SOL    HW116826   3.179   4.113   1.936
 5309SOL    HW216827   3.256   4.041   1.811
 5310SOL     OW16828   5.546   2.669   1.594
 5310SOL    HW116829   5.521   2.573   1.579
 5310SOL    HW216830   5.474   2.714   1.646
 5311SOL     OW16831   0.223   5.837   1.130
 5311SOL    HW116832   0.173   5.867   1.048
 5311SOL    HW216833   0.177   5.758   1.170
 5312SOL     OW16834   0.274   4.090   2.350
 5312SOL    HW116835   0.231   4.138   2.427
 5312SOL    HW216836   0.323   4.010   2.384
 5313SOL     OW16837   1.180   4.352   0.111
 5313SOL    HW116838   1.211   4.266   0.070
 5313SOL    HW216839   1.238   4.427   0.081
 5314SOL     OW16840   3.286   5.330   0.365
 5314SOL    HW116841   3.302   5.267   0.289
 5314SOL    HW216842   3.357   5.316   0.435
 5315SOL     OW16843   3.843   3.796   1.768
 5315SOL    HW116844   3.904   3.844   1.831
 5315SOL    HW216845   3.830   3.851   1.685
 5316SOL     OW16846   6.545   4.757   4.772
 5316SOL    HW116847   6.601   4.797   4.844
 5316SOL    HW216848   6.493   4.829   4.725
 5317SOL     OW16849   6.909   0.487   5.055
 5317SOL    HW116850   6.942   0.410   5.000
 5317SOL    HW216851   6.909   0.570   4.999
 5318SOL     OW16852   0.537   1.530   5.541
 5318SOL    HW116853   0.593   1.607   5.571
 5318SOL    HW216854   0.441   1.557   5.538
 5319SOL     OW16855   4.536   6.435   6.814
 5319SOL    HW116856   4.438   6.440   6.831
 5319SOL    HW216857   4.553   6.375   6.736
 5320SOL     OW16858   5.546   5.314   6.630
 5320SOL    HW116859   5.612   5.284   6.699
 5320SOL    HW216860   5.475   5.244   6.619
 5321SOL     OW16861   0.661   4.098   3.087
 5321SOL    HW116862   0.730   4.095   3.159
 5321SOL    HW216863   0.697   4.151   3.009
 5322SOL     OW16864   3.992   5.985   5.866
 5322SOL    HW116865   3.923   6.022   5.803
 5322SOL    HW216866   3.966   5.892   5.893
 5323SOL     OW16867   4.105   3.411   0.744
 5323SOL    HW116868   4.152   3.323   0.751
 5323SOL    HW216869   4.082   3.444   0.835
 5324SOL     OW16870   3.766   2.566   1.677
 5324SOL    HW116871   3.817   2.523   1.602
 5324SOL    HW216872   3.769   2.507   1.758
 5325SOL     OW16873   5.311   6.814   3.631
 5325SOL    HW116874   5.285   6.729   3.586
 5325SOL    HW216875   5.245   6.835   3.703
 5326SOL     OW16876   0.148   5.353   3.508
 5326SOL    HW116877   0.155   5.427   3.575
 5326SOL    HW216878   0.212   5.371   3.433
 5327SOL     OW16879   6.281   5.365   5.353
 5327SOL    HW116880   6.322   5.301   5.417
 5327SOL    HW216881   6.190   5.333   5.326
 5328SOL     OW16882   4.760   2.494   5.252
 5328SOL    HW116883   4.856   2.504   5.224
 5328SOL    HW216884   4.715   2.582   5.246
 5329SOL     OW16885   0.972   3.641   6.814
 5329SOL    HW116886   0.901   3.644   6.884
 5329SOL    HW216887   1.052   3.694   6.846
 5330SOL     OW16888   3.573   4.429   6.632
 5330SOL    HW116889   3.499   4.393   6.575
 5330SOL    HW216890   3.603   4.517   6.597
 5331SOL     OW16891   5.875   1.243   1.696
 5331SOL    HW116892   5.914   1.281   1.612
 5331SOL    HW216893   5.779   1.269   1.703
 5332SOL     OW16894   6.598   4.376   0.313
 5332SOL    HW116895   6.692   4.407   0.327
 5332SOL    HW216896   6.570   4.397   0.219
 5333SOL     OW16897   1.097   1.101   4.040
 5333SOL    HW116898   1.184   1.122   4.085
 5333SOL    HW216899   1.111   1.099   3.941
 5334SOL     OW16900   3.564   5.208   5.436
 5334SOL    HW116901   3.475   5.206   5.390
 5334SOL    HW216902   3.551   5.194   5.534
 5335SOL     OW16903   0.148   5.055   2.042
 5335SOL    HW116904   0.062   5.028   1.998
 5335SOL    HW216905   0.165   5.152   2.023
 5336SOL     OW16906   2.144   2.154   3.419
 5336SOL    HW116907   2.061   2.209   3.424
 5336SOL    HW216908   2.174   2.148   3.324
 5337SOL     OW16909   5.323   4.437   1.937
 5337SOL    HW116910   5.355   4.440   1.842
 5337SOL    HW216911   5.364   4.358   1.983
 5338SOL     OW16912   6.149   1.393   5.989
 5338SOL    HW116913   6.112   1.313   5.942
 5338SOL    HW216914   6.216   1.438   5.929
 5339SOL     OW16915   5.522   1.438   2.959
 5339SOL    HW116916   5.567   1.431   3.048
 5339SOL    HW216917   5.565   1.512   2.907
 5340SOL     OW16918   5.891   4.065   1.145
 5340SOL    HW116919   5.921   4.038   1.237
 5340SOL    HW216920   5.795   4.041   1.133
 5341SOL     OW16921   3.211   4.806   5.139
 5341SOL    HW116922   3.143   4.841   5.075
 5341SOL    HW216923   3.169   4.738   5.199
 5342SOL     OW16924   5.470   6.657   4.902
 5342SOL    HW116925   5.553   6.640   4.954
 5342SOL    HW216926   5.482   6.739   4.845
 5343SOL     OW16927   4.190   3.436   5.072
 5343SOL    HW116928   4.157   3.373   5.143
 5343SOL    HW216929   4.123   3.439   4.997
 5344SOL     OW16930   0.657   1.781   0.680
 5344SOL    HW116931   0.620   1.757   0.590
 5344SOL    HW216932   0.586   1.825   0.734
 5345SOL     OW16933   5.175   6.823   0.092
 5345SOL    HW116934   5.118   6.792   0.169
 5345SOL    HW216935   5.116   6.853   0.017
 5346SOL     OW16936   2.912   5.923   3.839
 5346SOL    HW116937   2.950   5.832   3.855
 5346SOL    HW216938   2.976   5.993   3.873
 5347SOL     OW16939   0.197   3.641   2.627
 5347SOL    HW116940   0.249   3.555   2.624
 5347SOL    HW216941   0.213   3.687   2.713
 5348SOL     OW16942   6.918   1.094   6.554
 5348SOL    HW116943   6.926   1.174   6.495
 5348SOL    HW216944   7.006   1.047   6.557
 5349SOL     OW16945   2.548   3.626   0.558
 5349SOL    HW116946   2.480   3.559   0.528
 5349SOL    HW216947   2.623   3.628   0.492
 5350SOL     OW16948   2.255   0.357   5.228
 5350SOL    HW116949   2.250   0.449   5.189
 5350SOL    HW216950   2.312   0.299   5.169
 5351SOL     OW16951   0.240   5.606   2.026
 5351SOL    HW116952   0.150   5.621   1.986
 5351SOL    HW216953   0.284   5.529   1.979
 5352SOL     OW16954   2.112   4.701   2.762
 5352SOL    HW116955   2.030   4.741   2.721
 5352SOL    HW216956   2.106   4.707   2.862
 5353SOL     OW16957   3.807   6.456   4.120
 5353SOL    HW116958   3.806   6.399   4.202
 5353SOL    HW216959   3.866   6.414   4.051
 5354SOL     OW16960   1.871   4.554   0.796
 5354SOL    HW116961   1.966   4.580   0.812
 5354SOL    HW216962   1.868   4.459   0.765
 5355SOL     OW16963   5.953   4.959   3.863
 5355SOL    HW116964   5.984   4.873   3.905
 5355SOL    HW216965   5.996   4.969   3.774
 5356SOL     OW16966   6.843   3.434   2.885
 5356SOL    HW116967   6.843   3.356   2.823
 5356SOL    HW216968   6.783   3.415   2.963
 5357SOL     OW16969   3.559   4.976   0.778
 5357SOL    HW116970   3.554   5.019   0.868
 5357SOL    HW216971   3.644   4.925   0.770
 5358SOL     OW16972   4.337   2.376   1.232
 5358SOL    HW116973   4.256   2.422   1.268
 5358SOL    HW216974   4.328   2.364   1.133
 5359SOL     OW16975   2.283   1.461   6.776
 5359SOL    HW116976   2.274   1.476   6.677
 5359SOL    HW216977   2.257   1.367   6.798
 5360SOL     OW16978   4.580   5.990   3.671
 5360SOL    HW116979   4.619   5.921   3.732
 5360SOL    HW216980   4.505   6.037   3.718
 5361SOL     OW16981   2.296   6.648   4.227
 5361SOL    HW116982   2.394   6.626   4.231
 5361SOL    HW216983   2.277   6.699   4.143
 5362SOL     OW16984   6.637   5.822   2.475
 5362SOL    HW116985   6.548   5.801   2.515
 5362SOL    HW216986   6.706   5.823   2.547
 5363SOL     OW16987   5.866   5.752   5.869
 5363SOL    HW116988   5.878   5.677   5.804
 5363SOL    HW216989   5.946   5.758   5.929
 5364SOL     OW16990   5.919   6.536   1.606
 5364SOL    HW116991   5.990   6.520   1.674
 5364SOL    HW216992   5.956   6.519   1.514
 5365SOL     OW16993   3.004   3.204   2.413
 5365SOL    HW116994   2.907   3.188   2.399
 5365SOL    HW216995   3.027   3.298   2.386
 5366SOL     OW16996   6.679   6.435   1.703
 5366SOL    HW116997   6.657   6.484   1.619
 5366SOL    HW216998   6.668   6.336   1.687
 5367SOL     OW16999   0.340   0.146   1.835
 5367SOL    HW117000   0.258   0.097   1.806
 5367SOL    HW217001   0.391   0.176   1.754
 5368SOL     OW17002   6.153   6.982   2.486
 5368SOL    HW117003   6.245   6.954   2.459
 5368SOL    HW217004   6.143   6.976   2.585
 5369SOL     OW17005   2.682   6.626   0.736
 5369SOL    HW117006   2.743   6.564   0.786
 5369SOL    HW217007   2.632   6.574   0.666
 5370SOL     OW17008   4.265   3.692   0.969
 5370SOL    HW117009   4.252   3.661   0.875
 5370SOL    HW217010   4.362   3.710   0.985
 5371SOL     OW17011   0.673   4.865   5.008
 5371SOL    HW117012   0.594   4.872   4.946
 5371SOL    HW217013   0.654   4.917   5.091
 5372SOL     OW17014   0.936   6.444   3.043
 5372SOL    HW117015   0.891   6.511   2.984
 5372SOL    HW217016   1.034   6.462   3.047
 5373SOL     OW17017   4.213   6.528   5.438
 5373SOL    HW117018   4.125   6.501   5.478
 5373SOL    HW217019   4.197   6.601   5.371
 5374SOL     OW17020   2.509   5.075   0.604
 5374SOL    HW117021   2.486   4.978   0.595
 5374SOL    HW217022   2.471   5.112   0.689
 5375SOL     OW17023   0.274   5.856   5.717
 5375SOL    HW117024   0.187   5.807   5.722
 5375SOL    HW217025   0.336   5.822   5.787
 5376SOL     OW17026   1.107   2.500   1.805
 5376SOL    HW117027   1.122   2.583   1.859
 5376SOL    HW217028   1.107   2.523   1.708
 5377SOL     OW17029   0.824   0.006   2.671
 5377SOL    HW117030   0.815   6.966   2.592
 5377SOL    HW217031   0.737   0.054   2.687
 5378SOL     OW17032   6.872   6.966   2.544
 5378SOL    HW117033   6.785   6.928   2.512
 5378SOL    HW217034   6.866   6.986   2.642
 5379SOL     OW17035   1.070   3.357   4.946
 5379SOL    HW117036   1.163   3.365   4.980
 5379SOL    HW217037   1.040   3.262   4.951
 5380SOL     OW17038   3.132   6.798   1.514
 5380SOL    HW117039   3.131   6.898   1.501
 5380SOL    HW217040   3.168   6.777   1.605
 5381SOL     OW17041   6.755   5.978   1.926
 5381SOL    HW117042   6.658   5.997   1.942
 5381SOL    HW217043   6.803   6.064   1.908
 5382SOL     OW17044   3.003   2.160   2.244
 5382SOL    HW117045   2.948   2.220   2.187
 5382SOL    HW217046   3.041   2.213   2.320
 5383SOL     OW17047   1.562   2.777   4.729
 5383SOL    HW117048   1.533   2.685   4.699
 5383SOL    HW217049   1.492   2.816   4.788
 5384SOL     OW17050   5.007   6.416   4.935
 5384SOL    HW117051   5.051   6.347   4.992
 5384SOL    HW217052   4.967   6.373   4.854
 5385SOL     OW17053   4.550   3.003   5.331
 5385SOL    HW117054   4.458   3.018   5.367
 5385SOL    HW217055   4.617   3.025   5.402
 5386SOL     OW17056   5.282   1.796   3.860
 5386SOL    HW117057   5.218   1.779   3.785
 5386SOL    HW217058   5.244   1.865   3.921
 5387SOL     OW17059   2.447   6.506   2.992
 5387SOL    HW117060   2.457   6.498   3.091
 5387SOL    HW217061   2.534   6.534   2.952
 5388SOL     OW17062   1.150   0.567   2.553
 5388SOL    HW117063   1.239   0.610   2.540
 5388SOL    HW217064   1.123   0.518   2.470
 5389SOL     OW17065   3.654   1.326   4.131
 5389SOL    HW117066   3.567   1.362   4.100
 5389SOL    HW217067   3.711   1.402   4.164
 5390SOL     OW17068   6.008   3.930   3.347
 5390SOL    HW117069   6.005   3.869   3.267
 5390SOL    HW217070   5.997   3.876   3.430
 5391SOL     OW17071   2.560   1.775   0.961
 5391SOL    HW117072   2.590   1.840   1.031
 5391SOL    HW217073   2.633   1.708   0.945
 5392SOL     OW17074   5.531   3.759   0.711
 5392SOL    HW117075   5.589   3.692   0.756
 5392SOL    HW217076   5.480   3.715   0.637
 5393SOL     OW17077   5.131   0.915   5.012
 5393SOL    HW117078   5.124   0.847   5.085
 5393SOL    HW217079   5.187   0.878   4.937
 5394SOL     OW17080   1.076   5.450   1.113
 5394SOL    HW117081   1.038   5.487   1.028
 5394SOL    HW217082   1.031   5.363   1.134
 5395SOL     OW17083   5.177   0.523   1.275
 5395SOL    HW117084   5.199   0.460   1.201
 5395SOL    HW217085   5.080   0.547   1.271
 5396SOL     OW17086   5.663   4.537   1.796
 5396SOL    HW117087   5.702   4.605   1.734
 5396SOL    HW217088   5.732   4.512   1.865
 5397SOL     OW17089   6.717   1.842   1.853
 5397SOL    HW117090   6.681   1.760   1.809
 5397SOL    HW217091   6.756   1.818   1.941
 5398SOL     OW17092   3.038   1.903   4.196
 5398SOL    HW117093   2.992   1.989   4.221
 5398SOL    HW217094   3.014   1.832   4.261
 5399SOL     OW17095   2.831   6.780   6.110
 5399SOL    HW117096   2.855   6.854   6.173
 5399SOL    HW217097   2.779   6.710   6.159
 5400SOL     OW17098   3.429   3.564   0.377
 5400SOL    HW117099   3.517   3.606   0.353
 5400SOL    HW217100   3.422   3.475   0.333
 5401SOL     OW17101   5.945   4.252   2.121
 5401SOL    HW117102   6.026   4.208   2.081
 5401SOL    HW217103   5.971   4.298   2.206
 5402SOL     OW17104   2.902   6.190   1.173
 5402SOL    HW117105   2.832   6.224   1.110
 5402SOL    HW217106   2.926   6.262   1.238
 5403SOL     OW17107   5.108   3.314   6.096
 5403SOL    HW117108   5.097   3.219   6.066
 5403SOL    HW217109   5.019   3.352   6.121
 5404SOL     OW17110   0.803   0.233   1.565
 5404SOL    HW117111   0.794   0.190   1.475
 5404SOL    HW217112   0.737   0.193   1.628
 5405SOL     OW17113   5.286   4.912   6.371
 5405SOL    HW117114   5.312   4.821   6.341
 5405SOL    HW217115   5.190   4.929   6.347
 5406SOL     OW17116   1.844   0.809   5.247
 5406SOL    HW117117   1.803   0.860   5.323
 5406SOL    HW217118   1.787   0.818   5.165
 5407SOL     OW17119   3.143   1.832   1.031
 5407SOL    HW117120   3.237   1.865   1.046
 5407SOL    HW217121   3.095   1.827   1.118
 5408SOL     OW17122   4.098   0.650   4.828
 5408SOL    HW117123   4.060   0.590   4.899
 5408SOL    HW217124   4.177   0.698   4.865
 5409SOL     OW17125   6.406   1.713   2.819
 5409SOL    HW117126   6.470   1.726   2.894
 5409SOL    HW217127   6.452   1.666   2.744
 5410SOL     OW17128   0.996   2.047   6.452
 5410SOL    HW117129   1.039   2.027   6.364
 5410SOL    HW217130   1.066   2.074   6.518
 5411SOL     OW17131   5.557   5.546   6.302
 5411SOL    HW117132   5.518   5.575   6.390
 5411SOL    HW217133   5.587   5.451   6.309
 5412SOL     OW17134   2.865   1.438   6.548
 5412SOL    HW117135   2.855   1.467   6.453
 5412SOL    HW217136   2.840   1.513   6.608
 5413SOL     OW17137   0.800   0.035   6.581
 5413SOL    HW117138   0.883   0.004   6.629
 5413SOL    HW217139   0.786   0.133   6.600
 5414SOL     OW17140   6.230   5.053   4.880
 5414SOL    HW117141   6.230   4.955   4.902
 5414SOL    HW217142   6.223   5.106   4.965
 5415SOL     OW17143   2.491   6.563   1.206
 5415SOL    HW117144   2.405   6.587   1.252
 5415SOL    HW217145   2.500   6.617   1.122
 5416SOL     OW17146   2.965   4.861   5.028
 5416SOL    HW117147   2.923   4.771   5.024
 5416SOL    HW217148   2.919   4.917   5.097
 5417SOL     OW17149   4.210   6.681   4.840
 5417SOL    HW117150   4.240   6.775   4.856
 5417SOL    HW217151   4.204   6.633   4.928
 5418SOL     OW17152   5.731   6.118   4.772
 5418SOL    HW117153   5.739   6.050   4.845
 5418SOL    HW217154   5.798   6.097   4.700
 5419SOL     OW17155   3.026   5.986   0.672
 5419SOL    HW117156   2.983   5.938   0.748
 5419SOL    HW217157   3.046   6.080   0.698
 5420SOL     OW17158   1.783   1.889   1.287
 5420SOL    HW117159   1.689   1.890   1.320
 5420SOL    HW217160   1.796   1.962   1.220
 5421SOL     OW17161   3.362   5.056   1.939
 5421SOL    HW117162   3.452   5.033   1.978
 5421SOL    HW217163   3.331   5.143   1.977
 5422SOL     OW17164   0.907   4.437   4.383
 5422SOL    HW117165   0.838   4.409   4.316
 5422SOL    HW217166   0.887   4.530   4.415
 5423SOL     OW17167   5.235   5.357   6.748
 5423SOL    HW117168   5.204   5.272   6.790
 5423SOL    HW217169   5.156   5.409   6.715
 5424SOL     OW17170   5.664   3.764   4.625
 5424SOL    HW117171   5.626   3.783   4.535
 5424SOL    HW217172   5.590   3.750   4.691
 5425SOL     OW17173   5.632   1.921   5.114
 5425SOL    HW117174   5.672   1.911   5.023
 5425SOL    HW217175   5.666   1.848   5.173
 5426SOL     OW17176   5.722   5.721   2.659
 5426SOL    HW117177   5.740   5.815   2.687
 5426SOL    HW217178   5.755   5.707   2.566
 5427SOL     OW17179   5.058   3.143   0.109
 5427SOL    HW117180   5.126   3.111   0.175
 5427SOL    HW217181   5.026   3.066   0.054
 5428SOL     OW17182   5.584   6.735   1.659
 5428SOL    HW117183   5.572   6.641   1.691
 5428SOL    HW217184   5.634   6.735   1.573
 5429SOL     OW17185   2.258   0.388   5.480
 5429SOL    HW117186   2.310   0.334   5.547
 5429SOL    HW217187   2.277   0.355   5.388
 5430SOL     OW17188   1.854   2.939   5.495
 5430SOL    HW117189   1.931   2.988   5.537
 5430SOL    HW217190   1.788   3.005   5.460
 5431SOL     OW17191   2.970   3.772   6.309
 5431SOL    HW117192   2.948   3.733   6.398
 5431SOL    HW217193   3.033   3.849   6.322
 5432SOL     OW17194   3.644   5.383   6.471
 5432SOL    HW117195   3.616   5.289   6.456
 5432SOL    HW217196   3.739   5.396   6.441
 5433SOL     OW17197   1.061   0.708   1.834
 5433SOL    HW117198   0.966   0.699   1.805
 5433SOL    HW217199   1.103   0.786   1.787
 5434SOL     OW17200   3.899   1.069   4.558
 5434SOL    HW117201   3.897   1.090   4.460
 5434SOL    HW217202   3.814   1.100   4.601
 5435SOL     OW17203   6.425   3.432   0.942
 5435SOL    HW117204   6.368   3.506   0.978
 5435SOL    HW217205   6.392   3.405   0.851
 5436SOL     OW17206   5.943   4.717   3.982
 5436SOL    HW117207   5.940   4.683   4.076
 5436SOL    HW217208   5.881   4.664   3.925
 5437SOL     OW17209   3.140   4.871   4.755
 5437SOL    HW117210   3.115   4.799   4.819
 5437SOL    HW217211   3.093   4.856   4.668
 5438SOL     OW17212   5.810   4.070   2.352
 5438SOL    HW117213   5.830   4.096   2.258
 5438SOL    HW217214   5.859   3.985   2.374
 5439SOL     OW17215   0.429   3.251   6.816
 5439SOL    HW117216   0.439   3.185   6.741
 5439SOL    HW217217   0.400   3.203   6.898
 5440SOL     OW17218   6.380   6.394   3.440
 5440SOL    HW117219   6.439   6.457   3.390
 5440SOL    HW217220   6.433   6.343   3.508
 5441SOL     OW17221   4.918   3.467   3.526
 5441SOL    HW117222   4.901   3.439   3.621
 5441SOL    HW217223   4.948   3.562   3.524
 5442SOL     OW17224   3.622   0.546   3.375
 5442SOL    HW117225   3.582   0.532   3.284
 5442SOL    HW217226   3.549   0.557   3.442
 5443SOL     OW17227   3.839   5.847   3.838
 5443SOL    HW117228   3.771   5.792   3.886
 5443SOL    HW217229   3.895   5.788   3.780
 5444SOL     OW17230   0.403   0.497   3.940
 5444SOL    HW117231   0.387   0.414   3.885
 5444SOL    HW217232   0.317   0.526   3.981
 5445SOL     OW17233   5.823   4.458   3.898
 5445SOL    HW117234   5.836   4.410   3.984
 5445SOL    HW217235   5.751   4.413   3.845
 5446SOL     OW17236   5.832   5.572   4.050
 5446SOL    HW117237   5.926   5.576   4.084
 5446SOL    HW217238   5.792   5.483   4.072
 5447SOL     OW17239   1.422   1.199   0.453
 5447SOL    HW117240   1.410   1.106   0.416
 5447SOL    HW217241   1.410   1.265   0.379
 5448SOL     OW17242   4.428   4.571   3.792
 5448SOL    HW117243   4.413   4.567   3.693
 5448SOL    HW217244   4.357   4.626   3.835
 5449SOL     OW17245   2.401   1.595   0.820
 5449SOL    HW117246   2.476   1.581   0.755
 5449SOL    HW217247   2.435   1.646   0.899
 5450SOL     OW17248   3.252   0.225   1.490
 5450SOL    HW117249   3.239   0.290   1.564
 5450SOL    HW217250   3.314   0.263   1.422
 5451SOL     OW17251   1.767   6.166   3.326
 5451SOL    HW117252   1.758   6.266   3.332
 5451SOL    HW217253   1.708   6.132   3.254
 5452SOL     OW17254   2.524   4.306   1.154
 5452SOL    HW117255   2.464   4.227   1.169
 5452SOL    HW217256   2.561   4.337   1.242
 5453SOL     OW17257   5.427   3.818   2.156
 5453SOL    HW117258   5.524   3.842   2.154
 5453SOL    HW217259   5.377   3.885   2.210
 5454SOL     OW17260   5.738   5.626   1.135
 5454SOL    HW117261   5.771   5.532   1.142
 5454SOL    HW217262   5.668   5.642   1.205
 5455SOL     OW17263   0.122   2.238   3.802
 5455SOL    HW117264   0.202   2.201   3.755
 5455SOL    HW217265   0.095   2.324   3.759
 5456SOL     OW17266   3.585   1.873   6.791
 5456SOL    HW117267   3.629   1.812   6.725
 5456SOL    HW217268   3.572   1.824   6.878
 5457SOL     OW17269   6.621   1.955   1.170
 5457SOL    HW117270   6.562   2.023   1.126
 5457SOL    HW217271   6.707   1.948   1.120
 5458SOL     OW17272   6.943   5.316   0.339
 5458SOL    HW117273   6.868   5.290   0.278
 5458SOL    HW217274   6.947   5.415   0.348
 5459SOL     OW17275   2.178   4.707   5.649
 5459SOL    HW117276   2.237   4.745   5.720
 5459SOL    HW217277   2.153   4.614   5.674
 5460SOL     OW17278   2.775   6.998   2.987
 5460SOL    HW117279   2.769   0.076   2.968
 5460SOL    HW217280   2.871   6.972   2.996
 5461SOL     OW17281   0.745   6.923   4.346
 5461SOL    HW117282   0.793   6.999   4.390
 5461SOL    HW217283   0.712   6.860   4.416
 5462SOL     OW17284   5.529   6.102   0.116
 5462SOL    HW117285   5.613   6.090   0.064
 5462SOL    HW217286   5.525   6.033   0.188
 5463SOL     OW17287   0.336   1.850   7.012
 5463SOL    HW117288   0.369   1.811   0.078
 5463SOL    HW217289   0.395   1.927   6.986
 5464SOL     OW17290   5.910   6.702   4.906
 5464SOL    HW117291   5.862   6.788   4.926
 5464SOL    HW217292   6.006   6.710   4.934
 5465SOL     OW17293   5.837   0.911   3.570
 5465SOL    HW117294   5.761   0.855   3.538
 5465SOL    HW217295   5.833   1.001   3.528
 5466SOL     OW17296   5.055   2.658   5.683
 5466SOL    HW117297   5.019   2.683   5.594
 5466SOL    HW217298   5.155   2.667   5.682
 5467SOL     OW17299   6.444   3.394   3.336
 5467SOL    HW117300   6.363   3.353   3.294
 5467SOL    HW217301   6.416   3.466   3.399
 5468SOL     OW17302   6.706   1.635   5.366
 5468SOL    HW117303   6.709   1.567   5.292
 5468SOL    HW217304   6.672   1.592   5.449
 5469SOL     OW17305   3.418   6.157   5.288
 5469SOL    HW117306   3.410   6.081   5.224
 5469SOL    HW217307   3.381   6.131   5.377
 5470SOL     OW17308   3.615   5.299   3.921
 5470SOL    HW117309   3.689   5.233   3.919
 5470SOL    HW217310   3.611   5.342   4.012
 5471SOL     OW17311   6.536   0.765   2.975
 5471SOL    HW117312   6.471   0.760   2.899
 5471SOL    HW217313   6.539   0.859   3.009
 5472SOL     OW17314   2.914   3.347   6.454
 5472SOL    HW117315   2.953   3.263   6.415
 5472SOL    HW217316   2.842   3.381   6.394
 5473SOL     OW17317   1.746   3.417   0.683
 5473SOL    HW117318   1.806   3.343   0.715
 5473SOL    HW217319   1.751   3.494   0.748
 5474SOL     OW17320   1.108   4.245   4.835
 5474SOL    HW117321   1.016   4.272   4.863
 5474SOL    HW217322   1.175   4.284   4.898
 5475SOL     OW17323   1.347   1.935   0.679
 5475SOL    HW117324   1.291   1.868   0.727
 5475SOL    HW217325   1.288   1.996   0.625
 5476SOL     OW17326   2.120   4.765   5.107
 5476SOL    HW117327   2.169   4.685   5.071
 5476SOL    HW217328   2.076   4.814   5.031
 5477SOL     OW17329   1.936   4.137   2.624
 5477SOL    HW117330   1.904   4.044   2.639
 5477SOL    HW217331   2.035   4.136   2.608
 5478SOL     OW17332   3.983   0.257   5.594
 5478SOL    HW117333   4.061   0.245   5.656
 5478SOL    HW217334   3.899   0.229   5.641
 5479SOL     OW17335   4.949   2.052   4.965
 5479SOL    HW117336   4.853   2.075   4.948
 5479SOL    HW217337   4.959   1.953   4.971
 5480SOL     OW17338   5.331   5.607   4.088
 5480SOL    HW117339   5.263   5.662   4.137
 5480SOL    HW217340   5.351   5.651   4.000
 5481SOL     OW17341   4.529   1.638   4.346
 5481SOL    HW117342   4.497   1.578   4.419
 5481SOL    HW217343   4.505   1.600   4.257
 5482SOL     OW17344   3.653   3.613   2.331
 5482SOL    HW117345   3.570   3.640   2.281
 5482SOL    HW217346   3.732   3.628   2.273
 5483SOL     OW17347   0.623   2.183   5.170
 5483SOL    HW117348   0.581   2.180   5.261
 5483SOL    HW217349   0.554   2.159   5.101
 5484SOL     OW17350   4.810   0.450   3.930
 5484SOL    HW117351   4.848   0.429   4.020
 5484SOL    HW217352   4.798   0.549   3.922
 5485SOL     OW17353   3.257   6.993   5.278
 5485SOL    HW117354   3.164   7.016   5.250
 5485SOL    HW217355   3.265   6.895   5.292
 5486SOL     OW17356   1.866   5.603   5.504
 5486SOL    HW117357   1.892   5.522   5.556
 5486SOL    HW217358   1.813   5.576   5.424
 5487SOL     OW17359   4.910   3.117   6.247
 5487SOL    HW117360   4.934   3.104   6.343
 5487SOL    HW217361   4.845   3.192   6.238
 5488SOL     OW17362   5.684   0.863   1.419
 5488SOL    HW117363   5.728   0.888   1.505
 5488SOL    HW217364   5.618   0.790   1.434
 5489SOL     OW17365   1.522   5.032   1.286
 5489SOL    HW117366   1.613   4.993   1.298
 5489SOL    HW217367   1.462   4.997   1.358
 5490SOL     OW17368   3.842   6.899   0.204
 5490SOL    HW117369   3.891   6.819   0.239
 5490SOL    HW217370   3.745   6.876   0.195
 5491SOL     OW17371   1.895   3.642   0.808
 5491SOL    HW117372   1.919   3.658   0.904
 5491SOL    HW217373   1.973   3.599   0.762
 5492SOL     OW17374   0.594   2.138   6.406
 5492SOL    HW117375   0.609   2.043   6.378
 5492SOL    HW217376   0.646   2.157   6.489
 5493SOL     OW17377   3.815   4.051   4.316
 5493SOL    HW117378   3.761   4.070   4.234
 5493SOL    HW217379   3.899   4.004   4.290
 5494SOL     OW17380   6.596   2.478   6.265
 5494SOL    HW117381   6.553   2.542   6.201
 5494SOL    HW217382   6.694   2.495   6.268
 5495SOL     OW17383   4.202   1.989   1.332
 5495SOL    HW117384   4.145   2.007   1.412
 5495SOL    HW217385   4.144   1.988   1.250
 5496SOL     OW17386   2.528   0.168   3.063
 5496SOL    HW117387   2.595   0.195   2.993
 5496SOL    HW217388   2.506   0.071   3.053
 5497SOL     OW17389   0.154   1.844   3.803
 5497SOL    HW117390   0.212   1.924   3.789
 5497SOL    HW217391   0.196   1.784   3.872
 5498SOL     OW17392   6.197   6.354   0.913
 5498SOL    HW117393   6.252   6.436   0.928
 5498SOL    HW217394   6.128   6.346   0.985
 5499SOL     OW17395   0.064   0.958   4.821
 5499SOL    HW117396   0.083   0.880   4.762
 5499SOL    HW217397   0.002   1.022   4.774
 5500SOL     OW17398   1.537   0.165   0.447
 5500SOL    HW117399   1.532   0.189   0.544
 5500SOL    HW217400   1.614   0.104   0.431
 5501SOL     OW17401   3.924   6.394   0.525
 5501SOL    HW117402   3.849   6.410   0.460
 5501SOL    HW217403   3.907   6.308   0.574
 5502SOL     OW17404   5.855   3.830   6.937
 5502SOL    HW117405   5.851   3.894   7.014
 5502SOL    HW217406   5.789   3.757   6.950
 5503SOL     OW17407   6.998   5.139   2.850
 5503SOL    HW117408   0.073   5.136   2.819
 5503SOL    HW217409   6.978   5.230   2.886
 5504SOL     OW17410   4.030   1.011   5.040
 5504SOL    HW117411   4.126   1.030   5.018
 5504SOL    HW217412   3.981   0.987   4.956
 5505SOL     OW17413   1.824   5.360   4.147
 5505SOL    HW117414   1.899   5.295   4.136
 5505SOL    HW217415   1.810   5.410   4.062
 5506SOL     OW17416   1.318   2.171   5.939
 5506SOL    HW117417   1.369   2.187   5.855
 5506SOL    HW217418   1.334   2.078   5.971
 5507SOL     OW17419   2.743   0.259   3.830
 5507SOL    HW117420   2.739   0.159   3.831
 5507SOL    HW217421   2.652   0.296   3.845
 5508SOL     OW17422   1.309   0.629   5.912
 5508SOL    HW117423   1.253   0.678   5.979
 5508SOL    HW217424   1.354   0.552   5.957
 5509SOL     OW17425   0.873   6.435   0.295
 5509SOL    HW117426   0.877   6.476   0.204
 5509SOL    HW217427   0.960   6.392   0.317
 5510SOL     OW17428   4.893   5.701   1.130
 5510SOL    HW117429   4.981   5.659   1.108
 5510SOL    HW217430   4.902   5.800   1.125
 5511SOL     OW17431   2.084   1.343   4.143
 5511SOL    HW117432   2.047   1.301   4.061
 5511SOL    HW217433   2.184   1.348   4.136
 5512SOL     OW17434   5.854   1.970   1.555
 5512SOL    HW117435   5.813   1.947   1.643
 5512SOL    HW217436   5.954   1.975   1.565
 5513SOL     OW17437   4.240   5.312   6.913
 5513SOL    HW117438   4.160   5.345   6.963
 5513SOL    HW217439   4.255   5.215   6.933
 5514SOL     OW17440   3.809   6.852   3.359
 5514SOL    HW117441   3.865   6.934   3.352
 5514SOL    HW217442   3.858   6.774   3.320
 5515SOL     OW17443   0.542   4.949   1.200
 5515SOL    HW117444   0.511   4.922   1.109
 5515SOL    HW217445   0.529   5.047   1.212
 5516SOL     OW17446   2.001   3.983   6.767
 5516SOL    HW117447   1.942   3.905   6.745
 5516SOL    HW217448   2.076   3.988   6.701
 5517SOL     OW17449   1.944   3.390   2.009
 5517SOL    HW117450   2.041   3.416   1.999
 5517SOL    HW217451   1.891   3.471   2.035
 5518SOL     OW17452   6.474   6.413   6.598
 5518SOL    HW117453   6.384   6.445   6.569
 5518SOL    HW217454   6.541   6.487   6.585
 5519SOL     OW17455   5.333   3.422   2.843
 5519SOL    HW117456   5.309   3.403   2.938
 5519SOL    HW217457   5.397   3.353   2.810
 5520SOL     OW17458   6.348   5.785   1.853
 5520SOL    HW117459   6.412   5.736   1.911
 5520SOL    HW217460   6.280   5.831   1.910
 5521SOL     OW17461   5.321   0.171   1.672
 5521SOL    HW117462   5.242   0.192   1.613
 5521SOL    HW217463   5.289   0.123   1.754
 5522SOL     OW17464   0.161   5.237   0.425
 5522SOL    HW117465   0.064   5.245   0.401
 5522SOL    HW217466   0.216   5.289   0.359
 5523SOL     OW17467   3.691   6.973   2.305
 5523SOL    HW117468   3.730   0.035   2.345
 5523SOL    HW217469   3.718   6.966   2.209
 5524SOL     OW17470   5.192   5.257   4.917
 5524SOL    HW117471   5.136   5.305   4.849
 5524SOL    HW217472   5.288   5.279   4.904
 5525SOL     OW17473   0.289   2.715   0.651
 5525SOL    HW117474   0.214   2.671   0.701
 5525SOL    HW217475   0.273   2.706   0.553
 5526SOL     OW17476   4.741   4.914   4.271
 5526SOL    HW117477   4.648   4.933   4.238
 5526SOL    HW217478   4.772   4.989   4.329
 5527SOL     OW17479   5.616   3.827   3.759
 5527SOL    HW117480   5.667   3.803   3.676
 5527SOL    HW217481   5.662   3.787   3.839
 5528SOL     OW17482   0.809   1.454   6.851
 5528SOL    HW117483   0.907   1.477   6.846
 5528SOL    HW217484   0.767   1.504   6.926
 5529SOL     OW17485   2.268   0.395   2.960
 5529SOL    HW117486   2.248   0.366   3.053
 5529SOL    HW217487   2.183   0.422   2.914
 5530SOL     OW17488   6.036   2.536   2.126
 5530SOL    HW117489   5.941   2.539   2.157
 5530SOL    HW217490   6.082   2.457   2.167
 5531SOL     OW17491   3.406   2.905   2.455
 5531SOL    HW117492   3.397   2.844   2.534
 5531SOL    HW217493   3.357   2.866   2.377
 5532SOL     OW17494   0.896   2.570   0.538
 5532SOL    HW117495   0.824   2.541   0.476
 5532SOL    HW217496   0.899   2.509   0.617
 5533SOL     OW17497   3.662   1.291   3.188
 5533SOL    HW117498   3.601   1.231   3.240
 5533SOL    HW217499   3.657   1.268   3.091
 5534SOL     OW17500   1.043   2.197   5.874
 5534SOL    HW117501   1.047   2.279   5.817
 5534SOL    HW217502   1.135   2.177   5.910
 5535SOL     OW17503   0.207   2.926   3.580
 5535SOL    HW117504   0.244   2.834   3.592
 5535SOL    HW217505   0.277   2.994   3.602
 5536SOL     OW17506   2.920   1.380   4.315
 5536SOL    HW117507   2.971   1.423   4.240
 5536SOL    HW217508   2.835   1.431   4.330
 5537SOL     OW17509   2.453   1.256   2.643
 5537SOL    HW117510   2.378   1.240   2.579
 5537SOL    HW217511   2.541   1.243   2.596
 5538SOL     OW17512   2.545   6.449   5.617
 5538SOL    HW117513   2.560   6.547   5.614
 5538SOL    HW217514   2.451   6.430   5.646
 5539SOL     OW17515   1.332   3.379   1.155
 5539SOL    HW117516   1.303   3.285   1.133
 5539SOL    HW217517   1.291   3.443   1.090
 5540SOL     OW17518   6.006   3.766   3.819
 5540SOL    HW117519   5.923   3.758   3.875
 5540SOL    HW217520   6.085   3.781   3.878
 5541SOL     OW17521   6.159   0.486   6.307
 5541SOL    HW117522   6.246   0.471   6.260
 5541SOL    HW217523   6.149   0.419   6.380
 5542SOL     OW17524   5.723   4.403   6.119
 5542SOL    HW117525   5.804   4.352   6.149
 5542SOL    HW217526   5.642   4.344   6.126
 5543SOL     OW17527   3.538   5.407   5.894
 5543SOL    HW117528   3.607   5.449   5.835
 5543SOL    HW217529   3.509   5.320   5.854
 5544SOL     OW17530   5.712   5.958   5.962
 5544SOL    HW117531   5.743   5.981   6.054
 5544SOL    HW217532   5.776   5.893   5.920
 5545SOL     OW17533   3.756   1.766   2.004
 5545SOL    HW117534   3.809   1.793   1.923
 5545SOL    HW217535   3.687   1.700   1.978
 5546SOL     OW17536   1.189   5.942   4.630
 5546SOL    HW117537   1.148   5.879   4.563
 5546SOL    HW217538   1.270   5.984   4.590
 5547SOL     OW17539   2.691   0.195   4.554
 5547SOL    HW117540   2.607   0.147   4.530
 5547SOL    HW217541   2.769   0.149   4.512
 5548SOL     OW17542   5.646   3.800   6.049
 5548SOL    HW117543   5.706   3.879   6.030
 5548SOL    HW217544   5.585   3.822   6.125
 5549SOL     OW17545   4.231   3.812   6.747
 5549SOL    HW117546   4.205   3.756   6.826
 5549SOL    HW217547   4.217   3.909   6.769
 5550SOL     OW17548   2.394   4.330   1.959
 5550SOL    HW117549   2.357   4.337   1.867
 5550SOL    HW217550   2.451   4.410   1.978
 5551SOL     OW17551   1.867   0.151   2.975
 5551SOL    HW117552   1.931   0.080   3.006
 5551SOL    HW217553   1.815   0.185   3.053
 5552SOL     OW17554   0.144   0.202   7.007
 5552SOL    HW117555   0.083   0.177   0.062
 5552SOL    HW217556   0.100   0.271   6.950
 5553SOL     OW17557   5.399   6.117   6.888
 5553SOL    HW117558   5.450   6.102   6.972
 5553SOL    HW217559   5.406   6.036   6.830
 5554SOL     OW17560   4.150   1.707   5.448
 5554SOL    HW117561   4.216   1.714   5.373
 5554SOL    HW217562   4.095   1.790   5.453
 5555SOL     OW17563   1.894   4.721   3.798
 5555SOL    HW117564   1.973   4.764   3.755
 5555SOL    HW217565   1.838   4.677   3.728
 5556SOL     OW17566   6.501   1.389   3.349
 5556SOL    HW117567   6.500   1.486   3.327
 5556SOL    HW217568   6.438   1.371   3.425
 5557SOL     OW17569   3.488   6.856   2.634
 5557SOL    HW117570   3.479   6.766   2.676
 5557SOL    HW217571   3.582   6.889   2.646
 5558SOL     OW17572   4.756   3.338   6.226
 5558SOL    HW117573   4.769   3.433   6.253
 5558SOL    HW217574   4.730   3.333   6.130
 5559SOL     OW17575   2.665   0.550   2.370
 5559SOL    HW117576   2.681   0.487   2.447
 5559SOL    HW217577   2.598   0.509   2.308
 5560SOL     OW17578   0.945   0.240   3.163
 5560SOL    HW117579   0.900   0.225   3.075
 5560SOL    HW217580   1.019   0.174   3.175
 5561SOL     OW17581   1.378   2.340   4.161
 5561SOL    HW117582   1.394   2.283   4.080
 5561SOL    HW217583   1.297   2.398   4.145
 5562SOL     OW17584   3.268   2.066   0.138
 5562SOL    HW117585   3.198   2.109   0.195
 5562SOL    HW217586   3.318   2.137   0.088
 5563SOL     OW17587   4.167   5.525   2.313
 5563SOL    HW117588   4.191   5.428   2.309
 5563SOL    HW217589   4.242   5.580   2.277
 5564SOL     OW17590   4.740   1.194   1.985
 5564SOL    HW117591   4.782   1.149   2.064
 5564SOL    HW217592   4.712   1.287   2.010
 5565SOL     OW17593   5.016   1.563   6.263
 5565SOL    HW117594   4.921   1.592   6.256
 5565SOL    HW217595   5.075   1.644   6.275
 5566SOL     OW17596   1.928   5.698   6.921
 5566SOL    HW117597   1.953   5.635   6.995
 5566SOL    HW217598   2.009   5.749   6.892
 5567SOL     OW17599   0.243   3.938   1.906
 5567SOL    HW117600   0.176   4.011   1.918
 5567SOL    HW217601   0.205   3.866   1.849
 5568SOL     OW17602   4.137   2.262   3.495
 5568SOL    HW117603   4.166   2.210   3.414
 5568SOL    HW217604   4.193   2.344   3.503
 5569SOL     OW17605   1.980   1.376   2.672
 5569SOL    HW117606   2.009   1.402   2.764
 5569SOL    HW217607   1.930   1.289   2.675
 5570SOL     OW17608   5.437   4.177   4.878
 5570SOL    HW117609   5.413   4.196   4.973
 5570SOL    HW217610   5.519   4.120   4.875
 5571SOL     OW17611   0.274   5.921   0.621
 5571SOL    HW117612   0.230   5.979   0.690
 5571SOL    HW217613   0.301   5.834   0.662
 5572SOL     OW17614   1.076   2.609   5.132
 5572SOL    HW117615   1.108   2.542   5.199
 5572SOL    HW217616   1.016   2.564   5.066
 5573SOL     OW17617   1.722   3.451   6.470
 5573SOL    HW117618   1.674   3.380   6.521
 5573SOL    HW217619   1.807   3.475   6.519
 5574SOL     OW17620   6.052   2.050   3.599
 5574SOL    HW117621   6.072   1.973   3.539
 5574SOL    HW217622   6.134   2.072   3.653
 5575SOL     OW17623   6.700   1.279   1.019
 5575SOL    HW117624   6.634   1.215   0.978
 5575SOL    HW217625   6.764   1.228   1.076
 5576SOL     OW17626   1.116   5.735   2.757
 5576SOL    HW117627   1.094   5.671   2.683
 5576SOL    HW217628   1.127   5.827   2.719
 5577SOL     OW17629   2.585   2.815   5.480
 5577SOL    HW117630   2.680   2.802   5.508
 5577SOL    HW217631   2.579   2.817   5.380
 5578SOL     OW17632   4.204   4.269   0.318
 5578SOL    HW117633   4.124   4.282   0.377
 5578SOL    HW217634   4.287   4.297   0.366
 5579SOL     OW17635   0.385   3.598   6.154
 5579SOL    HW117636   0.471   3.628   6.196
 5579SOL    HW217637   0.327   3.556   6.223
 5580SOL     OW17638   4.889   3.140   5.714
 5580SOL    HW117639   4.820   3.156   5.644
 5580SOL    HW217640   4.980   3.155   5.674
 5581SOL     OW17641   2.837   6.598   1.680
 5581SOL    HW117642   2.790   6.672   1.633
 5581SOL    HW217643   2.906   6.558   1.619
 5582SOL     OW17644   3.800   3.298   3.995
 5582SOL    HW117645   3.810   3.312   4.094
 5582SOL    HW217646   3.704   3.280   3.974
 5583SOL     OW17647   4.156   0.537   3.027
 5583SOL    HW117648   4.156   0.586   3.114
 5583SOL    HW217649   4.136   0.601   2.953
 5584SOL     OW17650   5.508   4.282   3.822
 5584SOL    HW117651   5.500   4.270   3.723
 5584SOL    HW217652   5.472   4.372   3.848
 5585SOL     OW17653   4.718   6.436   4.182
 5585SOL    HW117654   4.773   6.373   4.238
 5585SOL    HW217655   4.623   6.431   4.212
 5586SOL     OW17656   0.004   2.261   0.010
 5586SOL    HW117657   0.078   2.327   0.023
 5586SOL    HW217658   0.043   2.173   7.003
 5587SOL     OW17659   3.962   6.148   2.526
 5587SOL    HW117660   4.053   6.157   2.486
 5587SOL    HW217661   3.923   6.059   2.502
 5588SOL     OW17662   1.723   0.054   2.588
 5588SOL    HW117663   1.816   0.075   2.619
 5588SOL    HW217664   1.681   0.137   2.551
 5589SOL     OW17665   5.954   2.485   6.127
 5589SOL    HW117666   5.877   2.520   6.180
 5589SOL    HW217667   6.039   2.503   6.177
 5590SOL     OW17668   6.553   5.805   2.960
 5590SOL    HW117669   6.587   5.732   2.901
 5590SOL    HW217670   6.480   5.769   3.019
 5591SOL     OW17671   6.000   0.668   6.580
 5591SOL    HW117672   5.926   0.604   6.559
 5591SOL    HW217673   6.080   0.616   6.612
 5592SOL     OW17674   0.492   4.552   2.453
 5592SOL    HW117675   0.414   4.517   2.505
 5592SOL    HW217676   0.498   4.502   2.366
 5593SOL     OW17677   0.121   2.071   6.078
 5593SOL    HW117678   0.066   2.141   6.123
 5593SOL    HW217679   0.214   2.105   6.063
 5594SOL     OW17680   2.856   1.062   0.156
 5594SOL    HW117681   2.816   1.149   0.186
 5594SOL    HW217682   2.863   1.000   0.234
 5595SOL     OW17683   5.831   0.209   5.454
 5595SOL    HW117684   5.807   0.283   5.516
 5595SOL    HW217685   5.750   0.152   5.436
 5596SOL     OW17686   5.423   7.018   3.069
 5596SOL    HW117687   5.464   0.062   3.005
 5596SOL    HW217688   5.472   0.003   3.157
 5597SOL     OW17689   6.737   1.347   5.530
 5597SOL    HW117690   6.698   1.421   5.584
 5597SOL    HW217691   6.837   1.354   5.531
 5598SOL     OW17692   6.373   2.536   4.532
 5598SOL    HW117693   6.328   2.490   4.608
 5598SOL    HW217694   6.355   2.486   4.447
 5599SOL     OW17695   0.137   2.787   1.956
 5599SOL    HW117696   0.168   2.880   1.976
 5599SOL    HW217697   0.203   2.741   1.897
 5600SOL     OW17698   2.393   0.007   2.234
 5600SOL    HW117699   2.304   6.990   2.256
 5600SOL    HW217700   2.417   7.005   2.139
 5601SOL     OW17701   3.329   1.513   6.329
 5601SOL    HW117702   3.423   1.524   6.297
 5601SOL    HW217703   3.277   1.597   6.311
 5602SOL     OW17704   0.672   0.254   2.398
 5602SOL    HW117705   0.612   0.240   2.476
 5602SOL    HW217706   0.624   0.307   2.328
 5603SOL     OW17707   5.489   2.244   6.317
 5603SOL    HW117708   5.571   2.198   6.350
 5603SOL    HW217709   5.515   2.315   6.251
 5604SOL     OW17710   6.864   2.216   5.408
 5604SOL    HW117711   6.827   2.165   5.486
 5604SOL    HW217712   6.841   2.168   5.323
 5605SOL     OW17713   1.710   7.013   4.638
 5605SOL    HW117714   1.640   7.005   4.709
 5605SOL    HW217715   1.786   6.952   4.660
 5606SOL     OW17716   5.759   0.888   0.858
 5606SOL    HW117717   5.781   0.893   0.956
 5606SOL    HW217718   5.707   0.970   0.832
 5607SOL     OW17719   5.813   1.441   3.932
 5607SOL    HW117720   5.898   1.392   3.913
 5607SOL    HW217721   5.776   1.478   3.847
 5608SOL     OW17722   6.175   1.583   2.851
 5608SOL    HW117723   6.154   1.540   2.764
 5608SOL    HW217724   6.258   1.639   2.841
 5609SOL     OW17725   4.766   6.136   1.325
 5609SOL    HW117726   4.712   6.071   1.378
 5609SOL    HW217727   4.706   6.207   1.287
 5610SOL     OW17728   5.359   4.171   1.638
 5610SOL    HW117729   5.458   4.163   1.653
 5610SOL    HW217730   5.332   4.111   1.564
 5611SOL     OW17731   0.943   4.850   2.656
 5611SOL    HW117732   0.987   4.789   2.591
 5611SOL    HW217733   0.983   4.941   2.650
 5612SOL     OW17734   3.794   3.541   0.524
 5612SOL    HW117735   3.749   3.617   0.478
 5612SOL    HW217736   3.846   3.488   0.457
 5613SOL     OW17737   5.724   5.258   4.928
 5613SOL    HW117738   5.714   5.286   5.024
 5613SOL    HW217739   5.797   5.191   4.921
 5614SOL     OW17740   5.160   3.293   5.133
 5614SOL    HW117741   5.063   3.297   5.106
 5614SOL    HW217742   5.201   3.210   5.096
 5615SOL     OW17743   6.217   1.601   4.126
 5615SOL    HW117744   6.163   1.548   4.192
 5615SOL    HW217745   6.296   1.640   4.172
 5616SOL     OW17746   1.887   2.804   4.096
 5616SOL    HW117747   1.844   2.881   4.049
 5616SOL    HW217748   1.820   2.758   4.155
 5617SOL     OW17749   1.466   4.017   5.107
 5617SOL    HW117750   1.419   4.008   5.195
 5617SOL    HW217751   1.401   4.004   5.033
 5618SOL     OW17752   6.421   4.524   3.481
 5618SOL    HW117753   6.509   4.487   3.510
 5618SOL    HW217754   6.437   4.601   3.419
 5619SOL     OW17755   3.292   3.919   3.577
 5619SOL    HW117756   3.355   3.991   3.607
 5619SOL    HW217757   3.293   3.844   3.643
 5620SOL     OW17758   4.628   3.814   6.922
 5620SOL    HW117759   4.534   3.784   6.939
 5620SOL    HW217760   4.651   3.800   6.826
 5621SOL     OW17761   1.335   2.963   6.434
 5621SOL    HW117762   1.362   2.985   6.528
 5621SOL    HW217763   1.247   3.006   6.413
 5622SOL     OW17764   5.206   0.013   5.580
 5622SOL    HW117765   5.130   0.051   5.527
 5622SOL    HW217766   5.247   0.085   5.635
 5623SOL     OW17767   4.578   6.274   5.140
 5623SOL    HW117768   4.524   6.294   5.222
 5623SOL    HW217769   4.654   6.339   5.134
 5624SOL     OW17770   0.470   4.941   4.023
 5624SOL    HW117771   0.399   4.900   4.081
 5624SOL    HW217772   0.555   4.947   4.075
 5625SOL     OW17773   6.681   6.145   5.324
 5625SOL    HW117774   6.773   6.166   5.357
 5625SOL    HW217775   6.687   6.084   5.244
 5626SOL     OW17776   2.799   5.066   4.103
 5626SOL    HW117777   2.767   5.133   4.169
 5626SOL    HW217778   2.778   4.974   4.137
 5627SOL     OW17779   6.960   4.523   6.481
 5627SOL    HW117780   7.018   4.560   6.554
 5627SOL    HW217781   6.889   4.590   6.458
 5628SOL     OW17782   1.593   2.502   1.416
 5628SOL    HW117783   1.528   2.427   1.412
 5628SOL    HW217784   1.653   2.491   1.495
 5629SOL     OW17785   4.879   2.843   1.777
 5629SOL    HW117786   4.821   2.881   1.849
 5629SOL    HW217787   4.887   2.909   1.702
 5630SOL     OW17788   2.001   4.262   6.714
 5630SOL    HW117789   2.058   4.239   6.635
 5630SOL    HW217790   1.975   4.178   6.762
 5631SOL     OW17791   5.055   1.406   1.659
 5631SOL    HW117792   5.124   1.476   1.640
 5631SOL    HW217793   4.999   1.435   1.737
 5632SOL     OW17794   3.225   2.256   5.433
 5632SOL    HW117795   3.272   2.329   5.482
 5632SOL    HW217796   3.203   2.287   5.341
 5633SOL     OW17797   6.008   4.809   4.758
 5633SOL    HW117798   6.093   4.803   4.812
 5633SOL    HW217799   6.030   4.797   4.661
 5634SOL     OW17800   2.080   4.871   4.833
 5634SOL    HW117801   1.996   4.835   4.792
 5634SOL    HW217802   2.158   4.816   4.802
 5635SOL     OW17803   1.932   6.064   6.951
 5635SOL    HW117804   1.974   6.100   0.014
 5635SOL    HW217805   1.954   6.123   6.874
 5636SOL     OW17806   6.307   0.152   5.271
 5636SOL    HW117807   6.245   0.124   5.198
 5636SOL    HW217808   6.386   0.200   5.232
 5637SOL     OW17809   3.692   0.312   3.574
 5637SOL    HW117810   3.750   0.394   3.570
 5637SOL    HW217811   3.608   0.329   3.523
 5638SOL     OW17812   6.449   4.242   0.731
 5638SOL    HW117813   6.444   4.239   0.830
 5638SOL    HW217814   6.360   4.217   0.693
 5639SOL     OW17815   2.491   0.455   2.181
 5639SOL    HW117816   2.504   0.443   2.082
 5639SOL    HW217817   2.445   0.543   2.198
 5640SOL     OW17818   2.680   0.501   2.712
 5640SOL    HW117819   2.597   0.447   2.727
 5640SOL    HW217820   2.701   0.554   2.794
 5641SOL     OW17821   0.946   4.778   5.775
 5641SOL    HW117822   1.003   4.860   5.762
 5641SOL    HW217823   0.851   4.800   5.755
 5642SOL     OW17824   0.841   5.521   4.940
 5642SOL    HW117825   0.863   5.424   4.939
 5642SOL    HW217826   0.766   5.539   5.003
 5643SOL     OW17827   3.247   0.696   4.177
 5643SOL    HW117828   3.304   0.778   4.175
 5643SOL    HW217829   3.287   0.629   4.239
 5644SOL     OW17830   3.546   0.112   4.767
 5644SOL    HW117831   3.581   0.200   4.798
 5644SOL    HW217832   3.503   0.123   4.677
 5645SOL     OW17833   5.903   4.805   2.889
 5645SOL    HW117834   5.869   4.713   2.906
 5645SOL    HW217835   5.948   4.807   2.799
 5646SOL     OW17836   0.572   5.566   3.572
 5646SOL    HW117837   0.538   5.472   3.563
 5646SOL    HW217838   0.664   5.565   3.611
 5647SOL     OW17839   5.889   6.864   0.834
 5647SOL    HW117840   5.951   6.942   0.835
 5647SOL    HW217841   5.816   6.879   0.902
 5648SOL     OW17842   1.589   1.017   3.530
 5648SOL    HW117843   1.507   0.961   3.525
 5648SOL    HW217844   1.653   0.989   3.458
 5649SOL     OW17845   6.673   0.124   5.314
 5649SOL    HW117846   6.611   0.196   5.282
 5649SOL    HW217847   6.628   0.035   5.305
 5650SOL     OW17848   1.458   5.249   1.092
 5650SOL    HW117849   1.460   5.332   1.149
 5650SOL    HW217850   1.487   5.171   1.147
 5651SOL     OW17851   0.412   1.184   1.706
 5651SOL    HW117852   0.425   1.283   1.697
 5651SOL    HW217853   0.324   1.159   1.664
 5652SOL     OW17854   6.352   0.015   2.128
 5652SOL    HW117855   6.305   6.962   2.177
 5652SOL    HW217856   6.451   7.020   2.133
 5653SOL     OW17857   0.715   6.092   6.722
 5653SOL    HW117858   0.677   6.001   6.705
 5653SOL    HW217859   0.708   6.113   6.820
 5654SOL     OW17860   6.418   6.779   5.731
 5654SOL    HW117861   6.499   6.721   5.724
 5654SOL    HW217862   6.417   6.844   5.655
 5655SOL     OW17863   2.106   3.692   4.975
 5655SOL    HW117864   2.173   3.640   4.921
 5655SOL    HW217865   2.113   3.789   4.953
 5656SOL     OW17866   0.115   3.419   0.306
 5656SOL    HW117867   0.059   3.385   0.381
 5656SOL    HW217868   0.201   3.369   0.303
 5657SOL     OW17869   5.618   1.157   6.985
 5657SOL    HW117870   5.565   1.198   0.038
 5657SOL    HW217871   5.608   1.058   6.988
 5658SOL     OW17872   3.838   4.952   5.749
 5658SOL    HW117873   3.837   4.964   5.649
 5658SOL    HW217874   3.924   4.987   5.786
 5659SOL     OW17875   4.053   3.708   3.843
 5659SOL    HW117876   4.008   3.648   3.909
 5659SOL    HW217877   4.086   3.653   3.766
 5660SOL     OW17878   5.740   0.178   6.366
 5660SOL    HW117879   5.662   0.200   6.307
 5660SOL    HW217880   5.815   0.142   6.310
 5661SOL     OW17881   1.356   4.798   4.970
 5661SOL    HW117882   1.268   4.845   4.964
 5661SOL    HW217883   1.404   4.828   5.052
 5662SOL     OW17884   3.341   5.455   3.345
 5662SOL    HW117885   3.280   5.411   3.411
 5662SOL    HW217886   3.287   5.490   3.268
 5663SOL     OW17887   2.228   3.448   7.008
 5663SOL    HW117888   2.260   3.379   0.053
 5663SOL    HW217889   2.268   3.430   6.918
 5664SOL     OW17890   6.275   3.961   4.604
 5664SOL    HW117891   6.268   3.974   4.703
 5664SOL    HW217892   6.372   3.960   4.578
 5665SOL     OW17893   1.781   1.823   0.347
 5665SOL    HW117894   1.739   1.745   0.394
 5665SOL    HW217895   1.818   1.793   0.259
 5666SOL     OW17896   5.888   5.845   1.630
 5666SOL    HW117897   5.965   5.899   1.664
 5666SOL    HW217898   5.867   5.772   1.696
 5667SOL     OW17899   1.112   5.059   4.119
 5667SOL    HW117900   1.081   5.079   4.212
 5667SOL    HW217901   1.191   4.998   4.122
 5668SOL     OW17902   5.396   1.723   5.121
 5668SOL    HW117903   5.389   1.819   5.093
 5668SOL    HW217904   5.479   1.709   5.174
 5669SOL     OW17905   0.545   2.910   6.961
 5669SOL    HW117906   0.637   2.914   7.000
 5669SOL    HW217907   0.551   2.923   6.862
 5670SOL     OW17908   6.571   2.721   3.941
 5670SOL    HW117909   6.516   2.802   3.921
 5670SOL    HW217910   6.614   2.689   3.856
 5671SOL     OW17911   0.304   5.889   0.045
 5671SOL    HW117912   0.269   5.853   0.132
 5671SOL    HW217913   0.291   5.820   6.994
 5672SOL     OW17914   4.134   5.009   6.277
 5672SOL    HW117915   4.228   5.037   6.254
 5672SOL    HW217916   4.123   4.911   6.257
 5673SOL     OW17917   0.639   6.600   2.178
 5673SOL    HW117918   0.629   6.533   2.104
 5673SOL    HW217919   0.601   6.688   2.148
 5674SOL     OW17920   0.151   4.902   5.249
 5674SOL    HW117921   0.101   4.987   5.236
 5674SOL    HW217922   0.101   4.843   5.312
 5675SOL     OW17923   4.232   1.929   5.833
 5675SOL    HW117924   4.265   2.007   5.886
 5675SOL    HW217925   4.132   1.927   5.836
 5676SOL     OW17926   2.010   2.794   2.400
 5676SOL    HW117927   2.088   2.832   2.450
 5676SOL    HW217928   2.023   2.808   2.302
 5677SOL     OW17929   0.171   1.104   1.583
 5677SOL    HW117930   0.115   1.046   1.643
 5677SOL    HW217931   0.163   1.072   1.489
 5678SOL     OW17932   3.853   6.650   2.725
 5678SOL    HW117933   3.762   6.624   2.759
 5678SOL    HW217934   3.843   6.721   2.655
 5679SOL     OW17935   1.105   1.443   4.122
 5679SOL    HW117936   1.033   1.510   4.104
 5679SOL    HW217937   1.130   1.396   4.037
 5680SOL     OW17938   1.501   4.823   6.863
 5680SOL    HW117939   1.423   4.841   6.802
 5680SOL    HW217940   1.471   4.832   6.958
 5681SOL     OW17941   0.403   4.619   0.323
 5681SOL    HW117942   0.343   4.694   0.350
 5681SOL    HW217943   0.377   4.536   0.371
 5682SOL     OW17944   2.423   4.430   5.670
 5682SOL    HW117945   2.474   4.350   5.639
 5682SOL    HW217946   2.426   4.500   5.599
 5683SOL     OW17947   3.836   0.599   0.000
 5683SOL    HW117948   3.795   0.581   0.090
 5683SOL    HW217949   3.915   0.658   0.011
 5684SOL     OW17950   3.170   3.973   5.399
 5684SOL    HW117951   3.202   3.884   5.366
 5684SOL    HW217952   3.110   4.015   5.332
 5685SOL     OW17953   1.699   3.001   2.384
 5685SOL    HW117954   1.771   3.065   2.411
 5685SOL    HW217955   1.610   3.036   2.415
 5686SOL     OW17956   3.086   0.998   6.523
 5686SOL    HW117957   3.079   0.901   6.548
 5686SOL    HW217958   3.007   1.047   6.559
 5687SOL     OW17959   0.341   4.462   6.343
 5687SOL    HW117960   0.338   4.362   6.344
 5687SOL    HW217961   0.253   4.498   6.313
 5688SOL     OW17962   0.358   2.480   0.289
 5688SOL    HW117963   0.296   2.401   0.285
 5688SOL    HW217964   0.428   2.463   0.359
 5689SOL     OW17965   4.287   1.268   0.868
 5689SOL    HW117966   4.312   1.280   0.773
 5689SOL    HW217967   4.357   1.214   0.915
 5690SOL     OW17968   2.665   5.972   0.687
 5690SOL    HW117969   2.703   5.881   0.667
 5690SOL    HW217970   2.580   5.984   0.636
 5691SOL     OW17971   2.975   6.876   2.172
 5691SOL    HW117972   3.019   6.888   2.261
 5691SOL    HW217973   2.886   6.833   2.185
 5692SOL     OW17974   5.912   3.027   0.571
 5692SOL    HW117975   5.894   2.990   0.662
 5692SOL    HW217976   6.001   2.994   0.538
 5693SOL     OW17977   5.501   2.243   2.288
 5693SOL    HW117978   5.473   2.321   2.345
 5693SOL    HW217979   5.562   2.276   2.215
 5694SOL     OW17980   0.346   2.013   3.683
 5694SOL    HW117981   0.441   2.036   3.705
 5694SOL    HW217982   0.343   1.944   3.611
 5695SOL     OW17983   1.009   2.737   2.860
 5695SOL    HW117984   0.932   2.676   2.879
 5695SOL    HW217985   1.014   2.807   2.931
 5696SOL     OW17986   1.591   1.210   2.817
 5696SOL    HW117987   1.577   1.288   2.878
 5696SOL    HW217988   1.606   1.127   2.871
 5697SOL     OW17989   5.964   2.634   1.730
 5697SOL    HW117990   5.901   2.706   1.756
 5697SOL    HW217991   5.919   2.571   1.666
 5698SOL     OW17992   1.189   3.833   3.208
 5698SOL    HW117993   1.147   3.866   3.293
 5698SOL    HW217994   1.213   3.912   3.151
 5699SOL     OW17995   0.111   2.467   3.399
 5699SOL    HW117996   0.114   2.541   3.331
 5699SOL    HW217997   0.079   2.383   3.355
 5700SOL     OW17998   0.094   6.757   3.965
 5700SOL    HW117999   0.117   6.674   3.913
 5700SOL    HW218000   0.144   6.835   3.926
 5701SOL     OW18001   1.417   0.952   2.553
 5701SOL    HW118002   1.484   1.017   2.518
 5701SOL    HW218003   1.438   0.860   2.519
 5702SOL     OW18004   2.532   5.987   5.105
 5702SOL    HW118005   2.592   5.914   5.136
 5702SOL    HW218006   2.545   6.068   5.163
 5703SOL     OW18007   6.262   4.689   1.504
 5703SOL    HW118008   6.204   4.680   1.585
 5703SOL    HW218009   6.220   4.641   1.427
 5704SOL     OW18010   4.411   4.881   2.425
 5704SOL    HW118011   4.370   4.800   2.384
 5704SOL    HW218012   4.358   4.907   2.506
 5705SOL     OW18013   5.072   0.921   1.105
 5705SOL    HW118014   5.158   0.894   1.149
 5705SOL    HW218015   5.035   1.002   1.150
 5706SOL     OW18016   6.289   3.649   0.714
 5706SOL    HW118017   6.230   3.646   0.795
 5706SOL    HW218018   6.377   3.689   0.739
 5707SOL     OW18019   0.138   6.911   0.449
 5707SOL    HW118020   0.119   6.854   0.529
 5707SOL    HW218021   0.121   6.859   0.365
 5708SOL     OW18022   5.150   6.055   1.077
 5708SOL    HW118023   5.204   5.982   1.035
 5708SOL    HW218024   5.174   6.061   1.174
 5709SOL     OW18025   1.462   0.023   2.369
 5709SOL    HW118026   1.523   7.002   2.437
 5709SOL    HW218027   1.490   7.013   2.277
 5710SOL     OW18028   2.553   2.901   6.931
 5710SOL    HW118029   2.576   2.887   0.007
 5710SOL    HW218030   2.633   2.884   6.874
 5711SOL     OW18031   5.187   1.177   2.649
 5711SOL    HW118032   5.128   1.122   2.708
 5711SOL    HW218033   5.236   1.245   2.705
 5712SOL     OW18034   0.765   5.991   6.311
 5712SOL    HW118035   0.833   6.051   6.269
 5712SOL    HW218036   0.704   6.044   6.369
 5713SOL     OW18037   2.621   3.017   1.622
 5713SOL    HW118038   2.539   3.062   1.589
 5713SOL    HW218039   2.658   2.958   1.550
 5714SOL     OW18040   0.558   5.607   6.609
 5714SOL    HW118041   0.471   5.560   6.602
 5714SOL    HW218042   0.633   5.541   6.605
 5715SOL     OW18043   0.844   6.563   3.441
 5715SOL    HW118044   0.819   6.541   3.535
 5715SOL    HW218045   0.846   6.479   3.387
 5716SOL     OW18046   1.471   3.823   6.968
 5716SOL    HW118047   1.425   3.896   6.917
 5716SOL    HW218048   1.535   3.864   0.013
 5717SOL     OW18049   2.119   5.772   0.704
 5717SOL    HW118050   2.218   5.772   0.698
 5717SOL    HW218051   2.086   5.862   0.733
 5718SOL     OW18052   0.605   2.341   5.650
 5718SOL    HW118053   0.671   2.322   5.722
 5718SOL    HW218054   0.518   2.370   5.690
 5719SOL     OW18055   3.422   1.589   6.574
 5719SOL    HW118056   3.376   1.553   6.494
 5719SOL    HW218057   3.378   1.553   6.657
 5720SOL     OW18058   1.522   5.159   4.650
 5720SOL    HW118059   1.459   5.182   4.725
 5720SOL    HW218060   1.476   5.096   4.587
 5721SOL     OW18061   0.553   4.074   1.294
 5721SOL    HW118062   0.499   4.089   1.211
 5721SOL    HW218063   0.501   4.105   1.373
 5722SOL     OW18064   6.327   1.465   5.681
 5722SOL    HW118065   6.387   1.539   5.713
 5722SOL    HW218066   6.241   1.503   5.647
 5723SOL     OW18067   4.793   3.357   6.922
 5723SOL    HW118068   4.808   3.449   6.957
 5723SOL    HW218069   4.797   3.357   6.822
 5724SOL     OW18070   4.740   2.891   4.858
 5724SOL    HW118071   4.667   2.829   4.889
 5724SOL    HW218072   4.758   2.876   4.761
 5725SOL     OW18073   5.310   4.869   3.732
 5725SOL    HW118074   5.383   4.887   3.798
 5725SOL    HW218075   5.251   4.949   3.725
 5726SOL     OW18076   6.952   4.646   5.228
 5726SOL    HW118077   6.989   4.691   5.310
 5726SOL    HW218078   6.852   4.648   5.232
 5727SOL     OW18079   6.749   1.502   4.099
 5727SOL    HW118080   6.687   1.429   4.072
 5727SOL    HW218081   6.761   1.500   4.199
 5728SOL     OW18082   3.921   0.877   6.258
 5728SOL    HW118083   3.848   0.940   6.283
 5728SOL    HW218084   3.913   0.853   6.161
 5729SOL     OW18085   0.872   1.037   0.610
 5729SOL    HW118086   0.885   1.136   0.603
 5729SOL    HW218087   0.932   0.991   0.544
 5730SOL     OW18088   4.660   5.743   6.231
 5730SOL    HW118089   4.714   5.799   6.168
 5730SOL    HW218090   4.635   5.657   6.186
 5731SOL     OW18091   0.546   6.812   3.956
 5731SOL    HW118092   0.471   6.837   4.017
 5731SOL    HW218093   0.532   6.718   3.923
 5732SOL     OW18094   6.330   5.251   4.685
 5732SOL    HW118095   6.306   5.334   4.736
 5732SOL    HW218096   6.315   5.171   4.742
 5733SOL     OW18097   3.815   6.698   4.840
 5733SOL    HW118098   3.784   6.650   4.922
 5733SOL    HW218099   3.915   6.698   4.837
 5734SOL     OW18100   0.823   0.003   5.853
 5734SOL    HW118101   0.835   6.996   5.948
 5734SOL    HW218102   0.775   6.951   5.803
 5735SOL     OW18103   3.893   2.084   1.954
 5735SOL    HW118104   3.903   2.113   1.859
 5735SOL    HW218105   3.803   2.113   1.988
 5736SOL     OW18106   6.041   4.204   0.226
 5736SOL    HW118107   6.074   4.133   0.287
 5736SOL    HW218108   6.098   4.286   0.236
 5737SOL     OW18109   4.812   6.169   0.435
 5737SOL    HW118110   4.798   6.159   0.534
 5737SOL    HW218111   4.910   6.170   0.416
 5738SOL     OW18112   3.075   3.194   6.212
 5738SOL    HW118113   3.063   3.280   6.161
 5738SOL    HW218114   2.996   3.135   6.196
 5739SOL     OW18115   1.324   0.464   5.669
 5739SOL    HW118116   1.404   0.437   5.617
 5739SOL    HW218117   1.347   0.541   5.729
 5740SOL     OW18118   4.198   3.764   1.349
 5740SOL    HW118119   4.102   3.785   1.331
 5740SOL    HW218120   4.213   3.666   1.337
 5741SOL     OW18121   6.637   4.341   4.383
 5741SOL    HW118122   6.655   4.406   4.309
 5741SOL    HW218123   6.565   4.278   4.355
 5742SOL     OW18124   4.473   6.674   3.089
 5742SOL    HW118125   4.524   6.709   3.011
 5742SOL    HW218126   4.430   6.750   3.138
 5743SOL     OW18127   2.908   5.516   5.399
 5743SOL    HW118128   2.811   5.489   5.399
 5743SOL    HW218129   2.960   5.452   5.456
 5744SOL     OW18130   5.243   1.500   2.083
 5744SOL    HW118131   5.164   1.547   2.044
 5744SOL    HW218132   5.302   1.566   2.130
 5745SOL     OW18133   2.016   0.994   4.231
 5745SOL    HW118134   1.947   0.937   4.276
 5745SOL    HW218135   1.997   1.090   4.251
 5746SOL     OW18136   5.658   6.492   1.422
 5746SOL    HW118137   5.696   6.471   1.512
 5746SOL    HW218138   5.571   6.444   1.410
 5747SOL     OW18139   0.279   4.454   2.785
 5747SOL    HW118140   0.282   4.465   2.686
 5747SOL    HW218141   0.308   4.361   2.809
 5748SOL     OW18142   1.697   6.117   0.698
 5748SOL    HW118143   1.628   6.188   0.684
 5748SOL    HW218144   1.723   6.078   0.609
 5749SOL     OW18145   1.122   6.498   4.206
 5749SOL    HW118146   1.074   6.411   4.213
 5749SOL    HW218147   1.183   6.497   4.127
 5750SOL     OW18148   6.917   6.014   4.364
 5750SOL    HW118149   6.980   6.011   4.442
 5750SOL    HW218150   6.868   6.101   4.365
 5751SOL     OW18151   2.720   2.365   4.279
 5751SOL    HW118152   2.650   2.313   4.230
 5751SOL    HW218153   2.705   2.358   4.377
 5752SOL     OW18154   6.412   0.496   0.021
 5752SOL    HW118155   6.472   0.525   6.967
 5752SOL    HW218156   6.466   0.472   0.101
 5753SOL     OW18157   3.963   3.049   4.766
 5753SOL    HW118158   3.948   3.022   4.671
 5753SOL    HW218159   3.971   3.149   4.772
 5754SOL     OW18160   6.724   4.672   1.297
 5754SOL    HW118161   6.660   4.662   1.373
 5754SOL    HW218162   6.710   4.599   1.231
 5755SOL     OW18163   2.027   2.958   6.282
 5755SOL    HW118164   2.085   3.017   6.225
 5755SOL    HW218165   1.979   2.892   6.224
 5756SOL     OW18166   6.007   6.957   3.395
 5756SOL    HW118167   6.018   0.009   3.327
 5756SOL    HW218168   6.095   6.939   3.440
 5757SOL     OW18169   6.638   6.769   2.862
 5757SOL    HW118170   6.647   6.763   2.961
 5757SOL    HW218171   6.578   6.696   2.829
 5758SOL     OW18172   2.499   0.747   4.622
 5758SOL    HW118173   2.524   0.774   4.529
 5758SOL    HW218174   2.516   0.649   4.634
 5759SOL     OW18175   5.519   1.802   6.884
 5759SOL    HW118176   5.446   1.842   6.829
 5759SOL    HW218177   5.559   1.872   6.943
 5760SOL     OW18178   0.292   4.391   0.406
 5760SOL    HW118179   0.255   4.371   0.315
 5760SOL    HW218180   0.251   4.331   0.473
 5761SOL     OW18181   5.832   5.756   6.289
 5761SOL    HW118182   5.799   5.745   6.383
 5761SOL    HW218183   5.783   5.831   6.245
 5762SOL     OW18184   4.786   5.329   0.718
 5762SOL    HW118185   4.804   5.418   0.677
 5762SOL    HW218186   4.862   5.267   0.698
 5763SOL     OW18187   0.420   0.000   0.199
 5763SOL    HW118188   0.455   6.930   0.224
 5763SOL    HW218189   0.411   0.006   0.099
 5764SOL     OW18190   5.313   5.386   5.224
 5764SOL    HW118191   5.307   5.433   5.136
 5764SOL    HW218192   5.407   5.360   5.242
 5765SOL     OW18193   6.177   2.946   0.363
 5765SOL    HW118194   6.149   3.027   0.310
 5765SOL    HW218195   6.264   2.964   0.408
 5766SOL     OW18196   1.946   2.266   6.604
 5766SOL    HW118197   1.986   2.355   6.626
 5766SOL    HW218198   1.897   2.273   6.516
 5767SOL     OW18199   1.684   1.511   0.212
 5767SOL    HW118200   1.750   1.580   0.184
 5767SOL    HW218201   1.719   1.459   0.289
 5768SOL     OW18202   0.843   6.322   3.299
 5768SOL    HW118203   0.875   6.357   3.212
 5768SOL    HW218204   0.910   6.258   3.336
 5769SOL     OW18205   2.262   5.752   4.340
 5769SOL    HW118206   2.344   5.800   4.308
 5769SOL    HW218207   2.289   5.665   4.383
 5770SOL     OW18208   6.152   6.826   0.711
 5770SOL    HW118209   6.175   6.872   0.797
 5770SOL    HW218210   6.144   6.893   0.638
 5771SOL     OW18211   1.256   0.198   3.460
 5771SOL    HW118212   1.268   0.178   3.557
 5771SOL    HW218213   1.248   0.113   3.408
 5772SOL     OW18214   5.941   1.975   1.078
 5772SOL    HW118215   5.923   1.996   1.174
 5772SOL    HW218216   5.892   1.893   1.052
 5773SOL     OW18217   4.697   0.994   3.545
 5773SOL    HW118218   4.641   1.040   3.614
 5773SOL    HW218219   4.793   0.996   3.574
 5774SOL     OW18220   2.924   5.661   3.747
 5774SOL    HW118221   2.899   5.704   3.660
 5774SOL    HW218222   2.993   5.590   3.730
 5775SOL     OW18223   1.134   1.265   1.923
 5775SOL    HW118224   1.192   1.214   1.985
 5775SOL    HW218225   1.161   1.247   1.828
 5776SOL     OW18226   0.392   0.513   5.445
 5776SOL    HW118227   0.358   0.600   5.408
 5776SOL    HW218228   0.473   0.484   5.394
 5777SOL     OW18229   6.340   6.989   4.880
 5777SOL    HW118230   6.421   6.959   4.930
 5777SOL    HW218231   6.323   0.065   4.901
 5778SOL     OW18232   1.361   0.684   1.644
 5778SOL    HW118233   1.354   0.601   1.698
 5778SOL    HW218234   1.453   0.690   1.605
 5779SOL     OW18235   4.797   2.033   0.159
 5779SOL    HW118236   4.743   1.967   0.105
 5779SOL    HW218237   4.807   1.999   0.253
 5780SOL     OW18238   6.133   5.139   3.183
 5780SOL    HW118239   6.150   5.058   3.238
 5780SOL    HW218240   6.209   5.154   3.120
 5781SOL     OW18241   6.849   4.324   4.595
 5781SOL    HW118242   6.797   4.350   4.513
 5781SOL    HW218243   6.878   4.229   4.588
 5782SOL     OW18244   0.663   0.873   0.597
 5782SOL    HW118245   0.749   0.919   0.618
 5782SOL    HW218246   0.678   0.775   0.589
 5783SOL     OW18247   1.832   0.812   1.710
 5783SOL    HW118248   1.901   0.856   1.768
 5783SOL    HW218249   1.866   0.808   1.616
 5784SOL     OW18250   6.790   5.966   0.170
 5784SOL    HW118251   6.712   5.945   0.111
 5784SOL    HW218252   6.873   5.971   0.114
 5785SOL     OW18253   1.880   1.761   0.639
 5785SOL    HW118254   1.861   1.802   0.550
 5785SOL    HW218255   1.979   1.746   0.648
 5786SOL     OW18256   0.672   4.463   1.275
 5786SOL    HW118257   0.602   4.394   1.255
 5786SOL    HW218258   0.630   4.554   1.273
 5787SOL     OW18259   4.129   2.119   5.543
 5787SOL    HW118260   4.228   2.132   5.528
 5787SOL    HW218261   4.090   2.070   5.465
 5788SOL     OW18262   3.118   1.135   1.221
 5788SOL    HW118263   3.070   1.216   1.254
 5788SOL    HW218264   3.190   1.162   1.158
 5789SOL     OW18265   2.928   4.233   0.452
 5789SOL    HW118266   2.862   4.288   0.402
 5789SOL    HW218267   2.890   4.142   0.469
 5790SOL     OW18268   0.489   4.785   4.607
 5790SOL    HW118269   0.502   4.765   4.704
 5790SOL    HW218270   0.537   4.869   4.584
 5791SOL     OW18271   2.959   1.575   2.208
 5791SOL    HW118272   3.058   1.563   2.194
 5791SOL    HW218273   2.942   1.665   2.247
 5792SOL     OW18274   5.254   2.720   2.195
 5792SOL    HW118275   5.209   2.784   2.133
 5792SOL    HW218276   5.236   2.749   2.290
 5793SOL     OW18277   6.243   0.690   4.310
 5793SOL    HW118278   6.290   0.608   4.279
 5793SOL    HW218279   6.255   0.763   4.242
 5794SOL     OW18280   2.469   0.637   6.448
 5794SOL    HW118281   2.516   0.599   6.368
 5794SOL    HW218282   2.370   0.624   6.438
 5795SOL     OW18283   0.403   6.460   0.509
 5795SOL    HW118284   0.380   6.557   0.495
 5795SOL    HW218285   0.500   6.446   0.491
 5796SOL     OW18286   5.012   1.002   6.615
 5796SOL    HW118287   5.022   0.909   6.649
 5796SOL    HW218288   4.971   1.000   6.524
 5797SOL     OW18289   4.834   2.273   0.001
 5797SOL    HW118290   4.839   2.186   0.050
 5797SOL    HW218291   4.909   2.332   0.029
 5798SOL     OW18292   6.908   5.382   4.418
 5798SOL    HW118293   6.844   5.387   4.495
 5798SOL    HW218294   6.935   5.287   4.403
 5799SOL     OW18295   0.039   0.628   4.412
 5799SOL    HW118296   7.004   0.572   4.473
 5799SOL    HW218297   0.023   0.602   4.317
 5800SOL     OW18298   0.150   6.650   1.763
 5800SOL    HW118299   0.184   6.587   1.833
 5800SOL    HW218300   0.102   6.726   1.807
 5801SOL     OW18301   1.767   1.986   3.751
 5801SOL    HW118302   1.731   2.076   3.726
 5801SOL    HW218303   1.732   1.917   3.688
 5802SOL     OW18304   6.630   3.035   2.930
 5802SOL    HW118305   6.550   2.974   2.920
 5802SOL    HW218306   6.619   3.091   3.012
 5803SOL     OW18307   2.294   6.107   2.788
 5803SOL    HW118308   2.246   6.139   2.707
 5803SOL    HW218309   2.231   6.058   2.848
 5804SOL     OW18310   0.331   5.002   3.056
 5804SOL    HW118311   0.271   5.069   3.099
 5804SOL    HW218312   0.368   4.941   3.126
 5805SOL     OW18313   1.722   2.792   0.786
 5805SOL    HW118314   1.674   2.836   0.862
 5805SOL    HW218315   1.819   2.817   0.790
 5806SOL     OW18316   6.717   5.795   4.389
 5806SOL    HW118317   6.731   5.709   4.340
 5806SOL    HW218318   6.792   5.858   4.369
 5807SOL     OW18319   1.025   4.802   0.321
 5807SOL    HW118320   1.121   4.795   0.294
 5807SOL    HW218321   1.019   4.832   0.416
 5808SOL     OW18322   6.996   5.757   4.255
 5808SOL    HW118323   6.981   5.855   4.272
 5808SOL    HW218324   0.045   5.746   4.185
 5809SOL     OW18325   6.564   1.302   5.265
 5809SOL    HW118326   6.624   1.317   5.344
 5809SOL    HW218327   6.573   1.379   5.202
 5810SOL     OW18328   4.971   1.018   5.873
 5810SOL    HW118329   4.873   1.000   5.866
 5810SOL    HW218330   4.991   1.110   5.840
 5811SOL     OW18331   3.410   0.739   4.843
 5811SOL    HW118332   3.333   0.791   4.881
 5811SOL    HW218333   3.487   0.741   4.907
 5812SOL     OW18334   5.330   3.330   5.908
 5812SOL    HW118335   5.353   3.233   5.915
 5812SOL    HW218336   5.279   3.359   5.989
 5813SOL     OW18337   2.269   1.064   0.544
 5813SOL    HW118338   2.308   1.026   0.628
 5813SOL    HW218339   2.288   1.162   0.539
 5814SOL     OW18340   6.632   3.321   2.353
 5814SOL    HW118341   6.709   3.384   2.358
 5814SOL    HW218342   6.554   3.366   2.310
 5815SOL     OW18343   3.923   1.941   3.561
 5815SOL    HW118344   3.849   1.888   3.518
 5815SOL    HW218345   3.893   2.036   3.571
 5816SOL     OW18346   4.672   4.546   0.519
 5816SOL    HW118347   4.645   4.606   0.443
 5816SOL    HW218348   4.713   4.602   0.592
 5817SOL     OW18349   6.305   4.674   5.590
 5817SOL    HW118350   6.215   4.656   5.550
 5817SOL    HW218351   6.323   4.772   5.587
 5818SOL     OW18352   6.430   5.200   5.562
 5818SOL    HW118353   6.528   5.213   5.548
 5818SOL    HW218354   6.403   5.238   5.651
 5819SOL     OW18355   3.922   0.272   6.681
 5819SOL    HW118356   3.986   0.264   6.605
 5819SOL    HW218357   3.828   0.266   6.645
 5820SOL     OW18358   4.211   4.660   3.223
 5820SOL    HW118359   4.256   4.630   3.140
 5820SOL    HW218360   4.115   4.631   3.222
 5821SOL     OW18361   0.133   0.742   1.779
 5821SOL    HW118362   0.185   0.677   1.835
 5821SOL    HW218363   0.152   0.725   1.682
 5822SOL     OW18364   1.743   2.481   1.647
 5822SOL    HW118365   1.783   2.541   1.716
 5822SOL    HW218366   1.647   2.464   1.669
 5823SOL     OW18367   2.730   0.541   4.389
 5823SOL    HW118368   2.673   0.467   4.425
 5823SOL    HW218369   2.678   0.626   4.390
 5824SOL     OW18370   0.133   6.043   2.758
 5824SOL    HW118371   0.109   6.031   2.662
 5824SOL    HW218372   0.050   6.058   2.812
 5825SOL     OW18373   0.073   6.853   4.638
 5825SOL    HW118374   0.026   6.875   4.724
 5825SOL    HW218375   0.117   6.764   4.646
 5826SOL     OW18376   6.785   5.445   6.534
 5826SOL    HW118377   6.870   5.467   6.582
 5826SOL    HW218378   6.710   5.440   6.599
 5827SOL     OW18379   1.899   3.505   5.106
 5827SOL    HW118380   1.962   3.564   5.056
 5827SOL    HW218381   1.950   3.429   5.148
 5828SOL     OW18382   5.206   1.866   2.349
 5828SOL    HW118383   5.142   1.824   2.285
 5828SOL    HW218384   5.274   1.799   2.378
 5829SOL     OW18385   1.832   0.152   4.405
 5829SOL    HW118386   1.783   0.103   4.477
 5829SOL    HW218387   1.801   0.122   4.315
 5830SOL     OW18388   5.631   6.846   5.918
 5830SOL    HW118389   5.662   6.844   5.823
 5830SOL    HW218390   5.607   6.753   5.947
 5831SOL     OW18391   1.068   1.009   5.849
 5831SOL    HW118392   1.098   1.104   5.858
 5831SOL    HW218393   0.970   1.003   5.864
 5832SOL     OW18394   3.122   4.884   6.660
 5832SOL    HW118395   3.127   4.894   6.760
 5832SOL    HW218396   3.210   4.855   6.625
 5833SOL     OW18397   4.339   3.849   5.268
 5833SOL    HW118398   4.344   3.761   5.221
 5833SOL    HW218399   4.244   3.868   5.293
 5834SOL     OW18400   0.009   3.377   0.057
 5834SOL    HW118401   6.997   3.290   0.093
 5834SOL    HW218402   0.076   3.417   0.120
 5835SOL     OW18403   5.564   2.513   3.110
 5835SOL    HW118404   5.603   2.423   3.085
 5835SOL    HW218405   5.465   2.507   3.111
 5836SOL     OW18406   3.204   0.376   1.696
 5836SOL    HW118407   3.119   0.427   1.683
 5836SOL    HW218408   3.281   0.439   1.699
 5837SOL     OW18409   3.478   3.790   0.038
 5837SOL    HW118410   3.437   3.876   0.011
 5837SOL    HW218411   3.433   3.714   7.011
 5838SOL     OW18412   2.844   2.035   1.107
 5838SOL    HW118413   2.842   2.004   1.011
 5838SOL    HW218414   2.938   2.037   1.139
 5839SOL     OW18415   0.599   2.280   1.739
 5839SOL    HW118416   0.637   2.320   1.823
 5839SOL    HW218417   0.502   2.303   1.732
 5840SOL     OW18418   1.712   4.694   6.155
 5840SOL    HW118419   1.694   4.764   6.086
 5840SOL    HW218420   1.631   4.637   6.166
 5841SOL     OW18421   4.747   1.188   2.486
 5841SOL    HW118422   4.728   1.216   2.581
 5841SOL    HW218423   4.661   1.165   2.441
 5842SOL     OW18424   4.546   2.908   1.617
 5842SOL    HW118425   4.576   2.969   1.690
 5842SOL    HW218426   4.476   2.954   1.562
 5843SOL     OW18427   1.313   4.332   2.372
 5843SOL    HW118428   1.346   4.403   2.311
 5843SOL    HW218429   1.313   4.366   2.466
 5844SOL     OW18430   1.628   6.092   5.294
 5844SOL    HW118431   1.651   6.098   5.197
 5844SOL    HW218432   1.590   6.001   5.313
 5845SOL     OW18433   0.818   0.316   2.032
 5845SOL    HW118434   0.752   0.373   2.080
 5845SOL    HW218435   0.902   0.367   2.018
 5846SOL     OW18436   6.143   3.535   6.389
 5846SOL    HW118437   6.214   3.576   6.446
 5846SOL    HW218438   6.063   3.595   6.386
 5847SOL     OW18439   2.735   2.332   2.289
 5847SOL    HW118440   2.788   2.341   2.204
 5847SOL    HW218441   2.716   2.236   2.307
 5848SOL     OW18442   1.417   5.525   3.199
 5848SOL    HW118443   1.486   5.537   3.270
 5848SOL    HW218444   1.379   5.433   3.204
 5849SOL     OW18445   2.035   0.212   5.304
 5849SOL    HW118446   2.055   0.121   5.266
 5849SOL    HW218447   2.104   0.277   5.271
 5850SOL     OW18448   6.826   3.656   1.869
 5850SOL    HW118449   6.925   3.660   1.861
 5850SOL    HW218450   6.801   3.590   1.940
 5851SOL     OW18451   5.357   2.878   3.069
 5851SOL    HW118452   5.333   2.795   3.019
 5851SOL    HW218453   5.426   2.856   3.138
 5852SOL     OW18454   5.797   6.016   3.137
 5852SOL    HW118455   5.827   5.926   3.106
 5852SOL    HW218456   5.698   6.024   3.127
 5853SOL     OW18457   3.872   5.446   5.106
 5853SOL    HW118458   3.797   5.509   5.088
 5853SOL    HW218459   3.868   5.414   5.201
 5854SOL     OW18460   4.278   4.590   6.042
 5854SOL    HW118461   4.262   4.493   6.022
 5854SOL    HW218462   4.279   4.642   5.956
 5855SOL     OW18463   1.675   0.868   4.518
 5855SOL    HW118464   1.773   0.871   4.538
 5855SOL    HW218465   1.644   0.773   4.516
 5856SOL     OW18466   1.972   5.658   3.432
 5856SOL    HW118467   2.014   5.715   3.362
 5856SOL    HW218468   2.038   5.590   3.463
 5857SOL     OW18469   6.235   2.650   5.909
 5857SOL    HW118470   6.137   2.632   5.922
 5857SOL    HW218471   6.276   2.574   5.857
 5858SOL     OW18472   2.775   2.359   2.552
 5858SOL    HW118473   2.752   2.377   2.457
 5858SOL    HW218474   2.714   2.411   2.612
 5859SOL     OW18475   6.468   6.029   1.771
 5859SOL    HW118476   6.494   6.058   1.863
 5859SOL    HW218477   6.401   5.955   1.777
 5860SOL     OW18478   0.218   4.372   3.394
 5860SOL    HW118479   0.207   4.291   3.452
 5860SOL    HW218480   0.129   4.399   3.357
 5861SOL     OW18481   5.404   1.629   4.025
 5861SOL    HW118482   5.365   1.703   3.971
 5861SOL    HW218483   5.502   1.645   4.038
 5862SOL     OW18484   6.034   5.650   1.045
 5862SOL    HW118485   6.131   5.673   1.032
 5862SOL    HW218486   6.014   5.644   1.143
 5863SOL     OW18487   3.129   2.047   5.184
 5863SOL    HW118488   3.209   2.000   5.146
 5863SOL    HW218489   3.120   2.136   5.140
 5864SOL     OW18490   3.421   4.129   2.981
 5864SOL    HW118491   3.350   4.067   2.949
 5864SOL    HW218492   3.404   4.153   3.076
 5865SOL     OW18493   6.240   6.913   5.910
 5865SOL    HW118494   6.156   6.858   5.906
 5865SOL    HW218495   6.316   6.860   5.873
 5866SOL     OW18496   3.548   4.168   0.501
 5866SOL    HW118497   3.501   4.079   0.501
 5866SOL    HW218498   3.482   4.240   0.518
 5867SOL     OW18499   2.485   3.553   1.026
 5867SOL    HW118500   2.397   3.600   1.028
 5867SOL    HW218501   2.503   3.512   1.116
 5868SOL     OW18502   1.681   1.714   5.201
 5868SOL    HW118503   1.771   1.697   5.162
 5868SOL    HW218504   1.613   1.656   5.155
 5869SOL     OW18505   1.963   6.691   3.300
 5869SOL    HW118506   2.032   6.763   3.307
 5869SOL    HW218507   1.871   6.732   3.304
 5870SOL     OW18508   4.606   6.656   5.084
 5870SOL    HW118509   4.669   6.581   5.106
 5870SOL    HW218510   4.619   6.683   4.988
 5871SOL     OW18511   3.186   3.226   1.452
 5871SOL    HW118512   3.233   3.147   1.414
 5871SOL    HW218513   3.197   3.304   1.391
 5872SOL     OW18514   4.813   6.739   0.848
 5872SOL    HW118515   4.836   6.657   0.901
 5872SOL    HW218516   4.861   6.817   0.887
 5873SOL     OW18517   3.537   1.185   2.043
 5873SOL    HW118518   3.616   1.229   2.002
 5873SOL    HW218519   3.555   1.170   2.141
 5874SOL     OW18520   2.571   4.614   5.853
 5874SOL    HW118521   2.541   4.562   5.932
 5874SOL    HW218522   2.534   4.572   5.770
 5875SOL     OW18523   4.155   1.545   0.133
 5875SOL    HW118524   4.082   1.613   0.141
 5875SOL    HW218525   4.116   1.454   0.143
 5876SOL     OW18526   3.730   3.210   1.277
 5876SOL    HW118527   3.690   3.167   1.196
 5876SOL    HW218528   3.658   3.254   1.331
 5877SOL     OW18529   0.643   6.794   1.818
 5877SOL    HW118530   0.716   6.863   1.823
 5877SOL    HW218531   0.666   6.726   1.749
 5878SOL     OW18532   6.771   5.542   4.243
 5878SOL    HW118533   6.815   5.537   4.153
 5878SOL    HW218534   6.809   5.471   4.302
 5879SOL     OW18535   1.473   4.059   6.790
 5879SOL    HW118536   1.405   4.081   6.721
 5879SOL    HW218537   1.565   4.077   6.754
 5880SOL     OW18538   4.305   4.610   6.338
 5880SOL    HW118539   4.326   4.613   6.240
 5880SOL    HW218540   4.336   4.695   6.381
 5881SOL     OW18541   1.104   6.686   2.622
 5881SOL    HW118542   1.048   6.676   2.704
 5881SOL    HW218543   1.196   6.714   2.648
 5882SOL     OW18544   0.168   5.356   1.008
 5882SOL    HW118545   0.173   5.385   1.104
 5882SOL    HW218546   0.173   5.437   0.949
 5883SOL     OW18547   0.779   1.159   6.407
 5883SOL    HW118548   0.694   1.186   6.451
 5883SOL    HW218549   0.856   1.175   6.469
 5884SOL     OW18550   3.675   1.344   4.755
 5884SOL    HW118551   3.677   1.246   4.776
 5884SOL    HW218552   3.666   1.357   4.656
 5885SOL     OW18553   0.580   0.105   2.688
 5885SOL    HW118554   0.527   0.020   2.679
 5885SOL    HW218555   0.518   0.184   2.681
 5886SOL     OW18556   0.349   2.050   4.701
 5886SOL    HW118557   0.350   2.109   4.621
 5886SOL    HW218558   0.277   1.981   4.692
 5887SOL     OW18559   2.615   2.063   2.390
 5887SOL    HW118560   2.517   2.077   2.373
 5887SOL    HW218561   2.634   2.070   2.488
 5888SOL     OW18562   2.982   0.791   1.598
 5888SOL    HW118563   2.972   0.715   1.534
 5888SOL    HW218564   3.069   0.837   1.581
 5889SOL     OW18565   0.862   6.944   0.888
 5889SOL    HW118566   0.790   7.006   0.920
 5889SOL    HW218567   0.903   6.897   0.966
 5890SOL     OW18568   1.838   1.057   3.354
 5890SOL    HW118569   1.871   0.977   3.303
 5890SOL    HW218570   1.883   1.060   3.443
 5891SOL     OW18571   3.540   3.159   6.752
 5891SOL    HW118572   3.452   3.201   6.770
 5891SOL    HW218573   3.527   3.075   6.698
 5892SOL     OW18574   0.878   5.558   1.586
 5892SOL    HW118575   0.972   5.571   1.555
 5892SOL    HW218576   0.815   5.586   1.514
 5893SOL     OW18577   2.305   4.262   4.030
 5893SOL    HW118578   2.239   4.187   4.024
 5893SOL    HW218579   2.339   4.283   3.938
 5894SOL     OW18580   6.456   5.185   4.163
 5894SOL    HW118581   6.448   5.268   4.219
 5894SOL    HW218582   6.552   5.158   4.158
 5895SOL     OW18583   5.409   3.841   4.236
 5895SOL    HW118584   5.340   3.870   4.170
 5895SOL    HW218585   5.425   3.743   4.227
 5896SOL     OW18586   3.505   0.794   0.258
 5896SOL    HW118587   3.461   0.882   0.238
 5896SOL    HW218588   3.465   0.723   0.200
 5897SOL     OW18589   4.212   0.621   1.490
 5897SOL    HW118590   4.286   0.556   1.506
 5897SOL    HW218591   4.231   0.673   1.406
 5898SOL     OW18592   2.145   6.646   3.744
 5898SOL    HW118593   2.055   6.690   3.745
 5898SOL    HW218594   2.199   6.682   3.668
 5899SOL     OW18595   5.824   5.612   6.978
 5899SOL    HW118596   5.831   5.708   6.948
 5899SOL    HW218597   5.840   5.552   6.899
 5900SOL     OW18598   6.111   5.334   3.886
 5900SOL    HW118599   6.067   5.321   3.797
 5900SOL    HW218600   6.209   5.314   3.877
 5901SOL     OW18601   2.377   0.721   0.184
 5901SOL    HW118602   2.298   0.768   0.145
 5901SOL    HW218603   2.347   0.658   0.255
 5902SOL     OW18604   6.292   2.119   5.448
 5902SOL    HW118605   6.215   2.178   5.474
 5902SOL    HW218606   6.376   2.173   5.446
 5903SOL     OW18607   4.631   4.981   0.017
 5903SOL    HW118608   4.621   5.030   6.951
 5903SOL    HW218609   4.705   4.914   0.009
 5904SOL     OW18610   1.189   4.244   1.688
 5904SOL    HW118611   1.104   4.192   1.692
 5904SOL    HW218612   1.179   4.320   1.624
 5905SOL     OW18613   6.131   6.527   3.396
 5905SOL    HW118614   6.217   6.483   3.422
 5905SOL    HW218615   6.085   6.470   3.328
 5906SOL     OW18616   3.684   2.105   4.119
 5906SOL    HW118617   3.703   2.201   4.099
 5906SOL    HW218618   3.604   2.099   4.179
 5907SOL     OW18619   1.607   4.912   0.834
 5907SOL    HW118620   1.614   5.003   0.875
 5907SOL    HW218621   1.695   4.866   0.839
 5908SOL     OW18622   0.151   3.050   6.866
 5908SOL    HW118623   0.070   2.992   6.882
 5908SOL    HW218624   0.122   3.144   6.848
 5909SOL     OW18625   6.510   5.348   0.604
 5909SOL    HW118626   6.439   5.384   0.544
 5909SOL    HW218627   6.505   5.248   0.607
 5910SOL     OW18628   0.230   3.983   3.868
 5910SOL    HW118629   0.151   4.033   3.833
 5910SOL    HW218630   0.204   3.889   3.890
 5911SOL     OW18631   6.883   5.905   6.805
 5911SOL    HW118632   6.813   5.851   6.757
 5911SOL    HW218633   6.868   6.002   6.786
 5912SOL     OW18634   6.243   1.445   6.253
 5912SOL    HW118635   6.184   1.398   6.187
 5912SOL    HW218636   6.332   1.461   6.212
 5913SOL     OW18637   5.240   2.983   6.563
 5913SOL    HW118638   5.175   3.021   6.629
 5913SOL    HW218639   5.286   2.905   6.605
 5914SOL     OW18640   1.272   4.576   5.667
 5914SOL    HW118641   1.279   4.669   5.630
 5914SOL    HW218642   1.226   4.517   5.601
 5915SOL     OW18643   4.638   5.759   1.203
 5915SOL    HW118644   4.640   5.842   1.147
 5915SOL    HW218645   4.719   5.704   1.184
 5916SOL     OW18646   5.024   0.018   4.016
 5916SOL    HW118647   5.031   0.081   3.938
 5916SOL    HW218648   5.094   6.967   4.008
 5917SOL     OW18649   2.964   3.742   4.013
 5917SOL    HW118650   2.902   3.664   4.021
 5917SOL    HW218651   2.949   3.805   4.090
 5918SOL     OW18652   1.859   3.608   6.254
 5918SOL    HW118653   1.825   3.700   6.232
 5918SOL    HW218654   1.794   3.562   6.315
 5919SOL     OW18655   3.570   3.195   2.861
 5919SOL    HW118656   3.500   3.217   2.793
 5919SOL    HW218657   3.531   3.206   2.953
 5920SOL     OW18658   4.563   0.604   0.092
 5920SOL    HW118659   4.622   0.652   0.027
 5920SOL    HW218660   4.596   0.620   0.185
 5921SOL     OW18661   3.677   5.513   6.688
 5921SOL    HW118662   3.666   5.461   6.773
 5921SOL    HW218663   3.675   5.452   6.610
 5922SOL     OW18664   5.468   4.974   2.926
 5922SOL    HW118665   5.487   5.073   2.926
 5922SOL    HW218666   5.370   4.959   2.911
 5923SOL     OW18667   6.352   1.367   1.129
 5923SOL    HW118668   6.427   1.321   1.177
 5923SOL    HW218669   6.330   1.316   1.046
 5924SOL     OW18670   6.209   0.540   2.915
 5924SOL    HW118671   6.279   0.536   2.845
 5924SOL    HW218672   6.240   0.597   2.991
 5925SOL     OW18673   4.132   6.985   2.347
 5925SOL    HW118674   4.105   6.978   2.251
 5925SOL    HW218675   4.230   7.004   2.353
 5926SOL     OW18676   3.916   5.506   1.191
 5926SOL    HW118677   3.874   5.419   1.216
 5926SOL    HW218678   3.845   5.575   1.178
 5927SOL     OW18679   1.458   3.675   2.167
 5927SOL    HW118680   1.458   3.717   2.258
 5927SOL    HW218681   1.443   3.577   2.175
 5928SOL     OW18682   4.216   0.387   0.918
 5928SOL    HW118683   4.126   0.382   0.960
 5928SOL    HW218684   4.281   0.426   0.983
 5929SOL     OW18685   0.036   6.690   6.613
 5929SOL    HW118686   0.076   6.610   6.658
 5929SOL    HW218687   7.002   6.742   6.680
 5930SOL     OW18688   6.952   3.369   3.355
 5930SOL    HW118689   0.009   3.329   3.305
 5930SOL    HW218690   6.902   3.297   3.404
 5931SOL     OW18691   0.010   5.352   2.601
 5931SOL    HW118692   0.107   5.364   2.582
 5931SOL    HW218693   6.986   5.308   2.523
 5932SOL     OW18694   3.521   0.401   0.512
 5932SOL    HW118695   3.592   0.396   0.442
 5932SOL    HW218696   3.433   0.379   0.470
 5933SOL     OW18697   6.855   5.780   2.683
 5933SOL    HW118698   6.953   5.796   2.670
 5933SOL    HW218699   6.813   5.863   2.721
 5934SOL     OW18700   3.596   2.960   4.774
 5934SOL    HW118701   3.670   2.918   4.827
 5934SOL    HW218702   3.602   2.930   4.679
 5935SOL     OW18703   5.107   5.216   6.379
 5935SOL    HW118704   5.089   5.206   6.281
 5935SOL    HW218705   5.098   5.127   6.424
 5936SOL     OW18706   3.566   2.669   1.458
 5936SOL    HW118707   3.592   2.628   1.370
 5936SOL    HW218708   3.626   2.635   1.530
 5937SOL     OW18709   6.756   4.046   2.396
 5937SOL    HW118710   6.712   4.057   2.485
 5937SOL    HW218711   6.714   4.109   2.330
 5938SOL     OW18712   0.146   5.629   2.828
 5938SOL    HW118713   0.099   5.710   2.863
 5938SOL    HW218714   0.155   5.636   2.729
 5939SOL     OW18715   2.517   6.708   3.253
 5939SOL    HW118716   2.571   6.624   3.248
 5939SOL    HW218717   2.438   6.693   3.313
 5940SOL     OW18718   4.677   5.450   1.472
 5940SOL    HW118719   4.628   5.481   1.553
 5940SOL    HW218720   4.764   5.498   1.465
 5941SOL     OW18721   5.852   2.919   2.228
 5941SOL    HW118722   5.862   3.017   2.211
 5941SOL    HW218723   5.799   2.905   2.311
 5942SOL     OW18724   4.939   3.871   0.210
 5942SOL    HW118725   4.874   3.900   0.140
 5942SOL    HW218726   5.017   3.827   0.167
 5943SOL     OW18727   3.224   4.608   6.086
 5943SOL    HW118728   3.171   4.628   6.168
 5943SOL    HW218729   3.308   4.560   6.112
 5944SOL     OW18730   6.585   2.826   0.819
 5944SOL    HW118731   6.670   2.796   0.863
 5944SOL    HW218732   6.507   2.789   0.869
 5945SOL     OW18733   6.504   5.340   4.497
 5945SOL    HW118734   6.476   5.387   4.414
 5945SOL    HW218735   6.424   5.327   4.556
 5946SOL     OW18736   3.788   3.390   6.200
 5946SOL    HW118737   3.805   3.450   6.278
 5946SOL    HW218738   3.790   3.295   6.230
 5947SOL     OW18739   3.049   3.537   2.524
 5947SOL    HW118740   3.048   3.513   2.427
 5947SOL    HW218741   3.032   3.455   2.579
 5948SOL     OW18742   4.150   4.749   3.578
 5948SOL    HW118743   4.119   4.734   3.485
 5948SOL    HW218744   4.087   4.811   3.625
 5949SOL     OW18745   5.173   3.410   1.923
 5949SOL    HW118746   5.196   3.472   1.848
 5949SOL    HW218747   5.085   3.366   1.905
 5950SOL     OW18748   4.778   1.437   5.454
 5950SOL    HW118749   4.871   1.399   5.447
 5950SOL    HW218750   4.746   1.430   5.548
 5951SOL     OW18751   1.743   5.993   3.894
 5951SOL    HW118752   1.683   6.072   3.879
 5951SOL    HW218753   1.838   6.020   3.877
 5952SOL     OW18754   5.552   4.680   3.580
 5952SOL    HW118755   5.454   4.671   3.564
 5952SOL    HW218756   5.596   4.717   3.497
 5953SOL     OW18757   0.120   3.119   5.997
 5953SOL    HW118758   0.027   3.091   5.974
 5953SOL    HW218759   0.155   3.180   5.925
 5954SOL     OW18760   6.670   4.460   5.376
 5954SOL    HW118761   6.670   4.543   5.320
 5954SOL    HW218762   6.734   4.393   5.338
 5955SOL     OW18763   4.495   5.644   2.487
 5955SOL    HW118764   4.583   5.683   2.513
 5955SOL    HW218765   4.423   5.683   2.544
 5956SOL     OW18766   4.345   1.893   4.697
 5956SOL    HW118767   4.423   1.880   4.758
 5956SOL    HW218768   4.264   1.917   4.751
 5957SOL     OW18769   4.190   0.744   5.644
 5957SOL    HW118770   4.222   0.823   5.697
 5957SOL    HW218771   4.239   0.662   5.674
 5958SOL     OW18772   5.503   6.532   2.878
 5958SOL    HW118773   5.407   6.561   2.880
 5958SOL    HW218774   5.545   6.562   2.792
 5959SOL     OW18775   4.199   2.706   5.429
 5959SOL    HW118776   4.280   2.655   5.459
 5959SOL    HW218777   4.159   2.661   5.350
 5960SOL     OW18778   4.192   5.504   4.749
 5960SOL    HW118779   4.188   5.405   4.748
 5960SOL    HW218780   4.254   5.536   4.677
 5961SOL     OW18781   5.025   1.626   2.639
 5961SOL    HW118782   5.077   1.699   2.683
 5961SOL    HW218783   5.015   1.549   2.702
 5962SOL     OW18784   5.632   6.596   0.374
 5962SOL    HW118785   5.677   6.568   0.289
 5962SOL    HW218786   5.554   6.655   0.352
 5963SOL     OW18787   4.250   3.921   6.098
 5963SOL    HW118788   4.193   3.932   6.179
 5963SOL    HW218789   4.269   3.824   6.083
 5964SOL     OW18790   0.308   5.621   5.557
 5964SOL    HW118791   0.222   5.661   5.586
 5964SOL    HW218792   0.379   5.691   5.555
 5965SOL     OW18793   2.025   1.680   6.651
 5965SOL    HW118794   1.986   1.590   6.631
 5965SOL    HW218795   1.987   1.748   6.588
 5966SOL     OW18796   2.206   5.645   5.164
 5966SOL    HW118797   2.116   5.669   5.199
 5966SOL    HW218798   2.251   5.727   5.128
 5967SOL     OW18799   3.927   0.032   6.453
 5967SOL    HW118800   3.848   0.054   6.511
 5967SOL    HW218801   3.916   6.961   6.414
 5968SOL     OW18802   4.983   2.132   0.557
 5968SOL    HW118803   4.916   2.076   0.508
 5968SOL    HW218804   5.072   2.125   0.511
 5969SOL     OW18805   6.616   7.013   6.643
 5969SOL    HW118806   6.684   0.029   6.580
 5969SOL    HW218807   6.546   0.062   6.661
 5970SOL     OW18808   0.245   4.191   2.590
 5970SOL    HW118809   0.179   4.212   2.661
 5970SOL    HW218810   0.333   4.166   2.633
 5971SOL     OW18811   0.566   0.964   2.406
 5971SOL    HW118812   0.649   0.908   2.403
 5971SOL    HW218813   0.587   1.058   2.379
 5972SOL     OW18814   5.778   5.422   5.976
 5972SOL    HW118815   5.828   5.433   5.890
 5972SOL    HW218816   5.684   5.454   5.964
 5973SOL     OW18817   1.544   3.577   2.836
 5973SOL    HW118818   1.531   3.673   2.861
 5973SOL    HW218819   1.493   3.519   2.900
 5974SOL     OW18820   5.995   5.791   6.609
 5974SOL    HW118821   6.047   5.792   6.694
 5974SOL    HW218822   5.994   5.698   6.571
 5975SOL     OW18823   4.738   0.108   0.450
 5975SOL    HW118824   4.734   0.016   0.489
 5975SOL    HW218825   4.804   0.163   0.501
 5976SOL     OW18826   3.705   2.442   5.782
 5976SOL    HW118827   3.707   2.342   5.789
 5976SOL    HW218828   3.611   2.474   5.779
 5977SOL     OW18829   1.587   5.796   6.806
 5977SOL    HW118830   1.642   5.814   6.888
 5977SOL    HW218831   1.649   5.779   6.729
 5978SOL     OW18832   4.462   5.532   1.674
 5978SOL    HW118833   4.453   5.479   1.758
 5978SOL    HW218834   4.382   5.518   1.616
 5979SOL     OW18835   5.629   0.824   3.092
 5979SOL    HW118836   5.690   0.900   3.114
 5979SOL    HW218837   5.598   0.780   3.176
 5980SOL     OW18838   3.687   3.824   1.157
 5980SOL    HW118839   3.626   3.872   1.095
 5980SOL    HW218840   3.769   3.795   1.107
 5981SOL     OW18841   4.994   2.368   1.356
 5981SOL    HW118842   4.980   2.318   1.442
 5981SOL    HW218843   5.071   2.328   1.307
 5982SOL     OW18844   6.236   3.364   2.501
 5982SOL    HW118845   6.173   3.427   2.546
 5982SOL    HW218846   6.312   3.344   2.562
 5983SOL     OW18847   1.202   1.736   3.856
 5983SOL    HW118848   1.206   1.748   3.955
 5983SOL    HW218849   1.111   1.702   3.830
 5984SOL     OW18850   6.619   5.703   3.653
 5984SOL    HW118851   6.547   5.734   3.591
 5984SOL    HW218852   6.622   5.763   3.733
 5985SOL     OW18853   6.814   2.891   4.257
 5985SOL    HW118854   6.799   2.852   4.348
 5985SOL    HW218855   6.819   2.818   4.189
 5986SOL     OW18856   3.306   3.731   4.399
 5986SOL    HW118857   3.393   3.779   4.390
 5986SOL    HW218858   3.264   3.753   4.487
 5987SOL     OW18859   5.374   0.142   3.821
 5987SOL    HW118860   5.275   0.150   3.812
 5987SOL    HW218861   5.415   0.124   3.731
 5988SOL     OW18862   4.740   0.153   5.892
 5988SOL    HW118863   4.725   0.067   5.843
 5988SOL    HW218864   4.835   0.182   5.879
 5989SOL     OW18865   2.074   6.168   6.723
 5989SOL    HW118866   2.080   6.268   6.717
 5989SOL    HW218867   2.160   6.128   6.690
 5990SOL     OW18868   3.718   3.972   0.603
 5990SOL    HW118869   3.641   3.933   0.552
 5990SOL    HW218870   3.726   4.070   0.583
 5991SOL     OW18871   3.494   5.068   6.793
 5991SOL    HW118872   3.411   5.101   6.748
 5991SOL    HW218873   3.570   5.069   6.728
 5992SOL     OW18874   3.490   0.448   1.918
 5992SOL    HW118875   3.408   0.405   1.956
 5992SOL    HW218876   3.470   0.544   1.895
 5993SOL     OW18877   3.526   5.069   5.978
 5993SOL    HW118878   3.474   4.996   6.022
 5993SOL    HW218879   3.589   5.111   6.044
 5994SOL     OW18880   5.670   2.867   2.042
 5994SOL    HW118881   5.754   2.891   2.092
 5994SOL    HW218882   5.608   2.946   2.041
 5995SOL     OW18883   5.005   3.715   2.260
 5995SOL    HW118884   4.937   3.747   2.326
 5995SOL    HW218885   4.958   3.688   2.176
 5996SOL     OW18886   1.292   6.516   1.219
 5996SOL    HW118887   1.335   6.516   1.129
 5996SOL    HW218888   1.192   6.516   1.208
 5997SOL     OW18889   0.093   5.774   2.580
 5997SOL    HW118890   0.083   5.843   2.508
 5997SOL    HW218891   0.182   5.729   2.570
 5998SOL     OW18892   5.746   1.091   3.395
 5998SOL    HW118893   5.678   1.132   3.456
 5998SOL    HW218894   5.724   1.114   3.300
 5999SOL     OW18895   1.891   1.818   1.937
 5999SOL    HW118896   1.859   1.747   1.874
 5999SOL    HW218897   1.980   1.851   1.907
 6000SOL     OW18898   3.815   6.887   0.753
 6000SOL    HW118899   3.808   6.820   0.679
 6000SOL    HW218900   3.826   6.978   0.714
 6001SOL     OW18901   0.743   3.980   6.975
 6001SOL    HW118902   0.767   3.885   6.993
 6001SOL    HW218903   0.691   3.985   6.889
 6002SOL     OW18904   5.583   0.840   0.537
 6002SOL    HW118905   5.605   0.757   0.589
 6002SOL    HW218906   5.499   0.880   0.573
 6003SOL     OW18907   5.903   2.100   4.894
 6003SOL    HW118908   5.837   2.173   4.910
 6003SOL    HW218909   5.911   2.044   4.977
 6004SOL     OW18910   6.895   3.738   2.695
 6004SOL    HW118911   6.877   3.828   2.656
 6004SOL    HW218912   6.984   3.737   2.739
 6005SOL     OW18913   4.465   5.974   4.324
 6005SOL    HW118914   4.564   5.975   4.336
 6005SOL    HW218915   4.443   5.988   4.228
 6006SOL     OW18916   2.797   1.341   5.457
 6006SOL    HW118917   2.825   1.413   5.521
 6006SOL    HW218918   2.824   1.252   5.494
 6007SOL     OW18919   4.947   4.020   5.514
 6007SOL    HW118920   4.900   3.932   5.526
 6007SOL    HW218921   5.028   4.007   5.457
 6008SOL     OW18922   2.476   4.519   5.221
 6008SOL    HW118923   2.545   4.455   5.256
 6008SOL    HW218924   2.414   4.544   5.295
 6009SOL     OW18925   1.873   0.855   2.950
 6009SOL    HW118926   1.944   0.859   2.879
 6009SOL    HW218927   1.783   0.851   2.907
 6010SOL     OW18928   1.403   5.185   4.067
 6010SOL    HW118929   1.464   5.233   4.129
 6010SOL    HW218930   1.389   5.091   4.100
 6011SOL     OW18931   4.908   2.829   3.423
 6011SOL    HW118932   4.955   2.743   3.406
 6011SOL    HW218933   4.888   2.874   3.336
 6012SOL     OW18934   5.456   0.869   0.244
 6012SOL    HW118935   5.374   0.813   0.257
 6012SOL    HW218936   5.518   0.856   0.322
 6013SOL     OW18937   4.822   2.091   2.664
 6013SOL    HW118938   4.735   2.130   2.694
 6013SOL    HW218939   4.805   2.020   2.596
 6014SOL     OW18940   4.111   3.358   2.725
 6014SOL    HW118941   4.100   3.324   2.631
 6014SOL    HW218942   4.023   3.355   2.772
 6015SOL     OW18943   6.005   4.158   3.965
 6015SOL    HW118944   5.994   4.114   3.875
 6015SOL    HW218945   6.102   4.164   3.987
 6016SOL     OW18946   6.820   1.867   5.366
 6016SOL    HW118947   6.782   1.778   5.342
 6016SOL    HW218948   6.759   1.939   5.331
 6017SOL     OW18949   6.616   4.190   3.235
 6017SOL    HW118950   6.596   4.288   3.234
 6017SOL    HW218951   6.588   4.151   3.323
 6018SOL     OW18952   4.130   0.632   6.576
 6018SOL    HW118953   4.189   0.701   6.616
 6018SOL    HW218954   4.083   0.581   6.648
 6019SOL     OW18955   6.831   1.345   4.331
 6019SOL    HW118956   6.797   1.276   4.394
 6019SOL    HW218957   6.914   1.387   4.369
 6020SOL     OW18958   1.327   4.877   0.534
 6020SOL    HW118959   1.234   4.866   0.571
 6020SOL    HW218960   1.356   4.972   0.545
 6021SOL     OW18961   4.697   0.370   3.305
 6021SOL    HW118962   4.733   0.368   3.398
 6021SOL    HW218963   4.704   0.279   3.265
 6022SOL     OW18964   5.430   2.400   4.008
 6022SOL    HW118965   5.468   2.449   4.086
 6022SOL    HW218966   5.491   2.411   3.929
 6023SOL     OW18967   5.759   0.884   1.976
 6023SOL    HW118968   5.766   0.811   2.045
 6023SOL    HW218969   5.709   0.961   2.014
 6024SOL     OW18970   1.459   4.873   2.954
 6024SOL    HW118971   1.405   4.874   3.038
 6024SOL    HW218972   1.399   4.885   2.875
 6025SOL     OW18973   3.916   1.630   2.857
 6025SOL    HW118974   3.821   1.616   2.829
 6025SOL    HW218975   3.932   1.586   2.945
 6026SOL     OW18976   0.265   4.134   5.430
 6026SOL    HW118977   0.219   4.151   5.343
 6026SOL    HW218978   0.337   4.203   5.443
 6027SOL     OW18979   0.871   3.218   5.976
 6027SOL    HW118980   0.917   3.306   5.984
 6027SOL    HW218981   0.935   3.150   5.939
 6028SOL     OW18982   6.722   5.241   0.197
 6028SOL    HW118983   6.660   5.185   0.142
 6028SOL    HW218984   6.680   5.329   0.215
 6029SOL     OW18985   2.387   6.718   4.950
 6029SOL    HW118986   2.411   6.807   4.989
 6029SOL    HW218987   2.357   6.657   5.023
 6030SOL     OW18988   3.973   5.306   2.312
 6030SOL    HW118989   3.977   5.309   2.412
 6030SOL    HW218990   3.987   5.397   2.275
 6031SOL     OW18991   2.730   5.323   3.831
 6031SOL    HW118992   2.689   5.276   3.910
 6031SOL    HW218993   2.829   5.332   3.846
 6032SOL     OW18994   2.046   4.399   2.533
 6032SOL    HW118995   1.959   4.351   2.522
 6032SOL    HW218996   2.043   4.485   2.483
 6033SOL     OW18997   2.859   2.253   2.885
 6033SOL    HW118998   2.782   2.189   2.895
 6033SOL    HW218999   2.830   2.330   2.828
 6034SOL     OW19000   1.238   6.137   4.797
 6034SOL    HW119001   1.275   6.222   4.760
 6034SOL    HW219002   1.235   6.068   4.724
 6035SOL     OW19003   0.150   0.755   2.383
 6035SOL    HW119004   0.094   0.837   2.400
 6035SOL    HW219005   0.236   0.782   2.339
 6036SOL     OW19006   5.276   4.711   3.518
 6036SOL    HW119007   5.179   4.691   3.505
 6036SOL    HW219008   5.287   4.774   3.594
 6037SOL     OW19009   4.371   6.015   6.854
 6037SOL    HW119010   4.421   6.100   6.867
 6037SOL    HW219011   4.335   5.984   6.941
 6038SOL     OW19012   1.948   2.051   5.593
 6038SOL    HW119013   1.885   2.080   5.664
 6038SOL    HW219014   1.897   2.016   5.515
 6039SOL     OW19015   2.941   3.793   2.447
 6039SOL    HW119016   2.843   3.810   2.433
 6039SOL    HW219017   2.955   3.697   2.471
 6040SOL     OW19018   1.086   1.501   6.881
 6040SOL    HW119019   1.063   1.494   6.978
 6040SOL    HW219020   1.114   1.411   6.847
 6041SOL     OW19021   3.164   0.822   4.966
 6041SOL    HW119022   3.203   0.777   5.047
 6041SOL    HW219023   3.116   0.906   4.994
 6042SOL     OW19024   4.774   6.066   2.409
 6042SOL    HW119025   4.712   6.054   2.486
 6042SOL    HW219026   4.815   5.978   2.384
 6043SOL     OW19027   0.726   4.736   5.296
 6043SOL    HW119028   0.816   4.728   5.253
 6043SOL    HW219029   0.687   4.826   5.275
 6044SOL     OW19030   1.110   2.557   1.529
 6044SOL    HW119031   1.085   2.630   1.466
 6044SOL    HW219032   1.133   2.475   1.476
 6045SOL     OW19033   5.722   4.148   2.629
 6045SOL    HW119034   5.754   4.152   2.534
 6045SOL    HW219035   5.770   4.073   2.676
 6046SOL     OW19036   3.590   2.362   0.457
 6046SOL    HW119037   3.503   2.373   0.407
 6046SOL    HW219038   3.666   2.362   0.392
 6047SOL     OW19039   4.556   2.133   2.318
 6047SOL    HW119040   4.565   2.093   2.227
 6047SOL    HW219041   4.569   2.232   2.312
 6048SOL     OW19042   4.842   5.313   4.871
 6048SOL    HW119043   4.853   5.229   4.924
 6048SOL    HW219044   4.746   5.340   4.871
 6049SOL     OW19045   4.870   3.077   6.861
 6049SOL    HW119046   4.795   3.011   6.856
 6049SOL    HW219047   4.856   3.138   6.939
 6050SOL     OW19048   3.971   5.747   5.312
 6050SOL    HW119049   3.978   5.810   5.389
 6050SOL    HW219050   3.912   5.671   5.337
 6051SOL     OW19051   2.200   0.299   3.955
 6051SOL    HW119052   2.182   0.266   3.863
 6051SOL    HW219053   2.192   0.224   4.020
 6052SOL     OW19054   6.817   0.787   7.000
 6052SOL    HW119055   6.756   0.790   6.920
 6052SOL    HW219056   6.908   0.816   6.973
 6053SOL     OW19057   4.183   1.982   6.550
 6053SOL    HW119058   4.182   2.020   6.643
 6053SOL    HW219059   4.097   2.004   6.504
 6054SOL     OW19060   2.268   3.229   0.156
 6054SOL    HW119061   2.352   3.192   0.196
 6054SOL    HW219062   2.189   3.188   0.201
 6055SOL     OW19063   4.820   0.679   5.134
 6055SOL    HW119064   4.733   0.710   5.172
 6055SOL    HW219065   4.806   0.645   5.041
 6056SOL     OW19066   5.109   2.743   4.591
 6056SOL    HW119067   5.173   2.695   4.531
 6056SOL    HW219068   5.091   2.688   4.672
 6057SOL     OW19069   5.932   2.550   3.977
 6057SOL    HW119070   5.891   2.624   3.923
 6057SOL    HW219071   5.992   2.588   4.046
 6058SOL     OW19072   5.271   3.244   1.670
 6058SOL    HW119073   5.361   3.258   1.712
 6058SOL    HW219074   5.233   3.331   1.641
 6059SOL     OW19075   5.258   4.668   5.069
 6059SOL    HW119076   5.337   4.615   5.099
 6059SOL    HW219077   5.256   4.672   4.969
 6060SOL     OW19078   3.140   3.715   0.126
 6060SOL    HW119079   3.128   3.695   0.028
 6060SOL    HW219080   3.234   3.694   0.152
 6061SOL     OW19081   3.792   2.630   1.138
 6061SOL    HW119082   3.850   2.600   1.213
 6061SOL    HW219083   3.706   2.579   1.140
 6062SOL     OW19084   2.093   0.925   5.113
 6062SOL    HW119085   2.132   0.956   5.026
 6062SOL    HW219086   2.114   0.992   5.185
 6063SOL     OW19087   4.035   2.413   6.190
 6063SOL    HW119088   4.124   2.371   6.175
 6063SOL    HW219089   4.043   2.512   6.182
 6064SOL     OW19090   1.873   6.315   0.576
 6064SOL    HW119091   1.803   6.272   0.633
 6064SOL    HW219092   1.848   6.306   0.480
 6065SOL     OW19093   0.036   6.633   2.038
 6065SOL    HW119094   0.062   6.728   2.023
 6065SOL    HW219095   0.118   6.578   2.056
 6066SOL     OW19096   4.456   1.205   6.121
 6066SOL    HW119097   4.487   1.276   6.184
 6066SOL    HW219098   4.429   1.124   6.172
 6067SOL     OW19099   5.798   0.953   5.475
 6067SOL    HW119100   5.813   1.019   5.402
 6067SOL    HW219101   5.886   0.919   5.509
 6068SOL     OW19102   5.421   3.482   4.554
 6068SOL    HW119103   5.415   3.506   4.457
 6068SOL    HW219104   5.500   3.422   4.569
 6069SOL     OW19105   5.983   2.816   5.521
 6069SOL    HW119106   5.975   2.905   5.477
 6069SOL    HW219107   5.957   2.823   5.618
 6070SOL     OW19108   2.863   2.726   0.728
 6070SOL    HW119109   2.782   2.760   0.680
 6070SOL    HW219110   2.841   2.641   0.776
 6071SOL     OW19111   5.453   5.531   3.700
 6071SOL    HW119112   5.515   5.579   3.637
 6071SOL    HW219113   5.498   5.448   3.733
 6072SOL     OW19114   6.928   0.626   1.870
 6072SOL    HW119115   6.850   0.654   1.813
 6072SOL    HW219116   7.013   0.655   1.828
 6073SOL     OW19117   5.878   3.263   0.208
 6073SOL    HW119118   5.820   3.209   0.146
 6073SOL    HW219119   5.900   3.350   0.165
 6074SOL     OW19120   1.125   6.575   3.492
 6074SOL    HW119121   1.110   6.604   3.587
 6074SOL    HW219122   1.037   6.553   3.450
 6075SOL     OW19123   6.638   1.345   6.281
 6075SOL    HW119124   6.596   1.407   6.215
 6075SOL    HW219125   6.583   1.262   6.289
 6076SOL     OW19126   2.881   5.536   4.363
 6076SOL    HW119127   2.782   5.546   4.351
 6076SOL    HW219128   2.922   5.625   4.379
 6077SOL     OW19129   6.299   5.761   1.028
 6077SOL    HW119130   6.335   5.818   1.103
 6077SOL    HW219131   6.319   5.665   1.047
 6078SOL     OW19132   4.267   5.047   0.633
 6078SOL    HW119133   4.282   5.131   0.684
 6078SOL    HW219134   4.347   5.029   0.575
 6079SOL     OW19135   4.498   4.064   6.255
 6079SOL    HW119136   4.467   3.970   6.270
 6079SOL    HW219137   4.418   4.125   6.255
 6080SOL     OW19138   0.059   0.520   1.356
 6080SOL    HW119139   6.981   0.501   1.346
 6080SOL    HW219140   0.111   0.436   1.346
 6081SOL     OW19141   6.704   3.542   5.523
 6081SOL    HW119142   6.663   3.536   5.613
 6081SOL    HW219143   6.772   3.469   5.512
 6082SOL     OW19144   2.276   1.990   4.188
 6082SOL    HW119145   2.242   1.900   4.214
 6082SOL    HW219146   2.230   2.021   4.104
 6083SOL     OW19147   6.611   5.152   6.745
 6083SOL    HW119148   6.652   5.210   6.816
 6083SOL    HW219149   6.574   5.069   6.787
 6084SOL     OW19150   0.890   0.375   3.878
 6084SOL    HW119151   0.932   0.327   3.801
 6084SOL    HW219152   0.796   0.400   3.853
 6085SOL     OW19153   0.766   5.074   0.467
 6085SOL    HW119154   0.723   5.164   0.479
 6085SOL    HW219155   0.711   5.005   0.513
 6086SOL     OW19156   4.063   0.378   6.090
 6086SOL    HW119157   4.044   0.414   6.181
 6086SOL    HW219158   4.060   0.453   6.023
 6087SOL     OW19159   3.514   5.521   0.871
 6087SOL    HW119160   3.492   5.446   0.933
 6087SOL    HW219161   3.501   5.609   0.918
 6088SOL     OW19162   5.911   5.605   3.789
 6088SOL    HW119163   5.881   5.612   3.884
 6088SOL    HW219164   5.926   5.509   3.766
 6089SOL     OW19165   5.180   3.425   1.277
 6089SOL    HW119166   5.169   3.463   1.369
 6089SOL    HW219167   5.090   3.413   1.235
 6090SOL     OW19168   2.252   5.567   5.467
 6090SOL    HW119169   2.227   5.575   5.370
 6090SOL    HW219170   2.229   5.652   5.514
 6091SOL     OW19171   1.682   1.288   0.537
 6091SOL    HW119172   1.698   1.203   0.486
 6091SOL    HW219173   1.588   1.289   0.572
 6092SOL     OW19174   4.002   6.951   2.874
 6092SOL    HW119175   4.056   7.012   2.931
 6092SOL    HW219176   3.908   6.985   2.868
 6093SOL     OW19177   1.715   3.546   2.003
 6093SOL    HW119178   1.618   3.548   1.979
 6093SOL    HW219179   1.764   3.616   1.950
 6094SOL     OW19180   2.706   6.601   1.401
 6094SOL    HW119181   2.637   6.583   1.330
 6094SOL    HW219182   2.674   6.676   1.459
 6095SOL     OW19183   5.134   3.853   0.561
 6095SOL    HW119184   5.055   3.903   0.524
 6095SOL    HW219185   5.198   3.918   0.602
 6096SOL     OW19186   6.927   0.009   3.247
 6096SOL    HW119187   6.920   6.954   3.313
 6096SOL    HW219188   7.015   0.055   3.257
 6097SOL     OW19189   2.578   6.441   2.670
 6097SOL    HW119190   2.544   6.361   2.721
 6097SOL    HW219191   2.611   6.510   2.735
 6098SOL     OW19192   1.907   2.150   5.062
 6098SOL    HW119193   1.946   2.059   5.079
 6098SOL    HW219194   1.897   2.164   4.963
 6099SOL     OW19195   6.330   6.217   6.762
 6099SOL    HW119196   6.296   6.264   6.843
 6099SOL    HW219197   6.349   6.284   6.689
 6100SOL     OW19198   4.904   5.483   0.335
 6100SOL    HW119199   4.964   5.561   0.317
 6100SOL    HW219200   4.910   5.418   0.259
 6101SOL     OW19201   6.550   2.861   4.632
 6101SOL    HW119202   6.453   2.840   4.640
 6101SOL    HW219203   6.579   2.918   4.709
 6102SOL     OW19204   3.502   6.875   3.715
 6102SOL    HW119205   3.440   6.940   3.761
 6102SOL    HW219206   3.484   6.783   3.750
 6103SOL     OW19207   6.537   2.292   2.586
 6103SOL    HW119208   6.627   2.320   2.620
 6103SOL    HW219209   6.532   2.310   2.487
 6104SOL     OW19210   6.037   0.629   5.164
 6104SOL    HW119211   6.006   0.721   5.143
 6104SOL    HW219212   6.017   0.607   5.259
 6105SOL     OW19213   3.041   6.603   6.190
 6105SOL    HW119214   2.975   6.678   6.199
 6105SOL    HW219215   3.094   6.595   6.275
 6106SOL     OW19216   2.453   4.010   6.215
 6106SOL    HW119217   2.459   4.044   6.121
 6106SOL    HW219218   2.529   4.047   6.269
 6107SOL     OW19219   3.010   5.125   4.405
 6107SOL    HW119220   3.021   5.150   4.309
 6107SOL    HW219221   2.977   5.204   4.457
 6108SOL     OW19222   1.474   2.898   1.882
 6108SOL    HW119223   1.522   2.932   1.962
 6108SOL    HW219224   1.433   2.974   1.832
 6109SOL     OW19225   5.373   2.625   5.240
 6109SOL    HW119226   5.373   2.601   5.143
 6109SOL    HW219227   5.285   2.666   5.265
 6110SOL     OW19228   3.973   4.076   0.695
 6110SOL    HW119229   3.985   3.993   0.642
 6110SOL    HW219230   4.058   4.129   0.694
 6111SOL     OW19231   2.214   3.990   2.242
 6111SOL    HW119232   2.226   3.973   2.340
 6111SOL    HW219233   2.118   4.007   2.223
 6112SOL     OW19234   4.142   0.211   2.710
 6112SOL    HW119235   4.188   0.124   2.726
 6112SOL    HW219236   4.157   0.239   2.615
 6113SOL     OW19237   2.493   1.247   6.244
 6113SOL    HW119238   2.445   1.311   6.185
 6113SOL    HW219239   2.482   1.154   6.210
 6114SOL     OW19240   5.207   6.003   1.376
 6114SOL    HW119241   5.198   6.046   1.465
 6114SOL    HW219242   5.152   5.919   1.373
 6115SOL     OW19243   5.062   0.068   4.295
 6115SOL    HW119244   5.078   0.164   4.318
 6115SOL    HW219245   5.030   0.061   4.200
 6116SOL     OW19246   3.602   1.021   6.711
 6116SOL    HW119247   3.643   1.109   6.684
 6116SOL    HW219248   3.666   0.947   6.690
 6117SOL     OW19249   1.504   1.091   4.553
 6117SOL    HW119250   1.560   1.165   4.590
 6117SOL    HW219251   1.564   1.022   4.513
 6118SOL     OW19252   6.790   1.116   2.129
 6118SOL    HW119253   6.809   1.200   2.180
 6118SOL    HW219254   6.854   1.045   2.158
 6119SOL     OW19255   1.438   3.685   6.250
 6119SOL    HW119256   1.492   3.685   6.334
 6119SOL    HW219257   1.483   3.628   6.181
 6120SOL     OW19258   3.785   6.416   4.778
 6120SOL    HW119259   3.864   6.435   4.838
 6120SOL    HW219260   3.804   6.451   4.687
 6121SOL     OW19261   1.031   3.434   5.657
 6121SOL    HW119262   1.064   3.406   5.567
 6121SOL    HW219263   1.072   3.522   5.681
 6122SOL     OW19264   4.358   5.545   0.861
 6122SOL    HW119265   4.457   5.558   0.863
 6122SOL    HW219266   4.317   5.611   0.798
 6123SOL     OW19267   6.158   6.734   6.864
 6123SOL    HW119268   6.171   6.801   6.937
 6123SOL    HW219269   6.201   6.766   6.780
 6124SOL     OW19270   2.618   6.968   6.058
 6124SOL    HW119271   2.685   6.895   6.044
 6124SOL    HW219272   2.536   6.949   6.004
 6125SOL     OW19273   1.266   5.375   0.760
 6125SOL    HW119274   1.361   5.402   0.743
 6125SOL    HW219275   1.216   5.453   0.797
 6126SOL     OW19276   1.153   7.006   4.436
 6126SOL    HW119277   1.252   7.017   4.427
 6126SOL    HW219278   1.108   0.024   4.355
 6127SOL     OW19279   4.099   6.713   0.816
 6127SOL    HW119280   4.019   6.699   0.874
 6127SOL    HW219281   4.118   6.811   0.808
 6128SOL     OW19282   5.764   3.525   0.534
 6128SOL    HW119283   5.777   3.572   0.446
 6128SOL    HW219284   5.827   3.447   0.539
 6129SOL     OW19285   6.588   3.322   3.697
 6129SOL    HW119286   6.650   3.393   3.662
 6129SOL    HW219287   6.642   3.248   3.738
 6130SOL     OW19288   6.169   2.648   4.122
 6130SOL    HW119289   6.206   2.740   4.133
 6130SOL    HW219290   6.182   2.617   4.028
 6131SOL     OW19291   0.276   1.122   5.175
 6131SOL    HW119292   0.300   1.218   5.192
 6131SOL    HW219293   0.357   1.065   5.188
 6132SOL     OW19294   4.555   2.297   6.995
 6132SOL    HW119295   4.512   2.209   7.014
 6132SOL    HW219296   4.644   2.301   0.021
 6133SOL     OW19297   1.479   2.646   1.920
 6133SOL    HW119298   1.566   2.632   1.968
 6133SOL    HW219299   1.471   2.741   1.893
 6134SOL     OW19300   3.672   4.636   6.415
 6134SOL    HW119301   3.577   4.657   6.392
 6134SOL    HW219302   3.716   4.588   6.339
 6135SOL     OW19303   0.627   0.546   1.917
 6135SOL    HW119304   0.622   0.479   1.992
 6135SOL    HW219305   0.594   0.635   1.950
 6136SOL     OW19306   0.864   2.540   2.289
 6136SOL    HW119307   0.941   2.534   2.226
 6136SOL    HW219308   0.844   2.636   2.308
 6137SOL     OW19309   6.696   2.560   3.694
 6137SOL    HW119310   6.740   2.627   3.634
 6137SOL    HW219311   6.648   2.492   3.638
 6138SOL     OW19312   3.555   6.752   3.231
 6138SOL    HW119313   3.639   6.794   3.266
 6138SOL    HW219314   3.570   6.655   3.217
 6139SOL     OW19315   1.023   0.337   6.350
 6139SOL    HW119316   1.093   0.267   6.334
 6139SOL    HW219317   1.065   0.418   6.391
 6140SOL     OW19318   1.068   6.427   1.499
 6140SOL    HW119319   1.121   6.490   1.556
 6140SOL    HW219320   1.012   6.368   1.558
 6141SOL     OW19321   6.786   6.436   6.042
 6141SOL    HW119322   6.808   6.511   6.104
 6141SOL    HW219323   6.830   6.451   5.954
 6142SOL     OW19324   1.289   5.933   0.134
 6142SOL    HW119325   1.249   5.874   0.065
 6142SOL    HW219326   1.379   5.898   0.160
 6143SOL     OW19327   6.860   3.884   1.196
 6143SOL    HW119328   6.766   3.917   1.210
 6143SOL    HW219329   6.871   3.853   1.102
 6144SOL     OW19330   5.486   4.444   2.974
 6144SOL    HW119331   5.386   4.451   2.967
 6144SOL    HW219332   5.513   4.440   3.070
 6145SOL     OW19333   5.083   5.261   3.079
 6145SOL    HW119334   4.989   5.283   3.105
 6145SOL    HW219335   5.093   5.270   2.980
 6146SOL     OW19336   2.704   5.912   3.339
 6146SOL    HW119337   2.776   5.922   3.270
 6146SOL    HW219338   2.703   5.993   3.398
 6147SOL     OW19339   1.516   2.547   4.600
 6147SOL    HW119340   1.560   2.478   4.543
 6147SOL    HW219341   1.417   2.540   4.591
 6148SOL     OW19342   5.638   6.958   4.182
 6148SOL    HW119343   5.585   6.964   4.097
 6148SOL    HW219344   5.612   0.014   4.242
 6149SOL     OW19345   2.929   5.843   0.903
 6149SOL    HW119346   2.834   5.813   0.908
 6149SOL    HW219347   2.986   5.782   0.957
 6150SOL     OW19348   4.433   5.363   0.469
 6150SOL    HW119349   4.470   5.456   0.465
 6150SOL    HW219350   4.400   5.336   0.378
 6151SOL     OW19351   5.888   4.499   6.593
 6151SOL    HW119352   5.799   4.488   6.548
 6151SOL    HW219353   5.953   4.432   6.555
 6152SOL     OW19354   5.809   5.204   4.475
 6152SOL    HW119355   5.899   5.186   4.435
 6152SOL    HW219356   5.801   5.301   4.496
 6153SOL     OW19357   5.302   4.633   1.247
 6153SOL    HW119358   5.217   4.586   1.269
 6153SOL    HW219359   5.370   4.566   1.217
 6154SOL     OW19360   6.079   2.235   2.474
 6154SOL    HW119361   6.068   2.137   2.457
 6154SOL    HW219362   6.156   2.249   2.537
 6155SOL     OW19363   1.807   1.988   4.324
 6155SOL    HW119364   1.735   2.001   4.255
 6155SOL    HW219365   1.780   1.917   4.389
 6156SOL     OW19366   4.001   4.430   1.567
 6156SOL    HW119367   4.022   4.342   1.610
 6156SOL    HW219368   3.929   4.476   1.620
 6157SOL     OW19369   0.722   6.980   5.148
 6157SOL    HW119370   0.724   6.888   5.109
 6157SOL    HW219371   0.780   0.020   5.093
 6158SOL     OW19372   3.905   1.481   6.045
 6158SOL    HW119373   3.930   1.419   5.970
 6158SOL    HW219374   3.814   1.518   6.029
 6159SOL     OW19375   4.802   2.837   2.490
 6159SOL    HW119376   4.805   2.916   2.428
 6159SOL    HW219377   4.893   2.794   2.492
 6160SOL     OW19378   5.324   1.436   6.709
 6160SOL    HW119379   5.261   1.363   6.683
 6160SOL    HW219380   5.279   1.496   6.776
 6161SOL     OW19381   4.700   1.105   4.971
 6161SOL    HW119382   4.664   1.191   4.934
 6161SOL    HW219383   4.627   1.055   5.017
 6162SOL     OW19384   0.724   6.074   3.395
 6162SOL    HW119385   0.626   6.064   3.411
 6162SOL    HW219386   0.742   6.167   3.362
 6163SOL     OW19387   6.262   6.955   0.942
 6163SOL    HW119388   6.338   6.904   0.984
 6163SOL    HW219389   6.225   7.020   1.008
 6164SOL     OW19390   4.023   3.040   2.007
 6164SOL    HW119391   3.946   3.028   2.069
 6164SOL    HW219392   4.108   3.013   2.054
 6165SOL     OW19393   4.587   1.033   0.286
 6165SOL    HW119394   4.623   1.065   0.198
 6165SOL    HW219395   4.501   1.080   0.305
 6166SOL     OW19396   5.385   1.131   6.024
 6166SOL    HW119397   5.421   1.158   5.935
 6166SOL    HW219398   5.460   1.121   6.089
 6167SOL     OW19399   1.134   5.324   3.312
 6167SOL    HW119400   1.154   5.422   3.305
 6167SOL    HW219401   1.050   5.304   3.261
 6168SOL     OW19402   0.960   4.078   1.725
 6168SOL    HW119403   0.987   4.014   1.653
 6168SOL    HW219404   0.886   4.136   1.691
 6169SOL     OW19405   1.604   2.363   0.905
 6169SOL    HW119406   1.589   2.265   0.919
 6169SOL    HW219407   1.681   2.376   0.843
 6170SOL     OW19408   0.974   4.320   6.040
 6170SOL    HW119409   1.062   4.361   6.064
 6170SOL    HW219410   0.925   4.382   5.978
 6171SOL     OW19411   0.736   3.205   0.587
 6171SOL    HW119412   0.705   3.127   0.532
 6171SOL    HW219413   0.724   3.184   0.684
 6172SOL     OW19414   1.768   2.816   2.597
 6172SOL    HW119415   1.716   2.830   2.513
 6172SOL    HW219416   1.845   2.880   2.600
 6173SOL     OW19417   6.816   5.456   1.457
 6173SOL    HW119418   6.735   5.482   1.509
 6173SOL    HW219419   6.857   5.374   1.497
 6174SOL     OW19420   5.235   5.469   3.196
 6174SOL    HW119421   5.218   5.372   3.179
 6174SOL    HW219422   5.247   5.516   3.108
 6175SOL     OW19423   3.976   0.546   3.851
 6175SOL    HW119424   3.977   0.450   3.878
 6175SOL    HW219425   4.062   0.569   3.807
 6176SOL     OW19426   5.282   3.949   6.253
 6176SOL    HW119427   5.198   3.942   6.199
 6176SOL    HW219428   5.358   3.909   6.201
 6177SOL     OW19429   5.608   1.112   0.845
 6177SOL    HW119430   5.520   1.074   0.816
 6177SOL    HW219431   5.600   1.144   0.940
 6178SOL     OW19432   4.728   4.740   2.554
 6178SOL    HW119433   4.759   4.813   2.613
 6178SOL    HW219434   4.680   4.779   2.475
 6179SOL     OW19435   6.274   4.924   3.324
 6179SOL    HW119436   6.346   4.993   3.312
 6179SOL    HW219437   6.291   4.848   3.261
 6180SOL     OW19438   3.417   4.175   0.803
 6180SOL    HW119439   3.404   4.237   0.725
 6180SOL    HW219440   3.338   4.115   0.811
 6181SOL     OW19441   4.322   6.699   0.496
 6181SOL    HW119442   4.228   6.707   0.530
 6181SOL    HW219443   4.349   6.786   0.453
 6182SOL     OW19444   5.090   3.473   5.689
 6182SOL    HW119445   5.144   3.497   5.608
 6182SOL    HW219446   5.148   3.426   5.755
 6183SOL     OW19447   0.934   2.609   3.567
 6183SOL    HW119448   1.012   2.649   3.518
 6183SOL    HW219449   0.902   2.528   3.518
 6184SOL     OW19450   2.630   6.817   6.551
 6184SOL    HW119451   2.727   6.802   6.532
 6184SOL    HW219452   2.582   6.838   6.466
 6185SOL     OW19453   0.433   3.934   5.911
 6185SOL    HW119454   0.500   3.861   5.925
 6185SOL    HW219455   0.341   3.898   5.923
 6186SOL     OW19456   0.676   0.592   0.363
 6186SOL    HW119457   0.697   0.503   0.323
 6186SOL    HW219458   0.586   0.622   0.333
 6187SOL     OW19459   4.918   4.272   3.981
 6187SOL    HW119460   4.822   4.260   4.009
 6187SOL    HW219461   4.971   4.304   4.059
 6188SOL     OW19462   2.354   1.884   6.565
 6188SOL    HW119463   2.331   1.887   6.467
 6188SOL    HW219464   2.451   1.864   6.576
 6189SOL     OW19465   4.423   4.632   2.674
 6189SOL    HW119466   4.514   4.598   2.650
 6189SOL    HW219467   4.380   4.673   2.593
 6190SOL     OW19468   0.888   4.203   5.425
 6190SOL    HW119469   0.949   4.270   5.467
 6190SOL    HW219470   0.930   4.165   5.343
 6191SOL     OW19471   2.651   2.260   6.717
 6191SOL    HW119472   2.614   2.238   6.807
 6191SOL    HW219473   2.614   2.196   6.650
 6192SOL     OW19474   3.164   2.564   5.978
 6192SOL    HW119475   3.097   2.495   6.004
 6192SOL    HW219476   3.137   2.606   5.891
 6193SOL     OW19477   4.745   0.147   1.510
 6193SOL    HW119478   4.787   0.056   1.509
 6193SOL    HW219479   4.817   0.217   1.504
 6194SOL     OW19480   1.213   0.434   1.061
 6194SOL    HW119481   1.206   0.446   1.160
 6194SOL    HW219482   1.182   0.518   1.015
 6195SOL     OW19483   4.226   5.726   5.214
 6195SOL    HW119484   4.253   5.820   5.192
 6195SOL    HW219485   4.127   5.720   5.218
 6196SOL     OW19486   6.224   3.318   1.833
 6196SOL    HW119487   6.161   3.384   1.874
 6196SOL    HW219488   6.185   3.281   1.749
 6197SOL     OW19489   3.906   5.192   0.700
 6197SOL    HW119490   3.913   5.151   0.791
 6197SOL    HW219491   3.892   5.290   0.709
 6198SOL     OW19492   4.002   0.038   1.472
 6198SOL    HW119493   4.004   7.014   1.382
 6198SOL    HW219494   4.074   7.020   1.530
 6199SOL     OW19495   1.065   1.516   0.160
 6199SOL    HW119496   1.011   1.455   0.219
 6199SOL    HW219497   1.154   1.532   0.202
 6200SOL     OW19498   1.090   1.228   5.523
 6200SOL    HW119499   1.146   1.164   5.576
 6200SOL    HW219500   1.105   1.212   5.425
 6201SOL     OW19501   0.594   3.969   5.517
 6201SOL    HW119502   0.530   3.917   5.574
 6201SOL    HW219503   0.550   3.992   5.431
 6202SOL     OW19504   4.378   1.536   2.014
 6202SOL    HW119505   4.394   1.465   2.083
 6202SOL    HW219506   4.352   1.493   1.928
 6203SOL     OW19507   6.600   5.378   1.872
 6203SOL    HW119508   6.628   5.468   1.839
 6203SOL    HW219509   6.569   5.385   1.967
 6204SOL     OW19510   0.044   5.347   4.159
 6204SOL    HW119511   0.032   5.372   4.255
 6204SOL    HW219512   0.137   5.370   4.129
 6205SOL     OW19513   6.467   5.726   0.380
 6205SOL    HW119514   6.489   5.694   0.288
 6205SOL    HW219515   6.368   5.732   0.391
 6206SOL     OW19516   5.601   1.787   3.160
 6206SOL    HW119517   5.661   1.864   3.184
 6206SOL    HW219518   5.506   1.813   3.176
 6207SOL     OW19519   1.407   5.300   5.455
 6207SOL    HW119520   1.399   5.393   5.420
 6207SOL    HW219521   1.484   5.254   5.409
 6208SOL     OW19522   5.245   2.923   5.953
 6208SOL    HW119523   5.227   2.841   6.008
 6208SOL    HW219524   5.169   2.987   5.962
 6209SOL     OW19525   3.763   6.128   0.135
 6209SOL    HW119526   3.858   6.154   0.154
 6209SOL    HW219527   3.761   6.035   0.097
 6210SOL     OW19528   5.113   3.616   4.130
 6210SOL    HW119529   5.157   3.547   4.073
 6210SOL    HW219530   5.107   3.583   4.224
 6211SOL     OW19531   2.881   6.066   6.096
 6211SOL    HW119532   2.940   6.147   6.088
 6211SOL    HW219533   2.853   6.055   6.191
 6212SOL     OW19534   2.537   4.695   4.700
 6212SOL    HW119535   2.591   4.675   4.782
 6212SOL    HW219536   2.520   4.610   4.650
 6213SOL     OW19537   6.057   0.124   0.189
 6213SOL    HW119538   6.123   0.184   0.145
 6213SOL    HW219539   6.047   0.150   0.285
 6214SOL     OW19540   4.867   5.193   4.145
 6214SOL    HW119541   4.945   5.207   4.206
 6214SOL    HW219542   4.808   5.121   4.182
 6215SOL     OW19543   4.221   2.092   6.795
 6215SOL    HW119544   4.238   2.080   6.893
 6215SOL    HW219545   4.224   2.190   6.773
 6216SOL     OW19546   6.510   1.614   2.576
 6216SOL    HW119547   6.429   1.646   2.527
 6216SOL    HW219548   6.588   1.613   2.514
 6217SOL     OW19549   0.564   3.843   2.197
 6217SOL    HW119550   0.600   3.922   2.148
 6217SOL    HW219551   0.474   3.818   2.160
 6218SOL     OW19552   4.089   6.657   6.167
 6218SOL    HW119553   4.106   6.618   6.077
 6218SOL    HW219554   4.135   6.602   6.237
 6219SOL     OW19555   1.504   1.732   4.634
 6219SOL    HW119556   1.411   1.700   4.613
 6219SOL    HW219557   1.499   1.813   4.693
 6220SOL     OW19558   2.740   0.902   4.963
 6220SOL    HW119559   2.653   0.930   4.924
 6220SOL    HW219560   2.754   0.948   5.051
 6221SOL     OW19561   5.699   6.929   0.390
 6221SOL    HW119562   5.760   6.878   0.451
 6221SOL    HW219563   5.739   6.932   0.298
 6222SOL     OW19564   1.837   6.672   1.892
 6222SOL    HW119565   1.869   6.632   1.978
 6222SOL    HW219566   1.795   6.600   1.836
 6223SOL     OW19567   1.545   4.832   3.907
 6223SOL    HW119568   1.634   4.876   3.897
 6223SOL    HW219569   1.509   4.850   3.999
 6224SOL     OW19570   3.314   1.111   5.924
 6224SOL    HW119571   3.247   1.101   5.851
 6224SOL    HW219572   3.305   1.034   5.988
 6225SOL     OW19573   4.236   3.191   6.378
 6225SOL    HW119574   4.316   3.131   6.371
 6225SOL    HW219575   4.157   3.139   6.409
 6226SOL     OW19576   0.984   1.878   5.063
 6226SOL    HW119577   0.921   1.890   4.986
 6226SOL    HW219578   1.010   1.782   5.072
 6227SOL     OW19579   3.652   5.095   5.171
 6227SOL    HW119580   3.572   5.068   5.117
 6227SOL    HW219581   3.624   5.114   5.265
 6228SOL     OW19582   0.767   3.550   2.075
 6228SOL    HW119583   0.760   3.456   2.110
 6228SOL    HW219584   0.676   3.585   2.055
 6229SOL     OW19585   0.872   2.003   4.184
 6229SOL    HW119586   0.866   1.905   4.204
 6229SOL    HW219587   0.903   2.016   4.090
 6230SOL     OW19588   0.538   2.065   4.329
 6230SOL    HW119589   0.595   2.018   4.395
 6230SOL    HW219590   0.590   2.139   4.286
 6231SOL     OW19591   6.164   6.296   0.357
 6231SOL    HW119592   6.104   6.288   0.278
 6231SOL    HW219593   6.229   6.220   0.357
 6232SOL     OW19594   6.422   1.434   0.771
 6232SOL    HW119595   6.383   1.522   0.744
 6232SOL    HW219596   6.507   1.418   0.720
 6233SOL     OW19597   6.563   2.196   1.556
 6233SOL    HW119598   6.616   2.267   1.604
 6233SOL    HW219599   6.618   2.159   1.481
 6234SOL     OW19600   0.103   0.397   5.502
 6234SOL    HW119601   0.181   0.448   5.466
 6234SOL    HW219602   0.052   0.356   5.427
 6235SOL     OW19603   6.932   6.913   1.312
 6235SOL    HW119604   6.909   7.008   1.289
 6235SOL    HW219605   6.858   6.853   1.283
 6236SOL     OW19606   0.885   4.312   1.383
 6236SOL    HW119607   0.868   4.213   1.375
 6236SOL    HW219608   0.809   4.362   1.342
 6237SOL     OW19609   3.976   0.511   6.317
 6237SOL    HW119610   4.048   0.557   6.369
 6237SOL    HW219611   3.887   0.540   6.351
 6238SOL     OW19612   4.585   5.363   2.494
 6238SOL    HW119613   4.607   5.358   2.591
 6238SOL    HW219614   4.557   5.456   2.470
 6239SOL     OW19615   3.599   0.806   1.526
 6239SOL    HW119616   3.556   0.897   1.532
 6239SOL    HW219617   3.688   0.814   1.481
 6240SOL     OW19618   2.385   4.055   5.673
 6240SOL    HW119619   2.451   4.086   5.604
 6240SOL    HW219620   2.304   4.018   5.627
 6241SOL     OW19621   3.285   0.351   2.053
 6241SOL    HW119622   3.262   0.260   2.018
 6241SOL    HW219623   3.201   0.403   2.069
 6242SOL     OW19624   3.730   0.611   4.088
 6242SOL    HW119625   3.667   0.636   4.015
 6242SOL    HW219626   3.815   0.576   4.049
 6243SOL     OW19627   6.860   6.528   5.403
 6243SOL    HW119628   6.945   6.482   5.376
 6243SOL    HW219629   6.843   6.512   5.501
 6244SOL     OW19630   5.658   2.923   2.944
 6244SOL    HW119631   5.585   2.973   2.990
 6244SOL    HW219632   5.686   2.973   2.862
 6245SOL     OW19633   1.545   3.591   0.920
 6245SOL    HW119634   1.529   3.604   0.823
 6245SOL    HW219635   1.523   3.675   0.969
 6246SOL     OW19636   1.292   2.101   5.504
 6246SOL    HW119637   1.307   2.195   5.475
 6246SOL    HW219638   1.276   2.044   5.423
 6247SOL     OW19639   0.185   5.582   3.653
 6247SOL    HW119640   0.114   5.652   3.667
 6247SOL    HW219641   0.250   5.614   3.584
 6248SOL     OW19642   3.770   4.026   6.735
 6248SOL    HW119643   3.799   4.102   6.792
 6248SOL    HW219644   3.842   4.006   6.668
 6249SOL     OW19645   7.015   3.660   0.310
 6249SOL    HW119646   0.018   3.565   0.331
 6249SOL    HW219647   7.013   3.714   0.394
 6250SOL     OW19648   6.536   0.543   0.890
 6250SOL    HW119649   6.636   0.539   0.882
 6250SOL    HW219650   6.504   0.468   0.948
 6251SOL     OW19651   4.228   5.771   5.498
 6251SOL    HW119652   4.325   5.761   5.521
 6251SOL    HW219653   4.217   5.758   5.399
 6252SOL     OW19654   2.586   6.193   5.827
 6252SOL    HW119655   2.674   6.204   5.780
 6252SOL    HW219656   2.527   6.133   5.773
 6253SOL     OW19657   2.463   4.551   4.166
 6253SOL    HW119658   2.517   4.619   4.215
 6253SOL    HW219659   2.458   4.467   4.219
 6254SOL     OW19660   6.002   0.999   1.354
 6254SOL    HW119661   6.045   0.970   1.268
 6254SOL    HW219662   5.970   0.919   1.403
 6255SOL     OW19663   3.059   0.691   0.995
 6255SOL    HW119664   2.977   0.656   0.951
 6255SOL    HW219665   3.114   0.615   1.029
 6256SOL     OW19666   3.269   5.280   2.082
 6256SOL    HW119667   3.213   5.353   2.120
 6256SOL    HW219668   3.352   5.269   2.137
 6257SOL     OW19669   4.893   2.375   0.767
 6257SOL    HW119670   4.894   2.372   0.867
 6257SOL    HW219671   4.932   2.290   0.731
 6258SOL     OW19672   2.772   0.942   3.337
 6258SOL    HW119673   2.763   1.038   3.363
 6258SOL    HW219674   2.682   0.899   3.336
 6259SOL     OW19675   1.585   2.037   6.734
 6259SOL    HW119676   1.589   2.132   6.765
 6259SOL    HW219677   1.492   2.002   6.744
 6260SOL     OW19678   3.109   5.795   0.299
 6260SOL    HW119679   3.133   5.744   0.381
 6260SOL    HW219680   3.173   5.871   0.287
 6261SOL     OW19681   4.394   1.189   7.004
 6261SOL    HW119682   4.314   1.136   0.011
 6261SOL    HW219683   4.399   1.273   0.039
 6262SOL     OW19684   2.195   6.414   1.808
 6262SOL    HW119685   2.271   6.355   1.779
 6262SOL    HW219686   2.117   6.357   1.835
 6263SOL     OW19687   6.988   7.018   4.434
 6263SOL    HW119688   7.001   6.976   4.344
 6263SOL    HW219689   7.019   6.955   4.505
 6264SOL     OW19690   1.977   0.390   1.574
 6264SOL    HW119691   2.014   0.467   1.627
 6264SOL    HW219692   1.988   0.306   1.628
 6265SOL     OW19693   3.859   3.928   0.312
 6265SOL    HW119694   3.844   3.934   0.214
 6265SOL    HW219695   3.828   4.012   0.356
 6266SOL     OW19696   4.301   0.338   3.839
 6266SOL    HW119697   4.280   0.241   3.836
 6266SOL    HW219698   4.375   0.354   3.905
 6267SOL     OW19699   2.585   6.758   5.285
 6267SOL    HW119700   2.630   6.672   5.261
 6267SOL    HW219701   2.633   6.834   5.241
 6268SOL     OW19702   2.723   0.915   2.342
 6268SOL    HW119703   2.639   0.889   2.293
 6268SOL    HW219704   2.704   0.921   2.440
 6269SOL     OW19705   6.945   6.597   1.607
 6269SOL    HW119706   7.016   6.588   1.677
 6269SOL    HW219707   6.911   6.690   1.606
 6270SOL     OW19708   1.056   0.716   6.113
 6270SOL    HW119709   1.095   0.673   6.194
 6270SOL    HW219710   1.048   0.815   6.128
 6271SOL     OW19711   6.032   2.286   5.968
 6271SOL    HW119712   6.098   2.221   6.005
 6271SOL    HW219713   5.996   2.343   6.043
 6272SOL     OW19714   0.338   2.209   0.213
 6272SOL    HW119715   0.317   2.129   0.269
 6272SOL    HW219716   0.416   2.188   0.153
 6273SOL     OW19717   0.529   6.303   2.547
 6273SOL    HW119718   0.532   6.396   2.511
 6273SOL    HW219719   0.559   6.238   2.477
 6274SOL     OW19720   3.215   6.726   5.583
 6274SOL    HW119721   3.123   6.752   5.553
 6274SOL    HW219722   3.209   6.647   5.644
 6275SOL     OW19723   2.047   6.434   6.655
 6275SOL    HW119724   1.956   6.475   6.659
 6275SOL    HW219725   2.114   6.500   6.688
 6276SOL     OW19726   2.018   5.015   3.893
 6276SOL    HW119727   2.088   4.954   3.854
 6276SOL    HW219728   1.941   4.961   3.926
 6277SOL     OW19729   4.841   3.145   0.879
 6277SOL    HW119730   4.919   3.122   0.938
 6277SOL    HW219731   4.809   3.063   0.832
 6278SOL     OW19732   4.632   7.014   4.766
 6278SOL    HW119733   4.630   0.042   4.679
 6278SOL    HW219734   4.626   0.060   4.841
 6279SOL     OW19735   3.506   6.189   0.042
 6279SOL    HW119736   3.589   6.146   0.080
 6279SOL    HW219737   3.465   6.248   0.111
 6280SOL     OW19738   0.351   1.162   6.666
 6280SOL    HW119739   0.279   1.094   6.660
 6280SOL    HW219740   0.384   1.169   6.760
 6281SOL     OW19741   0.353   5.209   4.293
 6281SOL    HW119742   0.356   5.299   4.338
 6281SOL    HW219743   0.435   5.197   4.237
 6282SOL     OW19744   6.547   5.511   6.203
 6282SOL    HW119745   6.646   5.504   6.215
 6282SOL    HW219746   6.501   5.478   6.285
 6283SOL     OW19747   0.182   3.560   4.566
 6283SOL    HW119748   0.236   3.499   4.624
 6283SOL    HW219749   0.120   3.507   4.509
 6284SOL     OW19750   1.436   4.507   4.921
 6284SOL    HW119751   1.529   4.523   4.886
 6284SOL    HW219752   1.383   4.592   4.915
 6285SOL     OW19753   7.018   3.337   4.428
 6285SOL    HW119754   0.006   3.339   4.329
 6285SOL    HW219755   7.005   3.242   4.459
 6286SOL     OW19756   6.313   2.473   4.262
 6286SOL    HW119757   6.283   2.560   4.223
 6286SOL    HW219758   6.234   2.412   4.271
 6287SOL     OW19759   3.418   4.952   4.755
 6287SOL    HW119760   3.429   5.024   4.687
 6287SOL    HW219761   3.324   4.918   4.753
 6288SOL     OW19762   5.112   4.303   2.262
 6288SOL    HW119763   5.052   4.302   2.341
 6288SOL    HW219764   5.086   4.378   2.201
 6289SOL     OW19765   2.376   4.839   0.050
 6289SOL    HW119766   2.473   4.821   0.064
 6289SOL    HW219767   2.349   4.919   0.103
 6290SOL     OW19768   5.726   5.095   5.837
 6290SOL    HW119769   5.798   5.098   5.907
 6290SOL    HW219770   5.708   5.000   5.812
 6291SOL     OW19771   4.036   3.861   4.068
 6291SOL    HW119772   4.026   3.797   3.992
 6291SOL    HW219773   4.104   3.931   4.045
 6292SOL     OW19774   1.685   2.377   4.713
 6292SOL    HW119775   1.772   2.427   4.715
 6292SOL    HW219776   1.609   2.442   4.703
 6293SOL     OW19777   4.595   1.592   1.295
 6293SOL    HW119778   4.497   1.573   1.306
 6293SOL    HW219779   4.634   1.615   1.384
 6294SOL     OW19780   3.698   0.131   4.058
 6294SOL    HW119781   3.683   0.173   3.969
 6294SOL    HW219782   3.717   0.033   4.047
 6295SOL     OW19783   5.007   4.827   4.301
 6295SOL    HW119784   5.009   4.731   4.276
 6295SOL    HW219785   4.917   4.865   4.280
 6296SOL     OW19786   6.906   5.445   6.061
 6296SOL    HW119787   6.945   5.512   5.997
 6296SOL    HW219788   6.882   5.490   6.147
 6297SOL     OW19789   5.508   0.206   4.993
 6297SOL    HW119790   5.490   0.162   4.905
 6297SOL    HW219791   5.453   0.161   5.064
 6298SOL     OW19792   1.702   3.337   6.867
 6298SOL    HW119793   1.765   3.327   6.944
 6298SOL    HW219794   1.697   3.434   6.840
 6299SOL     OW19795   6.182   2.332   2.256
 6299SOL    HW119796   6.161   2.275   2.336
 6299SOL    HW219797   6.280   2.352   2.254
 6300SOL     OW19798   6.614   1.167   6.613
 6300SOL    HW119799   6.707   1.151   6.580
 6300SOL    HW219800   6.561   1.083   6.608
 6301SOL     OW19801   3.132   0.101   6.797
 6301SOL    HW119802   3.038   0.088   6.766
 6301SOL    HW219803   3.170   0.014   6.827
 6302SOL     OW19804   1.523   1.411   4.342
 6302SOL    HW119805   1.447   1.347   4.358
 6302SOL    HW219806   1.516   1.447   4.249
 6303SOL     OW19807   0.634   0.522   4.675
 6303SOL    HW119808   0.593   0.611   4.654
 6303SOL    HW219809   0.671   0.524   4.768
 6304SOL     OW19810   3.454   0.645   1.348
 6304SOL    HW119811   3.372   0.701   1.354
 6304SOL    HW219812   3.526   0.685   1.404
 6305SOL     OW19813   5.850   6.438   0.722
 6305SOL    HW119814   5.911   6.490   0.663
 6305SOL    HW219815   5.851   6.477   0.814
 6306SOL     OW19816   0.002   4.139   4.288
 6306SOL    HW119817   7.002   4.131   4.386
 6306SOL    HW219818   0.098   4.115   4.272
 6307SOL     OW19819   3.319   4.157   4.587
 6307SOL    HW119820   3.401   4.116   4.625
 6307SOL    HW219821   3.313   4.253   4.616
 6308SOL     OW19822   2.087   2.457   4.123
 6308SOL    HW119823   2.011   2.478   4.060
 6308SOL    HW219824   2.050   2.417   4.206
 6309SOL     OW19825   6.129   6.127   4.360
 6309SOL    HW119826   6.145   6.147   4.263
 6309SOL    HW219827   6.155   6.033   4.380
 6310SOL     OW19828   1.695   5.897   2.648
 6310SOL    HW119829   1.627   5.857   2.709
 6310SOL    HW219830   1.717   5.831   2.576
 6311SOL     OW19831   5.338   1.558   6.214
 6311SOL    HW119832   5.410   1.561   6.283
 6311SOL    HW219833   5.291   1.470   6.218
 6312SOL     OW19834   0.209   6.780   5.289
 6312SOL    HW119835   0.306   6.794   5.312
 6312SOL    HW219836   0.201   6.758   5.192
 6313SOL     OW19837   6.924   6.013   3.642
 6313SOL    HW119838   7.004   6.072   3.649
 6313SOL    HW219839   6.862   6.032   3.719
 6314SOL     OW19840   4.207   6.770   1.525
 6314SOL    HW119841   4.117   6.745   1.488
 6314SOL    HW219842   4.197   6.851   1.583
 6315SOL     OW19843   3.016   2.033   5.735
 6315SOL    HW119844   3.023   2.124   5.776
 6315SOL    HW219845   3.079   2.027   5.658
 6316SOL     OW19846   5.392   2.197   6.587
 6316SOL    HW119847   5.431   2.235   6.503
 6316SOL    HW219848   5.375   2.100   6.575
 6317SOL     OW19849   5.516   4.678   2.000
 6317SOL    HW119850   5.561   4.633   1.923
 6317SOL    HW219851   5.432   4.629   2.024
 6318SOL     OW19852   4.583   0.360   5.804
 6318SOL    HW119853   4.586   0.329   5.709
 6318SOL    HW219854   4.618   0.288   5.863
 6319SOL     OW19855   6.513   1.510   5.085
 6319SOL    HW119856   6.528   1.608   5.071
 6319SOL    HW219857   6.430   1.482   5.036
 6320SOL     OW19858   6.545   6.420   5.018
 6320SOL    HW119859   6.510   6.326   5.018
 6320SOL    HW219860   6.514   6.467   4.936
 6321SOL     OW19861   4.536   3.675   1.039
 6321SOL    HW119862   4.573   3.596   1.088
 6321SOL    HW219863   4.547   3.661   0.940
 6322SOL     OW19864   1.854   2.384   0.724
 6322SOL    HW119865   1.917   2.385   0.801
 6322SOL    HW219866   1.862   2.296   0.676
 6323SOL     OW19867   1.818   2.292   1.466
 6323SOL    HW119868   1.903   2.321   1.421
 6323SOL    HW219869   1.795   2.356   1.539
 6324SOL     OW19870   4.936   1.279   1.003
 6324SOL    HW119871   4.919   1.364   0.953
 6324SOL    HW219872   4.967   1.209   0.939
 6325SOL     OW19873   1.760   3.210   2.567
 6325SOL    HW119874   1.669   3.251   2.573
 6325SOL    HW219875   1.810   3.250   2.490
 6326SOL     OW19876   5.278   5.061   1.477
 6326SOL    HW119877   5.257   4.987   1.413
 6326SOL    HW219878   5.242   5.038   1.568
 6327SOL     OW19879   0.343   1.125   4.865
 6327SOL    HW119880   0.257   1.102   4.818
 6327SOL    HW219881   0.359   1.223   4.858
 6328SOL     OW19882   4.108   4.135   0.098
 6328SOL    HW119883   4.088   4.058   0.158
 6328SOL    HW219884   4.139   4.213   0.152
 6329SOL     OW19885   1.555   2.945   3.530
 6329SOL    HW119886   1.610   2.867   3.558
 6329SOL    HW219887   1.578   2.970   3.436
 6330SOL     OW19888   5.751   6.970   1.909
 6330SOL    HW119889   5.713   0.023   1.966
 6330SOL    HW219890   5.792   7.011   1.827
 6331SOL     OW19891   6.376   3.195   5.514
 6331SOL    HW119892   6.351   3.176   5.419
 6331SOL    HW219893   6.442   3.127   5.545
 6332SOL     OW19894   0.560   2.646   0.767
 6332SOL    HW119895   0.593   2.719   0.827
 6332SOL    HW219896   0.460   2.653   0.760
 6333SOL     OW19897   4.421   0.005   5.659
 6333SOL    HW119898   4.517   0.032   5.674
 6333SOL    HW219899   4.408   7.001   5.563
 6334SOL     OW19900   2.935   1.119   2.487
 6334SOL    HW119901   2.889   1.121   2.398
 6334SOL    HW219902   3.012   1.183   2.486
 6335SOL     OW19903   4.517   1.145   0.953
 6335SOL    HW119904   4.536   1.215   1.022
 6335SOL    HW219905   4.517   1.055   0.996
 6336SOL     OW19906   1.364   2.265   6.860
 6336SOL    HW119907   1.432   2.251   6.932
 6336SOL    HW219908   1.286   2.204   6.876
 6337SOL     OW19909   4.728   5.087   5.275
 6337SOL    HW119910   4.783   5.070   5.357
 6337SOL    HW219911   4.787   5.088   5.195
 6338SOL     OW19912   3.158   2.122   3.788
 6338SOL    HW119913   3.139   2.124   3.690
 6338SOL    HW219914   3.251   2.153   3.805
 6339SOL     OW19915   1.014   4.002   3.730
 6339SOL    HW119916   1.054   3.937   3.794
 6339SOL    HW219917   1.039   4.095   3.758
 6340SOL     OW19918   1.457   5.224   1.599
 6340SOL    HW119919   1.497   5.133   1.597
 6340SOL    HW219920   1.362   5.219   1.567
 6341SOL     OW19921   6.496   4.166   4.237
 6341SOL    HW119922   6.397   4.162   4.256
 6341SOL    HW219923   6.512   4.217   4.153
 6342SOL     OW19924   2.432   1.049   1.159
 6342SOL    HW119925   2.456   0.955   1.181
 6342SOL    HW219926   2.454   1.068   1.063
 6343SOL     OW19927   4.507   1.000   6.591
 6343SOL    HW119928   4.479   0.985   6.497
 6343SOL    HW219929   4.566   0.925   6.621
 6344SOL     OW19930   4.847   1.857   4.601
 6344SOL    HW119931   4.918   1.788   4.613
 6344SOL    HW219932   4.887   1.940   4.562
 6345SOL     OW19933   5.992   2.644   2.537
 6345SOL    HW119934   6.090   2.661   2.550
 6345SOL    HW219935   5.946   2.731   2.516
 6346SOL     OW19936   6.032   5.871   3.784
 6346SOL    HW119937   5.981   5.787   3.767
 6346SOL    HW219938   5.967   5.948   3.789
 6347SOL     OW19939   2.012   1.012   0.429
 6347SOL    HW119940   1.995   0.915   0.411
 6347SOL    HW219941   2.099   1.022   0.477
 6348SOL     OW19942   1.601   2.791   6.095
 6348SOL    HW119943   1.555   2.706   6.121
 6348SOL    HW219944   1.566   2.822   6.006
 6349SOL     OW19945   1.772   0.458   0.949
 6349SOL    HW119946   1.824   0.391   0.896
 6349SOL    HW219947   1.763   0.426   1.043
 6350SOL     OW19948   0.854   5.321   3.990
 6350SOL    HW119949   0.797   5.300   4.070
 6350SOL    HW219950   0.797   5.360   3.918
 6351SOL     OW19951   6.077   3.159   3.685
 6351SOL    HW119952   6.053   3.240   3.738
 6351SOL    HW219953   6.155   3.179   3.627
 6352SOL     OW19954   2.971   6.984   5.196
 6352SOL    HW119955   2.927   6.943   5.275
 6352SOL    HW219956   2.942   0.059   5.186
 6353SOL     OW19957   0.721   6.334   6.120
 6353SOL    HW119958   0.782   6.287   6.183
 6353SOL    HW219959   0.763   6.339   6.030
 6354SOL     OW19960   2.935   5.026   3.731
 6354SOL    HW119961   2.903   5.121   3.729
 6354SOL    HW219962   2.968   5.005   3.823
 6355SOL     OW19963   2.290   5.059   6.879
 6355SOL    HW119964   2.292   4.963   6.906
 6355SOL    HW219965   2.213   5.075   6.817
 6356SOL     OW19966   4.767   5.872   1.605
 6356SOL    HW119967   4.706   5.917   1.539
 6356SOL    HW219968   4.841   5.826   1.556
 6357SOL     OW19969   6.291   3.242   2.806
 6357SOL    HW119970   6.228   3.181   2.758
 6357SOL    HW219971   6.377   3.248   2.754
 6358SOL     OW19972   6.759   2.280   6.961
 6358SOL    HW119973   6.856   2.289   6.984
 6358SOL    HW219974   6.747   2.207   6.895
 6359SOL     OW19975   6.150   0.933   0.543
 6359SOL    HW119976   6.079   0.912   0.476
 6359SOL    HW219977   6.190   1.022   0.523
 6360SOL     OW19978   1.268   4.003   5.314
 6360SOL    HW119979   1.202   3.941   5.357
 6360SOL    HW219980   1.317   4.053   5.385
 6361SOL     OW19981   1.308   6.927   0.805
 6361SOL    HW119982   1.295   6.835   0.841
 6361SOL    HW219983   1.220   6.973   0.798
 6362SOL     OW19984   0.526   5.412   0.143
 6362SOL    HW119985   0.550   5.337   0.205
 6362SOL    HW219986   0.603   5.475   0.137
 6363SOL     OW19987   2.139   5.827   3.615
 6363SOL    HW119988   2.120   5.861   3.523
 6363SOL    HW219989   2.097   5.737   3.627
 6364SOL     OW19990   2.756   1.710   5.363
 6364SOL    HW119991   2.802   1.794   5.336
 6364SOL    HW219992   2.804   1.668   5.440
 6365SOL     OW19993   5.125   0.332   4.323
 6365SOL    HW119994   5.131   0.373   4.414
 6365SOL    HW219995   5.043   0.366   4.277
 6366SOL     OW19996   0.871   5.412   5.320
 6366SOL    HW119997   0.918   5.451   5.241
 6366SOL    HW219998   0.785   5.461   5.336
 6367SOL     OW19999   4.231   1.602   4.107
 6367SOL    HW120000   4.237   1.686   4.160
 6367SOL    HW220001   4.323   1.572   4.081
 6368SOL     OW20002   3.470   5.202   3.662
 6368SOL    HW120003   3.489   5.226   3.567
 6368SOL    HW220004   3.378   5.164   3.669
 6369SOL     OW20005   2.546   0.471   4.726
 6369SOL    HW120006   2.585   0.399   4.784
 6369SOL    HW220007   2.549   0.441   4.631
 6370SOL     OW20008   6.708   3.272   4.043
 6370SOL    HW120009   6.779   3.340   4.063
 6370SOL    HW220010   6.618   3.314   4.054
 6371SOL     OW20011   5.675   4.864   3.064
 6371SOL    HW120012   5.742   4.813   3.009
 6371SOL    HW220013   5.602   4.896   3.004
 6372SOL     OW20014   1.837   1.281   1.358
 6372SOL    HW120015   1.852   1.352   1.290
 6372SOL    HW220016   1.868   1.312   1.447
 6373SOL     OW20017   4.713   4.510   2.694
 6373SOL    HW120018   4.683   4.539   2.785
 6373SOL    HW220019   4.730   4.590   2.637
 6374SOL     OW20020   4.091   3.332   3.170
 6374SOL    HW120021   4.051   3.316   3.261
 6374SOL    HW220022   4.065   3.257   3.109
 6375SOL     OW20023   6.816   1.769   2.959
 6375SOL    HW120024   6.900   1.720   2.983
 6375SOL    HW220025   6.828   1.815   2.871
 6376SOL     OW20026   5.332   2.147   5.814
 6376SOL    HW120027   5.346   2.152   5.715
 6376SOL    HW220028   5.265   2.217   5.841
 6377SOL     OW20029   0.566   1.058   5.235
 6377SOL    HW120030   0.596   1.153   5.249
 6377SOL    HW220031   0.595   1.003   5.313
 6378SOL     OW20032   4.601   4.367   3.881
 6378SOL    HW120033   4.542   4.446   3.865
 6378SOL    HW220034   4.593   4.338   3.977
 6379SOL     OW20035   1.422   4.513   5.234
 6379SOL    HW120036   1.454   4.595   5.187
 6379SOL    HW220037   1.479   4.496   5.314
 6380SOL     OW20038   0.708   1.355   5.089
 6380SOL    HW120039   0.741   1.364   4.994
 6380SOL    HW220040   0.763   1.288   5.137
 6381SOL     OW20041   4.056   3.063   1.293
 6381SOL    HW120042   4.058   3.121   1.212
 6381SOL    HW220043   4.108   2.980   1.275
 6382SOL     OW20044   2.830   2.259   0.803
 6382SOL    HW120045   2.887   2.322   0.856
 6382SOL    HW220046   2.854   2.264   0.707
 6383SOL     OW20047   2.278   2.911   3.212
 6383SOL    HW120048   2.217   2.984   3.182
 6383SOL    HW220049   2.295   2.919   3.311
 6384SOL     OW20050   6.627   3.642   2.763
 6384SOL    HW120051   6.722   3.655   2.737
 6384SOL    HW220052   6.621   3.576   2.838
 6385SOL     OW20053   0.100   3.776   3.602
 6385SOL    HW120054   0.081   3.701   3.539
 6385SOL    HW220055   0.076   3.863   3.558
 6386SOL     OW20056   2.404   3.075   6.518
 6386SOL    HW120057   2.336   3.145   6.499
 6386SOL    HW220058   2.484   3.089   6.459
 6387SOL     OW20059   6.920   2.237   6.230
 6387SOL    HW120060   6.894   2.327   6.264
 6387SOL    HW220061   6.863   2.167   6.273
 6388SOL     OW20062   4.602   6.486   1.840
 6388SOL    HW120063   4.529   6.417   1.840
 6388SOL    HW220064   4.683   6.449   1.885
 6389SOL     OW20065   0.225   6.075   1.307
 6389SOL    HW120066   0.209   6.070   1.406
 6389SOL    HW220067   0.247   5.984   1.272
 6390SOL     OW20068   0.605   0.661   5.801
 6390SOL    HW120069   0.638   0.650   5.895
 6390SOL    HW220070   0.524   0.604   5.787
 6391SOL     OW20071   1.452   6.687   6.198
 6391SOL    HW120072   1.458   6.748   6.277
 6391SOL    HW220073   1.485   6.734   6.117
 6392SOL     OW20074   3.112   5.443   2.858
 6392SOL    HW120075   3.191   5.487   2.814
 6392SOL    HW220076   3.103   5.478   2.952
 6393SOL     OW20077   0.637   5.824   1.947
 6393SOL    HW120078   0.605   5.777   2.029
 6393SOL    HW220079   0.570   5.812   1.874
 6394SOL     OW20080   2.067   4.920   0.737
 6394SOL    HW120081   2.042   5.008   0.777
 6394SOL    HW220082   2.032   4.914   0.643
 6395SOL     OW20083   6.787   2.684   1.513
 6395SOL    HW120084   6.745   2.734   1.438
 6395SOL    HW220085   6.727   2.687   1.593
 6396SOL     OW20086   5.405   3.447   7.004
 6396SOL    HW120087   5.467   3.424   0.059
 6396SOL    HW220088   5.312   3.420   0.008
 6397SOL     OW20089   5.790   1.372   1.293
 6397SOL    HW120090   5.724   1.313   1.246
 6397SOL    HW220091   5.860   1.316   1.337
 6398SOL     OW20092   3.206   6.749   1.765
 6398SOL    HW120093   3.167   6.836   1.795
 6398SOL    HW220094   3.254   6.705   1.841
 6399SOL     OW20095   1.787   0.167   6.726
 6399SOL    HW120096   1.850   0.239   6.754
 6399SOL    HW220097   1.696   0.187   6.762
 6400SOL     OW20098   2.614   5.075   2.840
 6400SOL    HW120099   2.626   5.019   2.922
 6400SOL    HW220100   2.521   5.065   2.806
 6401SOL     OW20101   5.201   6.186   3.638
 6401SOL    HW120102   5.272   6.144   3.695
 6401SOL    HW220103   5.236   6.199   3.546
 6402SOL     OW20104   2.311   2.631   3.245
 6402SOL    HW120105   2.279   2.581   3.326
 6402SOL    HW220106   2.273   2.723   3.245
 6403SOL     OW20107   6.767   5.233   6.267
 6403SOL    HW120108   6.725   5.204   6.353
 6403SOL    HW220109   6.805   5.324   6.277
 6404SOL     OW20110   3.885   0.630   2.251
 6404SOL    HW120111   3.807   0.570   2.233
 6404SOL    HW220112   3.895   0.696   2.176
 6405SOL     OW20113   3.544   0.609   3.892
 6405SOL    HW120114   3.455   0.641   3.858
 6405SOL    HW220115   3.608   0.602   3.816
 6406SOL     OW20116   0.406   2.399   2.603
 6406SOL    HW120117   0.435   2.483   2.556
 6406SOL    HW220118   0.336   2.422   2.671
 6407SOL     OW20119   2.164   0.072   4.108
 6407SOL    HW120120   2.247   0.018   4.095
 6407SOL    HW220121   2.098   0.050   4.036
 6408SOL     OW20122   5.137   1.330   0.699
 6408SOL    HW120123   5.167   1.417   0.661
 6408SOL    HW220124   5.169   1.322   0.793
 6409SOL     OW20125   6.058   4.465   4.334
 6409SOL    HW120126   6.043   4.376   4.291
 6409SOL    HW220127   5.976   4.521   4.324
 6410SOL     OW20128   2.352   1.445   6.147
 6410SOL    HW120129   2.401   1.514   6.094
 6410SOL    HW220130   2.256   1.470   6.153
 6411SOL     OW20131   0.622   2.790   2.855
 6411SOL    HW120132   0.573   2.855   2.797
 6411SOL    HW220133   0.706   2.832   2.889
 6412SOL     OW20134   1.386   2.186   4.572
 6412SOL    HW120135   1.391   2.174   4.671
 6412SOL    HW220136   1.358   2.100   4.529
 6413SOL     OW20137   3.886   4.856   3.462
 6413SOL    HW120138   3.924   4.898   3.544
 6413SOL    HW220139   3.808   4.799   3.486
 6414SOL     OW20140   5.906   0.669   6.894
 6414SOL    HW120141   5.839   0.600   6.866
 6414SOL    HW220142   5.998   0.639   6.867
 6415SOL     OW20143   1.648   3.317   3.110
 6415SOL    HW120144   1.636   3.365   3.197
 6415SOL    HW220145   1.721   3.361   3.058
 6416SOL     OW20146   1.602   0.642   6.490
 6416SOL    HW120147   1.518   0.670   6.536
 6416SOL    HW220148   1.662   0.721   6.479
 6417SOL     OW20149   5.588   4.939   0.633
 6417SOL    HW120150   5.510   5.001   0.637
 6417SOL    HW220151   5.575   4.873   0.560
 6418SOL     OW20152   5.195   3.226   2.373
 6418SOL    HW120153   5.167   3.233   2.468
 6418SOL    HW220154   5.137   3.284   2.316
 6419SOL     OW20155   1.412   4.747   3.259
 6419SOL    HW120156   1.372   4.679   3.197
 6419SOL    HW220157   1.383   4.728   3.352
 6420SOL     OW20158   2.395   6.262   4.068
 6420SOL    HW120159   2.344   6.211   3.999
 6420SOL    HW220160   2.405   6.357   4.039
 6421SOL     OW20161   4.821   6.901   2.361
 6421SOL    HW120162   4.873   6.956   2.426
 6421SOL    HW220163   4.879   6.877   2.283
 6422SOL     OW20164   6.825   0.616   5.269
 6422SOL    HW120165   6.794   0.711   5.257
 6422SOL    HW220166   6.829   0.571   5.180
 6423SOL     OW20167   5.135   5.774   3.535
 6423SOL    HW120168   5.116   5.689   3.585
 6423SOL    HW220169   5.201   5.755   3.463
 6424SOL     OW20170   0.007   4.628   4.961
 6424SOL    HW120171   6.991   4.646   5.053
 6424SOL    HW220172   0.106   4.623   4.964
 6425SOL     OW20173   6.692   6.233   2.998
 6425SOL    HW120174   6.669   6.312   3.055
 6425SOL    HW220175   6.723   6.264   2.909
 6426SOL     OW20176   0.969   5.100   3.076
 6426SOL    HW120177   0.892   5.143   3.122
 6426SOL    HW220178   0.935   5.035   3.007
 6427SOL     OW20179   3.675   4.121   4.089
 6427SOL    HW120180   3.581   4.144   4.065
 6427SOL    HW220181   3.720   4.079   4.010
 6428SOL     OW20182   5.894   3.468   6.818
 6428SOL    HW120183   5.826   3.394   6.814
 6428SOL    HW220184   5.863   3.544   6.761
 6429SOL     OW20185   0.845   1.564   5.694
 6429SOL    HW120186   0.797   1.647   5.666
 6429SOL    HW220187   0.847   1.500   5.617
 6430SOL     OW20188   5.925   0.889   3.848
 6430SOL    HW120189   5.845   0.928   3.893
 6430SOL    HW220190   5.909   0.885   3.749
 6431SOL     OW20191   4.421   6.744   3.926
 6431SOL    HW120192   4.330   6.785   3.930
 6431SOL    HW220193   4.449   6.716   4.018
 6432SOL     OW20194   4.720   4.340   6.271
 6432SOL    HW120195   4.819   4.336   6.259
 6432SOL    HW220196   4.698   4.378   6.361
 6433SOL     OW20197   1.607   5.486   5.738
 6433SOL    HW120198   1.578   5.521   5.827
 6433SOL    HW220199   1.573   5.393   5.726
 6434SOL     OW20200   2.371   5.697   6.039
 6434SOL    HW120201   2.347   5.790   6.067
 6434SOL    HW220202   2.470   5.685   6.044
 6435SOL     OW20203   5.135   6.479   1.000
 6435SOL    HW120204   5.104   6.392   0.961
 6435SOL    HW220205   5.134   6.549   0.928
 6436SOL     OW20206   1.305   2.732   2.814
 6436SOL    HW120207   1.349   2.723   2.725
 6436SOL    HW220208   1.208   2.710   2.806
 6437SOL     OW20209   2.098   1.708   0.395
 6437SOL    HW120210   2.105   1.630   0.457
 6437SOL    HW220211   2.126   1.680   0.303
 6438SOL     OW20212   6.785   3.649   5.260
 6438SOL    HW120213   6.759   3.657   5.356
 6438SOL    HW220214   6.725   3.585   5.213
 6439SOL     OW20215   5.616   1.662   1.654
 6439SOL    HW120216   5.560   1.581   1.674
 6439SOL    HW220217   5.684   1.639   1.585
 6440SOL     OW20218   2.494   1.662   6.035
 6440SOL    HW120219   2.548   1.665   6.119
 6440SOL    HW220220   2.458   1.753   6.015
 6441SOL     OW20221   0.019   6.881   1.848
 6441SOL    HW120222   6.943   6.876   1.822
 6441SOL    HW220223   0.067   6.945   1.787
 6442SOL     OW20224   2.549   1.248   4.766
 6442SOL    HW120225   2.628   1.297   4.802
 6442SOL    HW220226   2.465   1.282   4.809
 6443SOL     OW20227   3.826   2.265   5.266
 6443SOL    HW120228   3.912   2.232   5.306
 6443SOL    HW220229   3.765   2.295   5.339
 6444SOL     OW20230   5.157   3.454   4.673
 6444SOL    HW120231   5.127   3.409   4.758
 6444SOL    HW220232   5.255   3.473   4.679
 6445SOL     OW20233   3.804   2.917   5.008
 6445SOL    HW120234   3.838   2.841   5.063
 6445SOL    HW220235   3.870   2.940   4.937
 6446SOL     OW20236   1.066   1.240   6.754
 6446SOL    HW120237   1.143   1.181   6.778
 6446SOL    HW220238   1.045   1.229   6.656
 6447SOL     OW20239   5.718   5.071   3.260
 6447SOL    HW120240   5.643   5.137   3.268
 6447SOL    HW220241   5.705   5.016   3.177
 6448SOL     OW20242   4.707   5.676   1.797
 6448SOL    HW120243   4.757   5.753   1.758
 6448SOL    HW220244   4.633   5.650   1.735
 6449SOL     OW20245   4.031   6.305   1.151
 6449SOL    HW120246   4.077   6.255   1.224
 6449SOL    HW220247   3.941   6.264   1.133
 6450SOL     OW20248   1.223   3.586   1.000
 6450SOL    HW120249   1.181   3.630   0.921
 6450SOL    HW220250   1.298   3.644   1.034
 6451SOL     OW20251   2.074   0.578   5.385
 6451SOL    HW120252   2.151   0.516   5.399
 6451SOL    HW220253   1.989   0.533   5.411
 6452SOL     OW20254   4.534   5.192   3.171
 6452SOL    HW120255   4.459   5.232   3.118
 6452SOL    HW220256   4.501   5.109   3.217
 6453SOL     OW20257   2.470   6.410   2.040
 6453SOL    HW120258   2.553   6.379   2.088
 6453SOL    HW220259   2.432   6.335   1.987
 6454SOL     OW20260   0.489   2.263   3.149
 6454SOL    HW120261   0.455   2.234   3.060
 6454SOL    HW220262   0.589   2.255   3.150
 6455SOL     OW20263   0.429   3.356   4.160
 6455SOL    HW120264   0.390   3.265   4.172
 6455SOL    HW220265   0.373   3.408   4.095
 6456SOL     OW20266   1.377   1.477   3.145
 6456SOL    HW120267   1.362   1.489   3.243
 6456SOL    HW220268   1.344   1.386   3.117
 6457SOL     OW20269   5.417   1.427   1.559
 6457SOL    HW120270   5.488   1.383   1.614
 6457SOL    HW220271   5.347   1.359   1.535
 6458SOL     OW20272   1.034   5.723   4.237
 6458SOL    HW120273   1.090   5.702   4.156
 6458SOL    HW220274   1.052   5.817   4.266
 6459SOL     OW20275   6.166   3.006   1.337
 6459SOL    HW120276   6.112   2.961   1.408
 6459SOL    HW220277   6.108   3.030   1.260
 6460SOL     OW20278   5.673   6.264   6.574
 6460SOL    HW120279   5.624   6.193   6.522
 6460SOL    HW220280   5.731   6.221   6.642
 6461SOL     OW20281   2.162   4.519   6.825
 6461SOL    HW120282   2.136   4.609   6.859
 6461SOL    HW220283   2.144   4.514   6.727
 6462SOL     OW20284   2.054   3.295   4.151
 6462SOL    HW120285   2.063   3.218   4.214
 6462SOL    HW220286   2.117   3.283   4.075
 6463SOL     OW20287   6.147   2.450   0.101
 6463SOL    HW120288   6.056   2.422   0.069
 6463SOL    HW220289   6.173   2.535   0.056
 6464SOL     OW20290   1.226   4.706   4.525
 6464SOL    HW120291   1.158   4.759   4.475
 6464SOL    HW220292   1.184   4.621   4.557
 6465SOL     OW20293   6.866   3.100   2.490
 6465SOL    HW120294   6.775   3.062   2.473
 6465SOL    HW220295   6.920   3.035   2.544
 6466SOL     OW20296   0.242   1.095   5.990
 6466SOL    HW120297   0.335   1.126   5.968
 6466SOL    HW220298   0.243   0.996   6.004
 6467SOL     OW20299   4.020   1.031   0.320
 6467SOL    HW120300   3.933   0.990   0.295
 6467SOL    HW220301   4.094   0.967   0.299
 6468SOL     OW20302   2.831   6.641   1.030
 6468SOL    HW120303   2.868   6.720   0.981
 6468SOL    HW220304   2.905   6.593   1.077
 6469SOL     OW20305   4.233   2.116   3.689
 6469SOL    HW120306   4.184   2.162   3.615
 6469SOL    HW220307   4.266   2.185   3.754
 6470SOL     OW20308   5.757   2.729   1.019
 6470SOL    HW120309   5.753   2.644   0.966
 6470SOL    HW220310   5.692   2.724   1.095
 6471SOL     OW20311   6.897   6.504   5.791
 6471SOL    HW120312   6.966   6.560   5.744
 6471SOL    HW220313   6.911   6.408   5.767
 6472SOL     OW20314   0.113   6.093   1.585
 6472SOL    HW120315   0.017   6.067   1.585
 6472SOL    HW220316   0.121   6.193   1.581
 6473SOL     OW20317   2.689   1.645   4.780
 6473SOL    HW120318   2.768   1.703   4.801
 6473SOL    HW220319   2.647   1.675   4.695
 6474SOL     OW20320   3.238   4.945   6.353
 6474SOL    HW120321   3.280   5.031   6.324
 6474SOL    HW220322   3.272   4.921   6.444
 6475SOL     OW20323   6.326   5.371   3.528
 6475SOL    HW120324   6.383   5.396   3.449
 6475SOL    HW220325   6.305   5.453   3.581
 6476SOL     OW20326   4.657   3.856   1.206
 6476SOL    HW120327   4.577   3.915   1.206
 6476SOL    HW220328   4.628   3.760   1.205
 6477SOL     OW20329   5.837   4.775   0.358
 6477SOL    HW120330   5.846   4.744   0.264
 6477SOL    HW220331   5.740   4.777   0.383
 6478SOL     OW20332   3.151   0.450   2.387
 6478SOL    HW120333   3.076   0.468   2.449
 6478SOL    HW220334   3.124   0.472   2.293
 6479SOL     OW20335   4.042   5.358   3.635
 6479SOL    HW120336   4.014   5.276   3.585
 6479SOL    HW220337   4.139   5.377   3.617
 6480SOL     OW20338   3.118   1.399   6.662
 6480SOL    HW120339   3.030   1.430   6.625
 6480SOL    HW220340   3.125   1.425   6.758
 6481SOL     OW20341   3.544   2.097   2.265
 6481SOL    HW120342   3.628   2.043   2.255
 6481SOL    HW220343   3.538   2.162   2.189
 6482SOL     OW20344   6.388   0.949   5.605
 6482SOL    HW120345   6.480   0.989   5.604
 6482SOL    HW220346   6.325   1.009   5.555
 6483SOL     OW20347   1.008   0.138   2.837
 6483SOL    HW120348   0.922   0.102   2.801
 6483SOL    HW220349   1.017   0.234   2.811
 6484SOL     OW20350   3.764   0.059   1.605
 6484SOL    HW120351   3.698   0.122   1.565
 6484SOL    HW220352   3.847   0.058   1.549
 6485SOL     OW20353   2.169   5.408   3.934
 6485SOL    HW120354   2.116   5.351   3.997
 6485SOL    HW220355   2.205   5.487   3.983
 6486SOL     OW20356   1.107   4.305   2.992
 6486SOL    HW120357   1.168   4.382   2.974
 6486SOL    HW220358   1.017   4.325   2.952
 6487SOL     OW20359   0.466   6.583   5.386
 6487SOL    HW120360   0.388   6.553   5.332
 6487SOL    HW220361   0.490   6.677   5.363
 6488SOL     OW20362   3.457   5.872   4.624
 6488SOL    HW120363   3.448   5.901   4.529
 6488SOL    HW220364   3.535   5.809   4.632
 6489SOL     OW20365   3.117   3.448   6.116
 6489SOL    HW120366   3.040   3.463   6.054
 6489SOL    HW220367   3.202   3.472   6.070
 6490SOL     OW20368   4.000   1.435   6.483
 6490SOL    HW120369   3.973   1.373   6.409
 6490SOL    HW220370   4.059   1.387   6.547
 6491SOL     OW20371   3.808   0.879   1.380
 6491SOL    HW120372   3.846   0.893   1.471
 6491SOL    HW220373   3.861   0.932   1.313
 6492SOL     OW20374   4.124   4.619   6.689
 6492SOL    HW120375   4.202   4.595   6.746
 6492SOL    HW220376   4.040   4.582   6.729
 6493SOL     OW20377   1.709   4.253   5.767
 6493SOL    HW120378   1.736   4.342   5.731
 6493SOL    HW220379   1.699   4.189   5.691
 6494SOL     OW20380   6.968   0.635   3.380
 6494SOL    HW120381   6.992   0.560   3.443
 6494SOL    HW220382   6.899   0.603   3.315
 6495SOL     OW20383   6.389   0.232   4.394
 6495SOL    HW120384   6.439   0.145   4.397
 6495SOL    HW220385   6.311   0.228   4.457
 6496SOL     OW20386   6.128   1.417   3.101
 6496SOL    HW120387   6.141   1.454   3.009
 6496SOL    HW220388   6.031   1.402   3.118
 6497SOL     OW20389   0.804   1.329   0.923
 6497SOL    HW120390   0.790   1.337   0.824
 6497SOL    HW220391   0.729   1.275   0.963
 6498SOL     OW20392   1.591   3.558   3.585
 6498SOL    HW120393   1.673   3.613   3.599
 6498SOL    HW220394   1.554   3.530   3.674
 6499SOL     OW20395   5.371   3.280   5.646
 6499SOL    HW120396   5.332   3.315   5.731
 6499SOL    HW220397   5.453   3.227   5.666
 6500SOL     OW20398   6.844   3.677   4.704
 6500SOL    HW120399   6.901   3.671   4.622
 6500SOL    HW220400   6.747   3.673   4.678
 6501SOL     OW20401   0.073   1.321   6.326
 6501SOL    HW120402   0.009   1.397   6.334
 6501SOL    HW220403   0.030   1.246   6.276
 6502SOL     OW20404   6.978   2.652   2.514
 6502SOL    HW120405   7.013   2.744   2.531
 6502SOL    HW220406   6.910   2.655   2.440
 6503SOL     OW20407   5.234   1.268   3.495
 6503SOL    HW120408   5.318   1.273   3.441
 6503SOL    HW220409   5.206   1.361   3.520
 6504SOL     OW20410   4.477   6.386   5.610
 6504SOL    HW120411   4.541   6.456   5.578
 6504SOL    HW220412   4.503   6.297   5.573
 6505SOL     OW20413   5.439   5.389   6.952
 6505SOL    HW120414   5.393   5.366   6.867
 6505SOL    HW220415   5.404   5.330   0.005
 6506SOL     OW20416   6.574   2.513   2.877
 6506SOL    HW120417   6.532   2.563   2.802
 6506SOL    HW220418   6.674   2.516   2.867
 6507SOL     OW20419   1.521   5.203   6.148
 6507SOL    HW120420   1.602   5.262   6.142
 6507SOL    HW220421   1.531   5.125   6.087
 6508SOL     OW20422   1.854   0.771   2.428
 6508SOL    HW120423   1.853   0.858   2.377
 6508SOL    HW220424   1.932   0.716   2.399
 6509SOL     OW20425   3.683   1.063   4.796
 6509SOL    HW120426   3.617   1.008   4.745
 6509SOL    HW220427   3.675   1.044   4.893
 6510SOL     OW20428   6.020   5.749   0.573
 6510SOL    HW120429   5.971   5.734   0.659
 6510SOL    HW220430   5.972   5.818   0.519
 6511SOL     OW20431   3.863   1.171   5.187
 6511SOL    HW120432   3.927   1.104   5.148
 6511SOL    HW220433   3.868   1.167   5.286
 6512SOL     OW20434   4.177   6.978   1.691
 6512SOL    HW120435   4.275   6.994   1.703
 6512SOL    HW220436   4.125   0.019   1.751
 6513SOL     OW20437   2.668   4.972   3.101
 6513SOL    HW120438   2.704   5.049   3.153
 6513SOL    HW220439   2.577   4.947   3.136
 6514SOL     OW20440   6.107   1.071   4.016
 6514SOL    HW120441   6.080   1.160   3.980
 6514SOL    HW220442   6.076   0.999   3.954
 6515SOL     OW20443   0.680   5.237   4.199
 6515SOL    HW120444   0.715   5.144   4.210
 6515SOL    HW220445   0.639   5.267   4.285
 6516SOL     OW20446   0.599   3.696   1.776
 6516SOL    HW120447   0.562   3.659   1.861
 6516SOL    HW220448   0.691   3.733   1.792
 6517SOL     OW20449   6.682   1.611   1.486
 6517SOL    HW120450   6.598   1.614   1.431
 6517SOL    HW220451   6.672   1.671   1.565
 6518SOL     OW20452   0.250   0.929   0.175
 6518SOL    HW120453   0.310   0.854   0.147
 6518SOL    HW220454   0.160   0.892   0.199
 6519SOL     OW20455   0.783   2.664   3.143
 6519SOL    HW120456   0.774   2.762   3.126
 6519SOL    HW220457   0.867   2.630   3.101
 6520SOL     OW20458   5.880   5.009   1.287
 6520SOL    HW120459   5.804   5.068   1.314
 6520SOL    HW220460   5.966   5.055   1.309
 6521SOL     OW20461   2.170   2.866   4.107
 6521SOL    HW120462   2.224   2.783   4.094
 6521SOL    HW220463   2.073   2.842   4.112
 6522SOL     OW20464   3.477   5.140   5.696
 6522SOL    HW120465   3.392   5.097   5.666
 6522SOL    HW220466   3.498   5.108   5.789
 6523SOL     OW20467   3.322   1.722   0.251
 6523SOL    HW120468   3.419   1.721   0.274
 6523SOL    HW220469   3.311   1.729   0.152
 6524SOL     OW20470   3.689   3.575   1.797
 6524SOL    HW120471   3.702   3.509   1.871
 6524SOL    HW220472   3.754   3.650   1.808
 6525SOL     OW20473   2.400   5.289   3.495
 6525SOL    HW120474   2.306   5.257   3.491
 6525SOL    HW220475   2.461   5.220   3.455
 6526SOL     OW20476   2.248   0.188   6.899
 6526SOL    HW120477   2.223   0.091   6.888
 6526SOL    HW220478   2.346   0.198   6.883
 6527SOL     OW20479   0.751   1.945   5.383
 6527SOL    HW120480   0.792   1.854   5.391
 6527SOL    HW220481   0.682   1.944   5.310
 6528SOL     OW20482   6.397   0.770   5.389
 6528SOL    HW120483   6.399   0.861   5.347
 6528SOL    HW220484   6.385   0.780   5.488
 6529SOL     OW20485   1.981   0.914   2.694
 6529SOL    HW120486   2.048   0.954   2.631
 6529SOL    HW220487   1.933   0.839   2.648
 6530SOL     OW20488   6.928   2.672   0.713
 6530SOL    HW120489   6.869   2.647   0.790
 6530SOL    HW220490   6.996   2.600   0.699
 6531SOL     OW20491   5.093   2.705   5.209
 6531SOL    HW120492   5.074   2.616   5.167
 6531SOL    HW220493   5.060   2.778   5.149
 6532SOL     OW20494   6.737   1.038   1.313
 6532SOL    HW120495   6.648   1.003   1.283
 6532SOL    HW220496   6.758   1.002   1.404
 6533SOL     OW20497   4.718   6.897   0.580
 6533SOL    HW120498   4.622   6.905   0.607
 6533SOL    HW220499   4.761   6.824   0.633
 6534SOL     OW20500   4.429   4.716   1.725
 6534SOL    HW120501   4.395   4.662   1.648
 6534SOL    HW220502   4.501   4.665   1.773
 6535SOL     OW20503   6.361   3.881   4.245
 6535SOL    HW120504   6.382   3.938   4.325
 6535SOL    HW220505   6.425   3.805   4.240
 6536SOL     OW20506   0.766   0.837   5.689
 6536SOL    HW120507   0.699   0.767   5.711
 6536SOL    HW220508   0.787   0.891   5.770
 6537SOL     OW20509   0.017   5.463   6.664
 6537SOL    HW120510   0.055   5.383   6.619
 6537SOL    HW220511   0.000   5.443   6.760
 6538SOL     OW20512   2.103   3.712   6.110
 6538SOL    HW120513   2.131   3.639   6.048
 6538SOL    HW220514   2.006   3.701   6.133
 6539SOL     OW20515   4.633   0.842   6.931
 6539SOL    HW120516   4.658   0.883   6.843
 6539SOL    HW220517   4.590   0.911   6.989
 6540SOL     OW20518   4.669   1.793   5.686
 6540SOL    HW120519   4.583   1.843   5.678
 6540SOL    HW220520   4.733   1.824   5.615
 6541SOL     OW20521   4.123   1.971   4.857
 6541SOL    HW120522   4.058   1.956   4.783
 6541SOL    HW220523   4.111   2.064   4.893
 6542SOL     OW20524   6.322   3.082   4.689
 6542SOL    HW120525   6.270   3.088   4.774
 6542SOL    HW220526   6.282   3.012   4.630
 6543SOL     OW20527   5.003   2.737   5.975
 6543SOL    HW120528   5.037   2.733   5.881
 6543SOL    HW220529   4.944   2.658   5.991
 6544SOL     OW20530   1.073   6.027   2.694
 6544SOL    HW120531   1.063   6.126   2.708
 6544SOL    HW220532   0.983   5.984   2.692
 6545SOL     OW20533   4.002   1.485   0.468
 6545SOL    HW120534   4.068   1.546   0.424
 6545SOL    HW220535   3.909   1.514   0.446
 6546SOL     OW20536   3.333   4.496   0.126
 6546SOL    HW120537   3.353   4.399   0.112
 6546SOL    HW220538   3.379   4.528   0.209
 6547SOL     OW20539   4.686   1.147   5.979
 6547SOL    HW120540   4.768   1.124   6.031
 6547SOL    HW220541   4.612   1.171   6.043
 6548SOL     OW20542   0.497   4.212   1.025
 6548SOL    HW120543   0.456   4.185   0.938
 6548SOL    HW220544   0.594   4.235   1.010
 6549SOL     OW20545   4.919   0.802   1.821
 6549SOL    HW120546   4.910   0.900   1.843
 6549SOL    HW220547   5.007   0.769   1.854
 6550SOL     OW20548   0.289   6.794   3.312
 6550SOL    HW120549   0.351   6.871   3.325
 6550SOL    HW220550   0.218   6.796   3.382
 6551SOL     OW20551   2.086   4.622   2.404
 6551SOL    HW120552   1.992   4.657   2.399
 6551SOL    HW220553   2.138   4.656   2.326
 6552SOL     OW20554   1.981   0.315   0.493
 6552SOL    HW120555   1.996   0.247   0.421
 6552SOL    HW220556   2.030   0.399   0.470
 6553SOL     OW20557   6.756   2.252   3.511
 6553SOL    HW120558   6.831   2.210   3.460
 6553SOL    HW220559   6.724   2.333   3.461
 6554SOL     OW20560   0.565   0.368   4.981
 6554SOL    HW120561   0.515   0.427   4.918
 6554SOL    HW220562   0.509   0.352   5.063
 6555SOL     OW20563   5.796   1.379   2.997
 6555SOL    HW120564   5.843   1.466   2.988
 6555SOL    HW220565   5.767   1.347   2.907
 6556SOL     OW20566   5.032   4.595   4.165
 6556SOL    HW120567   4.948   4.622   4.117
 6556SOL    HW220568   5.038   4.495   4.170
 6557SOL     OW20569   3.315   6.972   2.799
 6557SOL    HW120570   3.376   6.929   2.732
 6557SOL    HW220571   3.226   6.987   2.757
 6558SOL     OW20572   0.001   5.109   6.929
 6558SOL    HW120573   6.972   5.037   6.977
 6558SOL    HW220574   6.999   5.197   6.969
 6559SOL     OW20575   0.395   3.388   6.459
 6559SOL    HW120576   0.451   3.453   6.511
 6559SOL    HW220577   0.416   3.295   6.487
 6560SOL     OW20578   4.547   4.891   1.545
 6560SOL    HW120579   4.471   4.830   1.566
 6560SOL    HW220580   4.515   4.967   1.488
 6561SOL     OW20581   3.542   3.914   1.405
 6561SOL    HW120582   3.638   3.910   1.378
 6561SOL    HW220583   3.485   3.880   1.330
 6562SOL     OW20584   6.156   3.160   0.672
 6562SOL    HW120585   6.149   3.196   0.579
 6562SOL    HW220586   6.097   3.213   0.733
 6563SOL     OW20587   5.162   6.008   7.015
 6563SOL    HW120588   5.141   5.948   6.938
 6563SOL    HW220589   5.213   6.087   6.982
 6564SOL     OW20590   6.860   3.913   2.960
 6564SOL    HW120591   6.898   3.990   3.012
 6564SOL    HW220592   6.810   3.853   3.022
 6565SOL     OW20593   5.348   1.931   3.289
 6565SOL    HW120594   5.372   1.988   3.211
 6565SOL    HW220595   5.296   1.852   3.257
 6566SOL     OW20596   4.114   6.116   1.959
 6566SOL    HW120597   4.062   6.200   1.945
 6566SOL    HW220598   4.086   6.048   1.892
 6567SOL     OW20599   4.287   1.081   2.778
 6567SOL    HW120600   4.369   1.130   2.749
 6567SOL    HW220601   4.230   1.061   2.698
 6568SOL     OW20602   3.139   1.115   3.522
 6568SOL    HW120603   3.156   1.025   3.482
 6568SOL    HW220604   3.175   1.118   3.615
 6569SOL     OW20605   2.642   3.342   0.066
 6569SOL    HW120606   2.614   3.307   0.155
 6569SOL    HW220607   2.635   3.442   0.065
 6570SOL     OW20608   3.626   0.578   2.151
 6570SOL    HW120609   3.612   0.661   2.097
 6570SOL    HW220610   3.593   0.498   2.100
 6571SOL     OW20611   3.206   5.054   1.718
 6571SOL    HW120612   3.160   5.142   1.725
 6571SOL    HW220613   3.270   5.043   1.794
 6572SOL     OW20614   6.690   5.316   5.510
 6572SOL    HW120615   6.688   5.407   5.466
 6572SOL    HW220616   6.748   5.255   5.457
 6573SOL     OW20617   1.415   1.843   2.098
 6573SOL    HW120618   1.453   1.829   2.006
 6573SOL    HW220619   1.411   1.941   2.118
 6574SOL     OW20620   2.954   5.257   2.505
 6574SOL    HW120621   2.909   5.322   2.566
 6574SOL    HW220622   3.053   5.274   2.505
 6575SOL     OW20623   0.726   0.243   2.989
 6575SOL    HW120624   0.687   0.292   2.912
 6575SOL    HW220625   0.738   0.147   2.965
 6576SOL     OW20626   2.295   6.252   0.247
 6576SOL    HW120627   2.321   6.296   0.161
 6576SOL    HW220628   2.212   6.198   0.233
 6577SOL     OW20629   0.872   1.854   3.879
 6577SOL    HW120630   0.949   1.847   3.815
 6577SOL    HW220631   0.797   1.902   3.835
 6578SOL     OW20632   0.706   5.578   3.222
 6578SOL    HW120633   0.681   5.563   3.318
 6578SOL    HW220634   0.739   5.671   3.211
 6579SOL     OW20635   6.540   3.330   4.471
 6579SOL    HW120636   6.548   3.326   4.571
 6579SOL    HW220637   6.524   3.238   4.435
 6580SOL     OW20638   0.789   2.421   1.058
 6580SOL    HW120639   0.738   2.403   0.973
 6580SOL    HW220640   0.783   2.519   1.078
 6581SOL     OW20641   3.122   1.105   0.081
 6581SOL    HW120642   3.157   1.081   7.010
 6581SOL    HW220643   3.025   1.080   0.087
 6582SOL     OW20644   0.784   1.143   2.604
 6582SOL    HW120645   0.760   1.172   2.511
 6582SOL    HW220646   0.702   1.146   2.662
 6583SOL     OW20647   4.131   0.945   5.405
 6583SOL    HW120648   4.108   0.851   5.377
 6583SOL    HW220649   4.215   0.944   5.460
 6584SOL     OW20650   4.504   2.626   1.248
 6584SOL    HW120651   4.471   2.532   1.249
 6584SOL    HW220652   4.555   2.644   1.332
 6585SOL     OW20653   6.054   6.492   6.949
 6585SOL    HW120654   6.087   6.581   6.915
 6585SOL    HW220655   5.970   6.467   6.901
 6586SOL     OW20656   6.094   1.043   5.165
 6586SOL    HW120657   6.164   1.104   5.127
 6586SOL    HW220658   6.038   1.008   5.090
 6587SOL     OW20659   1.961   5.747   5.255
 6587SOL    HW120660   1.930   5.827   5.306
 6587SOL    HW220661   1.934   5.756   5.159
 6588SOL     OW20662   0.987   3.081   1.532
 6588SOL    HW120663   1.052   3.155   1.550
 6588SOL    HW220664   1.005   3.004   1.593
 6589SOL     OW20665   5.052   1.029   0.802
 6589SOL    HW120666   4.975   1.036   0.739
 6589SOL    HW220667   5.075   0.933   0.817
 6590SOL     OW20668   0.778   1.308   5.849
 6590SOL    HW120669   0.711   1.237   5.829
 6590SOL    HW220670   0.744   1.397   5.818
 6591SOL     OW20671   5.855   5.374   2.395
 6591SOL    HW120672   5.834   5.467   2.363
 6591SOL    HW220673   5.777   5.338   2.447
 6592SOL     OW20674   5.238   6.973   3.385
 6592SOL    HW120675   5.214   0.049   3.400
 6592SOL    HW220676   5.270   6.933   3.470
 6593SOL     OW20677   1.653   2.322   2.469
 6593SOL    HW120678   1.725   2.386   2.498
 6593SOL    HW220679   1.691   2.256   2.404
 6594SOL     OW20680   3.956   1.719   0.248
 6594SOL    HW120681   3.880   1.700   0.310
 6594SOL    HW220682   3.920   1.732   0.155
 6595SOL     OW20683   0.952   3.838   6.447
 6595SOL    HW120684   1.049   3.820   6.429
 6595SOL    HW220685   0.941   3.866   6.542
 6596SOL     OW20686   3.006   6.124   4.597
 6596SOL    HW120687   3.014   6.221   4.620
 6596SOL    HW220688   2.910   6.101   4.585
 6597SOL     OW20689   1.411   5.307   1.844
 6597SOL    HW120690   1.479   5.380   1.837
 6597SOL    HW220691   1.408   5.256   1.758
 6598SOL     OW20692   1.381   5.458   4.426
 6598SOL    HW120693   1.426   5.498   4.347
 6598SOL    HW220694   1.382   5.523   4.502
 6599SOL     OW20695   4.598   6.266   6.317
 6599SOL    HW120696   4.581   6.345   6.376
 6599SOL    HW220697   4.577   6.182   6.366
 6600SOL     OW20698   4.890   5.086   5.045
 6600SOL    HW120699   4.832   5.019   4.998
 6600SOL    HW220700   4.984   5.052   5.047
 6601SOL     OW20701   1.398   2.204   4.840
 6601SOL    HW120702   1.459   2.254   4.901
 6601SOL    HW220703   1.303   2.228   4.860
 6602SOL     OW20704   1.512   1.213   1.655
 6602SOL    HW120705   1.598   1.265   1.657
 6602SOL    HW220706   1.511   1.148   1.730
 6603SOL     OW20707   0.016   2.655   3.874
 6603SOL    HW120708   6.968   2.584   3.860
 6603SOL    HW220709   6.991   2.744   3.879
 6604SOL     OW20710   1.912   0.304   0.759
 6604SOL    HW120711   1.931   0.207   0.777
 6604SOL    HW220712   1.924   0.322   0.661
 6605SOL     OW20713   5.455   4.207   2.042
 6605SOL    HW120714   5.389   4.141   2.006
 6605SOL    HW220715   5.545   4.188   2.004
 6606SOL     OW20716   0.422   6.271   2.175
 6606SOL    HW120717   0.398   6.212   2.251
 6606SOL    HW220718   0.367   6.247   2.095
 6607SOL     OW20719   1.821   3.573   2.456
 6607SOL    HW120720   1.829   3.501   2.387
 6607SOL    HW220721   1.912   3.592   2.495
 6608SOL     OW20722   6.224   6.625   0.899
 6608SOL    HW120723   6.318   6.657   0.884
 6608SOL    HW220724   6.165   6.661   0.827
 6609SOL     OW20725   4.882   0.948   6.367
 6609SOL    HW120726   4.782   0.954   6.366
 6609SOL    HW220727   4.912   0.873   6.308
 6610SOL     OW20728   2.569   6.971   6.774
 6610SOL    HW120729   2.576   6.936   6.680
 6610SOL    HW220730   2.529   6.901   6.832
 6611SOL     OW20731   5.052   2.690   3.685
 6611SOL    HW120732   5.098   2.656   3.602
 6611SOL    HW220733   5.119   2.700   3.758
 6612SOL     OW20734   5.949   2.052   5.864
 6612SOL    HW120735   5.991   2.142   5.850
 6612SOL    HW220736   5.890   2.056   5.944
 6613SOL     OW20737   6.138   6.635   5.217
 6613SOL    HW120738   6.039   6.652   5.217
 6613SOL    HW220739   6.174   6.650   5.309
 6614SOL     OW20740   4.566   5.617   0.470
 6614SOL    HW120741   4.604   5.619   0.378
 6614SOL    HW220742   4.599   5.696   0.522
 6615SOL     OW20743   1.736   5.769   1.830
 6615SOL    HW120744   1.666   5.790   1.898
 6615SOL    HW220745   1.825   5.799   1.864
 6616SOL     OW20746   4.972   1.187   6.285
 6616SOL    HW120747   4.941   1.098   6.319
 6616SOL    HW220748   4.957   1.256   6.355
 6617SOL     OW20749   4.388   4.895   3.305
 6617SOL    HW120750   4.478   4.871   3.342
 6617SOL    HW220751   4.339   4.811   3.281
 6618SOL     OW20752   0.741   2.338   2.448
 6618SOL    HW120753   0.809   2.401   2.409
 6618SOL    HW220754   0.653   2.384   2.454
 6619SOL     OW20755   5.769   0.371   4.052
 6619SOL    HW120756   5.686   0.352   3.999
 6619SOL    HW220757   5.806   0.460   4.025
 6620SOL     OW20758   2.026   2.491   5.282
 6620SOL    HW120759   1.983   2.579   5.304
 6620SOL    HW220760   1.967   2.440   5.220
 6621SOL     OW20761   3.351   3.202   6.174
 6621SOL    HW120762   3.392   3.292   6.161
 6621SOL    HW220763   3.256   3.212   6.204
 6622SOL     OW20764   6.038   6.583   1.360
 6622SOL    HW120765   6.006   6.665   1.313
 6622SOL    HW220766   6.004   6.501   1.313
 6623SOL     OW20767   3.145   3.132   5.207
 6623SOL    HW120768   3.128   3.196   5.282
 6623SOL    HW220769   3.182   3.047   5.244
 6624SOL     OW20770   0.212   5.052   6.097
 6624SOL    HW120771   0.122   5.069   6.137
 6624SOL    HW220772   0.216   5.093   6.006
 6625SOL     OW20773   5.208   1.777   5.339
 6625SOL    HW120774   5.236   1.750   5.247
 6625SOL    HW220775   5.217   1.700   5.401
 6626SOL     OW20776   4.411   4.911   5.009
 6626SOL    HW120777   4.335   4.860   4.967
 6626SOL    HW220778   4.376   4.995   5.050
 6627SOL     OW20779   2.030   6.398   4.980
 6627SOL    HW120780   2.042   6.353   5.068
 6627SOL    HW220781   2.000   6.332   4.911
 6628SOL     OW20782   4.791   5.068   4.666
 6628SOL    HW120783   4.730   4.998   4.629
 6628SOL    HW220784   4.761   5.093   4.758
 6629SOL     OW20785   4.691   5.926   6.799
 6629SOL    HW120786   4.715   5.914   6.703
 6629SOL    HW220787   4.766   5.973   6.846
 6630SOL     OW20788   4.157   1.612   1.505
 6630SOL    HW120789   4.191   1.637   1.595
 6630SOL    HW220790   4.155   1.512   1.497
 6631SOL     OW20791   1.985   5.131   3.488
 6631SOL    HW120792   2.017   5.144   3.582
 6631SOL    HW220793   1.902   5.076   3.489
 6632SOL     OW20794   0.158   6.909   1.421
 6632SOL    HW120795   0.070   6.902   1.374
 6632SOL    HW220796   0.229   6.864   1.366
 6633SOL     OW20797   1.685   4.619   6.456
 6633SOL    HW120798   1.722   4.596   6.547
 6633SOL    HW220799   1.755   4.599   6.387
 6634SOL     OW20800   4.891   2.162   4.704
 6634SOL    HW120801   4.949   2.126   4.630
 6634SOL    HW220802   4.935   2.144   4.792
 6635SOL     OW20803   4.792   4.855   2.924
 6635SOL    HW120804   4.798   4.911   3.007
 6635SOL    HW220805   4.851   4.894   2.853
 6636SOL     OW20806   4.838   1.989   6.132
 6636SOL    HW120807   4.801   2.052   6.199
 6636SOL    HW220808   4.933   2.014   6.111
 6637SOL     OW20809   1.287   6.928   6.752
 6637SOL    HW120810   1.275   6.868   6.831
 6637SOL    HW220811   1.384   6.942   6.735
 6638SOL     OW20812   3.027   3.861   3.604
 6638SOL    HW120813   3.125   3.874   3.598
 6638SOL    HW220814   2.989   3.851   3.512
 6639SOL     OW20815   5.073   5.193   6.115
 6639SOL    HW120816   4.988   5.146   6.089
 6639SOL    HW220817   5.146   5.164   6.053
 6640SOL     OW20818   1.013   1.900   4.705
 6640SOL    HW120819   1.014   1.965   4.629
 6640SOL    HW220820   1.096   1.913   4.760
 6641SOL     OW20821   2.336   1.930   5.725
 6641SOL    HW120822   2.376   1.916   5.815
 6641SOL    HW220823   2.399   1.897   5.654
 6642SOL     OW20824   1.871   5.753   6.660
 6642SOL    HW120825   1.905   5.743   6.754
 6642SOL    HW220826   1.938   5.715   6.596
 6643SOL     OW20827   6.066   4.994   0.148
 6643SOL    HW120828   6.154   5.006   0.101
 6643SOL    HW220829   6.080   5.003   0.247
 6644SOL     OW20830   2.777   5.555   1.511
 6644SOL    HW120831   2.781   5.493   1.433
 6644SOL    HW220832   2.684   5.558   1.547
 6645SOL     OW20833   6.384   4.703   0.122
 6645SOL    HW120834   6.297   4.710   0.170
 6645SOL    HW220835   6.453   4.757   0.169
 6646SOL     OW20836   3.800   0.539   4.876
 6646SOL    HW120837   3.807   0.496   4.786
 6646SOL    HW220838   3.743   0.621   4.869
 6647SOL     OW20839   4.950   1.142   1.223
 6647SOL    HW120840   4.898   1.165   1.306
 6647SOL    HW220841   4.923   1.204   1.149
 6648SOL     OW20842   3.926   6.431   3.622
 6648SOL    HW120843   3.870   6.512   3.640
 6648SOL    HW220844   3.906   6.396   3.530
 6649SOL     OW20845   5.292   1.055   6.886
 6649SOL    HW120846   5.194   1.040   6.896
 6649SOL    HW220847   5.310   1.154   6.889
 6650SOL     OW20848   3.839   1.663   5.438
 6650SOL    HW120849   3.852   1.605   5.519
 6650SOL    HW220850   3.892   1.626   5.362
 6651SOL     OW20851   2.597   1.288   5.844
 6651SOL    HW120852   2.669   1.351   5.872
 6651SOL    HW220853   2.557   1.318   5.758
 6652SOL     OW20854   0.987   4.198   0.761
 6652SOL    HW120855   1.039   4.152   0.690
 6652SOL    HW220856   1.020   4.292   0.772
 6653SOL     OW20857   3.595   3.855   2.543
 6653SOL    HW120858   3.581   3.791   2.467
 6653SOL    HW220859   3.528   3.928   2.539
 6654SOL     OW20860   1.093   5.125   1.601
 6654SOL    HW120861   1.001   5.129   1.561
 6654SOL    HW220862   1.113   5.030   1.628
 6655SOL     OW20863   1.036   0.719   3.857
 6655SOL    HW120864   1.100   0.710   3.933
 6655SOL    HW220865   0.942   0.717   3.892
 6656SOL     OW20866   5.492   1.985   3.849
 6656SOL    HW120867   5.567   1.965   3.912
 6656SOL    HW220868   5.444   1.900   3.826
 6657SOL     OW20869   6.375   5.060   6.323
 6657SOL    HW120870   6.457   5.078   6.377
 6657SOL    HW220871   6.331   4.977   6.357
 6658SOL     OW20872   6.661   0.999   4.659
 6658SOL    HW120873   6.667   0.909   4.703
 6658SOL    HW220874   6.565   1.028   4.656
 6659SOL     OW20875   2.024   3.084   0.570
 6659SOL    HW120876   1.981   3.026   0.640
 6659SOL    HW220877   1.986   3.060   0.480
 6660SOL     OW20878   0.957   5.066   1.374
 6660SOL    HW120879   0.914   4.983   1.338
 6660SOL    HW220880   1.055   5.062   1.360
 6661SOL     OW20881   1.474   6.333   5.020
 6661SOL    HW120882   1.424   6.331   5.106
 6661SOL    HW220883   1.568   6.302   5.034
 6662SOL     OW20884   1.496   0.149   0.170
 6662SOL    HW120885   1.491   0.150   0.270
 6662SOL    HW220886   1.485   0.055   0.138
 6663SOL     OW20887   6.302   4.977   4.179
 6663SOL    HW120888   6.359   5.057   4.196
 6663SOL    HW220889   6.302   4.957   4.081
 6664SOL     OW20890   2.136   6.191   0.628
 6664SOL    HW120891   2.047   6.236   0.630
 6664SOL    HW220892   2.198   6.242   0.568
 6665SOL     OW20893   2.166   5.507   4.800
 6665SOL    HW120894   2.095   5.436   4.799
 6665SOL    HW220895   2.226   5.493   4.879
 6666SOL     OW20896   6.217   0.164   5.965
 6666SOL    HW120897   6.202   0.080   5.912
 6666SOL    HW220898   6.240   0.139   6.059
 6667SOL     OW20899   6.821   6.201   6.701
 6667SOL    HW120900   6.800   6.277   6.639
 6667SOL    HW220901   6.919   6.198   6.718
 6668SOL     OW20902   6.744   4.942   1.308
 6668SOL    HW120903   6.729   4.845   1.289
 6668SOL    HW220904   6.664   4.995   1.278
 6669SOL     OW20905   1.518   2.491   2.786
 6669SOL    HW120906   1.544   2.539   2.869
 6669SOL    HW220907   1.563   2.532   2.707
 6670SOL     OW20908   3.667   1.233   5.609
 6670SOL    HW120909   3.632   1.323   5.581
 6670SOL    HW220910   3.759   1.220   5.572
 6671SOL     OW20911   5.440   6.449   0.864
 6671SOL    HW120912   5.494   6.478   0.785
 6671SOL    HW220913   5.350   6.417   0.832
 6672SOL     OW20914   6.546   2.584   6.825
 6672SOL    HW120915   6.633   2.559   6.782
 6672SOL    HW220916   6.525   2.519   6.897
 6673SOL     OW20917   4.959   5.049   3.936
 6673SOL    HW120918   5.033   5.017   3.995
 6673SOL    HW220919   4.911   5.125   3.981
 6674SOL     OW20920   0.380   4.173   6.071
 6674SOL    HW120921   0.409   4.112   5.997
 6674SOL    HW220922   0.458   4.189   6.133
 6675SOL     OW20923   5.205   3.885   1.181
 6675SOL    HW120924   5.209   3.858   1.085
 6675SOL    HW220925   5.110   3.895   1.209
 6676SOL     OW20926   0.810   3.899   5.884
 6676SOL    HW120927   0.733   3.848   5.923
 6676SOL    HW220928   0.779   3.950   5.804
 6677SOL     OW20929   1.534   1.856   6.039
 6677SOL    HW120930   1.628   1.884   6.021
 6677SOL    HW220931   1.489   1.925   6.096
 6678SOL     OW20932   3.012   3.339   6.719
 6678SOL    HW120933   2.989   3.333   6.622
 6678SOL    HW220934   3.021   3.435   6.745
 6679SOL     OW20935   3.380   1.166   3.865
 6679SOL    HW120936   3.301   1.105   3.868
 6679SOL    HW220937   3.454   1.126   3.919
 6680SOL     OW20938   5.124   6.699   6.701
 6680SOL    HW120939   5.118   6.797   6.723
 6680SOL    HW220940   5.195   6.656   6.757
 6681SOL     OW20941   3.440   6.089   1.378
 6681SOL    HW120942   3.503   6.159   1.412
 6681SOL    HW220943   3.414   6.028   1.453
 6682SOL     OW20944   0.461   4.487   2.142
 6682SOL    HW120945   0.480   4.524   2.051
 6682SOL    HW220946   0.456   4.387   2.136
 6683SOL     OW20947   5.858   3.086   5.176
 6683SOL    HW120948   5.771   3.128   5.202
 6683SOL    HW220949   5.857   3.068   5.077
 6684SOL     OW20950   2.666   0.058   1.662
 6684SOL    HW120951   2.732   0.063   1.737
 6684SOL    HW220952   2.573   0.071   1.698
 6685SOL     OW20953   6.488   3.425   5.842
 6685SOL    HW120954   6.514   3.476   5.924
 6685SOL    HW220955   6.404   3.464   5.804
 6686SOL     OW20956   5.138   6.199   5.017
 6686SOL    HW120957   5.158   6.232   5.110
 6686SOL    HW220958   5.222   6.164   4.976
 6687SOL     OW20959   1.477   3.459   0.162
 6687SOL    HW120960   1.390   3.492   0.200
 6687SOL    HW220961   1.549   3.524   0.182
 6688SOL     OW20962   6.335   4.264   2.581
 6688SOL    HW120963   6.236   4.252   2.587
 6688SOL    HW220964   6.375   4.189   2.528
 6689SOL     OW20965   4.388   3.034   0.373
 6689SOL    HW120966   4.374   2.998   0.465
 6689SOL    HW220967   4.313   3.005   0.313
 6690SOL     OW20968   1.210   1.314   0.729
 6690SOL    HW120969   1.192   1.277   0.820
 6690SOL    HW220970   1.282   1.384   0.735
 6691SOL     OW20971   2.914   6.502   2.134
 6691SOL    HW120972   2.989   6.523   2.197
 6691SOL    HW220973   2.926   6.554   2.050
 6692SOL     OW20974   3.463   3.595   5.334
 6692SOL    HW120975   3.540   3.654   5.359
 6692SOL    HW220976   3.377   3.641   5.355
 6693SOL     OW20977   4.494   2.947   5.697
 6693SOL    HW120978   4.401   2.920   5.725
 6693SOL    HW220979   4.556   2.869   5.708
 6694SOL     OW20980   3.421   5.788   0.914
 6694SOL    HW120981   3.504   5.796   0.859
 6694SOL    HW220982   3.423   5.855   0.988
 6695SOL     OW20983   2.898   2.272   0.537
 6695SOL    HW120984   2.901   2.372   0.542
 6695SOL    HW220985   2.951   2.241   0.458
 6696SOL     OW20986   2.984   3.240   5.907
 6696SOL    HW120987   2.990   3.291   5.822
 6696SOL    HW220988   2.891   3.245   5.943
 6697SOL     OW20989   4.773   2.544   3.258
 6697SOL    HW120990   4.827   2.513   3.179
 6697SOL    HW220991   4.726   2.466   3.298
 6698SOL     OW20992   2.519   2.839   1.802
 6698SOL    HW120993   2.563   2.914   1.754
 6698SOL    HW220994   2.583   2.763   1.812
 6699SOL     OW20995   2.516   5.902   5.673
 6699SOL    HW120996   2.576   5.936   5.601
 6699SOL    HW220997   2.429   5.872   5.633
 6700SOL     OW20998   0.873   6.598   1.671
 6700SOL    HW120999   0.911   6.530   1.733
 6700SOL    HW221000   0.914   6.687   1.691
 6701SOL     OW21001   5.521   3.976   2.418
 6701SOL    HW121002   5.444   4.038   2.401
 6701SOL    HW221003   5.605   4.019   2.384
 6702SOL     OW21004   3.079   1.817   1.290
 6702SOL    HW121005   3.152   1.771   1.341
 6702SOL    HW221006   3.007   1.751   1.267
 6703SOL     OW21007   6.513   2.407   0.000
 6703SOL    HW121008   6.444   2.338   6.999
 6703SOL    HW221009   6.605   2.369   7.006
 6704SOL     OW21010   3.263   1.682   2.849
 6704SOL    HW121011   3.183   1.628   2.873
 6704SOL    HW221012   3.331   1.675   2.922
 6705SOL     OW21013   0.087   3.004   1.684
 6705SOL    HW121014   0.093   3.003   1.783
 6705SOL    HW221015   0.071   2.911   1.650
 6706SOL     OW21016   1.846   4.414   2.323
 6706SOL    HW121017   1.843   4.314   2.322
 6706SOL    HW221018   1.874   4.448   2.233
 6707SOL     OW21019   6.680   6.315   3.339
 6707SOL    HW121020   6.660   6.218   3.327
 6707SOL    HW221021   6.697   6.357   3.250
 6708SOL     OW21022   0.021   5.567   1.583
 6708SOL    HW121023   0.033   5.469   1.572
 6708SOL    HW221024   6.953   5.595   1.545
 6709SOL     OW21025   3.119   6.300   3.470
 6709SOL    HW121026   3.059   6.380   3.470
 6709SOL    HW221027   3.106   6.247   3.554
 6710SOL     OW21028   3.566   0.341   6.153
 6710SOL    HW121029   3.625   0.379   6.082
 6710SOL    HW221030   3.481   0.395   6.158
 6711SOL     OW21031   4.686   5.208   6.045
 6711SOL    HW121032   4.650   5.212   5.952
 6711SOL    HW221033   4.659   5.122   6.088
 6712SOL     OW21034   5.291   4.005   0.326
 6712SOL    HW121035   5.375   3.990   0.377
 6712SOL    HW221036   5.212   3.984   0.385
 6713SOL     OW21037   2.091   0.069   2.599
 6713SOL    HW121038   2.186   0.084   2.626
 6713SOL    HW221039   2.034   0.144   2.634
 6714SOL     OW21040   6.387   0.734   6.027
 6714SOL    HW121041   6.309   0.730   6.090
 6714SOL    HW221042   6.355   0.723   5.933
 6715SOL     OW21043   0.691   0.310   0.318
 6715SOL    HW121044   0.775   0.257   0.324
 6715SOL    HW221045   0.650   0.297   0.227
 6716SOL     OW21046   0.524   5.959   1.535
 6716SOL    HW121047   0.465   6.003   1.602
 6716SOL    HW221048   0.472   5.942   1.451
 6717SOL     OW21049   3.787   3.196   6.894
 6717SOL    HW121050   3.837   3.269   6.848
 6717SOL    HW221051   3.713   3.165   6.835
 6718SOL     OW21052   5.519   0.571   0.932
 6718SOL    HW121053   5.570   0.528   1.006
 6718SOL    HW221054   5.466   0.648   0.968
 6719SOL     OW21055   2.567   0.494   6.655
 6719SOL    HW121056   2.526   0.559   6.592
 6719SOL    HW221057   2.647   0.535   6.699
 6720SOL     OW21058   1.479   6.826   4.153
 6720SOL    HW121059   1.490   6.869   4.243
 6720SOL    HW221060   1.488   6.896   4.082
 6721SOL     OW21061   6.996   0.311   0.188
 6721SOL    HW121062   7.014   0.329   0.285
 6721SOL    HW221063   6.937   0.383   0.151
 6722SOL     OW21064   6.638   3.078   1.753
 6722SOL    HW121065   6.663   2.988   1.789
 6722SOL    HW221066   6.675   3.087   1.660
 6723SOL     OW21067   2.057   6.070   3.259
 6723SOL    HW121068   1.957   6.073   3.257
 6723SOL    HW221069   2.092   6.147   3.313
 6724SOL     OW21070   1.670   3.139   5.554
 6724SOL    HW121071   1.683   3.178   5.645
 6724SOL    HW221072   1.673   3.212   5.485
 6725SOL     OW21073   0.600   3.258   1.524
 6725SOL    HW121074   0.691   3.280   1.489
 6725SOL    HW221075   0.535   3.327   1.494
 6726SOL     OW21076   0.558   2.156   5.444
 6726SOL    HW121077   0.625   2.085   5.468
 6726SOL    HW221078   0.577   2.238   5.498
 6727SOL     OW21079   6.876   4.058   5.347
 6727SOL    HW121080   6.943   3.988   5.323
 6727SOL    HW221081   6.869   4.125   5.273
 6728SOL     OW21082   3.554   1.917   2.710
 6728SOL    HW121083   3.474   1.950   2.760
 6728SOL    HW221084   3.533   1.913   2.612
 6729SOL     OW21085   6.736   1.244   2.916
 6729SOL    HW121086   6.668   1.294   2.971
 6729SOL    HW221087   6.818   1.302   2.905
 6730SOL     OW21088   2.561   6.867   0.696
 6730SOL    HW121089   2.601   6.777   0.714
 6730SOL    HW221090   2.627   6.938   0.720
 6731SOL     OW21091   1.041   6.083   1.532
 6731SOL    HW121092   1.116   6.150   1.530
 6731SOL    HW221093   1.076   5.996   1.568
 6732SOL     OW21094   5.263   4.632   4.799
 6732SOL    HW121095   5.278   4.666   4.706
 6732SOL    HW221096   5.261   4.532   4.798
 6733SOL     OW21097   4.263   5.836   0.399
 6733SOL    HW121098   4.348   5.888   0.394
 6733SOL    HW221099   4.188   5.895   0.427
 6734SOL     OW21100   6.549   2.271   4.729
 6734SOL    HW121101   6.549   2.188   4.673
 6734SOL    HW221102   6.457   2.309   4.732
 6735SOL     OW21103   6.539   4.249   4.656
 6735SOL    HW121104   6.588   4.258   4.569
 6735SOL    HW221105   6.521   4.153   4.674
 6736SOL     OW21106   2.908   3.495   0.106
 6736SOL    HW121107   2.826   3.438   0.113
 6736SOL    HW221108   2.980   3.457   0.164
 6737SOL     OW21109   1.773   2.619   0.518
 6737SOL    HW121110   1.854   2.563   0.538
 6737SOL    HW221111   1.724   2.636   0.604
 6738SOL     OW21112   1.724   5.383   2.634
 6738SOL    HW121113   1.771   5.431   2.559
 6738SOL    HW221114   1.625   5.397   2.625
 6739SOL     OW21115   3.628   6.169   5.021
 6739SOL    HW121116   3.562   6.096   5.034
 6739SOL    HW221117   3.631   6.194   4.924
 6740SOL     OW21118   1.550   0.254   4.679
 6740SOL    HW121119   1.623   0.269   4.612
 6740SOL    HW221120   1.463   0.281   4.639
 6741SOL     OW21121   4.251   1.562   5.649
 6741SOL    HW121122   4.212   1.620   5.577
 6741SOL    HW221123   4.347   1.546   5.629
 6742SOL     OW21124   6.544   6.075   2.306
 6742SOL    HW121125   6.562   5.977   2.306
 6742SOL    HW221126   6.488   6.099   2.385
 6743SOL     OW21127   3.632   5.225   0.568
 6743SOL    HW121128   3.706   5.192   0.627
 6743SOL    HW221129   3.668   5.295   0.507
 6744SOL     OW21130   6.025   4.275   6.468
 6744SOL    HW121131   5.965   4.277   6.389
 6744SOL    HW221132   6.120   4.276   6.438
 6745SOL     OW21133   6.974   0.277   2.863
 6745SOL    HW121134   7.006   0.343   2.931
 6745SOL    HW221135   6.893   0.314   2.816
 6746SOL     OW21136   0.568   1.368   3.458
 6746SOL    HW121137   0.559   1.305   3.381
 6746SOL    HW221138   0.549   1.319   3.543
 6747SOL     OW21139   5.766   1.344   5.131
 6747SOL    HW121140   5.808   1.434   5.142
 6747SOL    HW221141   5.768   1.318   5.034
 6748SOL     OW21142   1.932   1.002   3.606
 6748SOL    HW121143   1.879   0.917   3.605
 6748SOL    HW221144   2.027   0.982   3.628
 6749SOL     OW21145   3.031   6.373   0.420
 6749SOL    HW121146   2.993   6.336   0.505
 6749SOL    HW221147   3.098   6.444   0.441
 6750SOL     OW21148   4.142   2.163   5.205
 6750SOL    HW121149   4.124   2.066   5.223
 6750SOL    HW221150   4.158   2.176   5.107
 6751SOL     OW21151   4.057   0.302   3.546
 6751SOL    HW121152   4.005   0.386   3.531
 6751SOL    HW221153   4.148   0.312   3.506
 6752SOL     OW21154   0.551   1.773   2.685
 6752SOL    HW121155   0.503   1.772   2.598
 6752SOL    HW221156   0.485   1.787   2.759
 6753SOL     OW21157   3.794   0.831   6.584
 6753SOL    HW121158   3.843   0.901   6.533
 6753SOL    HW221159   3.783   0.750   6.527
 6754SOL     OW21160   0.314   1.708   0.255
 6754SOL    HW121161   0.314   1.612   0.228
 6754SOL    HW221162   0.230   1.729   0.305
 6755SOL     OW21163   3.980   0.932   3.293
 6755SOL    HW121164   4.010   1.028   3.299
 6755SOL    HW221165   3.907   0.924   3.226
 6756SOL     OW21166   3.990   5.117   5.345
 6756SOL    HW121167   4.018   5.189   5.281
 6756SOL    HW221168   4.070   5.078   5.389
 6757SOL     OW21169   4.097   1.277   2.366
 6757SOL    HW121170   4.163   1.303   2.436
 6757SOL    HW221171   4.020   1.342   2.368
 6758SOL     OW21172   6.323   2.079   1.691
 6758SOL    HW121173   6.248   2.131   1.732
 6758SOL    HW221174   6.390   2.142   1.652
 6759SOL     OW21175   0.723   4.540   4.693
 6759SOL    HW121176   0.743   4.492   4.778
 6759SOL    HW221177   0.638   4.505   4.654
 6760SOL     OW21178   6.288   3.922   3.295
 6760SOL    HW121179   6.201   3.970   3.297
 6760SOL    HW221180   6.341   3.952   3.215
 6761SOL     OW21181   6.629   2.254   6.099
 6761SOL    HW121182   6.621   2.329   6.166
 6761SOL    HW221183   6.668   2.174   6.144
 6762SOL     OW21184   0.728   5.809   3.685
 6762SOL    HW121185   0.747   5.711   3.681
 6762SOL    HW221186   0.649   5.825   3.744
 6763SOL     OW21187   0.418   4.803   2.514
 6763SOL    HW121188   0.326   4.806   2.554
 6763SOL    HW221189   0.464   4.719   2.542
 6764SOL     OW21190   2.068   4.704   0.225
 6764SOL    HW121191   2.077   4.616   0.179
 6764SOL    HW221192   2.021   4.768   0.165
 6765SOL     OW21193   5.360   3.931   3.384
 6765SOL    HW121194   5.383   3.972   3.472
 6765SOL    HW221195   5.444   3.906   3.336
 6766SOL     OW21196   5.110   6.512   6.237
 6766SOL    HW121197   5.104   6.522   6.138
 6766SOL    HW221198   5.179   6.443   6.259
 6767SOL     OW21199   1.022   2.058   0.781
 6767SOL    HW121200   1.034   2.006   0.697
 6767SOL    HW221201   1.108   2.105   0.803
 6768SOL     OW21202   0.799   6.433   3.702
 6768SOL    HW121203   0.881   6.375   3.691
 6768SOL    HW221204   0.805   6.484   3.787
 6769SOL     OW21205   2.545   0.301   5.646
 6769SOL    HW121206   2.467   0.292   5.707
 6769SOL    HW221207   2.607   0.371   5.680
 6770SOL     OW21208   4.652   2.063   3.840
 6770SOL    HW121209   4.693   2.056   3.931
 6770SOL    HW221210   4.715   2.111   3.779
 6771SOL     OW21211   3.744   0.909   2.330
 6771SOL    HW121212   3.764   0.811   2.330
 6771SOL    HW221213   3.792   0.954   2.406
 6772SOL     OW21214   4.405   2.321   2.683
 6772SOL    HW121215   4.340   2.316   2.760
 6772SOL    HW221216   4.463   2.239   2.684
 6773SOL     OW21217   0.793   6.190   2.160
 6773SOL    HW121218   0.759   6.196   2.066
 6773SOL    HW221219   0.884   6.231   2.166
 6774SOL     OW21220   1.834   3.300   4.683
 6774SOL    HW121221   1.797   3.376   4.631
 6774SOL    HW221222   1.817   3.214   4.635
 6775SOL     OW21223   1.383   2.569   3.588
 6775SOL    HW121224   1.381   2.645   3.653
 6775SOL    HW221225   1.358   2.485   3.636
 6776SOL     OW21226   4.305   3.985   0.502
 6776SOL    HW121227   4.363   3.937   0.436
 6776SOL    HW221228   4.214   3.944   0.503
 6777SOL     OW21229   4.932   4.925   1.178
 6777SOL    HW121230   4.963   4.901   1.270
 6777SOL    HW221231   4.832   4.926   1.175
 6778SOL     OW21232   6.365   4.201   1.754
 6778SOL    HW121233   6.306   4.192   1.834
 6778SOL    HW221234   6.417   4.286   1.760
 6779SOL     OW21235   5.407   4.666   5.945
 6779SOL    HW121236   5.379   4.576   5.914
 6779SOL    HW221237   5.331   4.710   5.993
 6780SOL     OW21238   1.061   3.076   2.766
 6780SOL    HW121239   0.967   3.067   2.800
 6780SOL    HW221240   1.068   3.032   2.677
 6781SOL     OW21241   6.750   1.590   4.879
 6781SOL    HW121242   6.683   1.538   4.827
 6781SOL    HW221243   6.703   1.647   4.946
 6782SOL     OW21244   0.968   1.028   3.271
 6782SOL    HW121245   1.027   0.954   3.241
 6782SOL    HW221246   0.990   1.111   3.220
 6783SOL     OW21247   0.855   1.982   5.801
 6783SOL    HW121248   0.919   2.004   5.875
 6783SOL    HW221249   0.898   1.999   5.713
 6784SOL     OW21250   2.734   3.658   0.364
 6784SOL    HW121251   2.680   3.737   0.335
 6784SOL    HW221252   2.804   3.638   0.296
 6785SOL     OW21253   5.624   5.036   4.652
 6785SOL    HW121254   5.683   4.970   4.698
 6785SOL    HW221255   5.678   5.092   4.589
 6786SOL     OW21256   1.118   2.584   0.379
 6786SOL    HW121257   1.143   2.677   0.354
 6786SOL    HW221258   1.034   2.585   0.433
 6787SOL     OW21259   3.570   2.918   0.827
 6787SOL    HW121260   3.545   2.970   0.745
 6787SOL    HW221261   3.615   2.833   0.801
 6788SOL     OW21262   0.763   4.648   1.963
 6788SOL    HW121263   0.818   4.566   1.980
 6788SOL    HW221264   0.779   4.714   2.036
 6789SOL     OW21265   0.075   4.370   3.857
 6789SOL    HW121266   0.066   4.386   3.955
 6789SOL    HW221267   0.157   4.417   3.823
 6790SOL     OW21268   0.870   3.898   6.740
 6790SOL    HW121269   0.864   3.800   6.760
 6790SOL    HW221270   0.898   3.946   6.823
 6791SOL     OW21271   3.895   2.021   2.441
 6791SOL    HW121272   3.892   1.945   2.507
 6791SOL    HW221273   3.851   1.992   2.356
 6792SOL     OW21274   4.981   0.437   5.432
 6792SOL    HW121275   4.923   0.454   5.511
 6792SOL    HW221276   5.077   0.436   5.461
 6793SOL     OW21277   2.881   1.163   6.588
 6793SOL    HW121278   2.858   1.166   6.685
 6793SOL    HW221279   2.894   1.257   6.554
 6794SOL     OW21280   5.383   1.503   4.991
 6794SOL    HW121281   5.374   1.590   5.039
 6794SOL    HW221282   5.335   1.432   5.042
 6795SOL     OW21283   1.336   6.070   0.869
 6795SOL    HW121284   1.390   6.124   0.933
 6795SOL    HW221285   1.379   5.981   0.855
 6796SOL     OW21286   6.379   0.466   2.700
 6796SOL    HW121287   6.325   0.384   2.678
 6796SOL    HW221288   6.422   0.500   2.617
 6797SOL     OW21289   6.982   2.291   1.848
 6797SOL    HW121290   6.995   2.192   1.845
 6797SOL    HW221291   6.937   2.317   1.933
 6798SOL     OW21292   6.623   6.459   1.178
 6798SOL    HW121293   6.664   6.491   1.263
 6798SOL    HW221294   6.524   6.473   1.182
 6799SOL     OW21295   6.050   0.565   2.334
 6799SOL    HW121296   6.070   0.467   2.341
 6799SOL    HW221297   6.105   0.605   2.261
 6800SOL     OW21298   2.469   2.345   2.252
 6800SOL    HW121299   2.563   2.347   2.285
 6800SOL    HW221300   2.462   2.398   2.168
 6801SOL     OW21301   1.285   0.273   3.734
 6801SOL    HW121302   1.235   0.312   3.811
 6801SOL    HW221303   1.338   0.194   3.766
 6802SOL     OW21304   3.104   5.990   1.642
 6802SOL    HW121305   3.169   5.946   1.581
 6802SOL    HW221306   3.037   6.042   1.589
 6803SOL     OW21307   4.304   4.396   6.491
 6803SOL    HW121308   4.286   4.483   6.444
 6803SOL    HW221309   4.282   4.406   6.588
 6804SOL     OW21310   3.902   5.436   2.843
 6804SOL    HW121311   3.808   5.467   2.832
 6804SOL    HW221312   3.954   5.506   2.893
 6805SOL     OW21313   0.594   4.836   6.633
 6805SOL    HW121314   0.552   4.925   6.618
 6805SOL    HW221315   0.526   4.764   6.620
 6806SOL     OW21316   6.862   1.203   3.750
 6806SOL    HW121317   6.804   1.279   3.778
 6806SOL    HW221318   6.958   1.227   3.764
 6807SOL     OW21319   3.817   3.404   2.474
 6807SOL    HW121320   3.769   3.484   2.440
 6807SOL    HW221321   3.751   3.332   2.497
 6808SOL     OW21322   6.957   1.849   5.619
 6808SOL    HW121323   6.887   1.849   5.548
 6808SOL    HW221324   0.027   1.862   5.578
 6809SOL     OW21325   6.614   3.018   1.154
 6809SOL    HW121326   6.525   2.980   1.178
 6809SOL    HW221327   6.606   3.074   1.072
 6810SOL     OW21328   3.154   1.028   2.127
 6810SOL    HW121329   3.146   1.101   2.195
 6810SOL    HW221330   3.071   0.973   2.126
 6811SOL     OW21331   6.388   3.679   2.153
 6811SOL    HW121332   6.446   3.679   2.071
 6811SOL    HW221333   6.363   3.585   2.176
 6812SOL     OW21334   3.585   4.069   5.468
 6812SOL    HW121335   3.578   4.006   5.391
 6812SOL    HW221336   3.520   4.144   5.457
 6813SOL     OW21337   5.731   2.896   2.509
 6813SOL    HW121338   5.719   2.849   2.596
 6813SOL    HW221339   5.685   2.985   2.512
 6814SOL     OW21340   4.682   1.914   6.421
 6814SOL    HW121341   4.583   1.918   6.429
 6814SOL    HW221342   4.709   1.832   6.370
 6815SOL     OW21343   2.401   6.657   6.582
 6815SOL    HW121344   2.476   6.718   6.606
 6815SOL    HW221345   2.436   6.564   6.568
 6816SOL     OW21346   7.016   0.805   5.639
 6816SOL    HW121347   0.026   0.718   5.677
 6816SOL    HW221348   0.019   0.809   5.542
 6817SOL     OW21349   2.329   2.873   3.487
 6817SOL    HW121350   2.388   2.798   3.457
 6817SOL    HW221351   2.291   2.851   3.577
 6818SOL     OW21352   1.972   6.530   0.698
 6818SOL    HW121353   2.055   6.550   0.646
 6818SOL    HW221354   1.935   6.442   0.669
 6819SOL     OW21355   4.216   1.439   3.027
 6819SOL    HW121356   4.166   1.503   3.086
 6819SOL    HW221357   4.151   1.375   2.986
 6820SOL     OW21358   1.767   6.081   1.630
 6820SOL    HW121359   1.858   6.043   1.644
 6820SOL    HW221360   1.738   6.130   1.712
 6821SOL     OW21361   3.899   2.719   5.332
 6821SOL    HW121362   3.961   2.667   5.274
 6821SOL    HW221363   3.897   2.679   5.424
 6822SOL     OW21364   6.011   2.442   5.698
 6822SOL    HW121365   5.916   2.447   5.667
 6822SOL    HW221366   6.013   2.424   5.796
 6823SOL     OW21367   5.878   4.031   6.062
 6823SOL    HW121368   5.928   3.949   6.091
 6823SOL    HW221369   5.908   4.058   5.971
 6824SOL     OW21370   1.072   1.562   0.474
 6824SOL    HW121371   1.016   1.608   0.543
 6824SOL    HW221372   1.049   1.465   0.472
 6825SOL     OW21373   5.891   0.880   0.070
 6825SOL    HW121374   5.812   0.910   0.017
 6825SOL    HW221375   5.934   0.803   0.024
 6826SOL     OW21376   1.840   3.720   3.598
 6826SOL    HW121377   1.908   3.647   3.589
 6826SOL    HW221378   1.885   3.805   3.625
 6827SOL     OW21379   5.562   5.262   6.283
 6827SOL    HW121380   5.575   5.233   6.378
 6827SOL    HW221381   5.521   5.187   6.231
 6828SOL     OW21382   3.473   1.344   1.760
 6828SOL    HW121383   3.567   1.313   1.749
 6828SOL    HW221384   3.419   1.317   1.680
 6829SOL     OW21385   5.196   6.147   5.859
 6829SOL    HW121386   5.150   6.183   5.778
 6829SOL    HW221387   5.287   6.113   5.833
 6830SOL     OW21388   5.019   0.568   3.394
 6830SOL    HW121389   4.993   0.477   3.428
 6830SOL    HW221390   5.083   0.558   3.317
 6831SOL     OW21391   1.833   1.300   6.068
 6831SOL    HW121392   1.896   1.256   6.004
 6831SOL    HW221393   1.789   1.230   6.124
 6832SOL     OW21394   2.699   4.101   0.801
 6832SOL    HW121395   2.687   4.142   0.710
 6832SOL    HW221396   2.611   4.066   0.833
 6833SOL     OW21397   2.313   4.823   6.693
 6833SOL    HW121398   2.283   4.764   6.768
 6833SOL    HW221399   2.234   4.857   6.643
 6834SOL     OW21400   6.471   0.333   0.630
 6834SOL    HW121401   6.451   0.244   0.670
 6834SOL    HW221402   6.449   0.405   0.695
 6835SOL     OW21403   3.625   1.034   5.060
 6835SOL    HW121404   3.539   1.086   5.054
 6835SOL    HW221405   3.696   1.093   5.099
 6836SOL     OW21406   2.547   4.541   6.559
 6836SOL    HW121407   2.598   4.455   6.546
 6836SOL    HW221408   2.581   4.610   6.495
 6837SOL     OW21409   0.363   2.461   3.471
 6837SOL    HW121410   0.420   2.512   3.407
 6837SOL    HW221411   0.269   2.456   3.436
 6838SOL     OW21412   3.104   5.492   6.178
 6838SOL    HW121413   3.155   5.565   6.133
 6838SOL    HW221414   3.040   5.531   6.244
 6839SOL     OW21415   5.446   0.872   5.141
 6839SOL    HW121416   5.392   0.873   5.225
 6839SOL    HW221417   5.414   0.944   5.079
 6840SOL     OW21418   3.251   6.682   5.072
 6840SOL    HW121419   3.280   6.692   5.167
 6840SOL    HW221420   3.294   6.602   5.032
 6841SOL     OW21421   3.789   4.814   0.771
 6841SOL    HW121422   3.850   4.893   0.768
 6841SOL    HW221423   3.816   4.754   0.846
 6842SOL     OW21424   2.256   2.788   0.196
 6842SOL    HW121425   2.276   2.778   0.099
 6842SOL    HW221426   2.231   2.699   0.234
 6843SOL     OW21427   5.686   6.707   1.936
 6843SOL    HW121428   5.722   6.798   1.920
 6843SOL    HW221429   5.632   6.677   1.857
 6844SOL     OW21430   5.484   0.010   3.611
 6844SOL    HW121431   5.454   6.939   3.638
 6844SOL    HW221432   5.569   0.003   3.559
 6845SOL     OW21433   5.529   4.385   2.703
 6845SOL    HW121434   5.525   4.410   2.800
 6845SOL    HW221435   5.594   4.309   2.691
 6846SOL     OW21436   4.360   3.265   1.304
 6846SOL    HW121437   4.374   3.238   1.400
 6846SOL    HW221438   4.358   3.183   1.247
 6847SOL     OW21439   6.740   4.796   2.978
 6847SOL    HW121440   6.652   4.838   2.955
 6847SOL    HW221441   6.730   4.740   3.061
 6848SOL     OW21442   3.596   6.482   3.580
 6848SOL    HW121443   3.649   6.411   3.533
 6848SOL    HW221444   3.646   6.568   3.576
 6849SOL     OW21445   3.573   5.366   4.509
 6849SOL    HW121446   3.507   5.394   4.578
 6849SOL    HW221447   3.605   5.446   4.458
 6850SOL     OW21448   5.694   3.480   1.882
 6850SOL    HW121449   5.736   3.392   1.905
 6850SOL    HW221450   5.764   3.551   1.879
 6851SOL     OW21451   0.916   3.150   3.768
 6851SOL    HW121452   0.881   3.067   3.726
 6851SOL    HW221453   0.942   3.216   3.697
 6852SOL     OW21454   1.822   4.783   0.933
 6852SOL    HW121455   1.850   4.782   1.029
 6852SOL    HW221456   1.832   4.691   0.895
 6853SOL     OW21457   6.551   3.726   0.131
 6853SOL    HW121458   6.640   3.688   0.152
 6853SOL    HW221459   6.501   3.743   0.215
 6854SOL     OW21460   5.136   1.909   5.583
 6854SOL    HW121461   5.226   1.891   5.623
 6854SOL    HW221462   5.129   1.864   5.494
 6855SOL     OW21463   3.290   5.525   3.078
 6855SOL    HW121464   3.333   5.615   3.075
 6855SOL    HW221465   3.343   5.459   3.025
 6856SOL     OW21466   4.719   4.252   5.459
 6856SOL    HW121467   4.768   4.315   5.400
 6856SOL    HW221468   4.779   4.176   5.485
 6857SOL     OW21469   2.843   2.088   0.074
 6857SOL    HW121470   2.909   2.016   0.097
 6857SOL    HW221471   2.823   2.084   6.996
 6858SOL     OW21472   3.670   3.534   4.213
 6858SOL    HW121473   3.682   3.633   4.215
 6858SOL    HW221474   3.634   3.503   4.302
 6859SOL     OW21475   1.442   0.338   0.919
 6859SOL    HW121476   1.360   0.361   0.970
 6859SOL    HW221477   1.522   0.375   0.966
 6860SOL     OW21478   6.115   5.425   1.229
 6860SOL    HW121479   6.192   5.461   1.177
 6860SOL    HW221480   6.135   5.330   1.255
 6861SOL     OW21481   5.699   4.013   0.750
 6861SOL    HW121482   5.657   3.922   0.754
 6861SOL    HW221483   5.795   4.004   0.724
 6862SOL     OW21484   1.925   4.663   5.252
 6862SOL    HW121485   2.007   4.691   5.202
 6862SOL    HW221486   1.935   4.568   5.282
 6863SOL     OW21487   5.979   1.219   5.837
 6863SOL    HW121488   5.979   1.228   5.737
 6863SOL    HW221489   5.960   1.124   5.861
 6864SOL     OW21490   2.759   5.994   4.106
 6864SOL    HW121491   2.833   5.985   4.040
 6864SOL    HW221492   2.689   5.924   4.089
 6865SOL     OW21493   0.198   5.968   3.370
 6865SOL    HW121494   0.167   6.042   3.310
 6865SOL    HW221495   0.160   5.881   3.337
 6866SOL     OW21496   6.387   4.845   2.728
 6866SOL    HW121497   6.479   4.866   2.695
 6866SOL    HW221498   6.388   4.756   2.775
 6867SOL     OW21499   2.023   4.720   1.541
 6867SOL    HW121500   2.107   4.701   1.591
 6867SOL    HW221501   1.974   4.796   1.585
 6868SOL     OW21502   1.218   4.976   6.498
 6868SOL    HW121503   1.260   4.976   6.588
 6868SOL    HW221504   1.288   4.965   6.427
 6869SOL     OW21505   5.340   0.509   4.681
 6869SOL    HW121506   5.304   0.420   4.654
 6869SOL    HW221507   5.440   0.509   4.673
 6870SOL     OW21508   6.981   4.723   2.130
 6870SOL    HW121509   0.050   4.707   2.087
 6870SOL    HW221510   6.946   4.638   2.169
 6871SOL     OW21511   6.466   4.482   3.114
 6871SOL    HW121512   6.409   4.527   3.183
 6871SOL    HW221513   6.428   4.392   3.092
 6872SOL     OW21514   0.799   2.724   1.336
 6872SOL    HW121515   0.748   2.806   1.312
 6872SOL    HW221516   0.779   2.699   1.431
 6873SOL     OW21517   6.774   3.909   5.063
 6873SOL    HW121518   6.689   3.862   5.040
 6873SOL    HW221519   6.833   3.846   5.115
 6874SOL     OW21520   0.968   5.719   2.308
 6874SOL    HW121521   0.956   5.817   2.322
 6874SOL    HW221522   0.936   5.693   2.217
 6875SOL     OW21523   1.738   2.415   3.060
 6875SOL    HW121524   1.728   2.512   3.037
 6875SOL    HW221525   1.695   2.359   2.990
 6876SOL     OW21526   4.108   6.236   4.069
 6876SOL    HW121527   4.110   6.149   4.119
 6876SOL    HW221528   4.040   6.231   3.997
 6877SOL     OW21529   2.995   3.831   0.316
 6877SOL    HW121530   3.041   3.783   0.242
 6877SOL    HW221531   3.054   3.833   0.397
 6878SOL     OW21532   3.187   2.006   5.502
 6878SOL    HW121533   3.229   1.952   5.429
 6878SOL    HW221534   3.212   2.102   5.491
 6879SOL     OW21535   0.799   2.256   0.256
 6879SOL    HW121536   0.878   2.311   0.229
 6879SOL    HW221537   0.753   2.221   0.174
 6880SOL     OW21538   2.153   4.005   5.278
 6880SOL    HW121539   2.243   4.026   5.238
 6880SOL    HW221540   2.087   3.987   5.205
 6881SOL     OW21541   0.713   4.108   2.153
 6881SOL    HW121542   0.694   4.155   2.066
 6881SOL    HW221543   0.688   4.167   2.229
 6882SOL     OW21544   3.593   0.940   6.993
 6882SOL    HW121545   3.525   0.886   0.022
 6882SOL    HW221546   3.556   0.965   6.903
 6883SOL     OW21547   3.901   2.209   0.451
 6883SOL    HW121548   3.852   2.127   0.423
 6883SOL    HW221549   3.860   2.289   0.406
 6884SOL     OW21550   1.844   3.925   4.317
 6884SOL    HW121551   1.815   3.970   4.402
 6884SOL    HW221552   1.865   3.994   4.248
 6885SOL     OW21553   3.669   6.175   4.741
 6885SOL    HW121554   3.714   6.260   4.769
 6885SOL    HW221555   3.664   6.172   4.641
 6886SOL     OW21556   6.748   0.993   3.940
 6886SOL    HW121557   6.687   0.914   3.952
 6886SOL    HW221558   6.813   0.974   3.866
 6887SOL     OW21559   5.219   6.296   5.269
 6887SOL    HW121560   5.154   6.368   5.296
 6887SOL    HW221561   5.181   6.207   5.292
 6888SOL     OW21562   5.251   6.256   6.265
 6888SOL    HW121563   5.328   6.245   6.201
 6888SOL    HW221564   5.165   6.256   6.215
 6889SOL     OW21565   1.827   2.145   4.772
 6889SOL    HW121566   1.751   2.201   4.739
 6889SOL    HW221567   1.904   2.153   4.709
 6890SOL     OW21568   3.848   6.628   0.991
 6890SOL    HW121569   3.910   6.618   1.068
 6890SOL    HW221570   3.790   6.708   1.004
 6891SOL     OW21571   1.558   4.560   3.935
 6891SOL    HW121572   1.652   4.529   3.923
 6891SOL    HW221573   1.555   4.660   3.935
 6892SOL     OW21574   3.363   2.051   3.361
 6892SOL    HW121575   3.352   2.057   3.460
 6892SOL    HW221576   3.460   2.044   3.338
 6893SOL     OW21577   4.705   4.622   6.796
 6893SOL    HW121578   4.801   4.636   6.819
 6893SOL    HW221579   4.657   4.578   6.872
 6894SOL     OW21580   6.143   4.780   0.350
 6894SOL    HW121581   6.113   4.772   0.255
 6894SOL    HW221582   6.065   4.767   0.411
 6895SOL     OW21583   2.578   5.877   6.544
 6895SOL    HW121584   2.502   5.864   6.608
 6895SOL    HW221585   2.658   5.826   6.577
 6896SOL     OW21586   1.084   7.019   3.204
 6896SOL    HW121587   1.127   7.007   3.115
 6896SOL    HW221588   1.147   6.988   3.275
 6897SOL     OW21589   2.703   3.048   6.648
 6897SOL    HW121590   2.724   2.950   6.656
 6897SOL    HW221591   2.726   3.094   6.733
 6898SOL     OW21592   3.943   1.102   2.196
 6898SOL    HW121593   3.969   1.144   2.283
 6898SOL    HW221594   3.871   1.034   2.212
 6899SOL     OW21595   5.539   6.598   1.057
 6899SOL    HW121596   5.473   6.591   1.131
 6899SOL    HW221597   5.518   6.531   0.987
 6900SOL     OW21598   6.710   6.822   5.503
 6900SOL    HW121599   6.732   6.776   5.589
 6900SOL    HW221600   6.784   6.806   5.437
 6901SOL     OW21601   0.288   6.412   6.147
 6901SOL    HW121602   0.280   6.391   6.050
 6901SOL    HW221603   0.218   6.479   6.173
 6902SOL     OW21604   5.971   6.609   0.310
 6902SOL    HW121605   5.975   6.617   0.211
 6902SOL    HW221606   5.961   6.512   0.335
 6903SOL     OW21607   3.679   5.600   4.422
 6903SOL    HW121608   3.749   5.613   4.352
 6903SOL    HW221609   3.699   5.658   4.501
 6904SOL     OW21610   6.071   1.825   4.463
 6904SOL    HW121611   6.038   1.771   4.540
 6904SOL    HW221612   5.995   1.843   4.400
 6905SOL     OW21613   6.273   6.351   0.005
 6905SOL    HW121614   6.199   6.413   7.003
 6905SOL    HW221615   6.359   6.403   0.013
 6906SOL     OW21616   4.497   1.544   4.104
 6906SOL    HW121617   4.589   1.552   4.067
 6906SOL    HW221618   4.465   1.449   4.096
 6907SOL     OW21619   4.701   2.233   1.683
 6907SOL    HW121620   4.693   2.332   1.700
 6907SOL    HW221621   4.670   2.183   1.764
 6908SOL     OW21622   0.978   6.052   6.529
 6908SOL    HW121623   0.932   5.965   6.545
 6908SOL    HW221624   1.021   6.083   6.614
 6909SOL     OW21625   6.267   4.319   1.344
 6909SOL    HW121626   6.226   4.366   1.266
 6909SOL    HW221627   6.324   4.244   1.311
 6910SOL     OW21628   0.257   2.529   3.905
 6910SOL    HW121629   0.158   2.534   3.908
 6910SOL    HW221630   0.287   2.436   3.925
 6911SOL     OW21631   4.438   6.195   3.817
 6911SOL    HW121632   4.340   6.194   3.798
 6911SOL    HW221633   4.471   6.289   3.817
 6912SOL     OW21634   3.373   5.001   0.557
 6912SOL    HW121635   3.297   5.048   0.601
 6912SOL    HW221636   3.459   5.040   0.590
 6913SOL     OW21637   4.746   4.423   4.915
 6913SOL    HW121638   4.815   4.356   4.943
 6913SOL    HW221639   4.788   4.513   4.904
 6914SOL     OW21640   5.436   4.394   6.350
 6914SOL    HW121641   5.378   4.317   6.378
 6914SOL    HW221642   5.493   4.421   6.427
 6915SOL     OW21643   5.973   4.015   1.397
 6915SOL    HW121644   6.006   4.094   1.448
 6915SOL    HW221645   6.042   3.943   1.399
 6916SOL     OW21646   6.357   3.304   0.171
 6916SOL    HW121647   6.425   3.255   0.115
 6916SOL    HW221648   6.322   3.382   0.120
 6917SOL     OW21649   2.991   5.666   1.091
 6917SOL    HW121650   2.972   5.736   1.160
 6917SOL    HW221651   2.944   5.581   1.115
 6918SOL     OW21652   6.864   3.121   4.382
 6918SOL    HW121653   6.853   3.070   4.467
 6918SOL    HW221654   6.883   3.058   4.307
 6919SOL     OW21655   0.108   6.407   2.537
 6919SOL    HW121656   0.171   6.372   2.467
 6919SOL    HW221657   0.160   6.438   2.616
 6920SOL     OW21658   4.918   5.570   5.475
 6920SOL    HW121659   5.011   5.547   5.446
 6920SOL    HW221660   4.873   5.623   5.403
 6921SOL     OW21661   5.517   6.012   3.086
 6921SOL    HW121662   5.485   5.949   3.156
 6921SOL    HW221663   5.439   6.047   3.034
 6922SOL     OW21664   2.056   5.639   6.504
 6922SOL    HW121665   2.137   5.591   6.540
 6922SOL    HW221666   2.072   5.664   6.409
 6923SOL     OW21667   4.981   5.452   3.326
 6923SOL    HW121668   5.058   5.461   3.264
 6923SOL    HW221669   4.920   5.531   3.315
 6924SOL     OW21670   1.716   3.987   7.013
 6924SOL    HW121671   1.781   3.943   6.951
 6924SOL    HW221672   1.639   4.023   6.961
 6925SOL     OW21673   4.121   5.930   4.975
 6925SOL    HW121674   4.126   5.831   4.959
 6925SOL    HW221675   4.036   5.966   4.935
 6926SOL     OW21676   3.281   3.284   1.778
 6926SOL    HW121677   3.371   3.285   1.822
 6926SOL    HW221678   3.292   3.258   1.682
 6927SOL     OW21679   5.545   2.959   6.202
 6927SOL    HW121680   5.449   2.981   6.218
 6927SOL    HW221681   5.598   3.043   6.194
 6928SOL     OW21682   5.997   5.942   0.953
 6928SOL    HW121683   6.097   5.948   0.956
 6928SOL    HW221684   5.963   5.992   0.873
 6929SOL     OW21685   5.185   5.355   1.071
 6929SOL    HW121686   5.103   5.407   1.095
 6929SOL    HW221687   5.247   5.413   1.018
 6930SOL     OW21688   0.246   6.586   2.246
 6930SOL    HW121689   0.206   6.615   2.333
 6930SOL    HW221690   0.318   6.651   2.220
 6931SOL     OW21691   2.079   0.664   2.289
 6931SOL    HW121692   2.107   0.588   2.347
 6931SOL    HW221693   2.042   0.628   2.202
 6932SOL     OW21694   3.628   6.962   0.436
 6932SOL    HW121695   3.647   7.014   0.519
 6932SOL    HW221696   3.690   6.884   0.430
 6933SOL     OW21697   2.964   6.413   4.970
 6933SOL    HW121698   2.922   6.323   4.982
 6933SOL    HW221699   2.893   6.484   4.976
 6934SOL     OW21700   5.071   3.709   6.208
 6934SOL    HW121701   5.045   3.703   6.304
 6934SOL    HW221702   5.150   3.650   6.191
 6935SOL     OW21703   4.373   5.455   3.144
 6935SOL    HW121704   4.403   5.539   3.190
 6935SOL    HW221705   4.337   5.391   3.213
 6936SOL     OW21706   6.294   2.365   3.816
 6936SOL    HW121707   6.296   2.435   3.887
 6936SOL    HW221708   6.338   2.282   3.850
 6937SOL     OW21709   0.173   6.335   0.402
 6937SOL    HW121710   0.260   6.376   0.430
 6937SOL    HW221711   0.175   6.318   0.304
 6938SOL     OW21712   5.351   3.700   5.812
 6938SOL    HW121713   5.300   3.677   5.894
 6938SOL    HW221714   5.449   3.682   5.827
 6939SOL     OW21715   0.525   4.562   1.882
 6939SOL    HW121716   0.537   4.510   1.798
 6939SOL    HW221717   0.615   4.588   1.918
 6940SOL     OW21718   4.344   0.892   0.592
 6940SOL    HW121719   4.363   0.843   0.507
 6940SOL    HW221720   4.410   0.862   0.662
 6941SOL     OW21721   3.007   3.305   2.677
 6941SOL    HW121722   3.003   3.260   2.588
 6941SOL    HW221723   3.046   3.242   2.744
 6942SOL     OW21724   5.700   2.327   1.279
 6942SOL    HW121725   5.670   2.375   1.196
 6942SOL    HW221726   5.735   2.394   1.345
 6943SOL     OW21727   4.518   6.235   7.014
 6943SOL    HW121728   4.600   6.198   0.037
 6943SOL    HW221729   4.544   6.301   6.944
 6944SOL     OW21730   1.153   3.632   6.118
 6944SOL    HW121731   1.132   3.649   6.021
 6944SOL    HW221732   1.249   3.650   6.135
 6945SOL     OW21733   6.895   2.994   6.580
 6945SOL    HW121734   6.945   3.077   6.555
 6945SOL    HW221735   6.804   3.020   6.613
 6946SOL     OW21736   6.306   6.303   1.231
 6946SOL    HW121737   6.376   6.281   1.163
 6946SOL    HW221738   6.306   6.402   1.248
 6947SOL     OW21739   3.670   6.512   5.792
 6947SOL    HW121740   3.642   6.550   5.703
 6947SOL    HW221741   3.663   6.583   5.862
 6948SOL     OW21742   0.255   0.172   6.669
 6948SOL    HW121743   0.213   0.082   6.680
 6948SOL    HW221744   0.254   0.199   6.573
 6949SOL     OW21745   5.184   6.604   3.537
 6949SOL    HW121746   5.161   6.598   3.440
 6949SOL    HW221747   5.104   6.580   3.592
 6950SOL     OW21748   2.547   1.115   4.532
 6950SOL    HW121749   2.454   1.079   4.524
 6950SOL    HW221750   2.559   1.157   4.621
 6951SOL     OW21751   6.496   5.886   5.525
 6951SOL    HW121752   6.552   5.967   5.543
 6951SOL    HW221753   6.497   5.866   5.427
 6952SOL     OW21754   0.340   5.677   3.441
 6952SOL    HW121755   0.360   5.668   3.344
 6952SOL    HW221756   0.424   5.659   3.494
 6953SOL     OW21757   4.758   6.652   0.062
 6953SOL    HW121758   4.798   6.606   7.003
 6953SOL    HW221759   4.706   6.585   0.115
 6954SOL     OW21760   0.502   3.519   3.731
 6954SOL    HW121761   0.528   3.479   3.644
 6954SOL    HW221762   0.429   3.587   3.717
 6955SOL     OW21763   6.264   0.742   2.188
 6955SOL    HW121764   6.360   0.722   2.208
 6955SOL    HW221765   6.256   0.775   2.094
 6956SOL     OW21766   4.705   6.663   3.846
 6956SOL    HW121767   4.719   6.686   3.943
 6956SOL    HW221768   4.632   6.594   3.839
 6957SOL     OW21769   5.944   5.385   0.737
 6957SOL    HW121770   5.995   5.343   0.812
 6957SOL    HW221771   5.992   5.368   0.650
 6958SOL     OW21772   2.933   3.850   4.654
 6958SOL    HW121773   2.922   3.808   4.744
 6958SOL    HW221774   3.021   3.896   4.650
 6959SOL     OW21775   2.015   1.450   4.673
 6959SOL    HW121776   2.049   1.358   4.690
 6959SOL    HW221777   1.998   1.462   4.575
 6960SOL     OW21778   2.135   5.398   1.658
 6960SOL    HW121779   2.181   5.480   1.693
 6960SOL    HW221780   2.197   5.349   1.597
 6961SOL     OW21781   5.879   1.927   4.306
 6961SOL    HW121782   5.797   1.973   4.271
 6961SOL    HW221783   5.953   1.993   4.315
 6962SOL     OW21784   5.437   6.015   1.913
 6962SOL    HW121785   5.418   5.932   1.966
 6962SOL    HW221786   5.382   6.090   1.949
 6963SOL     OW21787   6.257   5.683   1.643
 6963SOL    HW121788   6.290   5.735   1.721
 6963SOL    HW221789   6.248   5.586   1.668
 6964SOL     OW21790   3.753   6.954   4.908
 6964SOL    HW121791   3.659   6.973   4.881
 6964SOL    HW221792   3.773   6.857   4.893
 6965SOL     OW21793   0.606   3.446   0.269
 6965SOL    HW121794   0.615   3.354   0.230
 6965SOL    HW221795   0.610   3.439   0.369
 6966SOL     OW21796   0.012   2.482   3.642
 6966SOL    HW121797   0.010   2.571   3.686
 6966SOL    HW221798   0.024   2.494   3.544
 6967SOL     OW21799   1.363   6.802   5.324
 6967SOL    HW121800   1.276   6.781   5.370
 6967SOL    HW221801   1.406   6.880   5.368
 6968SOL     OW21802   4.489   6.289   2.743
 6968SOL    HW121803   4.436   6.372   2.727
 6968SOL    HW221804   4.481   6.262   2.839
 6969SOL     OW21805   2.433   2.505   1.466
 6969SOL    HW121806   2.442   2.473   1.371
 6969SOL    HW221807   2.480   2.442   1.527
 6970SOL     OW21808   3.127   4.260   5.987
 6970SOL    HW121809   3.218   4.301   5.977
 6970SOL    HW221810   3.137   4.164   6.014
 6971SOL     OW21811   6.177   4.390   1.588
 6971SOL    HW121812   6.209   4.361   1.498
 6971SOL    HW221813   6.239   4.355   1.658
 6972SOL     OW21814   5.564   4.430   3.245
 6972SOL    HW121815   5.646   4.476   3.279
 6972SOL    HW221816   5.506   4.404   3.322
 6973SOL     OW21817   0.461   3.399   5.346
 6973SOL    HW121818   0.482   3.305   5.318
 6973SOL    HW221819   0.364   3.404   5.371
 6974SOL     OW21820   3.071   3.067   2.788
 6974SOL    HW121821   3.046   3.052   2.884
 6974SOL    HW221822   3.137   2.997   2.759
 6975SOL     OW21823   1.905   6.081   6.182
 6975SOL    HW121824   1.915   6.058   6.279
 6975SOL    HW221825   1.960   6.018   6.127
 6976SOL     OW21826   4.582   6.043   5.028
 6976SOL    HW121827   4.676   6.017   5.051
 6976SOL    HW221828   4.561   6.131   5.071
 6977SOL     OW21829   4.403   2.474   1.584
 6977SOL    HW121830   4.415   2.402   1.516
 6977SOL    HW221831   4.437   2.442   1.672
 6978SOL     OW21832   4.030   1.721   2.411
 6978SOL    HW121833   3.954   1.659   2.429
 6978SOL    HW221834   4.033   1.743   2.314
 6979SOL     OW21835   1.507   4.321   1.201
 6979SOL    HW121836   1.596   4.340   1.243
 6979SOL    HW221837   1.484   4.396   1.138
 6980SOL     OW21838   1.210   1.379   3.892
 6980SOL    HW121839   1.299   1.423   3.882
 6980SOL    HW221840   1.213   1.288   3.850
 6981SOL     OW21841   4.007   2.391   5.804
 6981SOL    HW121842   4.065   2.470   5.783
 6981SOL    HW221843   3.911   2.417   5.794
 6982SOL     OW21844   1.558   0.496   4.822
 6982SOL    HW121845   1.467   0.532   4.845
 6982SOL    HW221846   1.554   0.397   4.814
 6983SOL     OW21847   4.289   2.335   3.860
 6983SOL    HW121848   4.257   2.315   3.953
 6983SOL    HW221849   4.318   2.430   3.855
 6984SOL     OW21850   2.428   1.462   3.786
 6984SOL    HW121851   2.458   1.497   3.697
 6984SOL    HW221852   2.507   1.423   3.834
 6985SOL     OW21853   4.398   5.224   1.641
 6985SOL    HW121854   4.407   5.164   1.561
 6985SOL    HW221855   4.356   5.311   1.612
 6986SOL     OW21856   1.638   6.709   6.471
 6986SOL    HW121857   1.574   6.772   6.426
 6986SOL    HW221858   1.628   6.717   6.570
 6987SOL     OW21859   6.825   1.439   6.068
 6987SOL    HW121860   6.810   1.382   6.149
 6987SOL    HW221861   6.905   1.405   6.018
 6988SOL     OW21862   0.373   0.537   5.729
 6988SOL    HW121863   0.283   0.578   5.743
 6988SOL    HW221864   0.390   0.527   5.631
 6989SOL     OW21865   0.447   4.179   2.752
 6989SOL    HW121866   0.523   4.213   2.806
 6989SOL    HW221867   0.481   4.117   2.682
 6990SOL     OW21868   4.838   2.503   1.160
 6990SOL    HW121869   4.903   2.518   1.234
 6990SOL    HW221870   4.770   2.576   1.161
 6991SOL     OW21871   3.483   5.001   3.884
 6991SOL    HW121872   3.407   5.010   3.948
 6991SOL    HW221873   3.473   5.068   3.811
 6992SOL     OW21874   5.126   5.919   6.022
 6992SOL    HW121875   5.140   5.947   6.117
 6992SOL    HW221876   5.147   5.996   5.961
 6993SOL     OW21877   6.396   0.476   3.283
 6993SOL    HW121878   6.460   0.469   3.207
 6993SOL    HW221879   6.387   0.572   3.311
 6994SOL     OW21880   0.109   2.121   4.489
 6994SOL    HW121881   0.081   2.191   4.556
 6994SOL    HW221882   0.190   2.153   4.440
 6995SOL     OW21883   6.757   4.726   5.835
 6995SOL    HW121884   6.660   4.701   5.844
 6995SOL    HW221885   6.808   4.648   5.798
 6996SOL     OW21886   1.667   0.389   6.507
 6996SOL    HW121887   1.644   0.486   6.516
 6996SOL    HW221888   1.587   0.334   6.531
 6997SOL     OW21889   6.030   6.144   5.356
 6997SOL    HW121890   6.004   6.163   5.261
 6997SOL    HW221891   6.067   6.227   5.398
 6998SOL     OW21892   1.595   1.464   1.462
 6998SOL    HW121893   1.586   1.388   1.397
 6998SOL    HW221894   1.642   1.432   1.544
 6999SOL     OW21895   2.281   3.041   5.882
 6999SOL    HW121896   2.261   2.943   5.872
 6999SOL    HW221897   2.270   3.067   5.978
 7000SOL     OW21898   6.206   6.102   1.407
 7000SOL    HW121899   6.254   6.128   1.491
 7000SOL    HW221900   6.233   6.164   1.333
 7001SOL     OW21901   1.961   2.834   5.267
 7001SOL    HW121902   2.056   2.865   5.267
 7001SOL    HW221903   1.919   2.850   5.356
 7002SOL     OW21904   2.115   5.530   3.668
 7002SOL    HW121905   2.134   5.490   3.578
 7002SOL    HW221906   2.140   5.466   3.740
 7003SOL     OW21907   3.724   5.338   0.344
 7003SOL    HW121908   3.819   5.336   0.315
 7003SOL    HW221909   3.667   5.294   0.275
 7004SOL     OW21910   1.303   4.846   2.388
 7004SOL    HW121911   1.293   4.945   2.397
 7004SOL    HW221912   1.305   4.822   2.291
 7005SOL     OW21913   1.205   0.117   0.203
 7005SOL    HW121914   1.146   0.163   0.269
 7005SOL    HW221915   1.273   0.182   0.168
 7006SOL     OW21916   4.783   4.879   3.835
 7006SOL    HW121917   4.823   4.965   3.864
 7006SOL    HW221918   4.844   4.834   3.770
 7007SOL     OW21919   4.856   0.318   3.533
 7007SOL    HW121920   4.923   0.345   3.602
 7007SOL    HW221921   4.789   0.257   3.574
 7008SOL     OW21922   0.799   4.111   4.783
 7008SOL    HW121923   0.851   4.029   4.807
 7008SOL    HW221924   0.735   4.132   4.858
 7009SOL     OW21925   6.008   6.022   1.922
 7009SOL    HW121926   6.007   6.122   1.927
 7009SOL    HW221927   5.915   5.987   1.932
 7010SOL     OW21928   5.186   4.757   4.532
 7010SOL    HW121929   5.112   4.787   4.471
 7010SOL    HW221930   5.274   4.787   4.496
 7011SOL     OW21931   3.882   6.829   6.305
 7011SOL    HW121932   3.899   6.739   6.264
 7011SOL    HW221933   3.810   6.876   6.254
 7012SOL     OW21934   1.642   2.046   1.727
 7012SOL    HW121935   1.691   2.084   1.805
 7012SOL    HW221936   1.706   2.027   1.653
 7013SOL     OW21937   0.600   0.382   0.794
 7013SOL    HW121938   0.637   0.352   0.882
 7013SOL    HW221939   0.528   0.319   0.764
 7014SOL     OW21940   4.188   3.476   1.328
 7014SOL    HW121941   4.258   3.406   1.317
 7014SOL    HW221942   4.130   3.454   1.406
 7015SOL     OW21943   6.044   4.323   2.389
 7015SOL    HW121944   6.001   4.406   2.426
 7015SOL    HW221945   6.035   4.249   2.455
 7016SOL     OW21946   3.499   4.856   1.399
 7016SOL    HW121947   3.592   4.829   1.425
 7016SOL    HW221948   3.435   4.783   1.425
 7017SOL     OW21949   2.876   5.404   2.731
 7017SOL    HW121950   2.840   5.497   2.717
 7017SOL    HW221951   2.961   5.409   2.782
 7018SOL     OW21952   5.668   3.848   4.355
 7018SOL    HW121953   5.713   3.916   4.297
 7018SOL    HW221954   5.570   3.843   4.331
 7019SOL     OW21955   3.046   4.242   6.916
 7019SOL    HW121956   3.136   4.238   6.874
 7019SOL    HW221957   3.038   4.326   6.970
 7020SOL     OW21958   6.019   6.047   6.500
 7020SOL    HW121959   6.016   5.950   6.526
 7020SOL    HW221960   6.114   6.078   6.496
 7021SOL     OW21961   1.640   1.105   6.133
 7021SOL    HW121962   1.559   1.130   6.080
 7021SOL    HW221963   1.675   1.017   6.102
 7022SOL     OW21964   4.609   6.867   6.746
 7022SOL    HW121965   4.540   6.896   6.680
 7022SOL    HW221966   4.565   6.823   6.824
 7023SOL     OW21967   0.317   1.412   3.865
 7023SOL    HW121968   0.376   1.430   3.944
 7023SOL    HW221969   0.311   1.494   3.808
 7024SOL     OW21970   2.439   3.766   5.333
 7024SOL    HW121971   2.428   3.844   5.272
 7024SOL    HW221972   2.519   3.779   5.391
 7025SOL     OW21973   2.516   1.094   0.060
 7025SOL    HW121974   2.523   1.033   7.002
 7025SOL    HW221975   2.437   1.068   0.115
 7026SOL     OW21976   3.522   2.029   1.830
 7026SOL    HW121977   3.581   2.087   1.886
 7026SOL    HW221978   3.492   1.950   1.884
 7027SOL     OW21979   2.665   4.964   4.418
 7027SOL    HW121980   2.578   4.914   4.420
 7027SOL    HW221981   2.738   4.901   4.391
 7028SOL     OW21982   4.198   0.979   4.175
 7028SOL    HW121983   4.158   1.043   4.108
 7028SOL    HW221984   4.135   0.903   4.190
 7029SOL     OW21985   5.103   4.511   5.476
 7029SOL    HW121986   5.092   4.609   5.491
 7029SOL    HW221987   5.196   4.492   5.444
 7030SOL     OW21988   1.175   1.652   5.446
 7030SOL    HW121989   1.156   1.747   5.419
 7030SOL    HW221990   1.098   1.594   5.420
 7031SOL     OW21991   2.550   6.185   5.320
 7031SOL    HW121992   2.622   6.246   5.350
 7031SOL    HW221993   2.461   6.226   5.339
 7032SOL     OW21994   3.452   0.750   2.814
 7032SOL    HW121995   3.475   0.730   2.909
 7032SOL    HW221996   3.395   0.832   2.810
 7033SOL     OW21997   1.617   2.454   3.464
 7033SOL    HW121998   1.535   2.503   3.493
 7033SOL    HW221999   1.595   2.396   3.385
 7034SOL     OW22000   5.783   0.440   3.368
 7034SOL    HW122001   5.703   0.399   3.323
 7034SOL    HW222002   5.856   0.452   3.302
 7035SOL     OW22003   1.934   6.768   1.638
 7035SOL    HW122004   1.983   6.694   1.593
 7035SOL    HW222005   1.905   6.739   1.729
 7036SOL     OW22006   0.370   0.789   2.257
 7036SOL    HW122007   0.426   0.850   2.313
 7036SOL    HW222008   0.419   0.703   2.243
 7037SOL     OW22009   2.141   1.102   6.216
 7037SOL    HW122010   2.134   1.074   6.312
 7037SOL    HW222011   2.227   1.070   6.178
 7038SOL     OW22012   2.112   3.425   5.303
 7038SOL    HW122013   2.179   3.364   5.260
 7038SOL    HW222014   2.146   3.519   5.303
 7039SOL     OW22015   2.971   4.725   1.449
 7039SOL    HW122016   2.950   4.688   1.358
 7039SOL    HW222017   2.984   4.651   1.514
 7040SOL     OW22018   6.474   1.908   4.865
 7040SOL    HW122019   6.494   1.937   4.771
 7040SOL    HW222020   6.435   1.985   4.916
 7041SOL     OW22021   6.851   1.768   2.061
 7041SOL    HW122022   6.813   1.684   2.098
 7041SOL    HW222023   6.944   1.781   2.096
 7042SOL     OW22024   4.896   4.446   5.304
 7042SOL    HW122025   4.940   4.461   5.216
 7042SOL    HW222026   4.953   4.482   5.377
 7043SOL     OW22027   2.132   3.362   2.599
 7043SOL    HW122028   2.153   3.285   2.539
 7043SOL    HW222029   2.126   3.446   2.545
 7044SOL     OW22030   4.366   4.599   3.515
 7044SOL    HW122031   4.373   4.573   3.419
 7044SOL    HW222032   4.280   4.648   3.531
 7045SOL     OW22033   5.536   5.318   3.185
 7045SOL    HW122034   5.470   5.298   3.257
 7045SOL    HW222035   5.498   5.294   3.096
 7046SOL     OW22036   3.203   1.196   3.136
 7046SOL    HW122037   3.133   1.227   3.200
 7046SOL    HW222038   3.184   1.232   3.045
 7047SOL     OW22039   6.901   2.321   2.116
 7047SOL    HW122040   6.964   2.361   2.183
 7047SOL    HW222041   6.921   2.223   2.107
 7048SOL     OW22042   5.755   6.003   2.534
 7048SOL    HW122043   5.717   5.995   2.626
 7048SOL    HW222044   5.854   5.995   2.537
 7049SOL     OW22045   3.687   1.576   0.792
 7049SOL    HW122046   3.683   1.497   0.853
 7049SOL    HW222047   3.631   1.650   0.829
 7050SOL     OW22048   4.049   3.790   2.062
 7050SOL    HW122049   4.053   3.700   2.019
 7050SOL    HW222050   4.052   3.780   2.161
 7051SOL     OW22051   0.117   6.936   2.093
 7051SOL    HW122052   0.051   6.914   2.165
 7051SOL    HW222053   0.074   6.925   2.004
 7052SOL     OW22054   5.605   2.577   3.376
 7052SOL    HW122055   5.594   2.551   3.280
 7052SOL    HW222056   5.621   2.495   3.431
 7053SOL     OW22057   0.838   3.365   5.173
 7053SOL    HW122058   0.815   3.320   5.086
 7053SOL    HW222059   0.822   3.464   5.164
 7054SOL     OW22060   0.640   6.865   0.397
 7054SOL    HW122061   0.691   6.831   0.476
 7054SOL    HW222062   0.576   6.795   0.366
 7055SOL     OW22063   2.761   0.040   5.431
 7055SOL    HW122064   2.792   0.135   5.437
 7055SOL    HW222065   2.798   7.008   5.508
 7056SOL     OW22066   6.992   5.550   1.859
 7056SOL    HW122067   0.034   5.526   1.784
 7056SOL    HW222068   6.971   5.468   1.913
 7057SOL     OW22069   1.238   5.884   3.786
 7057SOL    HW122070   1.221   5.964   3.842
 7057SOL    HW222071   1.315   5.901   3.724
 7058SOL     OW22072   6.071   4.920   5.990
 7058SOL    HW122073   6.048   4.861   6.067
 7058SOL    HW222074   6.028   5.010   6.002
 7059SOL     OW22075   0.117   0.821   4.002
 7059SOL    HW122076   0.146   0.910   3.968
 7059SOL    HW222077   0.040   0.832   4.065
 7060SOL     OW22078   4.328   0.345   1.777
 7060SOL    HW122079   4.417   0.299   1.782
 7060SOL    HW222080   4.311   0.393   1.864
 7061SOL     OW22081   0.599   3.148   3.181
 7061SOL    HW122082   0.500   3.146   3.174
 7061SOL    HW222083   0.630   3.077   3.244
 7062SOL     OW22084   4.195   1.378   5.255
 7062SOL    HW122085   4.224   1.284   5.273
 7062SOL    HW222086   4.130   1.407   5.325
 7063SOL     OW22087   1.240   0.247   1.512
 7063SOL    HW122088   1.277   0.299   1.590
 7063SOL    HW222089   1.203   0.161   1.546
 7064SOL     OW22090   3.741   2.067   1.224
 7064SOL    HW122091   3.732   2.153   1.174
 7064SOL    HW222092   3.775   2.086   1.316
 7065SOL     OW22093   4.013   4.057   5.994
 7065SOL    HW122094   4.095   4.035   6.047
 7065SOL    HW222095   3.956   3.975   5.988
 7066SOL     OW22096   4.744   0.444   0.524
 7066SOL    HW122097   4.675   0.415   0.457
 7066SOL    HW222098   4.809   0.370   0.540
 7067SOL     OW22099   2.033   2.443   4.940
 7067SOL    HW122100   2.020   2.460   4.843
 7067SOL    HW222101   2.112   2.382   4.953
 7068SOL     OW22102   0.276   4.507   4.135
 7068SOL    HW122103   0.337   4.470   4.204
 7068SOL    HW222104   0.310   4.484   4.044
 7069SOL     OW22105   5.377   1.205   4.799
 7069SOL    HW122106   5.474   1.212   4.824
 7069SOL    HW222107   5.358   1.268   4.724
 7070SOL     OW22108   6.780   6.217   4.617
 7070SOL    HW122109   6.825   6.210   4.528
 7070SOL    HW222110   6.742   6.309   4.628
 7071SOL     OW22111   2.455   5.689   6.390
 7071SOL    HW122112   2.497   5.601   6.372
 7071SOL    HW222113   2.524   5.752   6.426
 7072SOL     OW22114   1.434   6.153   0.008
 7072SOL    HW122115   1.375   6.188   6.955
 7072SOL    HW222116   1.381   6.091   0.066
 7073SOL     OW22117   4.574   6.732   4.820
 7073SOL    HW122118   4.474   6.726   4.826
 7073SOL    HW222119   4.600   6.823   4.789
 7074SOL     OW22120   4.627   2.500   2.701
 7074SOL    HW122121   4.534   2.463   2.697
 7074SOL    HW222122   4.659   2.519   2.608
 7075SOL     OW22123   1.680   3.954   4.965
 7075SOL    HW122124   1.742   3.922   5.037
 7075SOL    HW222125   1.587   3.960   5.001
 7076SOL     OW22126   6.012   2.022   6.258
 7076SOL    HW122127   6.041   2.033   6.353
 7076SOL    HW222128   6.018   1.926   6.232
 7077SOL     OW22129   2.162   4.819   3.750
 7077SOL    HW122130   2.226   4.818   3.673
 7077SOL    HW222131   2.185   4.745   3.813
 7078SOL     OW22132   0.397   6.767   1.656
 7078SOL    HW122133   0.451   6.778   1.739
 7078SOL    HW222134   0.300   6.771   1.678
 7079SOL     OW22135   6.768   6.107   3.886
 7079SOL    HW122136   6.687   6.152   3.925
 7079SOL    HW222137   6.847   6.124   3.945
 7080SOL     OW22138   3.196   1.452   4.657
 7080SOL    HW122139   3.234   1.531   4.609
 7080SOL    HW222140   3.227   1.453   4.752
 7081SOL     OW22141   3.263   6.884   6.874
 7081SOL    HW122142   3.254   6.812   6.942
 7081SOL    HW222143   3.268   6.844   6.783
 7082SOL     OW22144   6.636   4.011   6.704
 7082SOL    HW122145   6.573   4.038   6.777
 7082SOL    HW222146   6.640   4.084   6.636
 7083SOL     OW22147   2.946   0.112   0.665
 7083SOL    HW122148   3.014   0.145   0.730
 7083SOL    HW222149   2.969   0.144   0.573
 7084SOL     OW22150   0.159   6.049   5.524
 7084SOL    HW122151   0.179   6.142   5.555
 7084SOL    HW222152   0.190   5.983   5.593
 7085SOL     OW22153   0.967   1.747   1.927
 7085SOL    HW122154   1.015   1.663   1.903
 7085SOL    HW222155   0.968   1.759   2.026
 7086SOL     OW22156   5.249   0.509   5.479
 7086SOL    HW122157   5.264   0.521   5.381
 7086SOL    HW222158   5.336   0.489   5.524
 7087SOL     OW22159   5.990   3.479   4.188
 7087SOL    HW122160   5.920   3.460   4.119
 7087SOL    HW222161   6.071   3.518   4.144
 7088SOL     OW22162   5.631   2.777   3.579
 7088SOL    HW122163   5.566   2.749   3.649
 7088SOL    HW222164   5.658   2.697   3.525
 7089SOL     OW22165   2.806   2.292   4.599
 7089SOL    HW122166   2.717   2.337   4.605
 7089SOL    HW222167   2.862   2.317   4.678
 7090SOL     OW22168   2.082   0.659   6.879
 7090SOL    HW122169   2.164   0.633   6.828
 7090SOL    HW222170   2.003   0.661   6.818
 7091SOL     OW22171   0.634   1.640   0.036
 7091SOL    HW122172   0.557   1.643   6.992
 7091SOL    HW222173   0.624   1.560   0.096
 7092SOL     OW22174   4.256   2.919   5.816
 7092SOL    HW122175   4.248   2.894   5.912
 7092SOL    HW222176   4.170   2.899   5.769
 7093SOL     OW22177   2.932   3.765   3.056
 7093SOL    HW122178   2.954   3.838   2.992
 7093SOL    HW222179   2.992   3.686   3.040
 7094SOL     OW22180   6.605   6.101   5.662
 7094SOL    HW122181   6.653   6.056   5.737
 7094SOL    HW222182   6.512   6.123   5.691
 7095SOL     OW22183   3.867   4.307   6.017
 7095SOL    HW122184   3.852   4.317   5.918
 7095SOL    HW222185   3.943   4.244   6.033
 7096SOL     OW22186   6.423   0.257   3.637
 7096SOL    HW122187   6.370   0.238   3.720
 7096SOL    HW222188   6.454   0.352   3.638
 7097SOL     OW22189   5.837   2.079   1.296
 7097SOL    HW122190   5.808   2.175   1.299
 7097SOL    HW222191   5.849   2.045   1.389
 7098SOL     OW22192   1.487   5.898   5.431
 7098SOL    HW122193   1.506   5.820   5.490
 7098SOL    HW222194   1.422   5.871   5.361
 7099SOL     OW22195   3.554   1.033   5.406
 7099SOL    HW122196   3.482   1.057   5.342
 7099SOL    HW222197   3.589   1.116   5.450
 7100SOL     OW22198   5.603   3.105   0.750
 7100SOL    HW122199   5.603   3.061   0.660
 7100SOL    HW222200   5.544   3.053   0.812
 7101SOL     OW22201   1.803   0.641   4.801
 7101SOL    HW122202   1.851   0.601   4.723
 7101SOL    HW222203   1.706   0.615   4.798
 7102SOL     OW22204   5.618   6.542   0.655
 7102SOL    HW122205   5.617   6.534   0.556
 7102SOL    HW222206   5.697   6.492   0.692
 7103SOL     OW22207   4.646   4.776   2.112
 7103SOL    HW122208   4.719   4.744   2.052
 7103SOL    HW222209   4.639   4.714   2.190
 7104SOL     OW22210   0.118   2.770   4.141
 7104SOL    HW122211   0.086   2.703   4.074
 7104SOL    HW222212   0.065   2.760   4.226
 7105SOL     OW22213   2.802   3.480   5.567
 7105SOL    HW122214   2.775   3.548   5.635
 7105SOL    HW222215   2.741   3.401   5.571
 7106SOL     OW22216   4.131   3.535   2.981
 7106SOL    HW122217   4.156   3.479   2.902
 7106SOL    HW222218   4.144   3.482   3.065
 7107SOL     OW22219   4.587   0.904   0.767
 7107SOL    HW122220   4.593   0.983   0.828
 7107SOL    HW222221   4.585   0.935   0.672
 7108SOL     OW22222   4.038   5.922   2.777
 7108SOL    HW122223   3.964   5.859   2.754
 7108SOL    HW222224   4.070   5.967   2.693
 7109SOL     OW22225   2.835   0.596   6.180
 7109SOL    HW122226   2.741   0.587   6.148
 7109SOL    HW222227   2.896   0.548   6.117
 7110SOL     OW22228   2.925   5.805   4.314
 7110SOL    HW122229   2.992   5.879   4.312
 7110SOL    HW222230   2.907   5.773   4.221
 7111SOL     OW22231   1.377   2.925   4.873
 7111SOL    HW122232   1.345   3.016   4.846
 7111SOL    HW222233   1.413   2.930   4.967
 7112SOL     OW22234   1.475   4.609   4.575
 7112SOL    HW122235   1.385   4.635   4.541
 7112SOL    HW222236   1.512   4.683   4.632
 7113SOL     OW22237   4.061   3.783   4.844
 7113SOL    HW122238   3.988   3.837   4.885
 7113SOL    HW222239   4.094   3.716   4.911
 7114SOL     OW22240   4.970   6.231   1.480
 7114SOL    HW122241   4.896   6.197   1.421
 7114SOL    HW222242   4.957   6.198   1.573
 7115SOL     OW22243   5.390   3.210   1.231
 7115SOL    HW122244   5.329   3.231   1.155
 7115SOL    HW222245   5.358   3.129   1.278
 7116SOL     OW22246   6.399   4.020   3.566
 7116SOL    HW122247   6.363   3.977   3.483
 7116SOL    HW222248   6.380   4.118   3.564
 7117SOL     OW22249   0.074   6.405   5.362
 7117SOL    HW122250   0.123   6.449   5.287
 7117SOL    HW222251   0.139   6.375   5.432
 7118SOL     OW22252   2.882   4.420   0.638
 7118SOL    HW122253   2.909   4.401   0.732
 7118SOL    HW222254   2.906   4.342   0.580
 7119SOL     OW22255   5.046   2.405   3.659
 7119SOL    HW122256   5.050   2.336   3.731
 7119SOL    HW222257   5.003   2.488   3.695
 7120SOL     OW22258   3.701   1.628   2.244
 7120SOL    HW122259   3.727   1.672   2.158
 7120SOL    HW222260   3.611   1.661   2.273
 7121SOL     OW22261   0.797   0.213   3.397
 7121SOL    HW122262   0.767   0.124   3.431
 7121SOL    HW222263   0.861   0.201   3.321
 7122SOL     OW22264   1.295   0.082   5.358
 7122SOL    HW122265   1.369   0.127   5.309
 7122SOL    HW222266   1.301   0.103   5.456
 7123SOL     OW22267   1.762   4.174   2.879
 7123SOL    HW122268   1.729   4.235   2.951
 7123SOL    HW222269   1.716   4.085   2.886
 7124SOL     OW22270   6.737   2.103   1.367
 7124SOL    HW122271   6.665   2.054   1.317
 7124SOL    HW222272   6.803   2.037   1.404
 7125SOL     OW22273   0.163   6.690   1.054
 7125SOL    HW122274   0.179   6.666   1.150
 7125SOL    HW222275   0.231   6.759   1.026
 7126SOL     OW22276   3.574   4.920   0.365
 7126SOL    HW122277   3.636   4.870   0.425
 7126SOL    HW222278   3.509   4.972   0.420
 7127SOL     OW22279   1.715   4.735   5.619
 7127SOL    HW122280   1.712   4.781   5.707
 7127SOL    HW222281   1.801   4.758   5.573
 7128SOL     OW22282   2.461   5.171   0.020
 7128SOL    HW122283   2.403   5.125   6.972
 7128SOL    HW222284   2.555   5.139   0.011
 7129SOL     OW22285   2.339   2.036   6.972
 7129SOL    HW122286   2.280   2.011   6.895
 7129SOL    HW222287   2.371   1.952   7.017
 7130SOL     OW22288   4.451   5.415   4.970
 7130SOL    HW122289   4.449   5.345   4.898
 7130SOL    HW222290   4.412   5.500   4.935
 7131SOL     OW22291   2.863   0.235   1.087
 7131SOL    HW122292   2.820   0.151   1.120
 7131SOL    HW222293   2.900   0.286   1.165
 7132SOL     OW22294   4.153   4.461   6.966
 7132SOL    HW122295   4.065   4.484   6.924
 7132SOL    HW222296   4.157   4.497   0.039
 7133SOL     OW22297   5.155   5.929   6.291
 7133SOL    HW122298   5.208   5.939   6.375
 7133SOL    HW222299   5.119   5.835   6.286
 7134SOL     OW22300   5.223   0.033   1.939
 7134SOL    HW122301   5.283   7.017   2.010
 7134SOL    HW222302   5.197   0.127   1.961
 7135SOL     OW22303   1.617   2.652   3.002
 7135SOL    HW122304   1.669   2.706   2.936
 7135SOL    HW222305   1.619   2.697   3.091
 7136SOL     OW22306   2.350   2.853   1.276
 7136SOL    HW122307   2.293   2.789   1.225
 7136SOL    HW222308   2.443   2.818   1.282
 7137SOL     OW22309   4.103   0.244   6.461
 7137SOL    HW122310   4.056   0.281   6.381
 7137SOL    HW222311   4.064   0.155   6.484
 7138SOL     OW22312   2.320   2.232   0.480
 7138SOL    HW122313   2.226   2.257   0.458
 7138SOL    HW222314   2.379   2.311   0.464
 7139SOL     OW22315   5.746   4.201   1.403
 7139SOL    HW122316   5.751   4.243   1.313
 7139SOL    HW222317   5.829   4.223   1.455
 7140SOL     OW22318   6.566   3.439   2.951
 7140SOL    HW122319   6.593   3.460   3.045
 7140SOL    HW222320   6.497   3.367   2.951
 7141SOL     OW22321   3.710   6.338   1.135
 7141SOL    HW122322   3.671   6.372   1.221
 7141SOL    HW222323   3.649   6.270   1.095
 7142SOL     OW22324   4.336   0.267   3.319
 7142SOL    HW122325   4.312   0.345   3.377
 7142SOL    HW222326   4.296   0.279   3.228
 7143SOL     OW22327   1.454   2.887   5.866
 7143SOL    HW122328   1.526   2.901   5.798
 7143SOL    HW222329   1.366   2.874   5.821
 7144SOL     OW22330   1.692   2.605   2.091
 7144SOL    HW122331   1.720   2.654   2.174
 7144SOL    HW222332   1.655   2.516   2.117
 7145SOL     OW22333   4.559   0.294   0.361
 7145SOL    HW122334   4.559   0.296   0.261
 7145SOL    HW222335   4.621   0.222   0.393
 7146SOL     OW22336   1.963   0.009   0.766
 7146SOL    HW122337   1.864   7.018   0.755
 7146SOL    HW222338   1.983   0.034   0.861
 7147SOL     OW22339   6.869   7.007   2.860
 7147SOL    HW122340   6.793   7.003   2.925
 7147SOL    HW222341   6.918   0.073   2.871
 7148SOL     OW22342   0.456   5.895   1.269
 7148SOL    HW122343   0.384   5.871   1.203
 7148SOL    HW222344   0.491   5.987   1.247
 7149SOL     OW22345   6.115   6.251   3.341
 7149SOL    HW122346   6.215   6.242   3.346
 7149SOL    HW222347   6.076   6.172   3.294
 7150SOL     OW22348   3.143   2.457   1.694
 7150SOL    HW122349   3.067   2.448   1.758
 7150SOL    HW222350   3.220   2.401   1.725
 7151SOL     OW22351   2.710   6.223   0.387
 7151SOL    HW122352   2.758   6.144   0.423
 7151SOL    HW222353   2.764   6.263   0.312
 7152SOL     OW22354   0.733   0.410   5.230
 7152SOL    HW122355   0.725   0.431   5.132
 7152SOL    HW222356   0.781   0.485   5.276
 7153SOL     OW22357   4.024   5.404   1.575
 7153SOL    HW122358   4.093   5.455   1.626
 7153SOL    HW222359   3.962   5.469   1.529
 7154SOL     OW22360   4.291   0.073   3.827
 7154SOL    HW122361   4.381   0.031   3.843
 7154SOL    HW222362   4.227   0.003   3.797
 7155SOL     OW22363   1.843   3.383   1.418
 7155SOL    HW122364   1.814   3.289   1.434
 7155SOL    HW222365   1.834   3.405   1.321
 7156SOL     OW22366   6.568   3.039   4.202
 7156SOL    HW122367   6.549   2.963   4.263
 7156SOL    HW222368   6.667   3.051   4.193
 7157SOL     OW22369   0.486   3.488   1.445
 7157SOL    HW122370   0.535   3.569   1.476
 7157SOL    HW222371   0.502   3.474   1.347
 7158SOL     OW22372   1.344   0.147   4.088
 7158SOL    HW122373   1.315   0.241   4.070
 7158SOL    HW222374   1.422   0.123   4.028
 7159SOL     OW22375   0.194   4.949   2.310
 7159SOL    HW122376   0.187   4.950   2.211
 7159SOL    HW222377   0.284   4.983   2.338
 7160SOL     OW22378   5.549   0.148   2.889
 7160SOL    HW122379   5.503   0.214   2.831
 7160SOL    HW222380   5.637   0.184   2.918
 7161SOL     OW22381   3.169   4.105   4.097
 7161SOL    HW122382   3.110   4.064   4.028
 7161SOL    HW222383   3.127   4.093   4.188
 7162SOL     OW22384   1.080   5.123   6.322
 7162SOL    HW122385   1.135   5.059   6.376
 7162SOL    HW222386   1.103   5.217   6.348
 7163SOL     OW22387   3.098   6.513   2.337
 7163SOL    HW122388   3.140   6.599   2.366
 7163SOL    HW222389   3.062   6.465   2.417
 7164SOL     OW22390   2.523   0.297   4.073
 7164SOL    HW122391   2.480   0.385   4.053
 7164SOL    HW222392   2.597   0.310   4.138
 7165SOL     OW22393   6.272   0.994   2.971
 7165SOL    HW122394   6.236   0.974   2.880
 7165SOL    HW222395   6.300   1.090   2.976
 7166SOL     OW22396   5.309   2.036   1.023
 7166SOL    HW122397   5.234   2.018   1.087
 7166SOL    HW222398   5.306   2.132   0.995
 7167SOL     OW22399   5.470   3.419   4.002
 7167SOL    HW122400   5.380   3.399   4.042
 7167SOL    HW222401   5.463   3.498   3.942
 7168SOL     OW22402   1.393   2.812   3.120
 7168SOL    HW122403   1.383   2.827   3.021
 7168SOL    HW222404   1.333   2.875   3.169
 7169SOL     OW22405   0.598   2.729   5.438
 7169SOL    HW122406   0.526   2.735   5.508
 7169SOL    HW222407   0.687   2.733   5.483
 7170SOL     OW22408   4.526   0.338   3.992
 7170SOL    HW122409   4.608   0.387   3.962
 7170SOL    HW222410   4.486   0.386   4.070
 7171SOL     OW22411   5.833   3.642   0.293
 7171SOL    HW122412   5.891   3.591   0.231
 7171SOL    HW222413   5.807   3.729   0.250
 7172SOL     OW22414   1.046   6.780   4.535
 7172SOL    HW122415   1.138   6.761   4.569
 7172SOL    HW222416   1.040   6.874   4.503
 7173SOL     OW22417   6.544   4.222   6.178
 7173SOL    HW122418   6.463   4.277   6.200
 7173SOL    HW222419   6.600   4.271   6.112
 7174SOL     OW22420   1.610   4.107   0.373
 7174SOL    HW122421   1.622   4.010   0.352
 7174SOL    HW222422   1.599   4.158   0.288
 7175SOL     OW22423   5.659   2.950   6.612
 7175SOL    HW122424   5.623   2.857   6.625
 7175SOL    HW222425   5.589   3.016   6.639
 7176SOL     OW22426   0.027   0.478   3.059
 7176SOL    HW122427   6.962   0.505   3.103
 7176SOL    HW222428   0.072   0.559   3.022
 7177SOL     OW22429   1.608   4.806   4.756
 7177SOL    HW122430   1.527   4.866   4.753
 7177SOL    HW222431   1.622   4.774   4.850
 7178SOL     OW22432   1.373   1.739   5.669
 7178SOL    HW122433   1.405   1.683   5.746
 7178SOL    HW222434   1.281   1.773   5.689
 7179SOL     OW22435   1.965   3.823   4.622
 7179SOL    HW122436   2.026   3.796   4.547
 7179SOL    HW222437   2.017   3.826   4.707
 7180SOL     OW22438   2.105   5.308   0.544
 7180SOL    HW122439   2.141   5.216   0.529
 7180SOL    HW222440   2.156   5.374   0.489
 7181SOL     OW22441   2.215   6.868   0.157
 7181SOL    HW122442   2.179   6.877   0.064
 7181SOL    HW222443   2.304   6.913   0.163
 7182SOL     OW22444   0.472   2.630   4.673
 7182SOL    HW122445   0.489   2.652   4.769
 7182SOL    HW222446   0.380   2.592   4.664
 7183SOL     OW22447   2.370   6.028   0.633
 7183SOL    HW122448   2.411   6.062   0.547
 7183SOL    HW222449   2.279   6.067   0.644
 7184SOL     OW22450   6.794   0.950   3.629
 7184SOL    HW122451   6.792   1.024   3.696
 7184SOL    HW222452   6.876   0.959   3.572
 7185SOL     OW22453   5.776   0.161   4.960
 7185SOL    HW122454   5.838   0.198   5.028
 7185SOL    HW222455   5.682   0.186   4.983
 7186SOL     OW22456   6.896   1.754   0.600
 7186SOL    HW122457   6.958   1.829   0.577
 7186SOL    HW222458   6.838   1.782   0.677
 7187SOL     OW22459   4.187   4.853   6.545
 7187SOL    HW122460   4.174   4.789   6.621
 7187SOL    HW222461   4.217   4.802   6.464
 7188SOL     OW22462   5.924   0.883   0.352
 7188SOL    HW122463   5.909   0.853   0.258
 7188SOL    HW222464   5.880   0.819   0.415
 7189SOL     OW22465   0.182   1.038   5.673
 7189SOL    HW122466   0.154   1.068   5.764
 7189SOL    HW222467   0.103   0.999   5.625
 7190SOL     OW22468   0.427   3.251   2.418
 7190SOL    HW122469   0.339   3.230   2.376
 7190SOL    HW222470   0.479   3.312   2.358
 7191SOL     OW22471   0.832   4.454   2.979
 7191SOL    HW122472   0.826   4.449   3.079
 7191SOL    HW222473   0.796   4.543   2.948
 7192SOL     OW22474   2.763   4.125   6.074
 7192SOL    HW122475   2.670   4.119   6.036
 7192SOL    HW222476   2.803   4.213   6.050
 7193SOL     OW22477   0.544   2.570   2.453
 7193SOL    HW122478   0.570   2.581   2.357
 7193SOL    HW222479   0.542   2.660   2.497
 7194SOL     OW22480   2.879   2.332   0.184
 7194SOL    HW122481   2.862   2.248   0.132
 7194SOL    HW222482   2.797   2.355   0.237
 7195SOL     OW22483   0.530   3.863   6.393
 7195SOL    HW122484   0.572   3.950   6.417
 7195SOL    HW222485   0.595   3.809   6.339
 7196SOL     OW22486   2.944   4.188   1.223
 7196SOL    HW122487   2.916   4.141   1.140
 7196SOL    HW222488   2.870   4.184   1.290
 7197SOL     OW22489   0.320   2.332   6.359
 7197SOL    HW122490   0.272   2.329   6.271
 7197SOL    HW222491   0.328   2.428   6.388
 7198SOL     OW22492   6.800   0.531   0.794
 7198SOL    HW122493   6.894   0.502   0.778
 7198SOL    HW222494   6.784   0.618   0.747
 7199SOL     OW22495   2.082   0.908   2.169
 7199SOL    HW122496   2.177   0.936   2.162
 7199SOL    HW222497   2.070   0.851   2.250
 7200SOL     OW22498   2.430   2.233   6.545
 7200SOL    HW122499   2.369   2.207   6.620
 7200SOL    HW222500   2.397   2.318   6.503
 7201SOL     OW22501   0.816   5.474   4.646
 7201SOL    HW122502   0.836   5.486   4.743
 7201SOL    HW222503   0.901   5.476   4.594
 7202SOL     OW22504   5.252   0.065   0.095
 7202SOL    HW122505   5.184   0.135   0.119
 7202SOL    HW222506   5.209   6.995   0.099
 7203SOL     OW22507   0.258   2.043   0.906
 7203SOL    HW122508   0.259   2.063   0.809
 7203SOL    HW222509   0.347   2.068   0.947
 7204SOL     OW22510   0.564   0.132   5.663
 7204SOL    HW122511   0.496   0.133   5.590
 7204SOL    HW222512   0.654   0.153   5.626
 7205SOL     OW22513   0.861   4.893   3.936
 7205SOL    HW122514   0.879   4.861   4.029
 7205SOL    HW222515   0.933   4.956   3.908
 7206SOL     OW22516   1.282   0.430   1.735
 7206SOL    HW122517   1.191   0.427   1.693
 7206SOL    HW222518   1.285   0.365   1.811
 7207SOL     OW22519   3.647   0.219   2.700
 7207SOL    HW122520   3.743   0.247   2.703
 7207SOL    HW222521   3.594   0.287   2.650
 7208SOL     OW22522   4.123   0.079   3.106
 7208SOL    HW122523   4.187   0.152   3.084
 7208SOL    HW222524   4.074   0.102   3.191
 7209SOL     OW22525   3.185   3.557   1.223
 7209SOL    HW122526   3.263   3.536   1.282
 7209SOL    HW222527   3.172   3.482   1.158
 7210SOL     OW22528   4.383   1.293   4.139
 7210SOL    HW122529   4.363   1.261   4.047
 7210SOL    HW222530   4.340   1.233   4.206
 7211SOL     OW22531   3.233   6.358   4.414
 7211SOL    HW122532   3.280   6.438   4.377
 7211SOL    HW222533   3.158   6.388   4.474
 7212SOL     OW22534   0.413   6.142   4.758
 7212SOL    HW122535   0.415   6.048   4.725
 7212SOL    HW222536   0.493   6.191   4.723
 7213SOL     OW22537   5.337   6.253   0.261
 7213SOL    HW122538   5.386   6.180   0.214
 7213SOL    HW222539   5.321   6.329   0.198
 7214SOL     OW22540   6.253   5.846   5.684
 7214SOL    HW122541   6.348   5.866   5.659
 7214SOL    HW222542   6.194   5.862   5.605
 7215SOL     OW22543   0.033   3.842   5.283
 7215SOL    HW122544   0.009   3.753   5.322
 7215SOL    HW222545   0.132   3.851   5.277
 7216SOL     OW22546   3.246   6.668   0.042
 7216SOL    HW122547   3.188   6.588   0.025
 7216SOL    HW222548   3.342   6.641   0.034
 7217SOL     OW22549   2.158   4.476   3.185
 7217SOL    HW122550   2.253   4.449   3.171
 7217SOL    HW222551   2.097   4.413   3.137
 7218SOL     OW22552   5.500   2.938   5.380
 7218SOL    HW122553   5.543   2.942   5.290
 7218SOL    HW222554   5.402   2.955   5.371
 7219SOL     OW22555   4.461   0.322   3.616
 7219SOL    HW122556   4.383   0.320   3.677
 7219SOL    HW222557   4.436   0.368   3.530
 7220SOL     OW22558   1.170   5.074   5.177
 7220SOL    HW122559   1.145   5.074   5.080
 7220SOL    HW222560   1.234   5.000   5.195
 7221SOL     OW22561   3.377   6.085   4.782
 7221SOL    HW122562   3.376   6.004   4.724
 7221SOL    HW222563   3.468   6.125   4.782
 7222SOL     OW22564   5.873   6.925   2.952
 7222SOL    HW122565   5.838   6.870   3.028
 7222SOL    HW222566   5.882   7.020   2.981
 7223SOL     OW22567   2.909   1.122   1.023
 7223SOL    HW122568   2.966   1.175   1.086
 7223SOL    HW222569   2.821   1.168   1.011
 7224SOL     OW22570   5.739   1.585   3.707
 7224SOL    HW122571   5.784   1.588   3.618
 7224SOL    HW222572   5.767   1.665   3.761
 7225SOL     OW22573   1.104   5.360   0.516
 7225SOL    HW122574   1.144   5.359   0.424
 7225SOL    HW222575   1.172   5.394   0.581
 7226SOL     OW22576   6.801   1.530   1.114
 7226SOL    HW122577   6.747   1.450   1.087
 7226SOL    HW222578   6.845   1.513   1.202
 7227SOL     OW22579   1.679   1.638   0.801
 7227SOL    HW122580   1.746   1.672   0.734
 7227SOL    HW222581   1.708   1.548   0.834
 7228SOL     OW22582   1.135   1.941   2.977
 7228SOL    HW122583   1.226   1.982   2.985
 7228SOL    HW222584   1.069   2.012   2.956
 7229SOL     OW22585   1.432   6.028   5.800
 7229SOL    HW122586   1.336   6.001   5.810
 7229SOL    HW222587   1.477   6.024   5.889
 7230SOL     OW22588   3.853   5.420   4.588
 7230SOL    HW122589   3.860   5.335   4.640
 7230SOL    HW222590   3.766   5.422   4.537
 7231SOL     OW22591   4.071   0.794   6.971
 7231SOL    HW122592   4.062   0.891   6.948
 7231SOL    HW222593   4.147   0.754   6.918
 7232SOL     OW22594   5.292   5.896   3.214
 7232SOL    HW122595   5.193   5.914   3.214
 7232SOL    HW222596   5.313   5.822   3.278
 7233SOL     OW22597   0.590   1.573   4.298
 7233SOL    HW122598   0.625   1.487   4.336
 7233SOL    HW222599   0.611   1.648   4.360
 7234SOL     OW22600   5.415   3.204   3.555
 7234SOL    HW122601   5.489   3.159   3.604
 7234SOL    HW222602   5.438   3.301   3.540
 7235SOL     OW22603   6.607   4.223   2.228
 7235SOL    HW122604   6.680   4.253   2.166
 7235SOL    HW222605   6.548   4.300   2.249
 7236SOL     OW22606   2.148   1.874   1.186
 7236SOL    HW122607   2.176   1.808   1.255
 7236SOL    HW222608   2.141   1.965   1.227
 7237SOL     OW22609   4.302   1.176   4.880
 7237SOL    HW122610   4.284   1.172   4.782
 7237SOL    HW222611   4.279   1.267   4.915
 7238SOL     OW22612   3.791   1.785   1.265
 7238SOL    HW122613   3.779   1.883   1.255
 7238SOL    HW222614   3.827   1.746   1.181
 7239SOL     OW22615   1.263   2.506   3.042
 7239SOL    HW122616   1.294   2.563   2.966
 7239SOL    HW222617   1.321   2.523   3.122
 7240SOL     OW22618   1.685   5.947   6.042
 7240SOL    HW122619   1.751   5.941   6.116
 7240SOL    HW222620   1.596   5.974   6.078
 7241SOL     OW22621   1.731   1.044   0.414
 7241SOL    HW122622   1.690   0.954   0.399
 7241SOL    HW222623   1.826   1.042   0.383
 7242SOL     OW22624   6.779   6.022   0.460
 7242SOL    HW122625   6.681   6.015   0.480
 7242SOL    HW222626   6.794   6.007   0.362
 7243SOL     OW22627   6.282   4.565   6.066
 7243SOL    HW122628   6.315   4.601   5.979
 7243SOL    HW222629   6.183   4.558   6.065
 7244SOL     OW22630   5.961   1.578   1.743
 7244SOL    HW122631   5.892   1.568   1.671
 7244SOL    HW222632   5.958   1.671   1.780
 7245SOL     OW22633   1.278   1.927   4.473
 7245SOL    HW122634   1.214   1.862   4.514
 7245SOL    HW222635   1.233   1.977   4.399
 7246SOL     OW22636   6.778   0.307   4.669
 7246SOL    HW122637   6.841   0.284   4.743
 7246SOL    HW222638   6.772   0.230   4.605
 7247SOL     OW22639   2.486   0.446   4.453
 7247SOL    HW122640   2.466   0.348   4.458
 7247SOL    HW222641   2.410   0.494   4.410
 7248SOL     OW22642   2.234   1.451   3.497
 7248SOL    HW122643   2.329   1.457   3.526
 7248SOL    HW222644   2.230   1.438   3.398
 7249SOL     OW22645   6.516   4.404   2.733
 7249SOL    HW122646   6.575   4.465   2.680
 7249SOL    HW222647   6.449   4.361   2.673
 7250SOL     OW22648   4.805   6.889   6.215
 7250SOL    HW122649   4.750   6.969   6.191
 7250SOL    HW222650   4.870   6.913   6.287
 7251SOL     OW22651   0.641   6.358   5.584
 7251SOL    HW122652   0.565   6.420   5.603
 7251SOL    HW222653   0.606   6.274   5.541
 7252SOL     OW22654   3.579   3.572   2.901
 7252SOL    HW122655   3.590   3.672   2.905
 7252SOL    HW222656   3.629   3.531   2.977
 7253SOL     OW22657   2.638   6.646   6.263
 7253SOL    HW122658   2.572   6.718   6.282
 7253SOL    HW222659   2.591   6.568   6.222
 7254SOL     OW22660   4.475   4.990   3.867
 7254SOL    HW122661   4.383   4.965   3.835
 7254SOL    HW222662   4.476   4.992   3.967
 7255SOL     OW22663   3.454   3.129   0.705
 7255SOL    HW122664   3.420   3.206   0.759
 7255SOL    HW222665   3.542   3.154   0.664
 7256SOL     OW22666   4.086   4.773   4.215
 7256SOL    HW122667   4.040   4.807   4.297
 7256SOL    HW222668   4.185   4.787   4.224
 7257SOL     OW22669   5.698   3.126   3.594
 7257SOL    HW122670   5.732   3.060   3.527
 7257SOL    HW222671   5.693   3.082   3.684
 7258SOL     OW22672   4.196   1.616   3.504
 7258SOL    HW122673   4.180   1.574   3.594
 7258SOL    HW222674   4.211   1.714   3.516
 7259SOL     OW22675   2.700   3.439   0.902
 7259SOL    HW122676   2.622   3.495   0.932
 7259SOL    HW222677   2.667   3.366   0.841
 7260SOL     OW22678   3.391   1.782   1.900
 7260SOL    HW122679   3.367   1.798   1.996
 7260SOL    HW222680   3.473   1.724   1.895
 7261SOL     OW22681   1.374   2.297   1.445
 7261SOL    HW122682   1.284   2.280   1.404
 7261SOL    HW222683   1.398   2.220   1.505
 7262SOL     OW22684   5.154   1.598   5.519
 7262SOL    HW122685   5.063   1.611   5.559
 7262SOL    HW222686   5.221   1.588   5.592
 7263SOL     OW22687   1.008   6.717   0.964
 7263SOL    HW122688   0.991   6.667   1.049
 7263SOL    HW222689   0.984   6.658   0.886
 7264SOL     OW22690   5.648   1.099   6.161
 7264SOL    HW122691   5.664   1.023   6.098
 7264SOL    HW222692   5.625   1.064   6.251
 7265SOL     OW22693   5.504   5.254   5.798
 7265SOL    HW122694   5.502   5.238   5.700
 7265SOL    HW222695   5.579   5.204   5.840
 7266SOL     OW22696   6.014   0.197   1.341
 7266SOL    HW122697   5.964   0.197   1.254
 7266SOL    HW222698   5.950   0.216   1.416
 7267SOL     OW22699   6.479   5.894   5.231
 7267SOL    HW122700   6.390   5.855   5.207
 7267SOL    HW222701   6.465   5.986   5.269
 7268SOL     OW22702   5.122   5.021   3.198
 7268SOL    HW122703   5.196   4.966   3.236
 7268SOL    HW222704   5.156   5.114   3.181
 7269SOL     OW22705   0.362   6.244   0.695
 7269SOL    HW122706   0.452   6.211   0.723
 7269SOL    HW222707   0.374   6.313   0.623
 7270SOL     OW22708   1.061   3.441   5.380
 7270SOL    HW122709   1.091   3.536   5.388
 7270SOL    HW222710   1.021   3.426   5.290
 7271SOL     OW22711   0.146   6.171   3.570
 7271SOL    HW122712   0.194   6.109   3.508
 7271SOL    HW222713   0.204   6.191   3.649
 7272SOL     OW22714   5.495   5.362   2.163
 7272SOL    HW122715   5.526   5.356   2.257
 7272SOL    HW222716   5.511   5.275   2.116
 7273SOL     OW22717   5.714   4.142   1.978
 7273SOL    HW122718   5.725   4.156   1.879
 7273SOL    HW222719   5.801   4.163   2.024
 7274SOL     OW22720   0.792   5.799   7.015
 7274SOL    HW122721   0.846   5.808   0.078
 7274SOL    HW222722   0.852   5.809   6.935
 7275SOL     OW22723   6.698   0.246   2.705
 7275SOL    HW122724   6.742   0.333   2.681
 7275SOL    HW222725   6.662   0.251   2.798
 7276SOL     OW22726   3.598   1.642   2.797
 7276SOL    HW122727   3.602   1.629   2.896
 7276SOL    HW222728   3.585   1.739   2.777
 7277SOL     OW22729   4.485   0.963   4.250
 7277SOL    HW122730   4.388   0.969   4.225
 7277SOL    HW222731   4.510   1.042   4.305
 7278SOL     OW22732   3.222   2.160   1.714
 7278SOL    HW122733   3.279   2.107   1.777
 7278SOL    HW222734   3.131   2.171   1.752
 7279SOL     OW22735   4.331   3.434   6.269
 7279SOL    HW122736   4.306   3.338   6.280
 7279SOL    HW222737   4.270   3.491   6.323
 7280SOL     OW22738   0.482   1.455   4.077
 7280SOL    HW122739   0.457   1.363   4.106
 7280SOL    HW222740   0.515   1.507   4.156
 7281SOL     OW22741   1.835   0.763   0.213
 7281SOL    HW122742   1.827   0.800   0.121
 7281SOL    HW222743   1.773   0.812   0.274
 7282SOL     OW22744   5.827   6.795   1.509
 7282SOL    HW122745   5.849   6.698   1.523
 7282SOL    HW222746   5.851   6.821   1.415
 7283SOL     OW22747   3.666   0.483   1.678
 7283SOL    HW122748   3.733   0.515   1.744
 7283SOL    HW222749   3.576   0.522   1.699
 7284SOL     OW22750   6.978   1.895   5.072
 7284SOL    HW122751   6.982   1.830   4.996
 7284SOL    HW222752   6.933   1.852   5.150
 7285SOL     OW22753   5.818   3.537   1.399
 7285SOL    HW122754   5.799   3.443   1.428
 7285SOL    HW222755   5.745   3.568   1.338
 7286SOL     OW22756   1.093   0.719   1.129
 7286SOL    HW122757   1.109   0.749   1.035
 7286SOL    HW222758   1.180   0.695   1.172
 7287SOL     OW22759   6.448   2.763   4.973
 7287SOL    HW122760   6.466   2.794   5.066
 7287SOL    HW222761   6.486   2.671   4.960
 7288SOL     OW22762   1.425   2.083   1.216
 7288SOL    HW122763   1.457   1.998   1.259
 7288SOL    HW222764   1.446   2.160   1.275
 7289SOL     OW22765   5.806   2.145   3.520
 7289SOL    HW122766   5.814   2.243   3.498
 7289SOL    HW222767   5.889   2.115   3.566
 7290SOL     OW22768   2.234   1.294   5.171
 7290SOL    HW122769   2.170   1.367   5.190
 7290SOL    HW222770   2.210   1.212   5.224
 7291SOL     OW22771   1.797   7.006   0.389
 7291SOL    HW122772   1.764   6.955   0.469
 7291SOL    HW222773   1.897   7.004   0.387
 7292SOL     OW22774   3.280   0.317   3.256
 7292SOL    HW122775   3.370   0.316   3.212
 7292SOL    HW222776   3.260   0.410   3.288
 7293SOL     OW22777   1.184   1.438   5.672
 7293SOL    HW122778   1.251   1.494   5.622
 7293SOL    HW222779   1.137   1.377   5.608
 7294SOL     OW22780   2.941   4.681   0.614
 7294SOL    HW122781   2.869   4.721   0.557
 7294SOL    HW222782   2.928   4.582   0.619
 7295SOL     OW22783   6.724   4.206   0.624
 7295SOL    HW122784   6.740   4.112   0.593
 7295SOL    HW222785   6.626   4.220   0.638
 7296SOL     OW22786   4.323   5.442   1.458
 7296SOL    HW122787   4.405   5.425   1.403
 7296SOL    HW222788   4.259   5.498   1.407
 7297SOL     OW22789   2.921   6.429   1.333
 7297SOL    HW122790   2.846   6.496   1.338
 7297SOL    HW222791   3.006   6.476   1.311
 7298SOL     OW22792   4.635   4.957   6.159
 7298SOL    HW122793   4.683   4.879   6.119
 7298SOL    HW222794   4.690   4.994   6.235
 7299SOL     OW22795   1.203   2.239   0.865
 7299SOL    HW122796   1.147   2.322   0.878
 7299SOL    HW222797   1.282   2.261   0.808
 7300SOL     OW22798   0.712   6.826   2.474
 7300SOL    HW122799   0.653   6.878   2.411
 7300SOL    HW222800   0.805   6.826   2.439
 7301SOL     OW22801   5.651   2.571   5.314
 7301SOL    HW122802   5.559   2.603   5.294
 7301SOL    HW222803   5.717   2.644   5.296
 7302SOL     OW22804   0.116   2.100   6.374
 7302SOL    HW122805   0.062   2.070   6.453
 7302SOL    HW222806   0.063   2.167   6.322
 7303SOL     OW22807   3.708   1.270   6.596
 7303SOL    HW122808   3.719   1.364   6.627
 7303SOL    HW222809   3.624   1.261   6.543
 7304SOL     OW22810   2.962   5.178   1.446
 7304SOL    HW122811   2.886   5.238   1.422
 7304SOL    HW222812   2.931   5.110   1.513
 7305SOL     OW22813   5.220   2.265   1.264
 7305SOL    HW122814   5.296   2.251   1.328
 7305SOL    HW222815   5.256   2.273   1.171
 7306SOL     OW22816   3.616   1.665   1.603
 7306SOL    HW122817   3.711   1.663   1.572
 7306SOL    HW222818   3.584   1.760   1.604
 7307SOL     OW22819   3.806   6.543   2.353
 7307SOL    HW122820   3.849   6.626   2.389
 7307SOL    HW222821   3.813   6.542   2.254
 7308SOL     OW22822   6.561   1.781   4.416
 7308SOL    HW122823   6.479   1.781   4.359
 7308SOL    HW222824   6.637   1.820   4.364
 7309SOL     OW22825   4.157   6.167   1.365
 7309SOL    HW122826   4.189   6.077   1.394
 7309SOL    HW222827   4.109   6.211   1.441
 7310SOL     OW22828   2.206   3.300   0.541
 7310SOL    HW122829   2.139   3.354   0.489
 7310SOL    HW222830   2.163   3.216   0.573
 7311SOL     OW22831   1.863   1.047   0.696
 7311SOL    HW122832   1.914   1.129   0.723
 7311SOL    HW222833   1.816   1.064   0.609
 7312SOL     OW22834   1.075   2.763   4.811
 7312SOL    HW122835   0.984   2.737   4.843
 7312SOL    HW222836   1.132   2.790   4.889
 7313SOL     OW22837   2.021   1.277   0.287
 7313SOL    HW122838   2.061   1.206   0.345
 7313SOL    HW222839   1.950   1.325   0.339
 7314SOL     OW22840   6.887   4.095   5.884
 7314SOL    HW122841   6.950   4.172   5.881
 7314SOL    HW222842   6.885   4.057   5.977
 7315SOL     OW22843   5.039   5.838   1.748
 7315SOL    HW122844   5.135   5.847   1.722
 7315SOL    HW222845   5.008   5.744   1.734
 7316SOL     OW22846   3.226   2.876   6.602
 7316SOL    HW122847   3.196   2.783   6.585
 7316SOL    HW222848   3.234   2.925   6.515
 7317SOL     OW22849   3.885   1.433   1.810
 7317SOL    HW122850   3.879   1.529   1.782
 7317SOL    HW222851   3.940   1.383   1.743
 7318SOL     OW22852   3.146   0.174   1.859
 7318SOL    HW122853   3.175   0.248   1.798
 7318SOL    HW222854   3.063   0.202   1.908
 7319SOL     OW22855   5.695   3.110   0.054
 7319SOL    HW122856   5.650   3.062   0.130
 7319SOL    HW222857   5.718   3.044   7.003
 7320SOL     OW22858   0.253   3.930   1.070
 7320SOL    HW122859   0.316   3.854   1.081
 7320SOL    HW222860   0.200   3.942   1.154
 7321SOL     OW22861   2.322   6.744   5.710
 7321SOL    HW122862   2.272   6.796   5.641
 7321SOL    HW222863   2.258   6.690   5.764
 7322SOL     OW22864   0.071   2.595   3.159
 7322SOL    HW122865   0.085   2.521   3.093
 7322SOL    HW222866   0.034   2.675   3.112
 7323SOL     OW22867   2.163   2.952   1.762
 7323SOL    HW122868   2.155   2.902   1.676
 7323SOL    HW222869   2.201   3.042   1.745
 7324SOL     OW22870   5.828   4.562   2.217
 7324SOL    HW122871   5.822   4.553   2.118
 7324SOL    HW222872   5.924   4.564   2.245
 7325SOL     OW22873   3.021   0.501   5.857
 7325SOL    HW122874   3.010   0.435   5.931
 7325SOL    HW222875   2.944   0.494   5.794
 7326SOL     OW22876   3.753   6.010   5.700
 7326SOL    HW122877   3.735   5.917   5.666
 7326SOL    HW222878   3.701   6.076   5.645
 7327SOL     OW22879   6.149   2.954   5.112
 7327SOL    HW122880   6.051   2.966   5.123
 7327SOL    HW222881   6.178   2.870   5.158
 7328SOL     OW22882   4.695   6.873   5.799
 7328SOL    HW122883   4.626   6.803   5.779
 7328SOL    HW222884   4.767   6.834   5.857
 7329SOL     OW22885   0.973   3.954   0.578
 7329SOL    HW122886   0.885   3.986   0.612
 7329SOL    HW222887   1.033   4.032   0.562
 7330SOL     OW22888   2.402   3.429   0.430
 7330SOL    HW122889   2.460   3.365   0.379
 7330SOL    HW222890   2.332   3.379   0.480
 7331SOL     OW22891   5.491   6.169   1.552
 7331SOL    HW122892   5.478   6.196   1.647
 7331SOL    HW222893   5.410   6.193   1.499
 7332SOL     OW22894   2.903   4.728   6.525
 7332SOL    HW122895   2.882   4.688   6.614
 7332SOL    HW222896   2.954   4.813   6.538
 7333SOL     OW22897   6.330   2.820   3.482
 7333SOL    HW122898   6.388   2.766   3.420
 7333SOL    HW222899   6.302   2.763   3.559
 7334SOL     OW22900   2.144   6.358   6.183
 7334SOL    HW122901   2.179   6.265   6.191
 7334SOL    HW222902   2.093   6.368   6.098
 7335SOL     OW22903   0.435   3.112   2.900
 7335SOL    HW122904   0.435   3.212   2.903
 7335SOL    HW222905   0.346   3.078   2.927
 7336SOL     OW22906   2.323   6.297   2.302
 7336SOL    HW122907   2.391   6.224   2.299
 7336SOL    HW222908   2.354   6.374   2.245
 7337SOL     OW22909   1.945   2.881   1.915
 7337SOL    HW122910   2.022   2.911   1.860
 7337SOL    HW222911   1.906   2.959   1.965
 7338SOL     OW22912   5.804   2.143   1.982
 7338SOL    HW122913   5.788   2.048   2.007
 7338SOL    HW222914   5.820   2.150   1.884
 7339SOL     OW22915   6.113   0.411   5.037
 7339SOL    HW122916   6.070   0.496   5.066
 7339SOL    HW222917   6.050   0.335   5.054
 7340SOL     OW22918   3.923   1.342   0.149
 7340SOL    HW122919   3.868   1.295   0.079
 7340SOL    HW222920   3.892   1.315   0.240
 7341SOL     OW22921   0.933   4.710   4.716
 7341SOL    HW122922   0.852   4.656   4.692
 7341SOL    HW222923   0.979   4.668   4.795
 7342SOL     OW22924   6.965   6.413   6.939
 7342SOL    HW122925   6.906   6.344   6.982
 7342SOL    HW222926   6.926   6.504   6.955
 7343SOL     OW22927   5.323   4.435   1.644
 7343SOL    HW122928   5.313   4.335   1.651
 7343SOL    HW222929   5.382   4.457   1.567
 7344SOL     OW22930   1.480   0.713   5.687
 7344SOL    HW122931   1.562   0.740   5.736
 7344SOL    HW222932   1.402   0.715   5.750
 7345SOL     OW22933   4.982   6.172   5.570
 7345SOL    HW122934   5.012   6.160   5.475
 7345SOL    HW222935   4.978   6.083   5.616
 7346SOL     OW22936   3.804   3.965   1.548
 7346SOL    HW122937   3.706   3.972   1.531
 7346SOL    HW222938   3.850   3.931   1.466
 7347SOL     OW22939   0.669   3.099   0.865
 7347SOL    HW122940   0.760   3.108   0.905
 7347SOL    HW222941   0.604   3.157   0.915
 7348SOL     OW22942   1.287   3.504   3.581
 7348SOL    HW122943   1.294   3.431   3.648
 7348SOL    HW222944   1.377   3.545   3.567
 7349SOL     OW22945   4.517   2.427   0.578
 7349SOL    HW122946   4.566   2.479   0.508
 7349SOL    HW222947   4.511   2.331   0.550
 7350SOL     OW22948   1.552   3.287   5.205
 7350SOL    HW122949   1.583   3.368   5.155
 7350SOL    HW222950   1.632   3.233   5.233
 7351SOL     OW22951   4.682   6.059   5.382
 7351SOL    HW122952   4.590   6.033   5.350
 7351SOL    HW222953   4.746   6.052   5.306
 7352SOL     OW22954   1.663   2.920   2.862
 7352SOL    HW122955   1.577   2.964   2.836
 7352SOL    HW222956   1.691   2.857   2.790
 7353SOL     OW22957   0.320   6.859   6.050
 7353SOL    HW122958   0.290   6.909   6.132
 7353SOL    HW222959   0.404   6.901   6.015
 7354SOL     OW22960   1.194   1.888   0.072
 7354SOL    HW122961   1.128   1.850   0.136
 7354SOL    HW222962   1.280   1.836   0.077
 7355SOL     OW22963   1.345   1.351   0.240
 7355SOL    HW122964   1.361   1.438   0.287
 7355SOL    HW222965   1.421   1.332   0.178
 7356SOL     OW22966   4.201   3.214   5.844
 7356SOL    HW122967   4.268   3.255   5.906
 7356SOL    HW222968   4.206   3.114   5.851
 7357SOL     OW22969   4.612   0.431   1.955
 7357SOL    HW122970   4.589   0.376   1.874
 7357SOL    HW222971   4.611   0.528   1.931
 7358SOL     OW22972   0.525   2.840   2.562
 7358SOL    HW122973   0.598   2.908   2.567
 7358SOL    HW222974   0.440   2.879   2.595
 7359SOL     OW22975   2.686   2.758   6.427
 7359SOL    HW122976   2.601   2.757   6.480
 7359SOL    HW222977   2.669   2.801   6.338
 7360SOL     OW22978   3.439   4.080   6.053
 7360SOL    HW122979   3.341   4.067   6.071
 7360SOL    HW222980   3.453   4.095   5.955
 7361SOL     OW22981   4.510   0.342   2.271
 7361SOL    HW122982   4.559   0.278   2.211
 7361SOL    HW222983   4.566   0.424   2.285
 7362SOL     OW22984   1.249   5.564   4.661
 7362SOL    HW122985   1.182   5.602   4.725
 7362SOL    HW222986   1.293   5.639   4.611
 7363SOL     OW22987   3.965   1.305   1.259
 7363SOL    HW122988   4.014   1.329   1.176
 7363SOL    HW222989   3.882   1.362   1.267
 7364SOL     OW22990   4.694   0.509   1.125
 7364SOL    HW122991   4.658   0.548   1.210
 7364SOL    HW222992   4.713   0.583   1.061
 7365SOL     OW22993   1.508   6.966   1.535
 7365SOL    HW122994   1.562   6.894   1.492
 7365SOL    HW222995   1.468   0.004   1.464
 7366SOL     OW22996   2.132   5.855   6.882
 7366SOL    HW122997   2.071   5.930   6.905
 7366SOL    HW222998   2.185   5.828   6.963
 7367SOL     OW22999   4.591   3.617   1.465
 7367SOL    HW123000   4.543   3.577   1.543
 7367SOL    HW223001   4.626   3.707   1.491
 7368SOL     OW23002   3.781   2.952   3.822
 7368SOL    HW123003   3.823   2.863   3.838
 7368SOL    HW223004   3.841   3.024   3.857
 7369SOL     OW23005   4.347   2.800   6.873
 7369SOL    HW123006   4.446   2.806   6.884
 7369SOL    HW223007   4.320   2.835   6.783
 7370SOL     OW23008   2.783   0.651   4.912
 7370SOL    HW123009   2.778   0.748   4.935
 7370SOL    HW223010   2.823   0.640   4.821
 7371SOL     OW23011   1.909   6.056   3.561
 7371SOL    HW123012   1.887   6.128   3.496
 7371SOL    HW223013   1.845   5.980   3.550
 7372SOL     OW23014   3.592   1.505   5.615
 7372SOL    HW123015   3.675   1.524   5.668
 7372SOL    HW223016   3.575   1.581   5.551
 7373SOL     OW23017   5.481   1.529   4.389
 7373SOL    HW123018   5.472   1.488   4.479
 7373SOL    HW223019   5.575   1.518   4.356
 7374SOL     OW23020   2.878   1.709   6.095
 7374SOL    HW123021   2.959   1.748   6.051
 7374SOL    HW223022   2.898   1.614   6.121
 7375SOL     OW23023   2.061   2.954   2.860
 7375SOL    HW123024   2.151   2.954   2.904
 7375SOL    HW223025   2.037   3.047   2.834
 7376SOL     OW23026   3.638   1.470   0.160
 7376SOL    HW123027   3.544   1.436   0.155
 7376SOL    HW223028   3.691   1.413   0.223
 7377SOL     OW23029   5.510   5.305   1.114
 7377SOL    HW123030   5.504   5.258   1.202
 7377SOL    HW223031   5.456   5.389   1.116
 7378SOL     OW23032   0.825   0.971   5.410
 7378SOL    HW123033   0.792   0.970   5.504
 7378SOL    HW223034   0.920   0.941   5.408
 7379SOL     OW23035   2.918   2.137   2.604
 7379SOL    HW123036   2.934   2.172   2.697
 7379SOL    HW223037   2.897   2.214   2.543
 7380SOL     OW23038   0.414   3.006   5.733
 7380SOL    HW123039   0.408   3.103   5.756
 7380SOL    HW223040   0.506   2.972   5.754
 7381SOL     OW23041   4.897   3.938   1.845
 7381SOL    HW123042   4.839   4.016   1.870
 7381SOL    HW223043   4.988   3.971   1.820
 7382SOL     OW23044   0.147   5.563   6.358
 7382SOL    HW123045   0.202   5.558   6.274
 7382SOL    HW223046   0.081   5.488   6.359
 7383SOL     OW23047   0.899   6.792   1.237
 7383SOL    HW123048   0.935   6.883   1.261
 7383SOL    HW223049   0.815   6.803   1.184
 7384SOL     OW23050   5.502   0.524   3.026
 7384SOL    HW123051   5.574   0.556   3.087
 7384SOL    HW223052   5.507   0.573   2.939
 7385SOL     OW23053   4.427   5.785   1.859
 7385SOL    HW123054   4.488   5.847   1.909
 7385SOL    HW223055   4.479   5.708   1.823
 7386SOL     OW23056   1.002   2.006   5.570
 7386SOL    HW123057   1.095   2.042   5.570
 7386SOL    HW223058   0.959   2.024   5.481
 7387SOL     OW23059   4.514   6.097   4.070
 7387SOL    HW123060   4.485   6.155   4.147
 7387SOL    HW223061   4.460   6.121   3.990
 7388SOL     OW23062   0.100   4.701   2.953
 7388SOL    HW123063   0.028   4.646   2.910
 7388SOL    HW223064   0.110   4.673   3.049
 7389SOL     OW23065   0.546   3.169   6.518
 7389SOL    HW123066   0.596   3.157   6.431
 7389SOL    HW223067   0.611   3.167   6.594
 7390SOL     OW23068   2.066   1.551   0.156
 7390SOL    HW123069   2.106   1.560   0.065
 7390SOL    HW223070   2.078   1.458   0.189
 7391SOL     OW23071   4.477   4.145   5.400
 7391SOL    HW123072   4.558   4.202   5.414
 7391SOL    HW223073   4.485   4.097   5.313
 7392SOL     OW23074   2.485   6.213   6.918
 7392SOL    HW123075   2.394   6.172   6.912
 7392SOL    HW223076   2.477   6.310   6.942
 7393SOL     OW23077   5.444   4.710   1.601
 7393SOL    HW123078   5.398   4.621   1.610
 7393SOL    HW223079   5.421   4.767   1.679
 7394SOL     OW23080   2.985   2.662   5.693
 7394SOL    HW123081   2.915   2.688   5.627
 7394SOL    HW223082   3.038   2.743   5.719
 7395SOL     OW23083   2.397   1.794   0.345
 7395SOL    HW123084   2.309   1.749   0.358
 7395SOL    HW223085   2.425   1.786   0.250
 7396SOL     OW23086   0.863   6.618   0.504
 7396SOL    HW123087   0.958   6.627   0.476
 7396SOL    HW223088   0.813   6.564   0.436
 7397SOL     OW23089   4.286   5.011   4.702
 7397SOL    HW123090   4.277   4.928   4.757
 7397SOL    HW223091   4.240   4.998   4.614
 7398SOL     OW23092   2.427   4.851   4.515
 7398SOL    HW123093   2.437   4.791   4.594
 7398SOL    HW223094   2.396   4.798   4.436
 7399SOL     OW23095   1.363   2.410   5.673
 7399SOL    HW123096   1.264   2.397   5.680
 7399SOL    HW223097   1.384   2.451   5.584
 7400SOL     OW23098   3.971   3.248   6.029
 7400SOL    HW123099   4.030   3.283   5.956
 7400SOL    HW223100   3.964   3.315   6.102
 7401SOL     OW23101   1.570   0.618   4.475
 7401SOL    HW123102   1.548   0.556   4.400
 7401SOL    HW223103   1.574   0.567   4.561
 7402SOL     OW23104   3.249   5.847   6.063
 7402SOL    HW123105   3.281   5.762   6.020
 7402SOL    HW223106   3.154   5.836   6.092
 7403SOL     OW23107   2.152   3.905   2.547
 7403SOL    HW123108   2.054   3.923   2.555
 7403SOL    HW223109   2.200   3.946   2.624
 7404SOL     OW23110   2.358   5.357   1.068
 7404SOL    HW123111   2.298   5.434   1.046
 7404SOL    HW223112   2.303   5.276   1.089
 7405SOL     OW23113   3.730   4.975   4.021
 7405SOL    HW123114   3.649   4.965   3.965
 7405SOL    HW223115   3.706   4.963   4.118
 7406SOL     OW23116   0.769   3.336   3.188
 7406SOL    HW123117   0.694   3.270   3.180
 7406SOL    HW223118   0.777   3.365   3.283
 7407SOL     OW23119   0.298   6.398   4.786
 7407SOL    HW123120   0.327   6.327   4.723
 7407SOL    HW223121   0.236   6.358   4.854
 7408SOL     OW23122   1.942   4.196   6.419
 7408SOL    HW123123   1.928   4.294   6.400
 7408SOL    HW223124   2.014   4.160   6.360
 7409SOL     OW23125   0.480   1.585   6.248
 7409SOL    HW123126   0.564   1.555   6.204
 7409SOL    HW223127   0.435   1.507   6.292
 7410SOL     OW23128   0.355   5.740   0.875
 7410SOL    HW123129   0.276   5.683   0.897
 7410SOL    HW223130   0.425   5.729   0.945
 7411SOL     OW23131   3.033   0.183   4.335
 7411SOL    HW123132   3.046   0.098   4.284
 7411SOL    HW223133   2.951   0.230   4.303
 7412SOL     OW23134   4.697   0.570   2.318
 7412SOL    HW123135   4.783   0.622   2.313
 7412SOL    HW223136   4.646   0.598   2.400
 7413SOL     OW23137   4.927   6.100   4.861
 7413SOL    HW123138   5.015   6.113   4.906
 7413SOL    HW223139   4.911   6.174   4.796
 7414SOL     OW23140   0.640   0.450   3.773
 7414SOL    HW123141   0.570   0.378   3.774
 7414SOL    HW223142   0.601   0.533   3.735
 7415SOL     OW23143   1.492   3.944   4.043
 7415SOL    HW123144   1.553   4.021   4.027
 7415SOL    HW223145   1.542   3.858   4.026
 7416SOL     OW23146   2.653   1.376   3.920
 7416SOL    HW123147   2.636   1.281   3.949
 7416SOL    HW223148   2.624   1.438   3.993
 7417SOL     OW23149   2.043   0.852   6.425
 7417SOL    HW123150   2.069   0.849   6.328
 7417SOL    HW223151   2.038   0.759   6.461
 7418SOL     OW23152   3.173   5.759   0.775
 7418SOL    HW123153   3.236   5.771   0.852
 7418SOL    HW223154   3.179   5.838   0.714
 7419SOL     OW23155   5.734   3.031   4.919
 7419SOL    HW123156   5.670   3.108   4.923
 7419SOL    HW223157   5.702   2.965   4.851
 7420SOL     OW23158   0.883   7.004   2.195
 7420SOL    HW123159   0.910   6.907   2.192
 7420SOL    HW223160   0.784   7.010   2.181
 7421SOL     OW23161   3.445   3.411   0.781
 7421SOL    HW123162   3.444   3.396   0.880
 7421SOL    HW223163   3.538   3.436   0.752
 7422SOL     OW23164   0.302   3.016   2.609
 7422SOL    HW123165   0.304   3.053   2.701
 7422SOL    HW223166   0.368   3.065   2.552
 7423SOL     OW23167   6.396   4.509   5.386
 7423SOL    HW123168   6.495   4.499   5.392
 7423SOL    HW223169   6.361   4.553   5.469
 7424SOL     OW23170   6.936   0.320   5.297
 7424SOL    HW123171   6.936   0.383   5.220
 7424SOL    HW223172   6.848   0.274   5.303
 7425SOL     OW23173   4.513   5.567   6.578
 7425SOL    HW123174   4.453   5.626   6.632
 7425SOL    HW223175   4.457   5.512   6.516
 7426SOL     OW23176   2.227   0.788   6.081
 7426SOL    HW123177   2.155   0.795   6.013
 7426SOL    HW223178   2.197   0.729   6.156
 7427SOL     OW23179   3.365   6.823   4.088
 7427SOL    HW123180   3.411   6.911   4.093
 7427SOL    HW223181   3.384   6.779   4.000
 7428SOL     OW23182   4.375   1.026   6.335
 7428SOL    HW123183   4.309   1.100   6.352
 7428SOL    HW223184   4.327   0.938   6.336
 7429SOL     OW23185   6.467   6.624   3.284
 7429SOL    HW123186   6.387   6.629   3.225
 7429SOL    HW223187   6.478   6.710   3.334
 7430SOL     OW23188   1.198   3.476   6.699
 7430SOL    HW123189   1.098   3.489   6.702
 7430SOL    HW223190   1.235   3.486   6.791
 7431SOL     OW23191   0.775   3.140   2.834
 7431SOL    HW123192   0.779   3.085   2.917
 7431SOL    HW223193   0.805   3.233   2.854
 7432SOL     OW23194   0.456   0.603   2.985
 7432SOL    HW123195   0.421   0.678   3.040
 7432SOL    HW223196   0.499   0.535   3.044
 7433SOL     OW23197   4.800   5.127   6.309
 7433SOL    HW123198   4.746   5.150   6.390
 7433SOL    HW223199   4.787   5.197   6.239
 7434SOL     OW23200   5.656   0.191   5.729
 7434SOL    HW123201   5.594   0.209   5.806
 7434SOL    HW223202   5.726   0.126   5.757
 7435SOL     OW23203   3.679   5.830   0.748
 7435SOL    HW123204   3.679   5.768   0.669
 7435SOL    HW223205   3.686   5.924   0.715
 7436SOL     OW23206   5.693   3.639   7.000
 7436SOL    HW123207   5.655   3.588   0.057
 7436SOL    HW223208   5.671   3.593   6.915
 7437SOL     OW23209   0.989   5.984   0.616
 7437SOL    HW123210   0.908   5.984   0.675
 7437SOL    HW223211   1.027   6.076   0.612
 7438SOL     OW23212   0.439   5.135   0.292
 7438SOL    HW123213   0.452   5.173   0.384
 7438SOL    HW223214   0.454   5.036   0.295
 7439SOL     OW23215   1.891   5.766   4.998
 7439SOL    HW123216   1.799   5.788   4.964
 7439SOL    HW223217   1.955   5.762   4.921
 7440SOL     OW23218   6.915   3.356   4.719
 7440SOL    HW123219   6.879   3.363   4.625
 7440SOL    HW223220   6.880   3.273   4.761
 7441SOL     OW23221   5.405   6.518   4.180
 7441SOL    HW123222   5.367   6.550   4.267
 7441SOL    HW223223   5.481   6.455   4.197
 7442SOL     OW23224   0.227   0.817   6.024
 7442SOL    HW123225   0.153   0.753   6.001
 7442SOL    HW223226   0.289   0.774   6.089
 7443SOL     OW23227   0.150   0.373   2.429
 7443SOL    HW123228   0.128   0.420   2.343
 7443SOL    HW223229   0.123   0.431   2.506
 7444SOL     OW23230   6.184   3.073   5.682
 7444SOL    HW123231   6.251   3.113   5.620
 7444SOL    HW223232   6.102   3.046   5.631
 7445SOL     OW23233   3.579   0.990   1.150
 7445SOL    HW123234   3.608   0.894   1.152
 7445SOL    HW223235   3.645   1.044   1.098
 7446SOL     OW23236   5.636   4.289   0.904
 7446SOL    HW123237   5.582   4.296   0.988
 7446SOL    HW223238   5.639   4.193   0.875
 7447SOL     OW23239   0.581   3.703   5.958
 7447SOL    HW123240   0.646   3.639   5.998
 7447SOL    HW223241   0.488   3.670   5.975
 7448SOL     OW23242   6.248   6.693   5.465
 7448SOL    HW123243   6.279   6.788   5.468
 7448SOL    HW223244   6.328   6.632   5.460
 7449SOL     OW23245   6.490   3.330   1.902
 7449SOL    HW123246   6.393   3.332   1.878
 7449SOL    HW223247   6.545   3.339   1.819
 7450SOL     OW23248   5.440   1.958   4.532
 7450SOL    HW123249   5.410   1.995   4.620
 7450SOL    HW223250   5.537   1.936   4.537
 7451SOL     OW23251   0.454   6.979   3.365
 7451SOL    HW123252   0.538   6.966   3.418
 7451SOL    HW223253   0.465   0.037   3.305
 7452SOL     OW23254   0.730   6.121   5.090
 7452SOL    HW123255   0.801   6.148   5.025
 7452SOL    HW223256   0.644   6.167   5.067
 7453SOL     OW23257   4.447   6.680   5.508
 7453SOL    HW123258   4.380   6.607   5.493
 7453SOL    HW223259   4.480   6.675   5.603
 7454SOL     OW23260   0.522   2.614   2.175
 7454SOL    HW123261   0.486   2.706   2.189
 7454SOL    HW223262   0.591   2.616   2.103
 7455SOL     OW23263   6.900   1.678   2.348
 7455SOL    HW123264   6.963   1.747   2.383
 7455SOL    HW223265   6.946   1.589   2.345
 7456SOL     OW23266   0.390   1.849   4.376
 7456SOL    HW123267   0.292   1.868   4.372
 7456SOL    HW223268   0.441   1.931   4.350
 7457SOL     OW23269   3.849   0.138   5.815
 7457SOL    HW123270   3.822   0.171   5.905
 7457SOL    HW223271   3.875   0.042   5.820
 7458SOL     OW23272   2.188   0.062   5.980
 7458SOL    HW123273   2.100   0.028   5.947
 7458SOL    HW223274   2.254   7.007   5.981
 7459SOL     OW23275   5.217   0.769   1.778
 7459SOL    HW123276   5.157   0.694   1.751
 7459SOL    HW223277   5.312   0.737   1.778
 7460SOL     OW23278   2.083   5.465   1.170
 7460SOL    HW123279   2.160   5.488   1.229
 7460SOL    HW223280   2.059   5.544   1.113
 7461SOL     OW23281   6.313   1.794   5.745
 7461SOL    HW123282   6.365   1.756   5.821
 7461SOL    HW223283   6.216   1.799   5.770
 7462SOL     OW23284   1.177   3.812   2.425
 7462SOL    HW123285   1.275   3.809   2.443
 7462SOL    HW223286   1.152   3.903   2.392
 7463SOL     OW23287   2.670   4.668   0.818
 7463SOL    HW123288   2.746   4.709   0.767
 7463SOL    HW223289   2.703   4.589   0.869
 7464SOL     OW23290   4.809   0.551   6.332
 7464SOL    HW123291   4.870   0.595   6.398
 7464SOL    HW223292   4.728   0.517   6.380
 7465SOL     OW23293   0.755   5.552   0.126
 7465SOL    HW123294   0.715   5.635   0.087
 7465SOL    HW223295   0.788   5.493   0.052
 7466SOL     OW23296   0.722   0.644   6.067
 7466SOL    HW123297   0.699   0.548   6.053
 7466SOL    HW223298   0.806   0.650   6.122
 7467SOL     OW23299   7.015   2.254   0.913
 7467SOL    HW123300   0.038   2.196   0.982
 7467SOL    HW223301   0.066   2.298   0.857
 7468SOL     OW23302   6.012   2.313   3.829
 7468SOL    HW123303   6.111   2.324   3.821
 7468SOL    HW223304   5.973   2.395   3.870
 7469SOL     OW23305   0.320   1.004   0.671
 7469SOL    HW123306   0.267   1.076   0.626
 7469SOL    HW223307   0.402   1.043   0.712
 7470SOL     OW23308   0.028   3.412   4.178
 7470SOL    HW123309   6.975   3.470   4.143
 7470SOL    HW223310   0.097   3.399   4.106
 7471SOL     OW23311   6.762   6.001   5.883
 7471SOL    HW123312   6.728   6.008   5.977
 7471SOL    HW223313   6.858   6.028   5.880
 7472SOL     OW23314   5.960   0.313   4.539
 7472SOL    HW123315   5.996   0.219   4.538
 7472SOL    HW223316   5.931   0.338   4.447
 7473SOL     OW23317   6.712   4.612   3.172
 7473SOL    HW123318   6.643   4.546   3.143
 7473SOL    HW223319   6.688   4.650   3.260
 7474SOL     OW23320   1.808   1.419   5.293
 7474SOL    HW123321   1.805   1.473   5.377
 7474SOL    HW223322   1.835   1.325   5.314
 7475SOL     OW23323   4.360   1.768   2.392
 7475SOL    HW123324   4.357   1.858   2.436
 7475SOL    HW223325   4.360   1.779   2.292
 7476SOL     OW23326   3.013   5.573   3.423
 7476SOL    HW123327   3.058   5.655   3.459
 7476SOL    HW223328   2.914   5.584   3.431
 7477SOL     OW23329   0.049   0.762   5.354
 7477SOL    HW123330   0.102   0.776   5.271
 7477SOL    HW223331   6.999   0.692   5.338
 7478SOL     OW23332   4.969   5.745   6.321
 7478SOL    HW123333   4.914   5.752   6.237
 7478SOL    HW223334   4.911   5.715   6.396
 7479SOL     OW23335   4.136   2.406   1.728
 7479SOL    HW123336   4.213   2.381   1.786
 7479SOL    HW223337   4.158   2.489   1.676
 7480SOL     OW23338   7.013   4.089   1.915
 7480SOL    HW123339   6.945   4.035   1.866
 7480SOL    HW223340   6.989   4.093   2.012
 7481SOL     OW23341   6.131   5.092   1.282
 7481SOL    HW123342   6.205   5.035   1.246
 7481SOL    HW223343   6.151   5.117   1.377
 7482SOL     OW23344   4.245   2.202   3.236
 7482SOL    HW123345   4.316   2.270   3.218
 7482SOL    HW223346   4.172   2.210   3.168
 7483SOL     OW23347   4.912   3.142   4.843
 7483SOL    HW123348   4.899   3.231   4.887
 7483SOL    HW223349   4.842   3.079   4.875
 7484SOL     OW23350   0.893   1.318   3.516
 7484SOL    HW123351   0.909   1.219   3.515
 7484SOL    HW223352   0.878   1.349   3.610
 7485SOL     OW23353   3.326   0.423   4.966
 7485SOL    HW123354   3.286   0.333   4.986
 7485SOL    HW223355   3.275   0.467   4.893
 7486SOL     OW23356   2.315   0.504   6.774
 7486SOL    HW123357   2.406   0.491   6.734
 7486SOL    HW223358   2.321   0.492   6.873
 7487SOL     OW23359   2.500   6.263   2.877
 7487SOL    HW123360   2.430   6.197   2.850
 7487SOL    HW223361   2.456   6.341   2.923
 7488SOL     OW23362   1.863   6.773   3.947
 7488SOL    HW123363   1.843   6.681   3.980
 7488SOL    HW223364   1.841   6.779   3.849
 7489SOL     OW23365   5.177   2.348   4.098
 7489SOL    HW123366   5.175   2.351   4.198
 7489SOL    HW223367   5.272   2.353   4.067
 7490SOL     OW23368   1.403   0.954   1.796
 7490SOL    HW123369   1.357   0.867   1.781
 7490SOL    HW223370   1.495   0.938   1.831
 7491SOL     OW23371   6.078   2.870   6.096
 7491SOL    HW123372   5.999   2.828   6.051
 7491SOL    HW223373   6.067   2.862   6.195
 7492SOL     OW23374   1.769   0.570   3.307
 7492SOL    HW123375   1.765   0.544   3.404
 7492SOL    HW223376   1.678   0.567   3.268
 7493SOL     OW23377   0.252   3.508   6.765
 7493SOL    HW123378   0.230   3.569   6.688
 7493SOL    HW223379   0.348   3.479   6.757
 7494SOL     OW23380   5.047   1.040   2.831
 7494SOL    HW123381   5.093   1.066   2.916
 7494SOL    HW223382   4.953   1.015   2.851
 7495SOL     OW23383   1.514   1.330   0.042
 7495SOL    HW123384   1.564   1.413   0.069
 7495SOL    HW223385   1.547   1.299   6.973
 7496SOL     OW23386   6.728   3.519   6.303
 7496SOL    HW123387   6.680   3.434   6.323
 7496SOL    HW223388   6.799   3.534   6.371
 7497SOL     OW23389   2.245   4.245   0.179
 7497SOL    HW123390   2.173   4.202   0.233
 7497SOL    HW223391   2.271   4.332   0.222
 7498SOL     OW23392   2.717   1.027   5.777
 7498SOL    HW123393   2.653   1.100   5.800
 7498SOL    HW223394   2.667   0.947   5.744
 7499SOL     OW23395   3.590   2.164   2.960
 7499SOL    HW123396   3.571   2.222   2.882
 7499SOL    HW223397   3.506   2.149   3.013
 7500SOL     OW23398   3.131   5.509   3.698
 7500SOL    HW123399   3.221   5.552   3.703
 7500SOL    HW223400   3.133   5.433   3.633
 7501SOL     OW23401   5.736   4.193   4.628
 7501SOL    HW123402   5.693   4.140   4.702
 7501SOL    HW223403   5.671   4.202   4.553
 7502SOL     OW23404   1.647   0.057   3.557
 7502SOL    HW123405   1.631   0.128   3.489
 7502SOL    HW223406   1.613   6.990   3.522
 7503SOL     OW23407   3.185   1.570   0.905
 7503SOL    HW123408   3.205   1.593   0.810
 7503SOL    HW223409   3.142   1.648   0.950
 7504SOL     OW23410   1.392   0.244   2.792
 7504SOL    HW123411   1.322   0.314   2.777
 7504SOL    HW223412   1.384   0.173   2.722
 7505SOL     OW23413   1.819   1.570   5.523
 7505SOL    HW123414   1.795   1.606   5.613
 7505SOL    HW223415   1.884   1.632   5.479
 7506SOL     OW23416   5.234   0.423   2.962
 7506SOL    HW123417   5.326   0.450   2.989
 7506SOL    HW223418   5.239   0.350   2.894
 7507SOL     OW23419   1.054   0.472   1.994
 7507SOL    HW123420   1.046   0.564   1.954
 7507SOL    HW223421   1.108   0.414   1.932
 7508SOL     OW23422   0.983   6.398   1.881
 7508SOL    HW123423   0.924   6.388   1.961
 7508SOL    HW223424   0.949   6.340   1.807
 7509SOL     OW23425   5.182   4.572   0.108
 7509SOL    HW123426   5.135   4.496   0.154
 7509SOL    HW223427   5.251   4.535   0.045
 7510SOL     OW23428   3.815   4.165   5.571
 7510SOL    HW123429   3.724   4.128   5.552
 7510SOL    HW223430   3.825   4.254   5.527
 7511SOL     OW23431   2.866   0.014   3.790
 7511SOL    HW123432   2.853   6.935   3.785
 7511SOL    HW223433   2.901   0.047   3.702
 7512SOL     OW23434   2.938   6.238   6.607
 7512SOL    HW123435   3.021   6.184   6.621
 7512SOL    HW223436   2.868   6.209   6.672
 7513SOL     OW23437   2.455   0.574   1.657
 7513SOL    HW123438   2.390   0.650   1.661
 7513SOL    HW223439   2.548   0.609   1.670
 7514SOL     OW23440   2.441   5.716   1.240
 7514SOL    HW123441   2.518   5.652   1.243
 7514SOL    HW223442   2.427   5.748   1.147
 7515SOL     OW23443   6.776   4.835   2.526
 7515SOL    HW123444   6.871   4.823   2.495
 7515SOL    HW223445   6.770   4.916   2.583
 7516SOL     OW23446   6.263   6.581   5.779
 7516SOL    HW123447   6.268   6.584   5.879
 7516SOL    HW223448   6.317   6.656   5.741
 7517SOL     OW23449   0.108   3.014   0.415
 7517SOL    HW123450   0.208   3.022   0.413
 7517SOL    HW223451   0.081   2.957   0.493
 7518SOL     OW23452   4.132   5.050   3.290
 7518SOL    HW123453   4.097   5.069   3.198
 7518SOL    HW223454   4.201   4.978   3.286
 7519SOL     OW23455   6.960   6.911   3.759
 7519SOL    HW123456   6.964   6.988   3.822
 7519SOL    HW223457   6.916   6.833   3.804
 7520SOL     OW23458   2.942   0.845   2.176
 7520SOL    HW123459   2.920   0.775   2.108
 7520SOL    HW223460   2.858   0.877   2.220
 7521SOL     OW23461   5.129   4.311   6.607
 7521SOL    HW123462   5.185   4.254   6.547
 7521SOL    HW223463   5.033   4.285   6.598
 7522SOL     OW23464   2.210   1.040   6.510
 7522SOL    HW123465   2.148   0.964   6.493
 7522SOL    HW223466   2.297   1.006   6.545
 7523SOL     OW23467   6.012   0.079   5.597
 7523SOL    HW123468   5.986   0.115   5.687
 7523SOL    HW223469   5.955   0.121   5.527
 7524SOL     OW23470   2.066   1.852   5.711
 7524SOL    HW123471   2.162   1.851   5.683
 7524SOL    HW223472   2.020   1.929   5.667
 7525SOL     OW23473   3.727   0.581   6.431
 7525SOL    HW123474   3.697   0.518   6.503
 7525SOL    HW223475   3.690   0.550   6.343
 7526SOL     OW23476   2.715   3.229   1.770
 7526SOL    HW123477   2.674   3.301   1.713
 7526SOL    HW223478   2.693   3.140   1.732
 7527SOL     OW23479   3.707   5.841   3.177
 7527SOL    HW123480   3.618   5.881   3.200
 7527SOL    HW223481   3.733   5.776   3.249
 7528SOL     OW23482   5.198   1.625   6.875
 7528SOL    HW123483   5.114   1.675   6.854
 7528SOL    HW223484   5.253   1.679   6.939
 7529SOL     OW23485   4.954   0.841   4.657
 7529SOL    HW123486   4.921   0.895   4.735
 7529SOL    HW223487   4.918   0.880   4.573
 7530SOL     OW23488   0.582   3.620   3.199
 7530SOL    HW123489   0.529   3.698   3.167
 7530SOL    HW223490   0.658   3.653   3.255
 7531SOL     OW23491   5.154   3.102   4.401
 7531SOL    HW123492   5.110   3.027   4.351
 7531SOL    HW223493   5.212   3.066   4.473
 7532SOL     OW23494   5.609   4.912   0.194
 7532SOL    HW123495   5.679   4.903   0.123
 7532SOL    HW223496   5.538   4.842   0.180
 7533SOL     OW23497   2.334   2.048   2.307
 7533SOL    HW123498   2.327   2.035   2.208
 7533SOL    HW223499   2.247   2.079   2.343
 7534SOL     OW23500   4.402   6.006   5.427
 7534SOL    HW123501   4.356   6.026   5.513
 7534SOL    HW223502   4.335   6.003   5.353
 7535SOL     OW23503   1.575   6.790   5.100
 7535SOL    HW123504   1.510   6.841   5.043
 7535SOL    HW223505   1.568   6.821   5.195
 7536SOL     OW23506   4.674   4.299   4.554
 7536SOL    HW123507   4.628   4.296   4.643
 7536SOL    HW223508   4.607   4.313   4.482
 7537SOL     OW23509   3.321   5.971   2.710
 7537SOL    HW123510   3.237   6.024   2.709
 7537SOL    HW223511   3.354   5.959   2.616
 7538SOL     OW23512   2.345   3.112   1.503
 7538SOL    HW123513   2.340   3.207   1.472
 7538SOL    HW223514   2.260   3.064   1.480
 7539SOL     OW23515   0.770   3.334   4.537
 7539SOL    HW123516   0.725   3.391   4.468
 7539SOL    HW223517   0.866   3.324   4.513
 7540SOL     OW23518   4.200   0.284   4.811
 7540SOL    HW123519   4.191   0.376   4.847
 7540SOL    HW223520   4.183   0.217   4.883
 7541SOL     OW23521   0.162   4.325   4.898
 7541SOL    HW123522   0.153   4.234   4.937
 7541SOL    HW223523   0.073   4.370   4.895
 7542SOL     OW23524   0.942   5.308   6.670
 7542SOL    HW123525   0.968   5.211   6.674
 7542SOL    HW223526   1.015   5.359   6.625
 7543SOL     OW23527   3.642   2.124   6.947
 7543SOL    HW123528   3.645   2.045   6.886
 7543SOL    HW223529   3.681   2.099   0.015
 7544SOL     OW23530   0.218   2.253   2.814
 7544SOL    HW123531   0.198   2.349   2.834
 7544SOL    HW223532   0.307   2.228   2.852
 7545SOL     OW23533   6.636   5.813   0.796
 7545SOL    HW123534   6.622   5.900   0.749
 7545SOL    HW223535   6.569   5.747   0.764
 7546SOL     OW23536   2.938   1.776   1.978
 7546SOL    HW123537   2.860   1.744   1.924
 7546SOL    HW223538   2.905   1.821   2.061
 7547SOL     OW23539   5.330   1.017   0.860
 7547SOL    HW123540   5.264   1.085   0.892
 7547SOL    HW223541   5.304   0.986   0.768
 7548SOL     OW23542   4.072   1.972   0.239
 7548SOL    HW123543   4.018   1.888   0.240
 7548SOL    HW223544   4.109   1.988   0.331
 7549SOL     OW23545   5.079   2.167   0.821
 7549SOL    HW123546   5.074   2.134   0.727
 7549SOL    HW223547   5.006   2.125   0.875
 7550SOL     OW23548   2.657   5.112   2.560
 7550SOL    HW123549   2.611   5.170   2.493
 7550SOL    HW223550   2.620   5.129   2.651
 7551SOL     OW23551   5.375   3.841   6.858
 7551SOL    HW123552   5.396   3.808   6.950
 7551SOL    HW223553   5.429   3.790   6.791
 7552SOL     OW23554   1.454   5.429   2.725
 7552SOL    HW123555   1.402   5.475   2.797
 7552SOL    HW223556   1.464   5.332   2.748
 7553SOL     OW23557   4.405   6.387   5.872
 7553SOL    HW123558   4.500   6.387   5.902
 7553SOL    HW223559   4.400   6.370   5.774
 7554SOL     OW23560   4.592   1.408   0.523
 7554SOL    HW123561   4.521   1.340   0.502
 7554SOL    HW223562   4.650   1.374   0.596
 7555SOL     OW23563   2.225   4.617   6.013
 7555SOL    HW123564   2.229   4.659   6.103
 7555SOL    HW223565   2.251   4.684   5.943
 7556SOL     OW23566   1.621   2.701   0.321
 7556SOL    HW123567   1.552   2.631   0.306
 7556SOL    HW223568   1.678   2.676   0.398
 7557SOL     OW23569   4.856   1.568   5.901
 7557SOL    HW123570   4.889   1.616   5.820
 7557SOL    HW223571   4.934   1.531   5.951
 7558SOL     OW23572   1.317   2.831   4.309
 7558SOL    HW123573   1.329   2.829   4.210
 7558SOL    HW223574   1.405   2.812   4.353
 7559SOL     OW23575   5.070   4.545   6.463
 7559SOL    HW123576   5.103   4.467   6.517
 7559SOL    HW223577   5.145   4.580   6.407
 7560SOL     OW23578   5.127   6.615   0.764
 7560SOL    HW123579   5.183   6.537   0.737
 7560SOL    HW223580   5.046   6.620   0.707
 7561SOL     OW23581   1.324   3.519   6.945
 7561SOL    HW123582   1.319   3.519   0.024
 7561SOL    HW223583   1.419   3.532   6.916
 7562SOL     OW23584   6.914   6.433   4.013
 7562SOL    HW123585   6.935   6.338   3.991
 7562SOL    HW223586   6.924   6.447   4.112
 7563SOL     OW23587   2.734   0.007   1.106
 7563SOL    HW123588   2.647   6.986   1.078
 7563SOL    HW223589   2.775   6.973   1.179
 7564SOL     OW23590   4.964   0.768   3.203
 7564SOL    HW123591   4.870   0.802   3.190
 7564SOL    HW223592   4.967   0.708   3.283
 7565SOL     OW23593   5.239   3.224   1.012
 7565SOL    HW123594   5.211   3.309   0.967
 7565SOL    HW223595   5.159   3.168   1.030
 7566SOL     OW23596   5.734   4.589   2.918
 7566SOL    HW123597   5.706   4.495   2.940
 7566SOL    HW223598   5.658   4.636   2.872
 7567SOL     OW23599   1.517   2.360   4.376
 7567SOL    HW123600   1.486   2.356   4.281
 7567SOL    HW223601   1.464   2.295   4.430
 7568SOL     OW23602   5.530   6.065   2.368
 7568SOL    HW123603   5.623   6.038   2.393
 7568SOL    HW223604   5.520   6.164   2.380
 7569SOL     OW23605   3.894   5.764   5.973
 7569SOL    HW123606   3.968   5.698   5.970
 7569SOL    HW223607   3.816   5.725   6.022
 7570SOL     OW23608   5.648   3.281   5.246
 7570SOL    HW123609   5.659   3.355   5.179
 7570SOL    HW223610   5.551   3.273   5.270
 7571SOL     OW23611   4.543   5.589   3.537
 7571SOL    HW123612   4.540   5.505   3.483
 7571SOL    HW223613   4.579   5.570   3.628
 7572SOL     OW23614   4.953   1.105   1.846
 7572SOL    HW123615   4.859   1.120   1.876
 7572SOL    HW223616   5.011   1.179   1.881
 7573SOL     OW23617   0.460   7.005   4.941
 7573SOL    HW123618   0.462   6.992   4.842
 7573SOL    HW223619   0.521   0.060   4.966
 7574SOL     OW23620   6.044   0.876   5.541
 7574SOL    HW123621   6.098   0.953   5.505
 7574SOL    HW223622   6.023   0.892   5.637
 7575SOL     OW23623   5.055   6.949   6.748
 7575SOL    HW123624   5.124   7.017   6.771
 7575SOL    HW223625   4.964   6.992   6.751
 7576SOL     OW23626   4.878   4.712   6.324
 7576SOL    HW123627   4.826   4.669   6.250
 7576SOL    HW223628   4.937   4.645   6.367
 7577SOL     OW23629   0.661   6.893   0.028
 7577SOL    HW123630   0.672   6.810   6.994
 7577SOL    HW223631   0.592   6.952   7.005
 7578SOL     OW23632   1.978   5.231   1.912
 7578SOL    HW123633   1.995   5.258   2.007
 7578SOL    HW223634   2.046   5.275   1.853
 7579SOL     OW23635   6.421   0.864   1.702
 7579SOL    HW123636   6.465   0.868   1.791
 7579SOL    HW223637   6.422   0.956   1.660
 7580SOL     OW23638   1.113   3.822   4.192
 7580SOL    HW123639   1.048   3.760   4.235
 7580SOL    HW223640   1.088   3.917   4.214
 7581SOL     OW23641   6.934   0.829   1.025
 7581SOL    HW123642   6.888   0.790   1.105
 7581SOL    HW223643   7.012   0.771   1.000
 7582SOL     OW23644   4.023   1.160   1.651
 7582SOL    HW123645   4.049   1.065   1.668
 7582SOL    HW223646   3.925   1.164   1.631
 7583SOL     OW23647   6.334   3.091   1.517
 7583SOL    HW123648   6.273   3.071   1.440
 7583SOL    HW223649   6.422   3.122   1.483
 7584SOL     OW23650   3.189   6.607   1.325
 7584SOL    HW123651   3.247   6.627   1.246
 7584SOL    HW223652   3.181   6.689   1.382
 7585SOL     OW23653   1.246   2.813   6.730
 7585SOL    HW123654   1.276   2.843   6.821
 7585SOL    HW223655   1.326   2.795   6.673
 7586SOL     OW23656   2.450   1.175   3.338
 7586SOL    HW123657   2.392   1.252   3.313
 7586SOL    HW223658   2.404   1.089   3.313
 7587SOL     OW23659   2.492   1.988   0.505
 7587SOL    HW123660   2.434   2.068   0.518
 7587SOL    HW223661   2.442   1.917   0.456
 7588SOL     OW23662   1.628   3.077   3.315
 7588SOL    HW123663   1.580   3.105   3.232
 7588SOL    HW223664   1.720   3.114   3.315
 7589SOL     OW23665   1.043   0.100   2.540
 7589SOL    HW123666   0.989   0.156   2.476
 7589SOL    HW223667   0.989   0.081   2.622
 7590SOL     OW23668   4.217   1.888   6.160
 7590SOL    HW123669   4.150   1.823   6.123
 7590SOL    HW223670   4.171   1.972   6.188
 7591SOL     OW23671   0.410   3.692   0.564
 7591SOL    HW123672   0.353   3.624   0.610
 7591SOL    HW223673   0.427   3.662   0.470
 7592SOL     OW23674   6.685   4.689   5.200
 7592SOL    HW123675   6.673   4.759   5.270
 7592SOL    HW223676   6.663   4.727   5.110
 7593SOL     OW23677   6.024   3.320   0.843
 7593SOL    HW123678   5.925   3.320   0.858
 7593SOL    HW223679   6.053   3.411   0.813
 7594SOL     OW23680   0.734   5.216   2.601
 7594SOL    HW123681   0.725   5.198   2.699
 7594SOL    HW223682   0.827   5.195   2.572
 7595SOL     OW23683   6.748   2.733   6.013
 7595SOL    HW123684   6.754   2.636   5.989
 7595SOL    HW223685   6.736   2.743   6.112
 7596SOL     OW23686   4.315   5.644   4.140
 7596SOL    HW123687   4.352   5.647   4.048
 7596SOL    HW223688   4.264   5.729   4.158
 7597SOL     OW23689   3.082   6.438   2.967
 7597SOL    HW123690   3.120   6.491   2.891
 7597SOL    HW223691   3.118   6.345   2.964
 7598SOL     OW23692   6.820   1.568   3.311
 7598SOL    HW123693   6.887   1.633   3.347
 7598SOL    HW223694   6.728   1.593   3.343
 7599SOL     OW23695   5.185   2.096   2.487
 7599SOL    HW123696   5.145   2.156   2.418
 7599SOL    HW223697   5.200   2.005   2.448
 7600SOL     OW23698   1.788   1.808   2.423
 7600SOL    HW123699   1.691   1.789   2.432
 7600SOL    HW223700   1.824   1.761   2.342
 7601SOL     OW23701   1.744   5.247   3.056
 7601SOL    HW123702   1.790   5.248   2.967
 7601SOL    HW223703   1.767   5.330   3.106
 7602SOL     OW23704   1.890   4.412   6.145
 7602SOL    HW123705   1.884   4.480   6.072
 7602SOL    HW223706   1.929   4.327   6.108
 7603SOL     OW23707   1.418   5.771   6.314
 7603SOL    HW123708   1.326   5.775   6.275
 7603SOL    HW223709   1.454   5.864   6.325
 7604SOL     OW23710   1.873   4.316   4.636
 7604SOL    HW123711   1.837   4.377   4.566
 7604SOL    HW223712   1.798   4.283   4.694
 7605SOL     OW23713   0.969   0.033   1.321
 7605SOL    HW123714   0.878   0.069   1.342
 7605SOL    HW223715   1.023   0.103   1.275
 7606SOL     OW23716   5.600   3.507   5.097
 7606SOL    HW123717   5.501   3.525   5.096
 7606SOL    HW223718   5.639   3.545   5.180
 7607SOL     OW23719   3.319   4.886   6.887
 7607SOL    HW123720   3.379   4.961   6.860
 7607SOL    HW223721   3.353   4.800   6.850
 7608SOL     OW23722   4.083   3.628   2.622
 7608SOL    HW123723   4.158   3.649   2.685
 7608SOL    HW223724   4.055   3.533   2.634
 7609SOL     OW23725   1.246   3.522   4.133
 7609SOL    HW123726   1.149   3.512   4.112
 7609SOL    HW223727   1.256   3.574   4.218
 7610SOL     OW23728   4.389   5.055   6.269
 7610SOL    HW123729   4.430   5.126   6.326
 7610SOL    HW223730   4.444   4.972   6.273
 7611SOL     OW23731   6.383   2.877   1.204
 7611SOL    HW123732   6.303   2.904   1.258
 7611SOL    HW223733   6.354   2.858   1.110
 7612SOL     OW23734   4.771   2.708   3.716
 7612SOL    HW123735   4.764   2.791   3.772
 7612SOL    HW223736   4.860   2.706   3.671
 7613SOL     OW23737   6.797   3.199   0.998
 7613SOL    HW123738   6.717   3.181   0.942
 7613SOL    HW223739   6.802   3.131   1.072
 7614SOL     OW23740   4.845   2.834   1.050
 7614SOL    HW123741   4.805   2.756   1.002
 7614SOL    HW223742   4.780   2.868   1.118
 7615SOL     OW23743   3.725   5.002   0.169
 7615SOL    HW123744   3.799   4.940   0.193
 7615SOL    HW223745   3.648   4.988   0.231
 7616SOL     OW23746   5.829   6.022   4.129
 7616SOL    HW123747   5.807   6.115   4.159
 7616SOL    HW223748   5.918   6.023   4.082
 7617SOL     OW23749   3.940   5.024   2.641
 7617SOL    HW123750   4.003   4.951   2.668
 7617SOL    HW223751   3.855   4.984   2.608
 7618SOL     OW23752   0.539   1.176   5.788
 7618SOL    HW123753   0.506   1.084   5.809
 7618SOL    HW223754   0.510   1.240   5.859
 7619SOL     OW23755   5.839   2.779   5.280
 7619SOL    HW123756   5.782   2.861   5.279
 7619SOL    HW223757   5.875   2.764   5.372
 7620SOL     OW23758   3.782   5.962   0.947
 7620SOL    HW123759   3.742   5.902   0.878
 7620SOL    HW223760   3.879   5.978   0.925
 7621SOL     OW23761   6.792   1.609   0.821
 7621SOL    HW123762   6.864   1.610   0.752
 7621SOL    HW223763   6.831   1.577   0.908
 7622SOL     OW23764   4.663   5.584   0.939
 7622SOL    HW123765   4.655   5.610   1.035
 7622SOL    HW223766   4.690   5.488   0.933
 7623SOL     OW23767   4.432   4.414   0.191
 7623SOL    HW123768   4.334   4.403   0.171
 7623SOL    HW223769   4.444   4.436   0.288
 7624SOL     OW23770   6.715   3.340   5.024
 7624SOL    HW123771   6.705   3.341   5.123
 7624SOL    HW223772   6.719   3.435   4.990
 7625SOL     OW23773   4.911   0.601   1.396
 7625SOL    HW123774   4.819   0.639   1.394
 7625SOL    HW223775   4.964   0.646   1.468
 7626SOL     OW23776   5.751   6.841   4.570
 7626SOL    HW123777   5.783   6.936   4.574
 7626SOL    HW223778   5.829   6.780   4.571
 7627SOL     OW23779   4.680   3.232   0.104
 7627SOL    HW123780   4.718   3.264   0.017
 7627SOL    HW223781   4.698   3.134   0.114
 7628SOL     OW23782   3.770   1.981   2.173
 7628SOL    HW123783   3.754   1.901   2.114
 7628SOL    HW223784   3.834   2.043   2.127
 7629SOL     OW23785   0.005   6.152   3.250
 7629SOL    HW123786   6.981   6.174   3.337
 7629SOL    HW223787   0.005   6.233   3.191
 7630SOL     OW23788   6.927   6.597   0.986
 7630SOL    HW123789   6.951   6.515   0.935
 7630SOL    HW223790   7.010   6.646   1.014
 7631SOL     OW23791   0.839   1.541   6.575
 7631SOL    HW123792   0.822   1.525   6.673
 7631SOL    HW223793   0.771   1.492   6.521
 7632SOL     OW23794   3.472   2.999   1.788
 7632SOL    HW123795   3.528   2.925   1.824
 7632SOL    HW223796   3.521   3.085   1.797
 7633SOL     OW23797   5.681   0.819   1.149
 7633SOL    HW123798   5.670   0.825   1.248
 7633SOL    HW223799   5.593   0.800   1.106
 7634SOL     OW23800   0.779   2.048   2.533
 7634SOL    HW123801   0.731   2.127   2.571
 7634SOL    HW223802   0.876   2.070   2.520
 7635SOL     OW23803   3.872   5.172   5.035
 7635SOL    HW123804   3.875   5.270   5.055
 7635SOL    HW223805   3.797   5.130   5.086
 7636SOL     OW23806   1.607   2.736   3.862
 7636SOL    HW123807   1.578   2.651   3.906
 7636SOL    HW223808   1.595   2.812   3.925
 7637SOL     OW23809   2.086   5.239   2.498
 7637SOL    HW123810   2.145   5.237   2.579
 7637SOL    HW223811   2.121   5.175   2.430
 7638SOL     OW23812   2.821   6.134   0.887
 7638SOL    HW123813   2.778   6.068   0.825
 7638SOL    HW223814   2.900   6.092   0.932
 7639SOL     OW23815   1.111   2.367   0.553
 7639SOL    HW123816   1.166   2.292   0.517
 7639SOL    HW223817   1.101   2.437   0.482
 7640SOL     OW23818   3.358   1.217   5.621
 7640SOL    HW123819   3.403   1.278   5.556
 7640SOL    HW223820   3.417   1.205   5.701
 7641SOL     OW23821   1.018   3.945   2.690
 7641SOL    HW123822   0.972   3.903   2.612
 7641SOL    HW223823   0.976   3.912   2.775
 7642SOL     OW23824   3.557   0.895   3.274
 7642SOL    HW123825   3.513   0.983   3.292
 7642SOL    HW223826   3.622   0.905   3.199
 7643SOL     OW23827   5.001   2.638   4.248
 7643SOL    HW123828   4.947   2.558   4.224
 7643SOL    HW223829   5.068   2.613   4.319
 7644SOL     OW23830   5.756   2.090   2.399
 7644SOL    HW123831   5.690   2.033   2.349
 7644SOL    HW223832   5.716   2.179   2.417
 7645SOL     OW23833   4.395   3.248   5.568
 7645SOL    HW123834   4.403   3.330   5.512
 7645SOL    HW223835   4.313   3.254   5.625
 7646SOL     OW23836   1.275   3.715   2.876
 7646SOL    HW123837   1.303   3.620   2.872
 7646SOL    HW223838   1.192   3.724   2.931
 7647SOL     OW23839   6.924   3.128   3.460
 7647SOL    HW123840   6.969   3.113   3.548
 7647SOL    HW223841   6.950   3.055   3.396
 7648SOL     OW23842   2.785   1.551   2.917
 7648SOL    HW123843   2.727   1.604   2.855
 7648SOL    HW223844   2.875   1.593   2.924
 7649SOL     OW23845   1.042   0.982   2.385
 7649SOL    HW123846   1.098   0.902   2.361
 7649SOL    HW223847   1.025   0.982   2.484
 7650SOL     OW23848   4.395   1.738   0.367
 7650SOL    HW123849   4.407   1.807   0.296
 7650SOL    HW223850   4.315   1.760   0.422
 7651SOL     OW23851   1.932   0.738   3.903
 7651SOL    HW123852   2.012   0.792   3.931
 7651SOL    HW223853   1.960   0.643   3.886
 7652SOL     OW23854   5.842   3.523   5.577
 7652SOL    HW123855   5.745   3.514   5.554
 7652SOL    HW223856   5.867   3.450   5.640
 7653SOL     OW23857   0.930   1.871   6.844
 7653SOL    HW123858   0.878   1.855   6.760
 7653SOL    HW223859   0.867   1.879   6.921
 7654SOL     OW23860   4.968   2.904   4.270
 7654SOL    HW123861   4.987   2.806   4.266
 7654SOL    HW223862   4.877   2.919   4.309
 7655SOL     OW23863   4.448   6.956   2.903
 7655SOL    HW123864   4.398   6.885   2.855
 7655SOL    HW223865   4.529   6.917   2.946
 7656SOL     OW23866   2.775   3.853   6.081
 7656SOL    HW123867   2.769   3.952   6.068
 7656SOL    HW223868   2.854   3.831   6.139
 7657SOL     OW23869   1.134   2.841   3.946
 7657SOL    HW123870   1.104   2.936   3.941
 7657SOL    HW223871   1.215   2.828   3.889
 7658SOL     OW23872   4.286   0.227   6.043
 7658SOL    HW123873   4.284   0.134   6.081
 7658SOL    HW223874   4.197   0.270   6.056
 7659SOL     OW23875   6.363   5.013   6.052
 7659SOL    HW123876   6.386   5.028   6.148
 7659SOL    HW223877   6.279   4.959   6.046
 7660SOL     OW23878   0.627   6.174   4.016
 7660SOL    HW123879   0.573   6.096   4.047
 7660SOL    HW223880   0.594   6.203   3.926
 7661SOL     OW23881   5.840   2.719   4.778
 7661SOL    HW123882   5.921   2.774   4.759
 7661SOL    HW223883   5.759   2.777   4.770
 7662SOL     OW23884   1.257   2.991   3.537
 7662SOL    HW123885   1.227   3.086   3.540
 7662SOL    HW223886   1.357   2.988   3.529
 7663SOL     OW23887   0.335   5.398   5.371
 7663SOL    HW123888   0.306   5.468   5.437
 7663SOL    HW223889   0.290   5.312   5.392
 7664SOL     OW23890   3.839   6.880   1.827
 7664SOL    HW123891   3.938   6.879   1.843
 7664SOL    HW223892   3.817   6.948   1.758
 7665SOL     OW23893   6.149   6.960   4.635
 7665SOL    HW123894   6.165   6.897   4.560
 7665SOL    HW223895   6.219   6.946   4.706
 7666SOL     OW23896   0.400   5.400   1.913
 7666SOL    HW123897   0.429   5.308   1.887
 7666SOL    HW223898   0.420   5.464   1.838
 7667SOL     OW23899   4.789   6.811   1.952
 7667SOL    HW123900   4.829   6.787   2.041
 7667SOL    HW223901   4.810   6.740   1.885
 7668SOL     OW23902   3.412   4.614   6.890
 7668SOL    HW123903   3.392   4.589   6.984
 7668SOL    HW223904   3.462   4.539   6.846
 7669SOL     OW23905   4.712   1.544   5.002
 7669SOL    HW123906   4.664   1.492   4.931
 7669SOL    HW223907   4.662   1.536   5.088
 7670SOL     OW23908   0.963   4.989   6.586
 7670SOL    HW123909   1.052   5.008   6.543
 7670SOL    HW223910   0.950   4.890   6.593
 7671SOL     OW23911   4.467   1.135   2.425
 7671SOL    HW123912   4.462   1.195   2.505
 7671SOL    HW223913   4.378   1.093   2.409
 7672SOL     OW23914   0.341   6.735   2.496
 7672SOL    HW123915   0.405   6.663   2.468
 7672SOL    HW223916   0.334   6.803   2.423
 7673SOL     OW23917   1.514   6.306   0.615
 7673SOL    HW123918   1.540   6.335   0.523
 7673SOL    HW223919   1.438   6.240   0.610
 7674SOL     OW23920   5.480   1.149   2.933
 7674SOL    HW123921   5.507   1.244   2.948
 7674SOL    HW223922   5.388   1.135   2.970
 7675SOL     OW23923   6.325   6.506   2.251
 7675SOL    HW123924   6.352   6.549   2.165
 7675SOL    HW223925   6.394   6.438   2.277
 7676SOL     OW23926   2.559   2.321   0.794
 7676SOL    HW123927   2.499   2.253   0.836
 7676SOL    HW223928   2.654   2.291   0.803
 7677SOL     OW23929   0.282   5.072   1.584
 7677SOL    HW123930   0.326   4.989   1.618
 7677SOL    HW223931   0.241   5.055   1.494
 7678SOL     OW23932   1.737   3.083   4.582
 7678SOL    HW123933   1.639   3.093   4.562
 7678SOL    HW223934   1.751   3.003   4.640
 7679SOL     OW23935   2.950   5.573   5.917
 7679SOL    HW123936   2.889   5.530   5.850
 7679SOL    HW223937   3.031   5.517   5.930
 7680SOL     OW23938   1.304   0.916   0.445
 7680SOL    HW123939   1.211   0.952   0.442
 7680SOL    HW223940   1.324   0.869   0.358
 7681SOL     OW23941   2.658   0.810   0.771
 7681SOL    HW123942   2.593   0.757   0.717
 7681SOL    HW223943   2.653   0.906   0.745
 7682SOL     OW23944   3.280   0.226   2.484
 7682SOL    HW123945   3.362   0.216   2.429
 7682SOL    HW223946   3.232   0.309   2.458
 7683SOL     OW23947   4.986   1.624   4.300
 7683SOL    HW123948   4.915   1.694   4.290
 7683SOL    HW223949   5.007   1.611   4.397
 7684SOL     OW23950   3.151   1.815   1.695
 7684SOL    HW123951   3.149   1.722   1.732
 7684SOL    HW223952   3.244   1.837   1.667
 7685SOL     OW23953   2.987   1.944   6.291
 7685SOL    HW123954   2.917   1.994   6.240
 7685SOL    HW223955   3.072   1.996   6.289
 7686SOL     OW23956   6.688   6.388   2.747
 7686SOL    HW123957   6.721   6.306   2.700
 7686SOL    HW223958   6.747   6.465   2.725
 7687SOL     OW23959   5.934   5.297   3.649
 7687SOL    HW123960   5.887   5.261   3.730
 7687SOL    HW223961   5.924   5.233   3.573
 7688SOL     OW23962   0.924   5.909   5.985
 7688SOL    HW123963   0.886   5.817   5.986
 7688SOL    HW223964   0.851   5.975   5.972
 7689SOL     OW23965   5.736   6.313   2.616
 7689SOL    HW123966   5.733   6.214   2.609
 7689SOL    HW223967   5.797   6.340   2.691
 7690SOL     OW23968   5.320   5.310   0.159
 7690SOL    HW123969   5.407   5.267   0.181
 7690SOL    HW223970   5.268   5.326   0.243
 7691SOL     OW23971   5.184   4.106   4.160
 7691SOL    HW123972   5.270   4.079   4.117
 7691SOL    HW223973   5.126   4.025   4.173
 7692SOL     OW23974   0.684   6.163   1.895
 7692SOL    HW123975   0.723   6.177   1.804
 7692SOL    HW223976   0.645   6.072   1.901
 7693SOL     OW23977   3.919   6.650   1.447
 7693SOL    HW123978   3.868   6.605   1.520
 7693SOL    HW223979   3.959   6.580   1.387
 7694SOL     OW23980   6.334   4.390   4.550
 7694SOL    HW123981   6.392   4.467   4.523
 7694SOL    HW223982   6.390   4.319   4.592
 7695SOL     OW23983   4.835   0.782   1.025
 7695SOL    HW123984   4.835   0.742   0.934
 7695SOL    HW223985   4.919   0.835   1.039
 7696SOL     OW23986   0.345   0.144   5.443
 7696SOL    HW123987   0.400   0.181   5.368
 7696SOL    HW223988   0.248   0.143   5.416
 7697SOL     OW23989   2.575   6.549   2.397
 7697SOL    HW123990   2.485   6.592   2.394
 7697SOL    HW223991   2.593   6.517   2.490
 7698SOL     OW23992   5.728   1.002   4.025
 7698SOL    HW123993   5.719   1.066   4.101
 7698SOL    HW223994   5.763   0.915   4.058
 7699SOL     OW23995   3.498   5.827   6.233
 7699SOL    HW123996   3.419   5.863   6.183
 7699SOL    HW223997   3.472   5.744   6.281
 7700SOL     OW23998   4.398   6.160   3.394
 7700SOL    HW123999   4.349   6.233   3.442
 7700SOL    HW224000   4.496   6.178   3.396
 7701SOL     OW24001   6.761   1.864   0.305
 7701SOL    HW124002   6.683   1.907   0.258
 7701SOL    HW224003   6.748   1.873   0.404
 7702SOL     OW24004   3.314   6.692   5.328
 7702SOL    HW124005   3.387   6.625   5.316
 7702SOL    HW224006   3.283   6.691   5.423
 7703SOL     OW24007   6.699   6.585   6.588
 7703SOL    HW124008   6.774   6.528   6.553
 7703SOL    HW224009   6.732   6.643   6.662
 7704SOL     OW24010   5.362   6.064   4.947
 7704SOL    HW124011   5.393   6.034   4.857
 7704SOL    HW224012   5.434   6.117   4.991
 7705SOL     OW24013   3.182   5.654   6.821
 7705SOL    HW124014   3.259   5.637   6.760
 7705SOL    HW224015   3.177   5.580   6.888
 7706SOL     OW24016   4.679   3.194   5.526
 7706SOL    HW124017   4.611   3.201   5.599
 7706SOL    HW224018   4.654   3.255   5.451
 7707SOL     OW24019   6.406   5.593   5.417
 7707SOL    HW124020   6.382   5.609   5.513
 7707SOL    HW224021   6.348   5.520   5.380
 7708SOL     OW24022   0.691   6.763   6.270
 7708SOL    HW124023   0.642   6.692   6.220
 7708SOL    HW224024   0.641   6.784   6.355
 7709SOL     OW24025   6.233   4.527   2.038
 7709SOL    HW124026   6.226   4.460   2.113
 7709SOL    HW224027   6.224   4.619   2.075
 7710SOL     OW24028   2.990   1.859   0.415
 7710SOL    HW124029   3.010   1.932   0.350
 7710SOL    HW224030   3.033   1.880   0.504
 7711SOL     OW24031   6.001   6.755   5.909
 7711SOL    HW124032   5.973   6.747   5.813
 7711SOL    HW224033   5.990   6.666   5.954
 7712SOL     OW24034   6.163   5.393   1.783
 7712SOL    HW124035   6.101   5.387   1.705
 7712SOL    HW224036   6.124   5.454   1.852
 7713SOL     OW24037   1.938   4.161   1.431
 7713SOL    HW124038   2.001   4.107   1.486
 7713SOL    HW224039   1.938   4.127   1.337
 7714SOL     OW24040   6.760   3.910   5.516
 7714SOL    HW124041   6.821   3.875   5.586
 7714SOL    HW224042   6.813   3.961   5.448
 7715SOL     OW24043   3.340   1.834   0.598
 7715SOL    HW124044   3.310   1.739   0.593
 7715SOL    HW224045   3.433   1.841   0.562
 7716SOL     OW24046   6.652   4.062   2.662
 7716SOL    HW124047   6.701   4.076   2.748
 7716SOL    HW224048   6.555   4.082   2.675
 7717SOL     OW24049   1.896   1.136   5.361
 7717SOL    HW124050   1.993   1.113   5.371
 7717SOL    HW224051   1.840   1.067   5.407
 7718SOL     OW24052   0.631   3.485   3.971
 7718SOL    HW124053   0.601   3.506   3.878
 7718SOL    HW224054   0.562   3.427   4.016
 7719SOL     OW24055   6.509   3.994   4.963
 7719SOL    HW124056   6.579   4.057   4.931
 7719SOL    HW224057   6.498   4.004   5.062
 7720SOL     OW24058   0.251   1.337   6.916
 7720SOL    HW124059   0.156   1.324   6.887
 7720SOL    HW224060   0.253   1.392   7.000
 7721SOL     OW24061   0.288   5.353   2.528
 7721SOL    HW124062   0.352   5.342   2.452
 7721SOL    HW224063   0.329   5.316   2.611
 7722SOL     OW24064   0.784   4.541   3.516
 7722SOL    HW124065   0.837   4.466   3.556
 7722SOL    HW224066   0.794   4.623   3.573
 7723SOL     OW24067   5.054   3.319   6.524
 7723SOL    HW124068   5.124   3.281   6.464
 7723SOL    HW224069   5.019   3.404   6.484
 7724SOL     OW24070   3.144   3.890   1.203
 7724SOL    HW124071   3.044   3.890   1.200
 7724SOL    HW224072   3.177   3.796   1.209
 7725SOL     OW24073   6.428   0.794   2.709
 7725SOL    HW124074   6.375   0.767   2.629
 7725SOL    HW224075   6.434   0.894   2.713
 7726SOL     OW24076   1.398   5.538   5.094
 7726SOL    HW124077   1.322   5.473   5.104
 7726SOL    HW224078   1.448   5.518   5.010
 7727SOL     OW24079   0.055   1.759   2.647
 7727SOL    HW124080   0.087   1.665   2.654
 7727SOL    HW224081   0.115   1.819   2.700
 7728SOL     OW24082   1.224   3.995   4.968
 7728SOL    HW124083   1.181   4.084   4.951
 7728SOL    HW224084   1.153   3.925   4.978
 7729SOL     OW24085   5.736   2.503   0.871
 7729SOL    HW124086   5.681   2.426   0.904
 7729SOL    HW224087   5.832   2.476   0.865
 7730SOL     OW24088   5.956   5.658   0.211
 7730SOL    HW124089   5.887   5.645   0.140
 7730SOL    HW224090   5.967   5.756   0.230
 7731SOL     OW24091   6.715   1.407   0.560
 7731SOL    HW124092   6.753   1.319   0.531
 7731SOL    HW224093   6.773   1.447   0.631
 7732SOL     OW24094   5.226   6.815   0.927
 7732SOL    HW124095   5.184   6.743   0.872
 7732SOL    HW224096   5.255   6.890   0.867
 7733SOL     OW24097   4.943   6.503   3.263
 7733SOL    HW124098   4.961   6.436   3.335
 7733SOL    HW224099   4.852   6.543   3.277
 7734SOL     OW24100   1.874   4.823   2.659
 7734SOL    HW124101   1.824   4.776   2.587
 7734SOL    HW224102   1.878   4.921   2.639
 7735SOL     OW24103   4.465   6.667   6.964
 7735SOL    HW124104   4.508   6.601   6.902
 7735SOL    HW224105   4.399   6.619   0.003
 7736SOL     OW24106   3.842   3.593   6.885
 7736SOL    HW124107   3.778   3.655   6.839
 7736SOL    HW224108   3.859   3.514   6.826
 7737SOL     OW24109   3.194   6.754   2.396
 7737SOL    HW124110   3.152   6.759   2.486
 7737SOL    HW224111   3.260   6.828   2.385
 7738SOL     OW24112   2.855   5.895   6.684
 7738SOL    HW124113   2.917   5.905   6.762
 7738SOL    HW224114   2.893   5.828   6.620
 7739SOL     OW24115   0.223   2.808   1.211
 7739SOL    HW124116   0.204   2.710   1.214
 7739SOL    HW224117   0.170   2.855   1.282
 7740SOL     OW24118   2.444   1.561   2.801
 7740SOL    HW124119   2.412   1.544   2.707
 7740SOL    HW224120   2.463   1.473   2.845
 7741SOL     OW24121   1.032   5.090   5.914
 7741SOL    HW124122   1.027   5.184   5.946
 7741SOL    HW224123   1.044   5.028   5.992
 7742SOL     OW24124   4.189   1.896   3.467
 7742SOL    HW124125   4.239   1.889   3.553
 7742SOL    HW224126   4.094   1.921   3.486
 7743SOL     OW24127   5.882   1.517   6.466
 7743SOL    HW124128   5.838   1.437   6.425
 7743SOL    HW224129   5.971   1.491   6.502
 7744SOL     OW24130   0.839   0.086   3.967
 7744SOL    HW124131   0.853   7.020   4.015
 7744SOL    HW224132   0.905   0.153   3.999
 7745SOL     OW24133   3.711   1.474   6.779
 7745SOL    HW124134   3.666   1.399   6.828
 7745SOL    HW224135   3.783   1.512   6.837
 7746SOL     OW24136   1.764   0.296   0.083
 7746SOL    HW124137   1.706   0.271   0.161
 7746SOL    HW224138   1.820   0.375   0.107
 7747SOL     OW24139   5.330   5.879   1.702
 7747SOL    HW124140   5.304   5.952   1.638
 7747SOL    HW224141   5.394   5.915   1.770
 7748SOL     OW24142   2.976   3.672   4.434
 7748SOL    HW124143   2.946   3.731   4.510
 7748SOL    HW224144   2.930   3.583   4.441
 7749SOL     OW24145   3.050   3.773   5.735
 7749SOL    HW124146   2.999   3.753   5.652
 7749SOL    HW224147   3.017   3.859   5.775
 7750SOL     OW24148   0.283   6.338   1.268
 7750SOL    HW124149   0.270   6.240   1.256
 7750SOL    HW224150   0.381   6.358   1.279
 7751SOL     OW24151   1.737   2.746   2.315
 7751SOL    HW124152   1.829   2.717   2.342
 7751SOL    HW224153   1.728   2.845   2.330
 7752SOL     OW24154   5.604   6.557   5.946
 7752SOL    HW124155   5.665   6.487   5.911
 7752SOL    HW224156   5.568   6.529   6.035
 7753SOL     OW24157   2.289   0.727   3.829
 7753SOL    HW124158   2.357   0.776   3.775
 7753SOL    HW224159   2.234   0.793   3.881
 7754SOL     OW24160   3.529   6.617   2.094
 7754SOL    HW124161   3.542   6.540   2.032
 7754SOL    HW224162   3.442   6.663   2.072
 7755SOL     OW24163   1.700   2.017   5.430
 7755SOL    HW124164   1.668   2.094   5.375
 7755SOL    HW224165   1.623   1.955   5.447
 7756SOL     OW24166   2.732   6.090   2.936
 7756SOL    HW124167   2.645   6.138   2.927
 7756SOL    HW224168   2.788   6.135   3.005
 7757SOL     OW24169   5.782   5.039   6.842
 7757SOL    HW124170   5.876   5.044   6.809
 7757SOL    HW224171   5.749   5.130   6.865
 7758SOL     OW24172   2.068   0.840   5.563
 7758SOL    HW124173   2.057   0.902   5.641
 7758SOL    HW224174   1.990   0.777   5.560
 7759SOL     OW24175   1.498   1.821   5.444
 7759SOL    HW124176   1.446   1.798   5.526
 7759SOL    HW224177   1.507   1.741   5.386
 7760SOL     OW24178   5.804   3.220   2.831
 7760SOL    HW124179   5.708   3.194   2.840
 7760SOL    HW224180   5.860   3.137   2.823
 7761SOL     OW24181   0.370   0.401   4.740
 7761SOL    HW124182   0.434   0.427   4.668
 7761SOL    HW224183   0.313   0.326   4.709
 7762SOL     OW24184   2.822   6.713   4.062
 7762SOL    HW124185   2.780   6.622   4.056
 7762SOL    HW224186   2.917   6.708   4.030
 7763SOL     OW24187   1.951   0.735   6.149
 7763SOL    HW124188   1.864   0.783   6.158
 7763SOL    HW224189   1.990   0.751   6.059
 7764SOL     OW24190   3.542   3.197   4.000
 7764SOL    HW124191   3.489   3.160   3.924
 7764SOL    HW224192   3.484   3.205   4.081
 7765SOL     OW24193   6.291   3.575   5.028
 7765SOL    HW124194   6.287   3.599   5.125
 7765SOL    HW224195   6.238   3.641   4.975
 7766SOL     OW24196   6.916   3.987   0.115
 7766SOL    HW124197   6.907   3.888   0.108
 7766SOL    HW224198   6.910   4.028   0.024
 7767SOL     OW24199   5.073   6.162   2.729
 7767SOL    HW124200   5.053   6.222   2.806
 7767SOL    HW224201   5.060   6.066   2.757
 7768SOL     OW24202   4.054   4.761   2.673
 7768SOL    HW124203   4.021   4.729   2.762
 7768SOL    HW224204   3.977   4.769   2.610
 7769SOL     OW24205   4.029   1.811   3.066
 7769SOL    HW124206   3.998   1.793   2.972
 7769SOL    HW224207   4.090   1.890   3.066
 7770SOL     OW24208   1.807   4.289   3.845
 7770SOL    HW124209   1.827   4.369   3.902
 7770SOL    HW224210   1.870   4.288   3.767
 7771SOL     OW24211   3.726   1.885   5.349
 7771SOL    HW124212   3.769   1.806   5.392
 7771SOL    HW224213   3.627   1.877   5.354
 7772SOL     OW24214   4.437   0.201   2.826
 7772SOL    HW124215   4.431   0.102   2.837
 7772SOL    HW224216   4.408   0.226   2.733
 7773SOL     OW24217   2.721   5.773   5.132
 7773SOL    HW124218   2.763   5.844   5.189
 7773SOL    HW224219   2.784   5.748   5.059
 7774SOL     OW24220   5.030   2.037   4.495
 7774SOL    HW124221   5.099   2.005   4.429
 7774SOL    HW224222   4.948   2.065   4.446
 7775SOL     OW24223   4.565   6.001   1.078
 7775SOL    HW124224   4.616   6.085   1.059
 7775SOL    HW224225   4.467   6.020   1.069
 7776SOL     OW24226   0.635   5.694   5.970
 7776SOL    HW124227   0.627   5.670   6.066
 7776SOL    HW224228   0.609   5.615   5.913
 7777SOL     OW24229   6.167   6.474   4.093
 7777SOL    HW124230   6.167   6.382   4.131
 7777SOL    HW224231   6.072   6.508   4.088
 7778SOL     OW24232   5.523   4.481   0.367
 7778SOL    HW124233   5.535   4.500   0.269
 7778SOL    HW224234   5.429   4.501   0.393
 7779SOL     OW24235   2.639   2.138   1.572
 7779SOL    HW124236   2.576   2.196   1.623
 7779SOL    HW224237   2.602   2.121   1.480
 7780SOL     OW24238   0.984   4.850   5.454
 7780SOL    HW124239   0.971   4.924   5.388
 7780SOL    HW224240   1.026   4.886   5.538
 7781SOL     OW24241   2.602   4.922   0.999
 7781SOL    HW124242   2.602   4.853   0.927
 7781SOL    HW224243   2.569   4.882   1.084
 7782SOL     OW24244   5.141   5.224   4.229
 7782SOL    HW124245   5.230   5.265   4.245
 7782SOL    HW224246   5.144   5.167   4.147
 7783SOL     OW24247   0.937   6.183   4.867
 7783SOL    HW124248   0.935   6.088   4.834
 7783SOL    HW224249   0.999   6.189   4.945
 7784SOL     OW24250   3.533   2.367   1.657
 7784SOL    HW124251   3.594   2.351   1.735
 7784SOL    HW224252   3.464   2.435   1.682
 7785SOL     OW24253   1.638   6.365   4.640
 7785SOL    HW124254   1.606   6.294   4.704
 7785SOL    HW224255   1.624   6.455   4.681
 7786SOL     OW24256   3.542   6.406   0.648
 7786SOL    HW124257   3.616   6.460   0.689
 7786SOL    HW224258   3.544   6.314   0.686
 7787SOL     OW24259   1.864   2.790   6.129
 7787SOL    HW124260   1.888   2.703   6.172
 7787SOL    HW224261   1.766   2.792   6.111
 7788SOL     OW24262   2.014   5.010   1.191
 7788SOL    HW124263   2.079   4.942   1.227
 7788SOL    HW224264   2.065   5.083   1.145
 7789SOL     OW24265   2.503   6.876   6.294
 7789SOL    HW124266   2.509   6.927   6.208
 7789SOL    HW224267   2.426   6.910   6.348
 7790SOL     OW24268   5.316   5.667   3.372
 7790SOL    HW124269   5.269   5.606   3.307
 7790SOL    HW224270   5.413   5.643   3.376
 7791SOL     OW24271   2.933   5.088   2.816
 7791SOL    HW124272   2.994   5.042   2.750
 7791SOL    HW224273   2.888   5.165   2.772
 7792SOL     OW24274   1.736   5.666   4.676
 7792SOL    HW124275   1.730   5.576   4.634
 7792SOL    HW224276   1.783   5.659   4.764
 7793SOL     OW24277   3.930   1.054   1.192
 7793SOL    HW124278   3.954   1.140   1.238
 7793SOL    HW224279   3.862   1.073   1.121
 7794SOL     OW24280   6.357   4.028   2.434
 7794SOL    HW124281   6.276   3.970   2.442
 7794SOL    HW224282   6.439   3.971   2.437
 7795SOL     OW24283   1.827   3.925   5.194
 7795SOL    HW124284   1.867   3.886   5.277
 7795SOL    HW224285   1.806   4.021   5.209
 7796SOL     OW24286   3.818   3.075   4.410
 7796SOL    HW124287   3.897   3.135   4.402
 7796SOL    HW224288   3.818   3.010   4.334
 7797SOL     OW24289   1.652   0.052   1.741
 7797SOL    HW124290   1.679   7.008   1.813
 7797SOL    HW224291   1.591   0.007   1.676
 7798SOL     OW24292   1.501   3.518   3.830
 7798SOL    HW124293   1.509   3.571   3.914
 7798SOL    HW224294   1.408   3.482   3.821
 7799SOL     OW24295   1.900   6.068   2.835
 7799SOL    HW124296   1.839   5.997   2.799
 7799SOL    HW224297   1.886   6.153   2.783
 7800SOL     OW24298   1.195   5.789   2.097
 7800SOL    HW124299   1.145   5.810   2.012
 7800SOL    HW224300   1.133   5.745   2.162
 7801SOL     OW24301   1.843   2.013   1.555
 7801SOL    HW124302   1.831   1.964   1.469
 7801SOL    HW224303   1.855   2.111   1.537
 7802SOL     OW24304   5.708   3.030   1.060
 7802SOL    HW124305   5.705   2.933   1.085
 7802SOL    HW224306   5.628   3.052   1.005
 7803SOL     OW24307   4.302   2.224   5.806
 7803SOL    HW124308   4.292   2.174   5.892
 7803SOL    HW224309   4.251   2.177   5.734
 7804SOL     OW24310   4.458   2.131   5.247
 7804SOL    HW124311   4.419   2.131   5.155
 7804SOL    HW224312   4.536   2.193   5.251
 7805SOL     OW24313   5.563   3.363   1.471
 7805SOL    HW124314   5.490   3.422   1.438
 7805SOL    HW224315   5.595   3.304   1.397
 7806SOL     OW24316   6.579   2.124   6.556
 7806SOL    HW124317   6.599   2.222   6.555
 7806SOL    HW224318   6.483   2.109   6.529
 7807SOL     OW24319   1.300   4.949   5.948
 7807SOL    HW124320   1.253   4.930   6.034
 7807SOL    HW224321   1.240   5.001   5.887
 7808SOL     OW24322   6.056   3.301   4.394
 7808SOL    HW124323   6.069   3.359   4.473
 7808SOL    HW224324   6.043   3.357   4.312
 7809SOL     OW24325   4.156   5.007   4.454
 7809SOL    HW124326   4.127   5.099   4.427
 7809SOL    HW224327   4.076   4.947   4.457
 7810SOL     OW24328   3.150   6.683   4.469
 7810SOL    HW124329   3.060   6.692   4.426
 7810SOL    HW224330   3.142   6.699   4.567
 7811SOL     OW24331   1.487   5.533   2.181
 7811SOL    HW124332   1.502   5.602   2.111
 7811SOL    HW224333   1.452   5.449   2.139
 7812SOL     OW24334   0.068   2.440   4.340
 7812SOL    HW124335   0.018   2.366   4.296
 7812SOL    HW224336   0.157   2.451   4.295
 7813SOL     OW24337   4.052   2.280   0.149
 7813SOL    HW124338   4.003   2.202   0.189
 7813SOL    HW224339   4.079   2.343   0.221
 7814SOL     OW24340   0.359   3.758   3.698
 7814SOL    HW124341   0.281   3.760   3.635
 7814SOL    HW224342   0.366   3.847   3.744
 7815SOL     OW24343   6.148   1.377   4.609
 7815SOL    HW124344   6.220   1.313   4.582
 7815SOL    HW224345   6.059   1.339   4.584
 7816SOL     OW24346   1.418   2.240   6.343
 7816SOL    HW124347   1.454   2.333   6.353
 7816SOL    HW224348   1.320   2.239   6.364
 7817SOL     OW24349   4.734   4.049   4.118
 7817SOL    HW124350   4.761   3.976   4.180
 7817SOL    HW224351   4.775   4.034   4.028
 7818SOL     OW24352   4.961   0.285   2.377
 7818SOL    HW124353   4.919   0.335   2.453
 7818SOL    HW224354   4.988   0.194   2.408
 7819SOL     OW24355   6.963   4.232   3.524
 7819SOL    HW124356   6.950   4.327   3.496
 7819SOL    HW224357   0.010   4.228   3.599
 7820SOL     OW24358   1.568   1.335   5.169
 7820SOL    HW124359   1.648   1.395   5.167
 7820SOL    HW224360   1.574   1.275   5.249
 7821SOL     OW24361   5.330   5.587   6.629
 7821SOL    HW124362   5.293   5.573   6.537
 7821SOL    HW224363   5.338   5.498   6.675
 7822SOL     OW24364   0.751   1.166   0.276
 7822SOL    HW124365   0.744   1.113   0.191
 7822SOL    HW224366   0.735   1.106   0.354
 7823SOL     OW24367   2.842   3.573   6.025
 7823SOL    HW124368   2.890   3.570   5.937
 7823SOL    HW224369   2.804   3.665   6.038
 7824SOL     OW24370   5.588   1.330   4.090
 7824SOL    HW124371   5.512   1.316   4.026
 7824SOL    HW224372   5.673   1.344   4.039
 7825SOL     OW24373   1.110   3.478   0.628
 7825SOL    HW124374   1.130   3.405   0.693
 7825SOL    HW224375   1.139   3.565   0.666
 7826SOL     OW24376   5.800   1.516   0.093
 7826SOL    HW124377   5.777   1.574   0.014
 7826SOL    HW224378   5.813   1.422   0.062
 7827SOL     OW24379   3.186   4.896   1.478
 7827SOL    HW124380   3.188   4.966   1.549
 7827SOL    HW224381   3.092   4.866   1.463
 7828SOL     OW24382   0.760   5.166   6.991
 7828SOL    HW124383   0.752   5.121   0.060
 7828SOL    HW224384   0.762   5.098   6.918
 7829SOL     OW24385   1.904   2.915   6.963
 7829SOL    HW124386   1.860   2.964   6.887
 7829SOL    HW224387   2.003   2.914   6.948
 7830SOL     OW24388   4.015   3.641   6.154
 7830SOL    HW124389   4.102   3.625   6.107
 7830SOL    HW224390   3.948   3.674   6.088
 7831SOL     OW24391   1.297   5.639   1.113
 7831SOL    HW124392   1.343   5.620   1.027
 7831SOL    HW224393   1.213   5.585   1.119
 7832SOL     OW24394   4.116   1.390   4.240
 7832SOL    HW124395   4.054   1.351   4.172
 7832SOL    HW224396   4.177   1.455   4.195
 7833SOL     OW24397   0.586   1.260   6.564
 7833SOL    HW124398   0.510   1.210   6.608
 7833SOL    HW224399   0.562   1.356   6.556
 7834SOL     OW24400   6.788   0.721   3.781
 7834SOL    HW124401   6.748   0.769   3.703
 7834SOL    HW224402   6.717   0.701   3.848
 7835SOL     OW24403   2.310   2.131   5.149
 7835SOL    HW124404   2.239   2.105   5.214
 7835SOL    HW224405   2.268   2.161   5.064
 7836SOL     OW24406   2.823   2.659   5.397
 7836SOL    HW124407   2.864   2.594   5.333
 7836SOL    HW224408   2.853   2.752   5.375
 7837SOL     OW24409   6.613   5.663   1.239
 7837SOL    HW124410   6.578   5.698   1.326
 7837SOL    HW224411   6.547   5.599   1.200
 7838SOL     OW24412   4.061   6.453   6.940
 7838SOL    HW124413   4.101   6.474   6.851
 7838SOL    HW224414   4.133   6.449   7.008
 7839SOL     OW24415   5.976   4.424   5.026
 7839SOL    HW124416   5.914   4.462   4.958
 7839SOL    HW224417   6.049   4.373   4.981
 7840SOL     OW24418   5.814   2.818   4.144
 7840SOL    HW124419   5.828   2.769   4.230
 7840SOL    HW224420   5.844   2.913   4.155
 7841SOL     OW24421   4.573   1.632   6.721
 7841SOL    HW124422   4.524   1.717   6.739
 7841SOL    HW224423   4.526   1.556   6.766
 7842SOL     OW24424   1.660   2.213   2.777
 7842SOL    HW124425   1.592   2.281   2.749
 7842SOL    HW224426   1.640   2.125   2.735
 7843SOL     OW24427   5.600   4.568   2.356
 7843SOL    HW124428   5.683   4.577   2.301
 7843SOL    HW224429   5.547   4.489   2.325
 7844SOL     OW24430   4.307   6.887   3.257
 7844SOL    HW124431   4.367   6.952   3.303
 7844SOL    HW224432   4.270   6.928   3.174
 7845SOL     OW24433   5.727   1.899   3.983
 7845SOL    HW124434   5.813   1.949   3.974
 7845SOL    HW224435   5.744   1.808   4.019
 7846SOL     OW24436   0.885   0.919   2.828
 7846SOL    HW124437   0.797   0.935   2.872
 7846SOL    HW224438   0.904   0.992   2.762
 7847SOL     OW24439   6.623   1.457   3.057
 7847SOL    HW124440   6.586   1.487   3.145
 7847SOL    HW224441   6.649   1.537   3.003
 7848SOL     OW24442   2.594   2.825   0.624
 7848SOL    HW124443   2.664   2.896   0.616
 7848SOL    HW224444   2.557   2.825   0.717
 7849SOL     OW24445   5.103   3.909   2.882
 7849SOL    HW124446   5.097   3.984   2.947
 7849SOL    HW224447   5.199   3.890   2.860
 7850SOL     OW24448   0.989   2.055   4.492
 7850SOL    HW124449   1.049   2.102   4.427
 7850SOL    HW224450   0.918   2.005   4.442
 7851SOL     OW24451   6.254   1.027   2.143
 7851SOL    HW124452   6.269   0.931   2.166
 7851SOL    HW224453   6.314   1.084   2.198
 7852SOL     OW24454   2.824   1.194   5.997
 7852SOL    HW124455   2.726   1.188   6.018
 7852SOL    HW224456   2.863   1.102   5.995
 7853SOL     OW24457   4.523   2.023   2.039
 7853SOL    HW124458   4.451   2.091   2.023
 7853SOL    HW224459   4.483   1.932   2.042
 7854SOL     OW24460   3.349   3.035   0.448
 7854SOL    HW124461   3.345   2.935   0.451
 7854SOL    HW224462   3.381   3.070   0.537
 7855SOL     OW24463   3.551   5.446   5.214
 7855SOL    HW124464   3.585   5.504   5.140
 7855SOL    HW224465   3.621   5.379   5.239
 7856SOL     OW24466   6.030   4.612   5.212
 7856SOL    HW124467   6.018   4.526   5.162
 7856SOL    HW224468   5.966   4.680   5.176
 7857SOL     OW24469   6.321   2.421   5.741
 7857SOL    HW124470   6.343   2.348   5.805
 7857SOL    HW224471   6.242   2.394   5.686
 7858SOL     OW24472   5.404   4.946   3.208
 7858SOL    HW124473   5.443   4.873   3.264
 7858SOL    HW224474   5.425   4.928   3.112
 7859SOL     OW24475   5.473   3.121   6.681
 7859SOL    HW124476   5.427   3.078   6.759
 7859SOL    HW224477   5.407   3.138   6.609
 7860SOL     OW24478   4.568   0.620   2.842
 7860SOL    HW124479   4.609   0.690   2.785
 7860SOL    HW224480   4.493   0.659   2.894
 7861SOL     OW24481   3.852   5.159   2.085
 7861SOL    HW124482   3.895   5.210   2.159
 7861SOL    HW224483   3.870   5.204   1.998
 7862SOL     OW24484   3.153   4.254   1.650
 7862SOL    HW124485   3.195   4.213   1.731
 7862SOL    HW224486   3.057   4.276   1.670
 7863SOL     OW24487   0.313   5.470   4.095
 7863SOL    HW124488   0.319   5.473   4.195
 7863SOL    HW224489   0.392   5.515   4.055
 7864SOL     OW24490   0.579   5.270   5.260
 7864SOL    HW124491   0.648   5.339   5.239
 7864SOL    HW224492   0.504   5.311   5.311
 7865SOL     OW24493   5.670   0.297   4.295
 7865SOL    HW124494   5.720   0.321   4.212
 7865SOL    HW224495   5.575   0.329   4.287
 7866SOL     OW24496   2.152   2.280   6.133
 7866SOL    HW124497   2.222   2.339   6.093
 7866SOL    HW224498   2.181   2.185   6.129
 7867SOL     OW24499   4.964   6.815   2.595
 7867SOL    HW124500   4.972   6.738   2.532
 7867SOL    HW224501   5.053   6.834   2.636
 7868SOL     OW24502   5.711   0.115   2.410
 7868SOL    HW124503   5.665   0.033   2.445
 7868SOL    HW224504   5.803   0.092   2.378
 7869SOL     OW24505   5.670   4.028   0.021
 7869SOL    HW124506   5.749   4.049   6.984
 7869SOL    HW224507   5.611   3.963   6.993
 7870SOL     OW24508   4.078   5.252   4.370
 7870SOL    HW124509   4.106   5.346   4.354
 7870SOL    HW224510   4.032   5.245   4.459
 7871SOL     OW24511   5.336   3.052   2.673
 7871SOL    HW124512   5.317   3.058   2.771
 7871SOL    HW224513   5.250   3.063   2.622
 7872SOL     OW24514   2.294   4.267   2.904
 7872SOL    HW124515   2.214   4.322   2.881
 7872SOL    HW224516   2.378   4.318   2.883
 7873SOL     OW24517   5.925   0.542   6.150
 7873SOL    HW124518   5.998   0.501   6.204
 7873SOL    HW224519   5.838   0.530   6.198
 7874SOL     OW24520   5.389   1.715   0.460
 7874SOL    HW124521   5.479   1.677   0.442
 7874SOL    HW224522   5.355   1.761   0.378
 7875SOL     OW24523   5.160   2.393   6.366
 7875SOL    HW124524   5.148   2.294   6.368
 7875SOL    HW224525   5.205   2.419   6.281
 7876SOL     OW24526   0.186   6.615   5.043
 7876SOL    HW124527   0.095   6.602   5.005
 7876SOL    HW224528   0.248   6.647   4.971
 7877SOL     OW24529   0.460   2.138   2.626
 7877SOL    HW124530   0.437   2.233   2.608
 7877SOL    HW224531   0.436   2.082   2.547
 7878SOL     OW24532   5.536   5.057   3.913
 7878SOL    HW124533   5.617   5.116   3.910
 7878SOL    HW224534   5.456   5.110   3.886
 7879SOL     OW24535   4.218   5.604   3.404
 7879SOL    HW124536   4.156   5.661   3.458
 7879SOL    HW224537   4.305   5.651   3.392
 7880SOL     OW24538   1.979   4.975   1.718
 7880SOL    HW124539   2.051   5.010   1.777
 7880SOL    HW224540   1.908   4.931   1.773
 7881SOL     OW24541   5.596   4.081   5.178
 7881SOL    HW124542   5.548   3.999   5.145
 7881SOL    HW224543   5.576   4.094   5.275
 7882SOL     OW24544   1.052   3.329   3.166
 7882SOL    HW124545   0.957   3.323   3.195
 7882SOL    HW224546   1.088   3.420   3.188
 7883SOL     OW24547   1.405   0.466   0.349
 7883SOL    HW124548   1.455   0.393   0.396
 7883SOL    HW224549   1.332   0.499   0.409
 7884SOL     OW24550   2.244   4.092   3.640
 7884SOL    HW124551   2.226   4.139   3.554
 7884SOL    HW224552   2.266   3.996   3.622
 7885SOL     OW24553   6.391   5.650   1.391
 7885SOL    HW124554   6.364   5.675   1.484
 7885SOL    HW224555   6.389   5.730   1.332
 7886SOL     OW24556   3.447   5.629   0.607
 7886SOL    HW124557   3.525   5.620   0.545
 7886SOL    HW224558   3.474   5.601   0.699
 7887SOL     OW24559   3.354   2.499   5.400
 7887SOL    HW124560   3.298   2.464   5.325
 7887SOL    HW224561   3.440   2.535   5.364
 7888SOL     OW24562   6.516   6.795   5.046
 7888SOL    HW124563   6.437   6.755   5.000
 7888SOL    HW224564   6.592   6.729   5.047
 7889SOL     OW24565   0.967   4.957   0.087
 7889SOL    HW124566   0.961   4.909   7.019
 7889SOL    HW224567   0.991   4.891   0.158
 7890SOL     OW24568   0.485   2.983   3.504
 7890SOL    HW124569   0.585   2.992   3.499
 7890SOL    HW224570   0.448   2.974   3.411
 7891SOL     OW24571   2.147   4.270   4.507
 7891SOL    HW124572   2.189   4.184   4.477
 7891SOL    HW224573   2.066   4.249   4.563
 7892SOL     OW24574   1.945   1.837   4.073
 7892SOL    HW124575   1.906   1.827   4.164
 7892SOL    HW224576   1.916   1.760   4.016
 7893SOL     OW24577   6.273   6.474   1.541
 7893SOL    HW124578   6.218   6.512   1.467
 7893SOL    HW224579   6.349   6.536   1.561
 7894SOL     OW24580   3.707   0.080   0.913
 7894SOL    HW124581   3.703   0.177   0.888
 7894SOL    HW224582   3.788   0.039   0.871
 7895SOL     OW24583   5.242   0.420   4.940
 7895SOL    HW124584   5.275   0.478   4.866
 7895SOL    HW224585   5.183   0.349   4.902
 7896SOL     OW24586   4.063   3.225   1.094
 7896SOL    HW124587   4.159   3.205   1.076
 7896SOL    HW224588   4.046   3.323   1.080
 7897SOL     OW24589   3.325   2.715   1.131
 7897SOL    HW124590   3.329   2.798   1.076
 7897SOL    HW224591   3.258   2.726   1.204
 7898SOL     OW24592   3.695   1.014   3.787
 7898SOL    HW124593   3.682   0.974   3.696
 7898SOL    HW224594   3.780   0.980   3.827
 7899SOL     OW24595   6.108   0.520   1.187
 7899SOL    HW124596   6.175   0.527   1.261
 7899SOL    HW224597   6.029   0.577   1.208
 7900SOL     OW24598   1.630   5.458   1.815
 7900SOL    HW124599   1.606   5.542   1.767
 7900SOL    HW224600   1.712   5.419   1.774
 7901SOL     OW24601   3.915   1.113   6.486
 7901SOL    HW124602   3.837   1.140   6.543
 7901SOL    HW224603   3.909   1.161   6.398
 7902SOL     OW24604   6.587   6.904   1.508
 7902SOL    HW124605   6.644   6.967   1.456
 7902SOL    HW224606   6.547   6.951   1.587
 7903SOL     OW24607   4.294   1.513   2.772
 7903SOL    HW124608   4.270   1.495   2.867
 7903SOL    HW224609   4.266   1.606   2.747
 7904SOL     OW24610   5.723   5.964   2.793
 7904SOL    HW124611   5.792   5.937   2.860
 7904SOL    HW224612   5.634   5.973   2.838
 7905SOL     OW24613   5.810   2.085   0.456
 7905SOL    HW124614   5.909   2.080   0.449
 7905SOL    HW224615   5.780   2.035   0.538
 7906SOL     OW24616   0.628   5.326   0.495
 7906SOL    HW124617   0.545   5.301   0.545
 7906SOL    HW224618   0.646   5.424   0.508
 7907SOL     OW24619   5.241   2.141   3.425
 7907SOL    HW124620   5.287   2.068   3.374
 7907SOL    HW224621   5.277   2.144   3.519
 7908SOL     OW24622   1.738   1.012   5.710
 7908SOL    HW124623   1.693   0.935   5.755
 7908SOL    HW224624   1.707   1.098   5.750
 7909SOL     OW24625   4.519   4.458   4.384
 7909SOL    HW124626   4.469   4.486   4.302
 7909SOL    HW224627   4.591   4.525   4.403
 7910SOL     OW24628   2.681   3.127   6.404
 7910SOL    HW124629   2.697   3.104   6.500
 7910SOL    HW224630   2.761   3.101   6.350
 7911SOL     OW24631   0.966   4.133   0.225
 7911SOL    HW124632   0.907   4.093   0.295
 7911SOL    HW224633   1.024   4.204   0.266
 7912SOL     OW24634   6.411   4.706   0.411
 7912SOL    HW124635   6.424   4.632   0.477
 7912SOL    HW224636   6.319   4.745   0.422
 7913SOL     OW24637   1.286   4.238   1.943
 7913SOL    HW124638   1.255   4.215   1.850
 7913SOL    HW224639   1.335   4.161   1.982
 7914SOL     OW24640   0.506   4.862   0.207
 7914SOL    HW124641   0.477   4.819   0.293
 7914SOL    HW224642   0.594   4.909   0.222
 7915SOL     OW24643   4.733   2.526   1.705
 7915SOL    HW124644   4.681   2.596   1.755
 7915SOL    HW224645   4.825   2.520   1.744
 7916SOL     OW24646   0.204   5.468   5.115
 7916SOL    HW124647   0.262   5.468   5.034
 7916SOL    HW224648   0.253   5.424   5.191
 7917SOL     OW24649   3.178   3.145   4.929
 7917SOL    HW124650   3.157   3.127   5.025
 7917SOL    HW224651   3.245   3.077   4.896
 7918SOL     OW24652   0.319   0.621   4.911
 7918SOL    HW124653   0.309   0.591   5.006
 7918SOL    HW224654   0.275   0.555   4.851
 7919SOL     OW24655   1.089   4.229   3.248
 7919SOL    HW124656   1.105   4.254   3.152
 7919SOL    HW224657   1.029   4.296   3.290
 7920SOL     OW24658   0.360   0.275   0.745
 7920SOL    HW124659   0.360   0.303   0.841
 7920SOL    HW224660   0.355   0.357   0.687
 7921SOL     OW24661   5.194   6.002   2.199
 7921SOL    HW124662   5.196   5.929   2.132
 7921SOL    HW224663   5.271   6.064   2.183
 7922SOL     OW24664   0.016   6.156   1.103
 7922SOL    HW124665   0.063   6.131   1.188
 7922SOL    HW224666   0.064   6.232   1.059
 7923SOL     OW24667   3.658   0.384   6.612
 7923SOL    HW124668   3.568   0.342   6.595
 7923SOL    HW224669   3.681   0.374   6.709
 7924SOL     OW24670   5.065   0.000   2.319
 7924SOL    HW124671   5.154   0.014   2.362
 7924SOL    HW224672   5.075   6.961   2.239
 7925SOL     OW24673   0.985   0.849   6.570
 7925SOL    HW124674   0.932   0.928   6.600
 7925SOL    HW224675   0.922   0.776   6.542
 7926SOL     OW24676   4.512   1.549   5.648
 7926SOL    HW124677   4.572   1.626   5.671
 7926SOL    HW224678   4.559   1.463   5.667
 7927SOL     OW24679   4.078   5.938   3.306
 7927SOL    HW124680   4.092   6.000   3.229
 7927SOL    HW224681   4.162   5.931   3.359
 7928SOL     OW24682   1.541   1.488   4.734
 7928SOL    HW124683   1.450   1.453   4.755
 7928SOL    HW224684   1.535   1.585   4.714
 7929SOL     OW24685   4.598   4.443   5.636
 7929SOL    HW124686   4.676   4.470   5.693
 7929SOL    HW224687   4.626   4.373   5.571
 7930SOL     OW24688   4.213   5.515   4.378
 7930SOL    HW124689   4.246   5.580   4.446
 7930SOL    HW224690   4.241   5.546   4.287
 7931SOL     OW24691   3.428   2.763   0.504
 7931SOL    HW124692   3.373   2.701   0.560
 7931SOL    HW224693   3.524   2.754   0.527
 7932SOL     OW24694   1.372   6.501   6.998
 7932SOL    HW124695   1.353   6.436   6.924
 7932SOL    HW224696   1.471   6.512   7.008
 7933SOL     OW24697   0.171   6.067   6.503
 7933SOL    HW124698   0.108   5.997   6.469
 7933SOL    HW224699   0.207   6.039   6.592
 7934SOL     OW24700   2.053   4.821   6.549
 7934SOL    HW124701   2.014   4.729   6.550
 7934SOL    HW224702   1.996   4.881   6.494
 7935SOL     OW24703   5.806   6.498   1.189
 7935SOL    HW124704   5.787   6.575   1.128
 7935SOL    HW224705   5.740   6.498   1.265
 7936SOL     OW24706   3.932   5.555   2.052
 7936SOL    HW124707   3.926   5.480   1.986
 7936SOL    HW224708   3.945   5.641   2.003
 7937SOL     OW24709   6.521   6.164   3.599
 7937SOL    HW124710   6.494   6.084   3.653
 7937SOL    HW224711   6.592   6.137   3.534
 7938SOL     OW24712   0.005   5.721   3.901
 7938SOL    HW124713   6.966   5.660   3.954
 7938SOL    HW224714   6.996   5.721   3.805
 7939SOL     OW24715   1.189   2.567   4.375
 7939SOL    HW124716   1.239   2.633   4.319
 7939SOL    HW224717   1.219   2.573   4.470
 7940SOL     OW24718   1.989   3.165   1.597
 7940SOL    HW124719   1.912   3.225   1.620
 7940SOL    HW224720   2.056   3.166   1.672
 7941SOL     OW24721   6.235   0.534   1.909
 7941SOL    HW124722   6.332   0.516   1.925
 7941SOL    HW224723   6.216   0.631   1.920
 7942SOL     OW24724   6.614   5.280   2.704
 7942SOL    HW124725   6.672   5.208   2.665
 7942SOL    HW224726   6.653   5.369   2.683
 7943SOL     OW24727   6.892   3.613   6.548
 7943SOL    HW124728   6.990   3.601   6.567
 7943SOL    HW224729   6.840   3.595   6.631
 7944SOL     OW24730   0.666   2.311   0.844
 7944SOL    HW124731   0.595   2.366   0.800
 7944SOL    HW224732   0.737   2.288   0.777
 7945SOL     OW24733   6.198   5.145   1.551
 7945SOL    HW124734   6.255   5.125   1.631
 7945SOL    HW224735   6.130   5.214   1.575
 7946SOL     OW24736   3.367   0.562   6.140
 7946SOL    HW124737   3.279   0.596   6.174
 7946SOL    HW224738   3.434   0.636   6.141
 7947SOL     OW24739   3.661   2.312   6.731
 7947SOL    HW124740   3.740   2.373   6.738
 7947SOL    HW224741   3.665   2.244   6.805
 7948SOL     OW24742   1.216   6.822   1.131
 7948SOL    HW124743   1.280   6.764   1.080
 7948SOL    HW224744   1.131   6.831   1.078
 7949SOL     OW24745   4.520   4.545   4.807
 7949SOL    HW124746   4.449   4.554   4.876
 7949SOL    HW224747   4.581   4.469   4.831
 7950SOL     OW24748   4.632   5.198   3.790
 7950SOL    HW124749   4.662   5.252   3.868
 7950SOL    HW224750   4.571   5.125   3.822
 7951SOL     OW24751   2.259   4.020   1.913
 7951SOL    HW124752   2.302   3.988   1.828
 7951SOL    HW224753   2.160   4.005   1.907
 7952SOL     OW24754   0.265   3.722   6.932
 7952SOL    HW124755   0.268   3.638   6.877
 7952SOL    HW224756   0.170   3.755   6.937
 7953SOL     OW24757   2.872   2.168   3.526
 7953SOL    HW124758   2.964   2.128   3.533
 7953SOL    HW224759   2.827   2.133   3.444
 7954SOL     OW24760   3.078   4.622   6.323
 7954SOL    HW124761   3.034   4.654   6.407
 7954SOL    HW224762   3.030   4.542   6.288
 7955SOL     OW24763   1.775   0.907   6.430
 7955SOL    HW124764   1.763   1.004   6.446
 7955SOL    HW224765   1.866   0.879   6.461
 7956SOL     OW24766   4.050   6.484   2.612
 7956SOL    HW124767   3.999   6.420   2.554
 7956SOL    HW224768   3.986   6.536   2.668
 7957SOL     OW24769   0.894   0.687   1.338
 7957SOL    HW124770   0.951   0.723   1.265
 7957SOL    HW224771   0.952   0.662   1.416
 7958SOL     OW24772   3.790   5.011   5.484
 7958SOL    HW124773   3.708   5.047   5.440
 7958SOL    HW224774   3.872   5.050   5.441
 7959SOL     OW24775   4.506   5.950   0.368
 7959SOL    HW124776   4.570   5.886   0.325
 7959SOL    HW224777   4.546   5.987   0.452
 7960SOL     OW24778   2.726   1.675   5.859
 7960SOL    HW124779   2.786   1.676   5.939
 7960SOL    HW224780   2.631   1.673   5.888
 7961SOL     OW24781   6.515   1.088   0.946
 7961SOL    HW124782   6.446   1.159   0.939
 7961SOL    HW224783   6.483   1.006   0.898
 7962SOL     OW24784   1.182   0.548   6.423
 7962SOL    HW124785   1.223   0.579   6.508
 7962SOL    HW224786   1.233   0.586   6.346
 7963SOL     OW24787   6.539   6.586   3.829
 7963SOL    HW124788   6.542   6.574   3.928
 7963SOL    HW224789   6.462   6.644   3.804
 7964SOL     OW24790   0.230   4.462   2.515
 7964SOL    HW124791   0.223   4.364   2.530
 7964SOL    HW224792   0.140   4.500   2.496
 7965SOL     OW24793   4.527   2.642   5.485
 7965SOL    HW124794   4.460   2.592   5.539
 7965SOL    HW224795   4.573   2.709   5.543
 7966SOL     OW24796   2.016   3.106   5.673
 7966SOL    HW124797   2.051   3.164   5.746
 7966SOL    HW224798   2.052   3.137   5.585
 7967SOL     OW24799   3.186   6.552   2.761
 7967SOL    HW124800   3.282   6.562   2.787
 7967SOL    HW224801   3.177   6.480   2.693
 7968SOL     OW24802   1.790   2.723   3.665
 7968SOL    HW124803   1.737   2.711   3.748
 7968SOL    HW224804   1.869   2.662   3.666
 7969SOL     OW24805   3.909   6.189   6.866
 7969SOL    HW124806   3.909   6.286   6.844
 7969SOL    HW224807   3.845   6.141   6.806
 7970SOL     OW24808   6.633   2.780   2.573
 7970SOL    HW124809   6.685   2.720   2.512
 7970SOL    HW224810   6.610   2.864   2.525
 7971SOL     OW24811   3.285   2.107   0.484
 7971SOL    HW124812   3.203   2.149   0.446
 7971SOL    HW224813   3.270   2.009   0.495
 7972SOL     OW24814   2.171   3.088   6.937
 7972SOL    HW124815   2.177   3.166   7.000
 7972SOL    HW224816   2.256   3.082   6.884
 7973SOL     OW24817   4.347   4.829   4.355
 7973SOL    HW124818   4.351   4.750   4.417
 7973SOL    HW224819   4.304   4.906   4.401
 7974SOL     OW24820   6.031   0.622   5.470
 7974SOL    HW124821   6.031   0.721   5.484
 7974SOL    HW224822   6.113   0.583   5.512
 7975SOL     OW24823   6.450   1.431   2.169
 7975SOL    HW124824   6.467   1.525   2.200
 7975SOL    HW224825   6.408   1.434   2.078
 7976SOL     OW24826   0.339   0.402   5.966
 7976SOL    HW124827   0.348   0.455   5.882
 7976SOL    HW224828   0.408   0.330   5.967
 7977SOL     OW24829   4.853   5.962   2.793
 7977SOL    HW124830   4.758   5.948   2.823
 7977SOL    HW224831   4.858   5.953   2.694
 7978SOL     OW24832   5.579   3.788   6.661
 7978SOL    HW124833   5.581   3.691   6.686
 7978SOL    HW224834   5.671   3.817   6.634
 7979SOL     OW24835   4.356   5.947   5.118
 7979SOL    HW124836   4.437   5.957   5.060
 7979SOL    HW224837   4.274   5.945   5.061
 7980SOL     OW24838   3.069   5.604   0.082
 7980SOL    HW124839   3.116   5.667   0.144
 7980SOL    HW224840   3.065   5.513   0.124
 7981SOL     OW24841   0.542   5.224   1.172
 7981SOL    HW124842   0.482   5.286   1.222
 7981SOL    HW224843   0.555   5.259   1.079
 7982SOL     OW24844   1.466   1.465   6.563
 7982SOL    HW124845   1.465   1.485   6.661
 7982SOL    HW224846   1.532   1.392   6.544
 7983SOL     OW24847   5.871   2.231   1.721
 7983SOL    HW124848   5.778   2.207   1.693
 7983SOL    HW224849   5.925   2.256   1.640
 7984SOL     OW24850   0.987   1.302   0.556
 7984SOL    HW124851   1.066   1.329   0.611
 7984SOL    HW224852   1.018   1.269   0.467
 7985SOL     OW24853   2.724   1.033   4.337
 7985SOL    HW124854   2.813   1.066   4.369
 7985SOL    HW224855   2.653   1.059   4.402
 7986SOL     OW24856   3.172   1.304   6.230
 7986SOL    HW124857   3.247   1.338   6.287
 7986SOL    HW224858   3.134   1.380   6.177
 7987SOL     OW24859   1.287   2.648   6.434
 7987SOL    HW124860   1.295   2.748   6.433
 7987SOL    HW224861   1.196   2.621   6.404
 7988SOL     OW24862   0.735   2.338   3.795
 7988SOL    HW124863   0.695   2.415   3.745
 7988SOL    HW224864   0.800   2.291   3.735
 7989SOL     OW24865   3.109   2.875   6.063
 7989SOL    HW124866   3.175   2.917   6.124
 7989SOL    HW224867   3.106   2.776   6.079
 7990SOL     OW24868   0.651   3.928   4.552
 7990SOL    HW124869   0.679   3.997   4.618
 7990SOL    HW224870   0.648   3.838   4.597
 7991SOL     OW24871   5.741   6.713   3.655
 7991SOL    HW124872   5.821   6.654   3.657
 7991SOL    HW224873   5.658   6.657   3.651
 7992SOL     OW24874   1.105   0.155   1.087
 7992SOL    HW124875   1.124   0.105   1.002
 7992SOL    HW224876   1.138   0.249   1.079
 7993SOL     OW24877   0.742   6.803   0.642
 7993SOL    HW124878   0.780   6.857   0.717
 7993SOL    HW224879   0.801   6.725   0.623
 7994SOL     OW24880   4.105   0.091   3.392
 7994SOL    HW124881   4.105   0.141   3.479
 7994SOL    HW224882   4.163   0.010   3.400
 7995SOL     OW24883   4.836   5.956   3.958
 7995SOL    HW124884   4.828   5.885   3.888
 7995SOL    HW224885   4.805   6.043   3.921
 7996SOL     OW24886   2.508   6.598   4.746
 7996SOL    HW124887   2.576   6.652   4.696
 7996SOL    HW224888   2.471   6.652   4.821
 7997SOL     OW24889   0.053   1.534   1.015
 7997SOL    HW124890   6.981   1.555   1.046
 7997SOL    HW224891   0.090   1.459   1.068
 7998SOL     OW24892   2.941   6.847   0.893
 7998SOL    HW124893   2.895   6.935   0.910
 7998SOL    HW224894   2.952   6.835   0.794
 7999SOL     OW24895   1.192   0.357   5.993
 7999SOL    HW124896   1.098   0.348   6.026
 7999SOL    HW224897   1.192   0.401   5.903
 8000SOL     OW24898   4.869   0.471   6.825
 8000SOL    HW124899   4.857   0.559   6.870
 8000SOL    HW224900   4.804   0.405   6.862
 8001SOL     OW24901   4.670   6.377   1.175
 8001SOL    HW124902   4.733   6.408   1.105
 8001SOL    HW224903   4.597   6.323   1.133
 8002SOL     OW24904   1.367   1.396   5.870
 8002SOL    HW124905   1.310   1.410   5.789
 8002SOL    HW224906   1.440   1.465   5.871
 8003SOL     OW24907   3.228   5.261   2.481
 8003SOL    HW124908   3.284   5.326   2.429
 8003SOL    HW224909   3.228   5.173   2.433
 8004SOL     OW24910   2.085   3.435   3.063
 8004SOL    HW124911   2.074   3.336   3.057
 8004SOL    HW224912   2.111   3.472   2.974
 8005SOL     OW24913   3.235   0.828   1.357
 8005SOL    HW124914   3.276   0.907   1.402
 8005SOL    HW224915   3.146   0.853   1.320
 8006SOL     OW24916   1.921   6.893   6.162
 8006SOL    HW124917   1.919   6.810   6.217
 8006SOL    HW224918   1.924   6.973   6.222
 8007SOL     OW24919   6.591   0.670   4.265
 8007SOL    HW124920   6.567   0.591   4.322
 8007SOL    HW224921   6.678   0.708   4.297
 8008SOL     OW24922   3.894   5.388   6.385
 8008SOL    HW124923   3.923   5.307   6.334
 8008SOL    HW224924   3.926   5.471   6.338
 8009SOL     OW24925   5.778   0.968   2.521
 8009SOL    HW124926   5.730   0.976   2.608
 8009SOL    HW224927   5.799   0.872   2.503
 8010SOL     OW24928   1.513   1.622   5.858
 8010SOL    HW124929   1.601   1.628   5.810
 8010SOL    HW224930   1.503   1.700   5.919
 8011SOL     OW24931   2.878   2.573   1.435
 8011SOL    HW124932   2.860   2.514   1.514
 8011SOL    HW224933   2.868   2.520   1.351
 8012SOL     OW24934   1.951   3.810   1.366
 8012SOL    HW124935   2.010   3.858   1.432
 8012SOL    HW224936   1.875   3.869   1.340
 8013SOL     OW24937   1.390   5.230   3.365
 8013SOL    HW124938   1.290   5.225   3.359
 8013SOL    HW224939   1.429   5.147   3.325
 8014SOL     OW24940   1.282   6.090   5.371
 8014SOL    HW124941   1.228   6.036   5.307
 8014SOL    HW224942   1.366   6.041   5.393
 8015SOL     OW24943   3.140   0.634   6.251
 8015SOL    HW124944   3.145   0.668   6.345
 8015SOL    HW224945   3.047   0.603   6.232
 8016SOL     OW24946   4.863   0.418   5.692
 8016SOL    HW124947   4.935   0.359   5.730
 8016SOL    HW224948   4.793   0.362   5.649
 8017SOL     OW24949   5.797   0.135   0.518
 8017SOL    HW124950   5.766   0.158   0.611
 8017SOL    HW224951   5.767   0.043   0.494
 8018SOL     OW24952   3.427   1.953   6.194
 8018SOL    HW124953   3.357   1.992   6.253
 8018SOL    HW224954   3.390   1.874   6.145
 8019SOL     OW24955   2.451   4.068   0.148
 8019SOL    HW124956   2.426   4.059   0.052
 8019SOL    HW224957   2.397   4.141   0.190
 8020SOL     OW24958   5.907   0.683   1.251
 8020SOL    HW124959   5.903   0.749   1.326
 8020SOL    HW224960   5.862   0.723   1.170
 8021SOL     OW24961   1.069   2.784   1.345
 8021SOL    HW124962   0.975   2.753   1.339
 8021SOL    HW224963   1.101   2.811   1.254
 8022SOL     OW24964   5.464   6.763   3.163
 8022SOL    HW124965   5.411   6.687   3.124
 8022SOL    HW224966   5.420   6.850   3.140
 8023SOL     OW24967   5.736   5.085   2.670
 8023SOL    HW124968   5.719   5.182   2.652
 8023SOL    HW224969   5.651   5.034   2.656
 8024SOL     OW24970   1.809   4.890   6.422
 8024SOL    HW124971   1.766   4.800   6.428
 8024SOL    HW224972   1.851   4.900   6.332
 8025SOL     OW24973   1.688   6.451   6.424
 8025SOL    HW124974   1.778   6.432   6.385
 8025SOL    HW224975   1.678   6.549   6.440
 8026SOL     OW24976   0.352   4.505   6.774
 8026SOL    HW124977   0.300   4.590   6.764
 8026SOL    HW224978   0.424   4.502   6.705
 8027SOL     OW24979   4.584   0.980   4.668
 8027SOL    HW124980   4.679   0.988   4.699
 8027SOL    HW224981   4.523   0.990   4.746
 8028SOL     OW24982   3.788   5.354   5.364
 8028SOL    HW124983   3.879   5.326   5.394
 8028SOL    HW224984   3.718   5.309   5.420
 8029SOL     OW24985   4.662   2.906   1.227
 8029SOL    HW124986   4.609   2.827   1.257
 8029SOL    HW224987   4.676   2.968   1.304
 8030SOL     OW24988   4.477   4.499   1.057
 8030SOL    HW124989   4.508   4.498   0.962
 8030SOL    HW224990   4.405   4.568   1.067
 8031SOL     OW24991   6.378   6.642   2.000
 8031SOL    HW124992   6.460   6.617   1.948
 8031SOL    HW224993   6.338   6.725   1.962
 8032SOL     OW24994   6.542   4.643   1.495
 8032SOL    HW124995   6.446   4.661   1.516
 8032SOL    HW224996   6.599   4.672   1.572
 8033SOL     OW24997   5.021   1.284   5.764
 8033SOL    HW124998   5.031   1.276   5.665
 8033SOL    HW224999   5.097   1.337   5.801
 8034SOL     OW25000   4.835   0.144   4.573
 8034SOL    HW125001   4.822   0.112   4.479
 8034SOL    HW225002   4.847   0.243   4.573
 8035SOL     OW25003   5.218   1.755   4.220
 8035SOL    HW125004   5.157   1.715   4.288
 8035SOL    HW225005   5.293   1.692   4.200
 8036SOL     OW25006   6.844   3.863   3.245
 8036SOL    HW125007   6.863   3.937   3.309
 8036SOL    HW225008   6.915   3.793   3.253
 8037SOL     OW25009   1.801   3.187   0.374
 8037SOL    HW125010   1.740   3.121   0.417
 8037SOL    HW225011   1.806   3.168   0.276
 8038SOL     OW25012   4.335   6.720   2.738
 8038SOL    HW125013   4.242   6.703   2.771
 8038SOL    HW225014   4.370   6.638   2.693
 8039SOL     OW25015   0.752   1.541   4.715
 8039SOL    HW125016   0.673   1.576   4.766
 8039SOL    HW225017   0.763   1.443   4.733
 8040SOL     OW25018   1.672   5.261   6.850
 8040SOL    HW125019   1.660   5.168   6.818
 8040SOL    HW225020   1.716   5.316   6.779
 8041SOL     OW25021   2.339   1.809   2.696
 8041SOL    HW125022   2.367   1.721   2.734
 8041SOL    HW225023   2.312   1.797   2.600
 8042SOL     OW25024   3.220   3.043   3.973
 8042SOL    HW125025   3.220   3.081   3.880
 8042SOL    HW225026   3.145   3.082   4.025
 8043SOL     OW25027   3.721   6.824   1.380
 8043SOL    HW125028   3.809   6.792   1.415
 8043SOL    HW225029   3.647   6.770   1.421
 8044SOL     OW25030   4.013   2.077   1.121
 8044SOL    HW125031   4.023   2.033   1.031
 8044SOL    HW225032   3.916   2.096   1.138
 8045SOL     OW25033   5.208   2.188   3.018
 8045SOL    HW125034   5.183   2.170   2.923
 8045SOL    HW225035   5.158   2.126   3.078
 8046SOL     OW25036   0.104   5.314   1.285
 8046SOL    HW125037   0.142   5.222   1.275
 8046SOL    HW225038   0.177   5.378   1.308
 8047SOL     OW25039   4.346   5.916   4.550
 8047SOL    HW125040   4.271   5.968   4.590
 8047SOL    HW225041   4.371   5.956   4.462
 8048SOL     OW25042   5.264   0.923   5.583
 8048SOL    HW125043   5.246   0.891   5.676
 8048SOL    HW225044   5.361   0.946   5.574
 8049SOL     OW25045   0.687   0.111   0.491
 8049SOL    HW125046   0.659   0.027   0.445
 8049SOL    HW225047   0.672   0.189   0.430
 8050SOL     OW25048   1.511   4.164   3.543
 8050SOL    HW125049   1.547   4.183   3.634
 8050SOL    HW225050   1.488   4.067   3.535
 8051SOL     OW25051   4.979   6.001   3.610
 8051SOL    HW125052   5.047   6.062   3.649
 8051SOL    HW225053   5.025   5.922   3.569
 8052SOL     OW25054   4.309   1.312   1.797
 8052SOL    HW125055   4.277   1.248   1.866
 8052SOL    HW225056   4.242   1.316   1.722
 8053SOL     OW25057   3.022   3.544   3.792
 8053SOL    HW125058   2.990   3.594   3.872
 8053SOL    HW225059   2.999   3.597   3.709
 8054SOL     OW25060   5.644   6.528   4.543
 8054SOL    HW125061   5.571   6.461   4.532
 8054SOL    HW225062   5.604   6.620   4.551
 8055SOL     OW25063   0.786   0.066   5.468
 8055SOL    HW125064   0.722   0.079   5.392
 8055SOL    HW225065   0.880   0.071   5.434
 8056SOL     OW25066   2.394   1.076   3.980
 8056SOL    HW125067   2.491   1.094   3.968
 8056SOL    HW225068   2.381   0.991   4.030
 8057SOL     OW25069   3.088   2.173   3.024
 8057SOL    HW125070   3.024   2.219   2.963
 8057SOL    HW225071   3.062   2.077   3.034
 8058SOL     OW25072   3.448   0.212   2.892
 8058SOL    HW125073   3.374   0.146   2.881
 8058SOL    HW225074   3.515   0.200   2.818
 8059SOL     OW25075   3.327   1.892   4.965
 8059SOL    HW125076   3.316   1.968   4.901
 8059SOL    HW225077   3.276   1.813   4.931
 8060SOL     OW25078   6.286   2.212   4.911
 8060SOL    HW125079   6.319   2.196   5.004
 8060SOL    HW225080   6.204   2.158   4.895
 8061SOL     OW25081   0.398   1.036   2.640
 8061SOL    HW125082   0.468   1.085   2.692
 8061SOL    HW225083   0.436   1.004   2.554
 8062SOL     OW25084   3.939   4.892   3.719
 8062SOL    HW125085   3.856   4.944   3.702
 8062SOL    HW225086   3.943   4.865   3.815
 8063SOL     OW25087   1.476   2.452   1.718
 8063SOL    HW125088   1.461   2.527   1.783
 8063SOL    HW225089   1.402   2.386   1.726
 8064SOL     OW25090   0.080   3.675   1.830
 8064SOL    HW125091   0.080   3.616   1.911
 8064SOL    HW225092   0.151   3.644   1.767
 8065SOL     OW25093   2.441   5.703   3.587
 8065SOL    HW125094   2.346   5.733   3.588
 8065SOL    HW225095   2.479   5.711   3.679
 8066SOL     OW25096   0.658   1.891   5.093
 8066SOL    HW125097   0.664   1.990   5.103
 8066SOL    HW225098   0.708   1.862   5.011
 8067SOL     OW25099   4.791   2.812   2.160
 8067SOL    HW125100   4.751   2.879   2.097
 8067SOL    HW225101   4.866   2.854   2.210
 8068SOL     OW25102   0.133   3.672   1.387
 8068SOL    HW125103   0.153   3.748   1.324
 8068SOL    HW225104   0.076   3.705   1.462
 8069SOL     OW25105   2.979   5.797   1.394
 8069SOL    HW125106   2.924   5.795   1.478
 8069SOL    HW225107   3.066   5.843   1.412
 8070SOL     OW25108   4.254   3.366   0.393
 8070SOL    HW125109   4.190   3.293   0.420
 8070SOL    HW225110   4.322   3.329   0.330
 8071SOL     OW25111   3.042   6.383   4.704
 8071SOL    HW125112   3.010   6.417   4.792
 8071SOL    HW225113   3.140   6.362   4.710
 8072SOL     OW25114   3.872   1.745   0.982
 8072SOL    HW125115   3.849   1.666   0.924
 8072SOL    HW225116   3.971   1.757   0.983
 8073SOL     OW25117   3.069   5.136   4.892
 8073SOL    HW125118   3.092   5.039   4.877
 8073SOL    HW225119   2.970   5.147   4.887
 8074SOL     OW25120   3.945   2.892   0.677
 8074SOL    HW125121   3.914   2.838   0.756
 8074SOL    HW225122   3.975   2.982   0.709
 8075SOL     OW25123   0.061   0.415   0.857
 8075SOL    HW125124   0.052   0.333   0.913
 8075SOL    HW225125   0.080   0.389   0.763
 8076SOL     OW25126   6.400   1.252   5.487
 8076SOL    HW125127   6.372   1.329   5.544
 8076SOL    HW225128   6.431   1.286   5.398
 8077SOL     OW25129   3.102   6.145   2.932
 8077SOL    HW125130   3.037   6.139   2.856
 8077SOL    HW225131   3.093   6.064   2.990
 8078SOL     OW25132   0.067   2.034   0.592
 8078SOL    HW125133   0.051   2.044   0.494
 8078SOL    HW225134   0.154   2.077   0.616
 8079SOL     OW25135   4.840   2.189   3.605
 8079SOL    HW125136   4.857   2.231   3.515
 8079SOL    HW225137   4.879   2.097   3.606
 8080SOL     OW25138   1.056   2.465   0.959
 8080SOL    HW125139   1.026   2.558   0.939
 8080SOL    HW225140   0.979   2.412   0.996
 8081SOL     OW25141   6.082   5.894   5.483
 8081SOL    HW125142   5.998   5.845   5.506
 8081SOL    HW225143   6.060   5.974   5.428
 8082SOL     OW25144   4.551   6.944   2.425
 8082SOL    HW125145   4.518   6.850   2.423
 8082SOL    HW225146   4.651   6.944   2.421
 8083SOL     OW25147   4.912   3.012   3.175
 8083SOL    HW125148   4.832   2.981   3.124
 8083SOL    HW225149   4.887   3.091   3.231
 8084SOL     OW25150   4.189   0.001   0.265
 8084SOL    HW125151   4.124   0.068   0.230
 8084SOL    HW225152   4.163   6.995   0.358
 8085SOL     OW25153   6.837   6.234   1.875
 8085SOL    HW125154   6.834   6.316   1.818
 8085SOL    HW225155   6.930   6.197   1.875
 8086SOL     OW25156   5.840   0.393   2.837
 8086SOL    HW125157   5.821   0.380   2.739
 8086SOL    HW225158   5.756   0.421   2.883
 8087SOL     OW25159   2.815   1.341   0.202
 8087SOL    HW125160   2.757   1.414   0.167
 8087SOL    HW225161   2.907   1.350   0.164
 8088SOL     OW25162   5.481   2.153   1.360
 8088SOL    HW125163   5.488   2.054   1.348
 8088SOL    HW225164   5.560   2.198   1.320
 8089SOL     OW25165   5.405   2.526   0.527
 8089SOL    HW125166   5.417   2.427   0.540
 8089SOL    HW225167   5.495   2.570   0.527
 8090SOL     OW25168   4.164   1.779   0.501
 8090SOL    HW125169   4.137   1.871   0.529
 8090SOL    HW225170   4.177   1.722   0.582
 8091SOL     OW25171   2.168   3.702   5.229
 8091SOL    HW125172   2.246   3.763   5.246
 8091SOL    HW225173   2.150   3.697   5.131
 8092SOL     OW25174   5.734   1.839   4.873
 8092SOL    HW125175   5.767   1.745   4.877
 8092SOL    HW225176   5.790   1.891   4.808
 8093SOL     OW25177   3.753   5.412   2.503
 8093SOL    HW125178   3.781   5.477   2.432
 8093SOL    HW225179   3.833   5.363   2.537
 8094SOL     OW25180   1.615   3.606   4.811
 8094SOL    HW125181   1.671   3.688   4.802
 8094SOL    HW225182   1.622   3.551   4.728
 8095SOL     OW25183   0.526   4.532   4.495
 8095SOL    HW125184   0.498   4.627   4.487
 8095SOL    HW225185   0.464   4.484   4.558
 8096SOL     OW25186   2.128   6.518   3.167
 8096SOL    HW125187   2.088   6.594   3.219
 8096SOL    HW225188   2.121   6.538   3.069
 8097SOL     OW25189   3.933   0.154   3.747
 8097SOL    HW125190   3.933   0.196   3.656
 8097SOL    HW225191   3.944   0.224   3.817
 8098SOL     OW25192   1.315   0.163   3.096
 8098SOL    HW125193   1.341   0.162   3.000
 8098SOL    HW225194   1.291   0.256   3.123
 8099SOL     OW25195   3.622   6.745   4.633
 8099SOL    HW125196   3.692   6.767   4.701
 8099SOL    HW225197   3.535   6.728   4.679
 8100SOL     OW25198   6.229   1.199   0.502
 8100SOL    HW125199   6.166   1.277   0.503
 8100SOL    HW225200   6.310   1.223   0.448
 8101SOL     OW25201   2.135   6.695   2.540
 8101SOL    HW125202   2.098   6.751   2.614
 8101SOL    HW225203   2.088   6.607   2.538
 8102SOL     OW25204   0.620   4.158   3.875
 8102SOL    HW125205   0.616   4.174   3.974
 8102SOL    HW225206   0.706   4.193   3.839
 8103SOL     OW25207   3.657   0.037   1.246
 8103SOL    HW125208   3.691   6.977   1.295
 8103SOL    HW225209   3.726   0.109   1.250
 8104SOL     OW25210   3.691   0.436   5.926
 8104SOL    HW125211   3.599   0.467   5.905
 8104SOL    HW225212   3.756   0.510   5.911
 8105SOL     OW25213   0.825   2.940   3.052
 8105SOL    HW125214   0.760   3.005   3.093
 8105SOL    HW225215   0.907   2.936   3.108
 8106SOL     OW25216   2.422   6.051   3.109
 8106SOL    HW125217   2.355   6.094   3.049
 8106SOL    HW225218   2.432   5.955   3.083
 8107SOL     OW25219   0.555   5.041   4.504
 8107SOL    HW125220   0.643   5.085   4.523
 8107SOL    HW225221   0.490   5.063   4.576
 8108SOL     OW25222   5.953   3.069   5.447
 8108SOL    HW125223   5.976   3.091   5.352
 8108SOL    HW225224   5.854   3.080   5.460
 8109SOL     OW25225   1.037   3.591   5.107
 8109SOL    HW125226   1.051   3.519   5.039
 8109SOL    HW225227   1.122   3.643   5.120
 8110SOL     OW25228   2.971   6.188   1.491
 8110SOL    HW125229   3.053   6.177   1.435
 8110SOL    HW225230   2.969   6.281   1.528
 8111SOL     OW25231   4.986   0.343   4.833
 8111SOL    HW125232   4.932   0.341   4.749
 8111SOL    HW225233   4.953   0.416   4.893
 8112SOL     OW25234   1.994   2.200   4.575
 8112SOL    HW125235   2.071   2.259   4.551
 8112SOL    HW225236   1.916   2.222   4.516
 8113SOL     OW25237   2.780   3.317   0.452
 8113SOL    HW125238   2.830   3.280   0.530
 8113SOL    HW225239   2.837   3.385   0.405
 8114SOL     OW25240   1.467   3.795   2.397
 8114SOL    HW125241   1.550   3.765   2.445
 8114SOL    HW225242   1.453   3.892   2.412
 8115SOL     OW25243   3.351   0.738   0.013
 8115SOL    HW125244   3.418   0.663   0.007
 8115SOL    HW225245   3.268   0.712   6.984
 8116SOL     OW25246   4.862   5.140   5.762
 8116SOL    HW125247   4.899   5.228   5.735
 8116SOL    HW225248   4.762   5.145   5.768
 8117SOL     OW25249   1.326   0.908   3.452
 8117SOL    HW125250   1.290   0.816   3.440
 8117SOL    HW225251   1.252   0.970   3.478
 8118SOL     OW25252   5.669   4.344   5.126
 8118SOL    HW125253   5.661   4.244   5.132
 8118SOL    HW225254   5.739   4.368   5.059
 8119SOL     OW25255   5.291   5.155   5.936
 8119SOL    HW125256   5.373   5.212   5.924
 8119SOL    HW225257   5.269   5.110   5.849
 8120SOL     OW25258   2.677   5.430   0.425
 8120SOL    HW125259   2.712   5.371   0.499
 8120SOL    HW225260   2.638   5.513   0.464
 8121SOL     OW25261   0.453   4.880   1.750
 8121SOL    HW125262   0.548   4.902   1.773
 8121SOL    HW225263   0.413   4.825   1.824
 8122SOL     OW25264   1.028   5.590   2.533
 8122SOL    HW125265   0.960   5.632   2.473
 8122SOL    HW225266   1.115   5.583   2.485
 8123SOL     OW25267   6.834   1.060   6.137
 8123SOL    HW125268   6.870   1.043   6.045
 8123SOL    HW225269   6.747   1.013   6.148
 8124SOL     OW25270   5.914   6.884   1.250
 8124SOL    HW125271   5.881   6.859   1.159
 8124SOL    HW225272   5.897   6.982   1.266
 8125SOL     OW25273   1.403   1.619   3.726
 8125SOL    HW125274   1.332   1.673   3.770
 8125SOL    HW225275   1.470   1.680   3.683
 8126SOL     OW25276   5.037   4.912   2.725
 8126SOL    HW125277   4.993   4.962   2.650
 8126SOL    HW225278   5.123   4.872   2.693
 8127SOL     OW25279   2.766   5.058   6.245
 8127SOL    HW125280   2.850   5.005   6.229
 8127SOL    HW225281   2.787   5.138   6.301
 8128SOL     OW25282   2.877   1.318   1.538
 8128SOL    HW125283   2.920   1.329   1.448
 8128SOL    HW225284   2.879   1.222   1.565
 8129SOL     OW25285   4.691   0.811   6.623
 8129SOL    HW125286   4.654   0.722   6.595
 8129SOL    HW225287   4.789   0.814   6.606
 8130SOL     OW25288   0.079   3.203   6.553
 8130SOL    HW125289   0.052   3.265   6.628
 8130SOL    HW225290   0.166   3.159   6.576
 8131SOL     OW25291   3.341   2.053   1.175
 8131SOL    HW125292   3.318   2.130   1.117
 8131SOL    HW225293   3.344   2.082   1.271
 8132SOL     OW25294   5.957   0.096   6.230
 8132SOL    HW125295   5.915   0.038   6.160
 8132SOL    HW225296   6.055   0.106   6.211
 8133SOL     OW25297   2.660   4.846   1.697
 8133SOL    HW125298   2.701   4.756   1.683
 8133SOL    HW225299   2.728   4.907   1.740
 8134SOL     OW25300   0.305   2.457   5.707
 8134SOL    HW125301   0.361   2.459   5.790
 8134SOL    HW225302   0.288   2.551   5.676
 8135SOL     OW25303   2.654   5.871   1.883
 8135SOL    HW125304   2.728   5.933   1.910
 8135SOL    HW225305   2.691   5.780   1.866
 8136SOL     OW25306   4.414   5.395   2.873
 8136SOL    HW125307   4.332   5.417   2.820
 8136SOL    HW225308   4.393   5.396   2.970
 8137SOL     OW25309   3.398   1.217   4.949
 8137SOL    HW125310   3.413   1.315   4.934
 8137SOL    HW225311   3.345   1.180   4.873
 8138SOL     OW25312   5.873   0.943   6.748
 8138SOL    HW125313   5.940   1.002   6.791
 8138SOL    HW225314   5.891   0.848   6.773
 8139SOL     OW25315   0.171   1.244   2.631
 8139SOL    HW125316   0.261   1.200   2.636
 8139SOL    HW225317   0.103   1.186   2.675
 8140SOL     OW25318   4.800   0.260   1.150
 8140SOL    HW125319   4.880   0.237   1.205
 8140SOL    HW225320   4.780   0.357   1.157
 8141SOL     OW25321   4.906   6.687   5.618
 8141SOL    HW125322   4.856   6.629   5.682
 8141SOL    HW225323   4.843   6.727   5.552
 8142SOL     OW25324   1.308   4.581   0.003
 8142SOL    HW125325   1.225   4.630   6.996
 8142SOL    HW225326   1.349   4.537   6.943
 8143SOL     OW25327   6.940   4.573   0.821
 8143SOL    HW125328   6.856   4.566   0.767
 8143SOL    HW225329   6.930   4.644   0.890
 8144SOL     OW25330   6.280   6.667   6.073
 8144SOL    HW125331   6.209   6.629   6.132
 8144SOL    HW225332   6.297   6.762   6.098
 8145SOL     OW25333   5.754   5.592   1.565
 8145SOL    HW125334   5.737   5.566   1.660
 8145SOL    HW225335   5.834   5.652   1.560
 8146SOL     OW25336   4.588   0.825   5.231
 8146SOL    HW125337   4.530   0.891   5.184
 8146SOL    HW225338   4.654   0.874   5.289
 8147SOL     OW25339   6.441   1.953   1.898
 8147SOL    HW125340   6.398   1.995   1.819
 8147SOL    HW225341   6.538   1.936   1.879
 8148SOL     OW25342   4.984   4.458   0.347
 8148SOL    HW125343   5.004   4.380   0.289
 8148SOL    HW225344   4.888   4.455   0.375
 8149SOL     OW25345   2.885   6.044   2.219
 8149SOL    HW125346   2.893   6.039   2.119
 8149SOL    HW225347   2.798   6.086   2.244
 8150SOL     OW25348   2.361   4.076   1.154
 8150SOL    HW125349   2.304   4.155   1.130
 8150SOL    HW225350   2.393   4.032   1.070
 8151SOL     OW25351   5.691   3.879   2.128
 8151SOL    HW125352   5.766   3.815   2.111
 8151SOL    HW225353   5.708   3.965   2.081
 8152SOL     OW25354   6.274   2.326   2.688
 8152SOL    HW125355   6.247   2.422   2.673
 8152SOL    HW225356   6.372   2.316   2.669
 8153SOL     OW25357   1.364   0.576   3.693
 8153SOL    HW125358   1.366   0.585   3.793
 8153SOL    HW225359   1.310   0.496   3.667
 8154SOL     OW25360   3.461   5.207   2.273
 8154SOL    HW125361   3.521   5.185   2.197
 8154SOL    HW225362   3.481   5.147   2.350
 8155SOL     OW25363   1.785   3.323   1.692
 8155SOL    HW125364   1.723   3.395   1.660
 8155SOL    HW225365   1.835   3.356   1.772
 8156SOL     OW25366   5.831   6.164   0.850
 8156SOL    HW125367   5.878   6.196   0.932
 8156SOL    HW225368   5.821   6.241   0.786
 8157SOL     OW25369   6.605   4.839   6.113
 8157SOL    HW125370   6.689   4.892   6.105
 8157SOL    HW225371   6.545   4.859   6.036
 8158SOL     OW25372   4.924   4.798   0.353
 8158SOL    HW125373   4.845   4.748   0.318
 8158SOL    HW225374   4.973   4.840   0.276
 8159SOL     OW25375   2.768   5.669   2.719
 8159SOL    HW125376   2.785   5.717   2.805
 8159SOL    HW225377   2.709   5.724   2.661
 8160SOL     OW25378   5.090   1.015   3.236
 8160SOL    HW125379   5.144   0.989   3.316
 8160SOL    HW225380   5.053   0.933   3.193
 8161SOL     OW25381   5.782   2.507   6.557
 8161SOL    HW125382   5.771   2.410   6.579
 8161SOL    HW225383   5.703   2.558   6.591
 8162SOL     OW25384   5.775   6.681   6.719
 8162SOL    HW125385   5.784   6.590   6.759
 8162SOL    HW225386   5.853   6.699   6.660
 8163SOL     OW25387   2.700   3.953   5.259
 8163SOL    HW125388   2.702   3.995   5.350
 8163SOL    HW225389   2.606   3.947   5.227
 8164SOL     OW25390   5.185   2.086   0.375
 8164SOL    HW125391   5.142   2.080   0.285
 8164SOL    HW225392   5.278   2.051   0.371
 8165SOL     OW25393   0.780   3.939   6.221
 8165SOL    HW125394   0.839   3.930   6.301
 8165SOL    HW225395   0.833   3.918   6.139
 8166SOL     OW25396   1.073   0.840   3.088
 8166SOL    HW125397   1.158   0.791   3.069
 8166SOL    HW225398   0.995   0.779   3.070
 8167SOL     OW25399   6.901   7.015   4.046
 8167SOL    HW125400   6.807   0.021   4.067
 8167SOL    HW225401   6.914   6.917   4.066
 8168SOL     OW25402   1.755   1.587   3.420
 8168SOL    HW125403   1.771   1.595   3.322
 8168SOL    HW225404   1.734   1.492   3.443
 8169SOL     OW25405   5.166   1.787   1.411
 8169SOL    HW125406   5.069   1.766   1.405
 8169SOL    HW225407   5.208   1.777   1.321
 8170SOL     OW25408   1.080   4.706   2.486
 8170SOL    HW125409   1.034   4.677   2.403
 8170SOL    HW225410   1.167   4.749   2.463
 8171SOL     OW25411   1.680   1.880   6.312
 8171SOL    HW125412   1.583   1.879   6.285
 8171SOL    HW225413   1.689   1.844   6.405
 8172SOL     OW25414   0.944   1.856   2.189
 8172SOL    HW125415   1.040   1.831   2.196
 8172SOL    HW225416   0.899   1.841   2.277
 8173SOL     OW25417   5.375   1.049   2.119
 8173SOL    HW125418   5.319   1.034   2.038
 8173SOL    HW225419   5.395   0.962   2.164
 8174SOL     OW25420   6.030   2.787   1.122
 8174SOL    HW125421   5.945   2.740   1.099
 8174SOL    HW225422   6.012   2.884   1.136
 8175SOL     OW25423   0.120   2.146   5.507
 8175SOL    HW125424   0.036   2.200   5.499
 8175SOL    HW225425   0.189   2.181   5.444
 8176SOL     OW25426   2.461   5.387   2.078
 8176SOL    HW125427   2.455   5.438   2.164
 8176SOL    HW225428   2.407   5.433   2.008
 8177SOL     OW25429   3.479   6.586   3.811
 8177SOL    HW125430   3.512   6.531   3.735
 8177SOL    HW225431   3.406   6.537   3.859
 8178SOL     OW25432   2.738   6.138   6.751
 8178SOL    HW125433   2.647   6.142   6.791
 8178SOL    HW225434   2.758   6.044   6.723
 8179SOL     OW25435   5.104   2.046   5.291
 8179SOL    HW125436   5.011   2.012   5.274
 8179SOL    HW225437   5.162   1.970   5.319
 8180SOL     OW25438   6.641   0.108   4.903
 8180SOL    HW125439   6.639   0.206   4.924
 8180SOL    HW225440   6.723   0.067   4.942
 8181SOL     OW25441   2.149   1.479   0.533
 8181SOL    HW125442   2.151   1.511   0.628
 8181SOL    HW225443   2.205   1.397   0.524
 8182SOL     OW25444   3.773   3.128   5.814
 8182SOL    HW125445   3.818   3.098   5.730
 8182SOL    HW225446   3.838   3.177   5.872
 8183SOL     OW25447   6.987   2.142   4.942
 8183SOL    HW125448   6.999   2.216   5.008
 8183SOL    HW225449   6.987   2.054   4.989
 8184SOL     OW25450   6.078   1.212   6.790
 8184SOL    HW125451   6.140   1.135   6.782
 8184SOL    HW225452   6.078   1.245   6.885
 8185SOL     OW25453   2.814   6.579   0.393
 8185SOL    HW125454   2.859   6.492   0.415
 8185SOL    HW225455   2.723   6.561   0.357
 8186SOL     OW25456   3.825   5.998   5.379
 8186SOL    HW125457   3.741   6.048   5.398
 8186SOL    HW225458   3.874   5.981   5.464
 8187SOL     OW25459   1.533   2.405   5.051
 8187SOL    HW125460   1.633   2.407   5.053
 8187SOL    HW225461   1.499   2.367   5.137
 8188SOL     OW25462   5.590   3.076   3.218
 8188SOL    HW125463   5.561   2.984   3.243
 8188SOL    HW225464   5.525   3.142   3.256
 8189SOL     OW25465   4.687   4.601   2.945
 8189SOL    HW125466   4.632   4.614   3.028
 8189SOL    HW225467   4.742   4.684   2.930
 8190SOL     OW25468   4.462   5.358   4.066
 8190SOL    HW125469   4.443   5.398   3.976
 8190SOL    HW225470   4.399   5.282   4.082
 8191SOL     OW25471   3.827   6.576   2.035
 8191SOL    HW125472   3.897   6.634   2.076
 8191SOL    HW225473   3.738   6.618   2.047
 8192SOL     OW25474   4.041   5.137   0.461
 8192SOL    HW125475   3.975   5.176   0.525
 8192SOL    HW225476   4.117   5.097   0.513
 8193SOL     OW25477   0.154   6.516   4.292
 8193SOL    HW125478   0.162   6.420   4.321
 8193SOL    HW225479   0.236   6.566   4.320
 8194SOL     OW25480   5.532   2.468   1.086
 8194SOL    HW125481   5.489   2.524   1.157
 8194SOL    HW225482   5.484   2.480   1.000
 8195SOL     OW25483   1.748   0.271   1.829
 8195SOL    HW125484   1.735   0.345   1.763
 8195SOL    HW225485   1.701   0.189   1.796
 8196SOL     OW25486   3.888   6.311   5.816
 8196SOL    HW125487   3.829   6.390   5.803
 8196SOL    HW225488   3.918   6.306   5.912
 8197SOL     OW25489   4.245   2.019   0.027
 8197SOL    HW125490   4.172   2.025   0.095
 8197SOL    HW225491   4.267   1.923   0.010
 8198SOL     OW25492   3.365   6.827   3.419
 8198SOL    HW125493   3.421   6.906   3.446
 8198SOL    HW225494   3.401   6.788   3.334
 8199SOL     OW25495   5.580   2.669   6.634
 8199SOL    HW125496   5.562   2.615   6.717
 8199SOL    HW225497   5.508   2.652   6.567
 8200SOL     OW25498   5.166   4.028   1.793
 8200SOL    HW125499   5.252   4.066   1.759
 8200SOL    HW225500   5.117   4.098   1.845
 8201SOL     OW25501   5.747   0.369   3.632
 8201SOL    HW125502   5.753   0.397   3.537
 8201SOL    HW225503   5.818   0.302   3.652
 8202SOL     OW25504   0.053   6.054   4.584
 8202SOL    HW125505   0.043   6.084   4.679
 8202SOL    HW225506   0.122   5.981   4.580
 8203SOL     OW25507   4.690   2.435   0.358
 8203SOL    HW125508   4.750   2.491   0.415
 8203SOL    HW225509   4.739   2.353   0.328
 8204SOL     OW25510   2.976   5.284   6.824
 8204SOL    HW125511   2.947   5.212   6.760
 8204SOL    HW225512   2.903   5.300   6.891
 8205SOL     OW25513   0.337   4.623   0.891
 8205SOL    HW125514   0.323   4.618   0.792
 8205SOL    HW225515   0.344   4.719   0.918
 8206SOL     OW25516   4.856   2.491   6.007
 8206SOL    HW125517   4.781   2.502   6.071
 8206SOL    HW225518   4.897   2.401   6.018
 8207SOL     OW25519   3.387   3.764   4.993
 8207SOL    HW125520   3.486   3.773   4.987
 8207SOL    HW225521   3.344   3.827   4.928
 8208SOL     OW25522   2.087   0.072   1.451
 8208SOL    HW125523   2.077   0.031   1.541
 8208SOL    HW225524   2.000   0.113   1.423
 8209SOL     OW25525   0.666   1.502   6.096
 8209SOL    HW125526   0.650   1.454   6.009
 8209SOL    HW225527   0.761   1.534   6.099
 8210SOL     OW25528   2.566   0.518   1.142
 8210SOL    HW125529   2.620   0.476   1.070
 8210SOL    HW225530   2.587   0.474   1.229
 8211SOL     OW25531   3.931   3.971   2.272
 8211SOL    HW125532   3.861   3.916   2.225
 8211SOL    HW225533   3.981   4.025   2.205
 8212SOL     OW25534   2.941   1.613   1.179
 8212SOL    HW125535   2.921   1.635   1.083
 8212SOL    HW225536   2.855   1.600   1.228
 8213SOL     OW25537   6.200   4.760   2.158
 8213SOL    HW125538   6.192   4.763   2.258
 8213SOL    HW225539   6.197   4.852   2.121
 8214SOL     OW25540   0.307   5.487   4.357
 8214SOL    HW125541   0.386   5.541   4.384
 8214SOL    HW225542   0.227   5.515   4.411
 8215SOL     OW25543   2.862   5.618   6.271
 8215SOL    HW125544   2.856   5.679   6.192
 8215SOL    HW225545   2.778   5.563   6.277
 8216SOL     OW25546   4.750   5.769   3.774
 8216SOL    HW125547   4.809   5.722   3.709
 8216SOL    HW225548   4.678   5.707   3.805
 8217SOL     OW25549   2.350   3.894   1.661
 8217SOL    HW125550   2.448   3.897   1.680
 8217SOL    HW225551   2.331   3.948   1.579
 8218SOL     OW25552   0.687   6.448   4.852
 8218SOL    HW125553   0.700   6.547   4.844
 8218SOL    HW225554   0.776   6.404   4.858
 8219SOL     OW25555   4.057   3.108   0.792
 8219SOL    HW125556   4.150   3.125   0.761
 8219SOL    HW225557   4.051   3.124   0.891
 8220SOL     OW25558   3.223   3.573   4.721
 8220SOL    HW125559   3.234   3.529   4.632
 8220SOL    HW225560   3.257   3.667   4.716
 8221SOL     OW25561   6.414   5.755   3.500
 8221SOL    HW125562   6.342   5.703   3.546
 8221SOL    HW225563   6.382   5.786   3.411
 8222SOL     OW25564   5.239   1.634   1.629
 8222SOL    HW125565   5.208   1.682   1.547
 8222SOL    HW225566   5.330   1.596   1.613
 8223SOL     OW25567   1.033   4.141   5.202
 8223SOL    HW125568   1.119   4.108   5.242
 8223SOL    HW225569   1.005   4.079   5.129
 8224SOL     OW25570   5.744   2.793   1.777
 8224SOL    HW125571   5.661   2.752   1.740
 8224SOL    HW225572   5.739   2.793   1.877
 8225SOL     OW25573   4.122   1.316   1.477
 8225SOL    HW125574   4.065   1.296   1.398
 8225SOL    HW225575   4.105   1.248   1.549
 8226SOL     OW25576   3.489   0.048   0.709
 8226SOL    HW125577   3.412   0.110   0.722
 8226SOL    HW225578   3.558   0.065   0.779
 8227SOL     OW25579   6.760   1.296   2.554
 8227SOL    HW125580   6.698   1.334   2.622
 8227SOL    HW225581   6.818   1.226   2.597
 8228SOL     OW25582   0.217   1.599   6.410
 8228SOL    HW125583   0.133   1.623   6.459
 8228SOL    HW225584   0.197   1.590   6.312
 8229SOL     OW25585   3.781   4.241   1.208
 8229SOL    HW125586   3.790   4.283   1.298
 8229SOL    HW225587   3.854   4.274   1.148
 8230SOL     OW25588   3.891   6.524   5.224
 8230SOL    HW125589   3.883   6.623   5.214
 8230SOL    HW225590   3.805   6.480   5.198
 8231SOL     OW25591   2.887   3.127   1.525
 8231SOL    HW125592   2.975   3.163   1.497
 8231SOL    HW225593   2.872   3.147   1.622
 8232SOL     OW25594   6.007   1.973   2.455
 8232SOL    HW125595   6.014   1.893   2.394
 8232SOL    HW225596   5.922   2.022   2.436
 8233SOL     OW25597   1.615   6.720   6.736
 8233SOL    HW125598   1.698   6.673   6.765
 8233SOL    HW225599   1.537   6.684   6.788
 8234SOL     OW25600   3.194   4.073   0.135
 8234SOL    HW125601   3.173   3.976   0.122
 8234SOL    HW225602   3.122   4.129   0.094
 8235SOL     OW25603   0.537   3.785   6.821
 8235SOL    HW125604   0.524   3.879   6.788
 8235SOL    HW225605   0.462   3.761   6.882
 8236SOL     OW25606   6.790   4.652   6.867
 8236SOL    HW125607   6.778   4.711   6.787
 8236SOL    HW225608   6.796   4.557   6.837
 8237SOL     OW25609   4.731   6.132   6.122
 8237SOL    HW125610   4.689   6.179   6.200
 8237SOL    HW225611   4.662   6.074   6.077
 8238SOL     OW25612   0.874   5.403   6.937
 8238SOL    HW125613   0.884   5.402   6.837
 8238SOL    HW225614   0.831   5.317   6.966
 8239SOL     OW25615   0.921   0.612   5.324
 8239SOL    HW125616   1.019   0.619   5.344
 8239SOL    HW225617   0.875   0.698   5.348
 8240SOL     OW25618   3.066   3.976   2.924
 8240SOL    HW125619   3.148   3.927   2.953
 8240SOL    HW225620   3.073   4.072   2.950
 8241SOL     OW25621   2.671   4.863   5.765
 8241SOL    HW125622   2.628   4.774   5.780
 8241SOL    HW225623   2.651   4.923   5.842
 8242SOL     OW25624   0.528   3.725   5.697
 8242SOL    HW125625   0.560   3.656   5.632
 8242SOL    HW225626   0.551   3.697   5.790
 8243SOL     OW25627   6.863   3.634   1.353
 8243SOL    HW125628   6.859   3.716   1.295
 8243SOL    HW225629   6.912   3.655   1.438
 8244SOL     OW25630   0.366   0.347   3.479
 8244SOL    HW125631   0.291   0.349   3.413
 8244SOL    HW225632   0.449   0.382   3.436
 8245SOL     OW25633   3.193   1.999   2.576
 8245SOL    HW125634   3.244   1.973   2.659
 8245SOL    HW225635   3.095   2.001   2.596
 8246SOL     OW25636   0.633   3.616   6.265
 8246SOL    HW125637   0.663   3.585   6.355
 8246SOL    HW225638   0.713   3.635   6.208
 8247SOL     OW25639   1.986   6.980   3.371
 8247SOL    HW125640   2.021   0.006   3.290
 8247SOL    HW225641   2.049   6.997   3.448
 8248SOL     OW25642   0.437   4.147   4.459
 8248SOL    HW125643   0.524   4.101   4.438
 8248SOL    HW225644   0.393   4.101   4.536
 8249SOL     OW25645   2.317   1.188   5.897
 8249SOL    HW125646   2.315   1.112   5.961
 8249SOL    HW225647   2.410   1.225   5.893
 8250SOL     OW25648   2.063   2.371   1.411
 8250SOL    HW125649   2.128   2.398   1.482
 8250SOL    HW225650   2.100   2.395   1.321
 8251SOL     OW25651   5.287   2.625   3.913
 8251SOL    HW125652   5.297   2.569   3.995
 8251SOL    HW225653   5.314   2.571   3.833
 8252SOL     OW25654   4.363   1.871   6.389
 8252SOL    HW125655   4.335   1.870   6.293
 8252SOL    HW225656   4.302   1.930   6.442
 8253SOL     OW25657   3.715   5.518   5.728
 8253SOL    HW125658   3.659   5.539   5.648
 8253SOL    HW225659   3.811   5.539   5.708
 8254SOL     OW25660   4.958   4.859   5.481
 8254SOL    HW125661   4.966   4.958   5.487
 8254SOL    HW225662   4.941   4.832   5.386
 8255SOL     OW25663   1.191   6.401   5.195
 8255SOL    HW125664   1.273   6.456   5.207
 8255SOL    HW225665   1.111   6.460   5.191
 8256SOL     OW25666   6.902   6.232   2.598
 8256SOL    HW125667   6.915   6.133   2.592
 8256SOL    HW225668   6.977   6.278   2.551
 8257SOL     OW25669   5.238   4.048   3.110
 8257SOL    HW125670   5.261   3.954   3.136
 8257SOL    HW225671   5.303   4.080   3.041
 8258SOL     OW25672   4.570   2.710   1.853
 8258SOL    HW125673   4.499   2.743   1.790
 8258SOL    HW225674   4.607   2.788   1.905
 8259SOL     OW25675   3.600   2.269   5.490
 8259SOL    HW125676   3.564   2.207   5.420
 8259SOL    HW225677   3.545   2.353   5.491
 8260SOL     OW25678   2.440   0.182   1.751
 8260SOL    HW125679   2.344   0.152   1.757
 8260SOL    HW225680   2.454   0.229   1.664
 8261SOL     OW25681   5.235   6.552   3.114
 8261SOL    HW125682   5.178   6.568   3.195
 8261SOL    HW225683   5.190   6.590   3.034
 8262SOL     OW25684   1.336   4.748   0.292
 8262SOL    HW125685   1.328   4.658   0.334
 8262SOL    HW225686   1.342   4.818   0.363
 8263SOL     OW25687   6.936   2.932   6.859
 8263SOL    HW125688   6.848   2.901   6.895
 8263SOL    HW225689   6.937   2.921   6.760
 8264SOL     OW25690   1.434   6.700   1.390
 8264SOL    HW125691   1.393   6.631   1.330
 8264SOL    HW225692   1.514   6.740   1.345
 8265SOL     OW25693   5.515   0.181   2.229
 8265SOL    HW125694   5.561   0.185   2.141
 8265SOL    HW225695   5.580   0.157   2.300
 8266SOL     OW25696   2.279   1.046   4.458
 8266SOL    HW125697   2.206   0.991   4.419
 8266SOL    HW225698   2.291   1.129   4.403
 8267SOL     OW25699   1.164   3.655   1.470
 8267SOL    HW125700   1.070   3.667   1.437
 8267SOL    HW225701   1.185   3.727   1.536
 8268SOL     OW25702   2.867   6.093   6.390
 8268SOL    HW125703   2.950   6.037   6.394
 8268SOL    HW225704   2.878   6.173   6.448
 8269SOL     OW25705   4.705   2.870   3.045
 8269SOL    HW125706   4.733   2.805   2.974
 8269SOL    HW225707   4.640   2.826   3.107
 8270SOL     OW25708   3.028   5.753   4.995
 8270SOL    HW125709   2.990   5.684   4.933
 8270SOL    HW225710   3.024   5.843   4.951
 8271SOL     OW25711   6.668   7.005   3.057
 8271SOL    HW125712   6.729   6.999   3.136
 8271SOL    HW225713   6.574   6.986   3.086
 8272SOL     OW25714   6.489   1.348   2.661
 8272SOL    HW125715   6.445   1.343   2.751
 8272SOL    HW225716   6.477   1.440   2.623
 8273SOL     OW25717   3.012   1.061   0.614
 8273SOL    HW125718   3.105   1.097   0.599
 8273SOL    HW225719   3.013   0.996   0.690
 8274SOL     OW25720   3.967   5.604   4.406
 8274SOL    HW125721   3.934   5.538   4.474
 8274SOL    HW225722   4.062   5.585   4.383
 8275SOL     OW25723   5.452   0.597   4.017
 8275SOL    HW125724   5.487   0.506   3.996
 8275SOL    HW225725   5.501   0.635   4.096
 8276SOL     OW25726   0.665   1.788   5.616
 8276SOL    HW125727   0.576   1.807   5.656
 8276SOL    HW225728   0.681   1.849   5.538
 8277SOL     OW25729   1.165   6.051   6.318
 8277SOL    HW125730   1.178   5.964   6.270
 8277SOL    HW225731   1.072   6.056   6.354
 8278SOL     OW25732   3.636   1.710   0.037
 8278SOL    HW125733   3.641   1.619   0.077
 8278SOL    HW225734   3.729   1.745   0.022
 8279SOL     OW25735   6.742   6.602   5.165
 8279SOL    HW125736   6.767   6.582   5.259
 8279SOL    HW225737   6.668   6.541   5.136
 8280SOL     OW25738   3.704   2.713   0.589
 8280SOL    HW125739   3.745   2.804   0.582
 8280SOL    HW225740   3.769   2.651   0.633
 8281SOL     OW25741   2.249   4.442   1.752
 8281SOL    HW125742   2.348   4.459   1.754
 8281SOL    HW225743   2.226   4.391   1.670
 8282SOL     OW25744   3.470   4.337   6.856
 8282SOL    HW125745   3.514   4.367   6.771
 8282SOL    HW225746   3.532   4.351   6.933
 8283SOL     OW25747   1.545   4.399   4.414
 8283SOL    HW125748   1.474   4.333   4.439
 8283SOL    HW225749   1.535   4.481   4.470
 8284SOL     OW25750   1.654   3.858   2.092
 8284SOL    HW125751   1.576   3.799   2.115
 8284SOL    HW225752   1.673   3.851   1.994
 8285SOL     OW25753   4.063   3.892   5.406
 8285SOL    HW125754   3.984   3.925   5.354
 8285SOL    HW225755   4.109   3.969   5.450
 8286SOL     OW25756   5.127   1.718   4.977
 8286SOL    HW125757   5.106   1.637   4.922
 8286SOL    HW225758   5.222   1.712   5.010
 8287SOL     OW25759   1.030   5.124   4.414
 8287SOL    HW125760   0.942   5.147   4.456
 8287SOL    HW225761   1.101   5.186   4.449
 8288SOL     OW25762   2.136   2.588   2.589
 8288SOL    HW125763   2.097   2.649   2.519
 8288SOL    HW225764   2.088   2.500   2.587
 8289SOL     OW25765   6.742   6.612   6.231
 8289SOL    HW125766   6.729   6.598   6.329
 8289SOL    HW225767   6.677   6.680   6.198
 8290SOL     OW25768   5.062   1.689   1.036
 8290SOL    HW125769   5.085   1.647   1.124
 8290SOL    HW225770   5.144   1.691   0.978
 8291SOL     OW25771   5.936   5.150   6.047
 8291SOL    HW125772   5.871   5.223   6.032
 8291SOL    HW225773   6.029   5.186   6.043
 8292SOL     OW25774   2.946   5.423   6.591
 8292SOL    HW125775   2.984   5.512   6.568
 8292SOL    HW225776   2.969   5.401   6.686
 8293SOL     OW25777   2.462   5.140   1.299
 8293SOL    HW125778   2.415   5.126   1.212
 8293SOL    HW225779   2.499   5.052   1.331
 8294SOL     OW25780   6.703   3.600   4.944
 8294SOL    HW125781   6.781   3.619   4.885
 8294SOL    HW225782   6.621   3.592   4.888
 8295SOL     OW25783   4.977   3.641   3.045
 8295SOL    HW125784   4.944   3.574   3.111
 8295SOL    HW225785   4.964   3.606   2.952
 8296SOL     OW25786   2.845   5.799   0.250
 8296SOL    HW125787   2.945   5.800   0.253
 8296SOL    HW225788   2.814   5.841   0.165
 8297SOL     OW25789   6.374   2.940   2.656
 8297SOL    HW125790   6.402   2.936   2.752
 8297SOL    HW225791   6.293   2.999   2.648
 8298SOL     OW25792   6.870   0.799   0.720
 8298SOL    HW125793   6.959   0.838   0.694
 8298SOL    HW225794   6.813   0.871   0.760
 8299SOL     OW25795   0.148   2.965   2.295
 8299SOL    HW125796   0.084   2.921   2.232
 8299SOL    HW225797   0.230   2.909   2.303
 8300SOL     OW25798   0.575   6.470   4.317
 8300SOL    HW125799   0.622   6.458   4.230
 8300SOL    HW225800   0.642   6.470   4.392
 8301SOL     OW25801   4.872   1.327   6.897
 8301SOL    HW125802   4.782   1.283   6.895
 8301SOL    HW225803   4.936   1.272   6.844
 8302SOL     OW25804   5.336   6.694   5.861
 8302SOL    HW125805   5.360   6.610   5.812
 8302SOL    HW225806   5.343   6.679   5.959
 8303SOL     OW25807   5.941   0.425   3.159
 8303SOL    HW125808   6.001   0.363   3.109
 8303SOL    HW225809   5.963   0.520   3.134
 8304SOL     OW25810   5.693   4.754   1.250
 8304SOL    HW125811   5.751   4.700   1.310
 8304SOL    HW225812   5.683   4.707   1.162
 8305SOL     OW25813   4.492   4.998   4.194
 8305SOL    HW125814   4.420   5.055   4.153
 8305SOL    HW225815   4.452   4.942   4.267
 8306SOL     OW25816   6.161   1.316   3.372
 8306SOL    HW125817   6.074   1.310   3.421
 8306SOL    HW225818   6.150   1.376   3.293
 8307SOL     OW25819   3.576   5.262   1.743
 8307SOL    HW125820   3.536   5.198   1.677
 8307SOL    HW225821   3.670   5.235   1.764
 8308SOL     OW25822   2.249   5.796   0.088
 8308SOL    HW125823   2.338   5.765   0.122
 8308SOL    HW225824   2.194   5.830   0.164
 8309SOL     OW25825   6.164   5.716   2.744
 8309SOL    HW125826   6.151   5.703   2.842
 8309SOL    HW225827   6.142   5.631   2.695
 8310SOL     OW25828   1.584   5.346   1.339
 8310SOL    HW125829   1.682   5.364   1.335
 8310SOL    HW225830   1.562   5.295   1.422
 8311SOL     OW25831   6.540   1.252   4.885
 8311SOL    HW125832   6.492   1.201   4.814
 8311SOL    HW225833   6.565   1.343   4.850
 8312SOL     OW25834   5.602   0.940   6.433
 8312SOL    HW125835   5.678   0.901   6.485
 8312SOL    HW225836   5.538   0.985   6.495
 8313SOL     OW25837   5.548   0.528   5.990
 8313SOL    HW125838   5.588   0.543   6.081
 8313SOL    HW225839   5.450   0.510   6.000
 8314SOL     OW25840   6.224   0.134   6.247
 8314SOL    HW125841   6.263   0.042   6.251
 8314SOL    HW225842   6.189   0.160   6.337
 8315SOL     OW25843   3.875   2.960   3.114
 8315SOL    HW125844   3.928   3.001   3.188
 8315SOL    HW225845   3.798   2.909   3.152
 8316SOL     OW25846   1.740   3.107   1.430
 8316SOL    HW125847   1.806   3.064   1.491
 8316SOL    HW225848   1.735   3.055   1.344
 8317SOL     OW25849   1.230   2.251   2.934
 8317SOL    HW125850   1.249   2.242   2.836
 8317SOL    HW225851   1.231   2.348   2.959
 8318SOL     OW25852   4.201   1.433   6.184
 8318SOL    HW125853   4.162   1.350   6.224
 8318SOL    HW225854   4.137   1.509   6.197
 8319SOL     OW25855   1.394   0.911   1.103
 8319SOL    HW125856   1.471   0.966   1.136
 8319SOL    HW225857   1.415   0.814   1.115
 8320SOL     OW25858   3.285   3.877   3.024
 8320SOL    HW125859   3.341   3.799   2.995
 8320SOL    HW225860   3.263   3.868   3.121
 8321SOL     OW25861   6.980   6.939   7.006
 8321SOL    HW125862   6.897   6.989   6.981
 8321SOL    HW225863   0.011   6.992   0.054
 8322SOL     OW25864   6.277   1.256   0.898
 8322SOL    HW125865   6.178   1.257   0.888
 8322SOL    HW225866   6.317   1.330   0.845
 8323SOL     OW25867   3.974   4.812   1.735
 8323SOL    HW125868   3.977   4.761   1.649
 8323SOL    HW225869   3.880   4.836   1.757
 8324SOL     OW25870   5.448   0.314   0.731
 8324SOL    HW125871   5.415   0.365   0.651
 8324SOL    HW225872   5.430   0.366   0.814
 8325SOL     OW25873   1.274   3.630   5.357
 8325SOL    HW125874   1.294   3.533   5.368
 8325SOL    HW225875   1.250   3.650   5.262
 8326SOL     OW25876   4.266   4.309   5.991
 8326SOL    HW125877   4.205   4.237   5.957
 8326SOL    HW225878   4.358   4.295   5.954
 8327SOL     OW25879   0.394   0.972   5.508
 8327SOL    HW125880   0.467   1.029   5.546
 8327SOL    HW225881   0.309   0.992   5.557
 8328SOL     OW25882   2.772   6.470   6.599
 8328SOL    HW125883   2.726   6.476   6.511
 8328SOL    HW225884   2.806   6.378   6.613
 8329SOL     OW25885   0.685   2.359   4.582
 8329SOL    HW125886   0.742   2.363   4.500
 8329SOL    HW225887   0.591   2.335   4.556
 8330SOL     OW25888   3.384   1.508   6.834
 8330SOL    HW125889   3.350   1.416   6.852
 8330SOL    HW225890   3.479   1.515   6.867
 8331SOL     OW25891   3.534   0.892   0.691
 8331SOL    HW125892   3.494   0.880   0.782
 8331SOL    HW225893   3.576   0.806   0.661
 8332SOL     OW25894   6.064   5.619   2.053
 8332SOL    HW125895   6.018   5.531   2.068
 8332SOL    HW225896   6.078   5.664   2.141
 8333SOL     OW25897   1.355   4.906   0.089
 8333SOL    HW125898   1.371   4.996   0.130
 8333SOL    HW225899   1.341   4.838   0.160
 8334SOL     OW25900   3.398   1.950   5.274
 8334SOL    HW125901   3.404   1.908   5.184
 8334SOL    HW225902   3.392   2.049   5.265
 8335SOL     OW25903   4.574   1.532   0.272
 8335SOL    HW125904   4.532   1.615   0.309
 8335SOL    HW225905   4.599   1.471   0.346
 8336SOL     OW25906   0.317   3.931   2.985
 8336SOL    HW125907   0.363   3.964   2.903
 8336SOL    HW225908   0.385   3.903   3.053
 8337SOL     OW25909   0.279   6.535   3.835
 8337SOL    HW125910   0.372   6.564   3.811
 8337SOL    HW225911   0.225   6.525   3.751
 8338SOL     OW25912   3.357   5.495   1.305
 8338SOL    HW125913   3.375   5.457   1.215
 8338SOL    HW225914   3.258   5.499   1.320
 8339SOL     OW25915   6.854   0.177   2.133
 8339SOL    HW125916   6.866   0.156   2.230
 8339SOL    HW225917   6.938   0.155   2.084
 8340SOL     OW25918   4.949   3.732   1.005
 8340SOL    HW125919   4.960   3.765   1.099
 8340SOL    HW225920   4.924   3.808   0.946
 8341SOL     OW25921   2.983   0.403   6.745
 8341SOL    HW125922   3.073   0.383   6.785
 8341SOL    HW225923   2.977   0.361   6.655
 8342SOL     OW25924   4.409   0.107   0.055
 8342SOL    HW125925   4.445   0.016   0.074
 8342SOL    HW225926   4.485   0.173   0.053
 8343SOL     OW25927   0.341   5.659   3.163
 8343SOL    HW125928   0.407   5.734   3.153
 8343SOL    HW225929   0.250   5.697   3.179
 8344SOL     OW25930   6.473   5.891   4.509
 8344SOL    HW125931   6.504   5.979   4.545
 8344SOL    HW225932   6.547   5.846   4.460
 8345SOL     OW25933   3.429   1.942   2.449
 8345SOL    HW125934   3.335   1.965   2.473
 8345SOL    HW225935   3.461   2.004   2.377
 8346SOL     OW25936   3.676   4.706   0.535
 8346SOL    HW125937   3.703   4.611   0.527
 8346SOL    HW225938   3.738   4.754   0.597
 8347SOL     OW25939   2.964   6.460   5.466
 8347SOL    HW125940   2.921   6.476   5.554
 8347SOL    HW225941   3.000   6.366   5.464
 8348SOL     OW25942   2.187   0.779   1.133
 8348SOL    HW125943   2.151   0.867   1.101
 8348SOL    HW225944   2.111   0.723   1.167
 8349SOL     OW25945   1.022   6.588   2.347
 8349SOL    HW125946   1.013   6.489   2.358
 8349SOL    HW225947   1.032   6.631   2.436
 8350SOL     OW25948   2.918   6.710   5.868
 8350SOL    HW125949   2.874   6.716   5.957
 8350SOL    HW225950   3.016   6.729   5.876
 8351SOL     OW25951   5.067   5.487   4.365
 8351SOL    HW125952   5.055   5.388   4.369
 8351SOL    HW225953   4.982   5.533   4.391
 8352SOL     OW25954   0.762   6.993   3.516
 8352SOL    HW125955   0.747   6.905   3.470
 8352SOL    HW225956   0.748   6.982   3.615
 8353SOL     OW25957   0.802   3.957   1.030
 8353SOL    HW125958   0.899   3.931   1.025
 8353SOL    HW225959   0.747   3.887   0.985
 8354SOL     OW25960   3.426   0.143   4.518
 8354SOL    HW125961   3.336   0.103   4.501
 8354SOL    HW225962   3.463   0.181   4.433
 8355SOL     OW25963   2.480   1.412   5.136
 8355SOL    HW125964   2.475   1.496   5.191
 8355SOL    HW225965   2.394   1.362   5.145
 8356SOL     OW25966   1.085   6.812   1.954
 8356SOL    HW125967   1.021   6.789   2.027
 8356SOL    HW225968   1.177   6.824   1.993
 8357SOL     OW25969   3.661   6.818   5.603
 8357SOL    HW125970   3.609   6.739   5.571
 8357SOL    HW225971   3.759   6.802   5.587
 8358SOL     OW25972   1.715   3.844   4.734
 8358SOL    HW125973   1.807   3.852   4.695
 8358SOL    HW225974   1.708   3.900   4.816
 8359SOL     OW25975   3.300   1.101   4.674
 8359SOL    HW125976   3.371   1.032   4.672
 8359SOL    HW225977   3.268   1.120   4.581
 8360SOL     OW25978   3.983   0.366   0.413
 8360SOL    HW125979   3.938   0.294   0.359
 8360SOL    HW225980   4.011   0.329   0.501
 8361SOL     OW25981   3.909   0.360   1.336
 8361SOL    HW125982   3.991   0.403   1.298
 8361SOL    HW225983   3.936   0.288   1.399
 8362SOL     OW25984   4.891   1.862   1.370
 8362SOL    HW125985   4.792   1.871   1.376
 8362SOL    HW225986   4.914   1.791   1.303
 8363SOL     OW25987   4.865   2.694   0.153
 8363SOL    HW125988   4.866   2.747   0.238
 8363SOL    HW225989   4.842   2.599   0.174
 8364SOL     OW25990   0.240   1.710   4.047
 8364SOL    HW125991   0.177   1.699   4.123
 8364SOL    HW225992   0.329   1.670   4.071
 8365SOL     OW25993   1.344   2.301   2.695
 8365SOL    HW125994   1.411   2.356   2.746
 8365SOL    HW225995   1.372   2.295   2.600
 8366SOL     OW25996   2.818   5.080   0.925
 8366SOL    HW125997   2.755   5.017   0.971
 8366SOL    HW225998   2.841   5.045   0.835
 8367SOL     OW25999   3.339   5.723   4.968
 8367SOL    HW126000   3.362   5.654   4.900
 8367SOL    HW226001   3.239   5.734   4.972
 8368SOL     OW26002   0.848   6.562   0.058
 8368SOL    HW126003   0.939   6.604   0.055
 8368SOL    HW226004   0.798   6.583   6.994
 8369SOL     OW26005   0.797   0.484   6.360
 8369SOL    HW126006   0.745   0.448   6.282
 8369SOL    HW226007   0.869   0.419   6.385
 8370SOL     OW26008   2.871   1.604   5.595
 8370SOL    HW126009   2.962   1.609   5.637
 8370SOL    HW226010   2.803   1.642   5.657
 8371SOL     OW26011   2.351   4.416   0.780
 8371SOL    HW126012   2.281   4.346   0.772
 8371SOL    HW226013   2.433   4.388   0.730
 8372SOL     OW26014   1.840   5.407   1.649
 8372SOL    HW126015   1.936   5.385   1.664
 8372SOL    HW226016   1.830   5.506   1.637
 8373SOL     OW26017   1.768   6.314   3.698
 8373SOL    HW126018   1.671   6.310   3.720
 8373SOL    HW226019   1.821   6.314   3.783
 8374SOL     OW26020   0.141   0.151   5.241
 8374SOL    HW126021   0.050   0.180   5.271
 8374SOL    HW226022   0.133   0.068   5.186
 8375SOL     OW26023   4.387   6.342   5.318
 8375SOL    HW126024   4.321   6.373   5.250
 8375SOL    HW226025   4.366   6.384   5.406
 8376SOL     OW26026   1.032   1.098   4.480
 8376SOL    HW126027   1.103   1.036   4.513
 8376SOL    HW226028   0.972   1.048   4.417
 8377SOL     OW26029   5.715   6.215   0.502
 8377SOL    HW126030   5.636   6.268   0.533
 8377SOL    HW226031   5.799   6.254   0.540
 8378SOL     OW26032   3.568   4.911   3.076
 8378SOL    HW126033   3.590   4.820   3.112
 8378SOL    HW226034   3.468   4.922   3.074
 8379SOL     OW26035   4.920   3.085   1.635
 8379SOL    HW126036   4.928   3.126   1.725
 8379SOL    HW226037   5.007   3.092   1.587
 8380SOL     OW26038   0.596   0.436   1.298
 8380SOL    HW126039   0.516   0.395   1.341
 8380SOL    HW226040   0.634   0.505   1.359
 8381SOL     OW26041   0.399   2.297   4.555
 8381SOL    HW126042   0.362   2.288   4.463
 8381SOL    HW226043   0.367   2.382   4.596
 8382SOL     OW26044   2.361   6.708   2.140
 8382SOL    HW126045   2.380   6.628   2.084
 8382SOL    HW226046   2.370   6.791   2.084
 8383SOL     OW26047   3.303   6.924   6.183
 8383SOL    HW126048   3.365   6.963   6.114
 8383SOL    HW226049   3.348   6.848   6.229
 8384SOL     OW26050   6.014   1.740   1.403
 8384SOL    HW126051   6.073   1.718   1.325
 8384SOL    HW226052   6.064   1.798   1.467
 8385SOL     OW26053   4.693   2.558   6.838
 8385SOL    HW126054   4.745   2.480   6.804
 8385SOL    HW226055   4.618   2.525   6.895
 8386SOL     OW26056   1.786   6.297   1.920
 8386SOL    HW126057   1.777   6.355   1.839
 8386SOL    HW226058   1.882   6.272   1.933
 8387SOL     OW26059   0.880   1.593   0.927
 8387SOL    HW126060   0.799   1.640   0.962
 8387SOL    HW226061   0.869   1.494   0.937
 8388SOL     OW26062   2.418   6.911   0.448
 8388SOL    HW126063   2.476   6.923   0.528
 8388SOL    HW226064   2.331   6.869   0.475
 8389SOL     OW26065   0.293   3.532   4.002
 8389SOL    HW126066   0.220   3.573   3.948
 8389SOL    HW226067   0.328   3.599   4.068
 8390SOL     OW26068   3.989   6.651   0.278
 8390SOL    HW126069   3.959   6.559   0.250
 8390SOL    HW226070   4.000   6.653   0.377
 8391SOL     OW26071   5.328   5.507   1.346
 8391SOL    HW126072   5.399   5.568   1.312
 8391SOL    HW226073   5.360   5.460   1.427
 8392SOL     OW26074   0.133   5.192   5.477
 8392SOL    HW126075   0.162   5.109   5.525
 8392SOL    HW226076   0.072   5.245   5.536
 8393SOL     OW26077   0.238   0.086   2.805
 8393SOL    HW126078   0.258   0.183   2.793
 8393SOL    HW226079   0.175   0.056   2.733
 8394SOL     OW26080   0.821   3.161   1.736
 8394SOL    HW126081   0.754   3.206   1.677
 8394SOL    HW226082   0.869   3.091   1.684
 8395SOL     OW26083   1.567   6.280   4.398
 8395SOL    HW126084   1.543   6.368   4.357
 8395SOL    HW226085   1.609   6.294   4.487
 8396SOL     OW26086   3.981   5.295   2.607
 8396SOL    HW126087   3.981   5.198   2.631
 8396SOL    HW226088   3.993   5.350   2.690
 8397SOL     OW26089   2.503   1.032   2.807
 8397SOL    HW126090   2.588   1.027   2.860
 8397SOL    HW226091   2.504   1.114   2.749
 8398SOL     OW26092   4.960   2.622   6.519
 8398SOL    HW126093   4.943   2.599   6.615
 8398SOL    HW226094   4.996   2.541   6.472
 8399SOL     OW26095   6.009   0.095   0.804
 8399SOL    HW126096   5.971   0.171   0.857
 8399SOL    HW226097   6.102   0.118   0.776
 8400SOL     OW26098   1.411   0.879   4.343
 8400SOL    HW126099   1.456   0.844   4.261
 8400SOL    HW226100   1.474   0.873   4.420
 8401SOL     OW26101   3.334   1.704   6.042
 8401SOL    HW126102   3.348   1.609   6.015
 8401SOL    HW226103   3.270   1.708   6.118
 8402SOL     OW26104   3.828   1.905   6.354
 8402SOL    HW126105   3.829   1.809   6.380
 8402SOL    HW226106   3.813   1.914   6.256
 8403SOL     OW26107   0.591   2.163   3.940
 8403SOL    HW126108   0.629   2.238   3.887
 8403SOL    HW226109   0.637   2.157   4.028
 8404SOL     OW26110   4.260   6.956   6.139
 8404SOL    HW126111   4.329   6.919   6.200
 8404SOL    HW226112   4.172   6.912   6.157
 8405SOL     OW26113   2.631   0.930   6.129
 8405SOL    HW126114   2.684   0.917   6.046
 8405SOL    HW226115   2.686   0.901   6.208
 8406SOL     OW26116   5.378   0.020   0.789
 8406SOL    HW126117   5.468   6.998   0.775
 8406SOL    HW226118   5.354   0.073   0.708
 8407SOL     OW26119   3.905   6.259   3.872
 8407SOL    HW126120   3.829   6.202   3.900
 8407SOL    HW226121   3.887   6.298   3.782
 8408SOL     OW26122   5.772   3.217   1.987
 8408SOL    HW126123   5.685   3.170   2.007
 8408SOL    HW226124   5.844   3.149   1.974
 8409SOL     OW26125   5.789   3.390   3.686
 8409SOL    HW126126   5.782   3.301   3.641
 8409SOL    HW226127   5.732   3.456   3.637
 8410SOL     OW26128   5.080   0.526   1.681
 8410SOL    HW126129   5.045   0.557   1.769
 8410SOL    HW226130   5.017   0.459   1.641
 8411SOL     OW26131   0.364   5.215   6.802
 8411SOL    HW126132   0.346   5.118   6.785
 8411SOL    HW226133   0.322   5.242   6.889
 8412SOL     OW26134   3.715   2.043   1.625
 8412SOL    HW126135   3.687   2.070   1.717
 8412SOL    HW226136   3.635   2.041   1.565
 8413SOL     OW26137   3.880   5.669   0.065
 8413SOL    HW126138   3.885   5.636   6.991
 8413SOL    HW226139   3.967   5.651   0.111
 8414SOL     OW26140   4.048   5.501   3.179
 8414SOL    HW126141   4.085   5.505   3.086
 8414SOL    HW226142   4.121   5.515   3.245
 8415SOL     OW26143   6.646   6.010   3.160
 8415SOL    HW126144   6.586   5.942   3.119
 8415SOL    HW226145   6.641   6.095   3.107
 8416SOL     OW26146   5.589   3.448   2.962
 8416SOL    HW126147   5.659   3.497   2.911
 8416SOL    HW226148   5.517   3.511   2.992
 8417SOL     OW26149   1.518   5.231   5.812
 8417SOL    HW126150   1.419   5.231   5.800
 8417SOL    HW226151   1.546   5.148   5.861
 8418SOL     OW26152   5.847   5.385   1.181
 8418SOL    HW126153   5.936   5.424   1.205
 8418SOL    HW226154   5.859   5.291   1.150
 8419SOL     OW26155   5.281   0.587   2.315
 8419SOL    HW126156   5.240   0.671   2.278
 8419SOL    HW226157   5.295   0.598   2.413
 8420SOL     OW26158   4.011   6.932   0.481
 8420SOL    HW126159   3.995   6.846   0.528
 8420SOL    HW226160   3.946   7.001   0.513
 8421SOL     OW26161   2.855   5.679   6.940
 8421SOL    HW126162   2.889   5.702   6.849
 8421SOL    HW226163   2.931   5.653   6.999
 8422SOL     OW26164   4.169   0.829   1.292
 8422SOL    HW126165   4.220   0.913   1.307
 8422SOL    HW226166   4.083   0.851   1.245
 8423SOL     OW26167   4.055   4.707   5.678
 8423SOL    HW126168   3.987   4.744   5.742
 8423SOL    HW226169   4.146   4.738   5.705
 8424SOL     OW26170   2.005   2.338   3.034
 8424SOL    HW126171   2.002   2.348   2.934
 8424SOL    HW226172   1.914   2.353   3.072
 8425SOL     OW26173   5.123   5.909   0.539
 8425SOL    HW126174   5.055   5.836   0.535
 8425SOL    HW226175   5.152   5.933   0.447
 8426SOL     OW26176   3.218   3.645   4.153
 8426SOL    HW126177   3.133   3.694   4.133
 8426SOL    HW226178   3.249   3.670   4.245
 8427SOL     OW26179   3.583   3.253   4.735
 8427SOL    HW126180   3.578   3.154   4.747
 8427SOL    HW226181   3.647   3.292   4.800
 8428SOL     OW26182   0.270   4.297   1.739
 8428SOL    HW126183   0.250   4.201   1.717
 8428SOL    HW226184   0.367   4.316   1.721
 8429SOL     OW26185   1.646   4.605   3.384
 8429SOL    HW126186   1.554   4.567   3.376
 8429SOL    HW226187   1.689   4.607   3.294
 8430SOL     OW26188   3.575   5.082   4.518
 8430SOL    HW126189   3.479   5.056   4.509
 8430SOL    HW226190   3.584   5.181   4.509
 8431SOL     OW26191   2.917   5.439   0.685
 8431SOL    HW126192   2.880   5.357   0.641
 8431SOL    HW226193   2.995   5.472   0.632
 8432SOL     OW26194   5.554   6.464   6.210
 8432SOL    HW126195   5.544   6.366   6.195
 8432SOL    HW226196   5.616   6.480   6.287
 8433SOL     OW26197   5.716   1.884   0.301
 8433SOL    HW126198   5.786   1.831   0.254
 8433SOL    HW226199   5.758   1.960   0.350
 8434SOL     OW26200   3.010   6.803   4.662
 8434SOL    HW126201   3.062   6.822   4.745
 8434SOL    HW226202   2.927   6.752   4.685
 8435SOL     OW26203   5.994   0.776   1.530
 8435SOL    HW126204   6.085   0.811   1.510
 8435SOL    HW226205   5.977   0.781   1.629
 8436SOL     OW26206   3.423   0.082   4.101
 8436SOL    HW126207   3.514   0.095   4.061
 8436SOL    HW226208   3.383   0.171   4.121
 8437SOL     OW26209   2.419   0.034   3.986
 8437SOL    HW126210   2.497   7.001   4.020
 8437SOL    HW226211   2.421   0.126   4.024
 8438SOL     OW26212   2.515   4.847   2.221
 8438SOL    HW126213   2.578   4.798   2.282
 8438SOL    HW226214   2.558   4.932   2.190
 8439SOL     OW26215   6.281   5.257   2.261
 8439SOL    HW126216   6.214   5.185   2.280
 8439SOL    HW226217   6.334   5.275   2.344
 8440SOL     OW26218   0.622   1.953   3.497
 8440SOL    HW126219   0.652   1.962   3.591
 8440SOL    HW226220   0.550   2.020   3.477
 8441SOL     OW26221   6.213   6.992   0.511
 8441SOL    HW126222   6.284   6.979   0.442
 8441SOL    HW226223   6.163   0.056   0.493
 8442SOL     OW26224   3.258   1.775   5.644
 8442SOL    HW126225   3.213   1.825   5.571
 8442SOL    HW226226   3.302   1.839   5.707
 8443SOL     OW26227   1.727   5.731   3.772
 8443SOL    HW126228   1.758   5.752   3.679
 8443SOL    HW226229   1.725   5.814   3.827
 8444SOL     OW26230   2.696   6.179   3.835
 8444SOL    HW126231   2.764   6.174   3.908
 8444SOL    HW226232   2.684   6.089   3.793
 8445SOL     OW26233   3.942   5.961   0.582
 8445SOL    HW126234   4.008   5.974   0.656
 8445SOL    HW226235   3.853   5.996   0.610
 8446SOL     OW26236   4.421   5.235   6.700
 8446SOL    HW126237   4.351   5.191   6.643
 8446SOL    HW226238   4.376   5.284   6.774
 8447SOL     OW26239   4.875   2.282   2.432
 8447SOL    HW126240   4.856   2.238   2.520
 8447SOL    HW226241   4.793   2.328   2.399
 8448SOL     OW26242   4.741   6.210   4.002
 8448SOL    HW126243   4.653   6.162   4.003
 8448SOL    HW226244   4.726   6.308   4.015
 8449SOL     OW26245   6.783   2.240   4.199
 8449SOL    HW126246   6.761   2.333   4.227
 8449SOL    HW226247   6.829   2.242   4.110
 8450SOL     OW26248   1.327   6.110   1.282
 8450SOL    HW126249   1.377   6.142   1.201
 8450SOL    HW226250   1.287   6.021   1.263
 8451SOL     OW26251   4.396   2.386   6.815
 8451SOL    HW126252   4.304   2.387   6.853
 8451SOL    HW226253   4.459   2.345   6.881
 8452SOL     OW26254   6.433   1.156   3.235
 8452SOL    HW126255   6.469   1.246   3.259
 8452SOL    HW226256   6.389   1.160   3.145
 8453SOL     OW26257   6.680   4.302   5.941
 8453SOL    HW126258   6.692   4.384   5.997
 8453SOL    HW226259   6.765   4.283   5.891
 8454SOL     OW26260   0.050   6.930   0.785
 8454SOL    HW126261   0.101   6.901   0.866
 8454SOL    HW226262   7.009   6.856   0.756
 8455SOL     OW26263   5.635   2.889   1.439
 8455SOL    HW126264   5.617   2.986   1.453
 8455SOL    HW226265   5.600   2.837   1.516
 8456SOL     OW26266   4.955   6.031   3.030
 8456SOL    HW126267   4.928   6.126   3.043
 8456SOL    HW226268   4.923   6.000   2.940
 8457SOL     OW26269   6.504   6.574   4.328
 8457SOL    HW126270   6.587   6.628   4.343
 8457SOL    HW226271   6.426   6.622   4.369
 8458SOL     OW26272   2.730   1.508   6.880
 8458SOL    HW126273   2.762   1.575   6.814
 8458SOL    HW226274   2.713   1.553   6.968
 8459SOL     OW26275   2.917   6.659   1.910
 8459SOL    HW126276   2.868   6.629   1.828
 8459SOL    HW226277   2.965   6.745   1.891
 8460SOL     OW26278   4.600   3.830   5.309
 8460SOL    HW126279   4.628   3.739   5.280
 8460SOL    HW226280   4.500   3.834   5.314
 8461SOL     OW26281   6.814   4.122   3.904
 8461SOL    HW126282   6.839   4.175   3.985
 8461SOL    HW226283   6.733   4.067   3.924
 8462SOL     OW26284   3.392   2.383   0.238
 8462SOL    HW126285   3.434   2.461   0.191
 8462SOL    HW226286   3.385   2.306   0.175
 8463SOL     OW26287   6.664   6.956   0.640
 8463SOL    HW126288   6.649   6.933   0.544
 8463SOL    HW226289   6.690   6.874   0.690
 8464SOL     OW26290   5.488   3.804   5.361
 8464SOL    HW126291   5.584   3.799   5.388
 8464SOL    HW226292   5.430   3.782   5.440
 8465SOL     OW26293   1.261   2.636   1.144
 8465SOL    HW126294   1.347   2.586   1.130
 8465SOL    HW226295   1.184   2.578   1.117
 8466SOL     OW26296   0.981   6.590   5.221
 8466SOL    HW126297   1.040   6.638   5.285
 8466SOL    HW226298   0.889   6.584   5.258
 8467SOL     OW26299   4.506   0.208   1.382
 8467SOL    HW126300   4.519   0.180   1.286
 8467SOL    HW226301   4.591   0.193   1.432
 8468SOL     OW26302   4.508   2.562   6.625
 8468SOL    HW126303   4.588   2.581   6.682
 8468SOL    HW226304   4.442   2.508   6.678
 8469SOL     OW26305   3.965   1.274   5.878
 8469SOL    HW126306   4.051   1.224   5.880
 8469SOL    HW226307   3.917   1.254   5.793
 8470SOL     OW26308   1.547   4.223   0.148
 8470SOL    HW126309   1.458   4.188   0.118
 8470SOL    HW226310   1.549   4.322   0.141
 8471SOL     OW26311   3.799   0.836   4.219
 8471SOL    HW126312   3.895   0.811   4.213
 8471SOL    HW226313   3.746   0.785   4.151
 8472SOL     OW26314   6.729   0.458   5.551
 8472SOL    HW126315   6.789   0.414   5.618
 8472SOL    HW226316   6.783   0.484   5.471
 8473SOL     OW26317   6.840   5.639   0.770
 8473SOL    HW126318   6.797   5.581   0.700
 8473SOL    HW226319   6.779   5.714   0.792
 8474SOL     OW26320   3.388   3.291   2.688
 8474SOL    HW126321   3.421   3.377   2.649
 8474SOL    HW226322   3.355   3.232   2.614
 8475SOL     OW26323   6.735   2.457   3.944
 8475SOL    HW126324   6.658   2.454   4.008
 8475SOL    HW226325   6.703   2.485   3.854
 8476SOL     OW26326   6.695   2.065   0.881
 8476SOL    HW126327   6.727   2.130   0.813
 8476SOL    HW226328   6.608   2.096   0.919
 8477SOL     OW26329   5.062   6.737   1.581
 8477SOL    HW126330   5.007   6.653   1.577
 8477SOL    HW226331   5.051   6.779   1.671
 8478SOL     OW26332   1.943   0.087   6.325
 8478SOL    HW126333   1.852   0.130   6.326
 8478SOL    HW226334   2.005   0.143   6.271
 8479SOL     OW26335   0.613   2.944   0.626
 8479SOL    HW126336   0.695   2.913   0.578
 8479SOL    HW226337   0.637   2.974   0.718
 8480SOL     OW26338   4.729   2.047   6.759
 8480SOL    HW126339   4.662   1.973   6.753
 8480SOL    HW226340   4.696   2.126   6.707
 8481SOL     OW26341   4.457   2.469   4.946
 8481SOL    HW126342   4.466   2.404   4.871
 8481SOL    HW226343   4.366   2.461   4.987
 8482SOL     OW26344   4.416   5.639   2.204
 8482SOL    HW126345   4.439   5.637   2.301
 8482SOL    HW226346   4.495   5.670   2.151
 8483SOL     OW26347   4.369   6.365   2.171
 8483SOL    HW126348   4.468   6.361   2.153
 8483SOL    HW226349   4.330   6.445   2.126
 8484SOL     OW26350   0.042   6.388   3.106
 8484SOL    HW126351   0.076   6.482   3.108
 8484SOL    HW226352   0.014   6.365   3.013
 8485SOL     OW26353   3.967   2.632   0.326
 8485SOL    HW126354   3.911   2.713   0.348
 8485SOL    HW226355   4.059   2.661   0.300
 8486SOL     OW26356   2.400   1.784   2.328
 8486SOL    HW126357   2.322   1.738   2.285
 8486SOL    HW226358   2.383   1.883   2.330
 8487SOL     OW26359   5.875   1.633   5.768
 8487SOL    HW126360   5.788   1.662   5.807
 8487SOL    HW226361   5.950   1.663   5.828
 8488SOL     OW26362   5.106   5.627   0.758
 8488SOL    HW126363   5.096   5.725   0.779
 8488SOL    HW226364   5.040   5.602   0.687
 8489SOL     OW26365   6.147   1.924   1.571
 8489SOL    HW126366   6.214   1.906   1.499
 8489SOL    HW226367   6.195   1.961   1.651
 8490SOL     OW26368   4.782   6.972   4.102
 8490SOL    HW126369   4.740   6.881   4.105
 8490SOL    HW226370   4.866   6.968   4.048
 8491SOL     OW26371   3.249   5.748   1.205
 8491SOL    HW126372   3.301   5.671   1.242
 8491SOL    HW226373   3.196   5.717   1.126
 8492SOL     OW26374   4.715   4.052   5.099
 8492SOL    HW126375   4.640   4.112   5.127
 8492SOL    HW226376   4.686   3.956   5.108
 8493SOL     OW26377   2.045   2.760   6.469
 8493SOL    HW126378   2.079   2.799   6.555
 8493SOL    HW226379   2.030   2.834   6.403
 8494SOL     OW26380   3.855   5.633   1.514
 8494SOL    HW126381   3.884   5.631   1.609
 8494SOL    HW226382   3.913   5.696   1.463
 8495SOL     OW26383   5.919   4.893   2.599
 8495SOL    HW126384   6.006   4.918   2.641
 8495SOL    HW226385   5.847   4.955   2.633
 8496SOL     OW26386   1.242   2.078   2.040
 8496SOL    HW126387   1.257   2.040   1.948
 8496SOL    HW226388   1.144   2.094   2.053
 8497SOL     OW26389   6.557   0.962   3.449
 8497SOL    HW126390   6.646   0.965   3.496
 8497SOL    HW226391   6.561   1.017   3.366
 8498SOL     OW26392   6.423   6.190   3.245
 8498SOL    HW126393   6.413   6.266   3.310
 8498SOL    HW226394   6.391   6.219   3.155
 8499SOL     OW26395   2.060   4.529   6.567
 8499SOL    HW126396   2.015   4.562   6.484
 8499SOL    HW226397   2.002   4.461   6.612
 8500SOL     OW26398   1.946   5.867   5.527
 8500SOL    HW126399   1.947   5.769   5.547
 8500SOL    HW226400   1.854   5.903   5.544
 8501SOL     OW26401   0.065   2.555   0.105
 8501SOL    HW126402   0.050   2.644   0.062
 8501SOL    HW226403   0.162   2.532   0.100
 8502SOL     OW26404   0.845   3.426   1.147
 8502SOL    HW126405   0.881   3.350   1.093
 8502SOL    HW226406   0.907   3.505   1.139
 8503SOL     OW26407   0.831   6.589   3.928
 8503SOL    HW126408   0.780   6.533   3.993
 8503SOL    HW226409   0.834   6.683   3.960
 8504SOL     OW26410   2.530   4.507   2.384
 8504SOL    HW126411   2.611   4.565   2.377
 8504SOL    HW226412   2.475   4.535   2.463
 8505SOL     OW26413   5.700   3.808   3.505
 8505SOL    HW126414   5.666   3.866   3.431
 8505SOL    HW226415   5.800   3.816   3.510
 8506SOL     OW26416   0.369   0.853   6.542
 8506SOL    HW126417   0.450   0.856   6.484
 8506SOL    HW226418   0.398   0.847   6.638
 8507SOL     OW26419   3.477   0.542   5.187
 8507SOL    HW126420   3.428   0.502   5.109
 8507SOL    HW226421   3.549   0.602   5.153
 8508SOL     OW26422   5.283   1.702   4.512
 8508SOL    HW126423   5.354   1.639   4.481
 8508SOL    HW226424   5.317   1.796   4.509
 8509SOL     OW26425   4.080   1.366   4.516
 8509SOL    HW126426   4.093   1.462   4.540
 8509SOL    HW226427   4.065   1.359   4.417
 8510SOL     OW26428   6.155   4.330   2.860
 8510SOL    HW126429   6.153   4.424   2.825
 8510SOL    HW226430   6.246   4.310   2.896
 8511SOL     OW26431   6.072   3.866   2.507
 8511SOL    HW126432   6.104   3.776   2.533
 8511SOL    HW226433   6.107   3.890   2.416
 8512SOL     OW26434   2.708   2.105   2.005
 8512SOL    HW126435   2.748   2.195   2.026
 8512SOL    HW226436   2.731   2.040   2.077
 8513SOL     OW26437   5.923   5.160   0.977
 8513SOL    HW126438   5.901   5.063   0.991
 8513SOL    HW226439   6.022   5.171   0.967
 8514SOL     OW26440   2.548   2.482   4.072
 8514SOL    HW126441   2.616   2.489   4.145
 8514SOL    HW226442   2.541   2.387   4.042
 8515SOL     OW26443   4.649   2.168   0.915
 8515SOL    HW126444   4.624   2.100   0.984
 8515SOL    HW226445   4.745   2.194   0.928
 8516SOL     OW26446   6.059   2.105   2.113
 8516SOL    HW126447   6.074   2.181   2.176
 8516SOL    HW226448   5.989   2.130   2.046
 8517SOL     OW26449   1.006   2.647   6.355
 8517SOL    HW126450   0.946   2.568   6.342
 8517SOL    HW226451   0.980   2.719   6.291
 8518SOL     OW26452   4.405   4.457   0.475
 8518SOL    HW126453   4.364   4.456   0.567
 8518SOL    HW226454   4.504   4.445   0.483
 8519SOL     OW26455   1.442   4.602   1.717
 8519SOL    HW126456   1.464   4.593   1.620
 8519SOL    HW226457   1.347   4.573   1.732
 8520SOL     OW26458   3.024   2.550   0.540
 8520SOL    HW126459   2.955   2.613   0.575
 8520SOL    HW226460   3.065   2.588   0.457
 8521SOL     OW26461   1.684   5.354   6.478
 8521SOL    HW126462   1.674   5.255   6.494
 8521SOL    HW226463   1.736   5.394   6.553
 8522SOL     OW26464   1.387   6.335   1.402
 8522SOL    HW126465   1.347   6.415   1.356
 8522SOL    HW226466   1.342   6.252   1.369
 8523SOL     OW26467   3.089   6.981   6.355
 8523SOL    HW126468   3.168   6.949   6.304
 8523SOL    HW226469   3.029   0.013   6.293
 8524SOL     OW26470   0.710   2.472   4.826
 8524SOL    HW126471   0.629   2.424   4.860
 8524SOL    HW226472   0.703   2.484   4.727
 8525SOL     OW26473   6.526   3.762   3.105
 8525SOL    HW126474   6.611   3.709   3.100
 8525SOL    HW226475   6.514   3.795   3.199
 8526SOL     OW26476   3.573   5.227   0.151
 8526SOL    HW126477   3.477   5.205   0.132
 8526SOL    HW226478   3.630   5.147   0.134
 8527SOL     OW26479   3.127   0.757   5.928
 8527SOL    HW126480   3.199   0.774   5.861
 8527SOL    HW226481   3.086   0.668   5.909
 8528SOL     OW26482   4.482   2.760   6.129
 8528SOL    HW126483   4.431   2.781   6.212
 8528SOL    HW226484   4.499   2.844   6.077
 8529SOL     OW26485   0.149   0.243   1.364
 8529SOL    HW126486   0.123   0.177   1.435
 8529SOL    HW226487   0.184   0.195   1.284
 8530SOL     OW26488   3.021   3.319   5.402
 8530SOL    HW126489   3.085   3.394   5.383
 8530SOL    HW226490   2.966   3.343   5.482
 8531SOL     OW26491   6.588   4.935   2.309
 8531SOL    HW126492   6.591   4.875   2.229
 8531SOL    HW226493   6.664   4.914   2.370
 8532SOL     OW26494   3.879   5.182   4.754
 8532SOL    HW126495   3.869   5.192   4.853
 8532SOL    HW226496   3.829   5.101   4.723
 8533SOL     OW26497   2.034   0.213   5.603
 8533SOL    HW126498   2.027   0.219   5.503
 8533SOL    HW226499   1.985   0.132   5.634
 8534SOL     OW26500   5.913   3.065   4.287
 8534SOL    HW126501   5.818   3.089   4.267
 8534SOL    HW226502   5.960   3.145   4.326
 8535SOL     OW26503   0.050   1.365   5.248
 8535SOL    HW126504   6.977   1.369   5.213
 8535SOL    HW226505   0.086   1.272   5.234
 8536SOL     OW26506   5.474   1.945   4.803
 8536SOL    HW126507   5.551   1.881   4.805
 8536SOL    HW226508   5.439   1.958   4.896
 8537SOL     OW26509   5.517   1.747   2.462
 8537SOL    HW126510   5.592   1.789   2.411
 8537SOL    HW226511   5.474   1.676   2.406
 8538SOL     OW26512   0.679   1.880   6.324
 8538SOL    HW126513   0.759   1.859   6.379
 8538SOL    HW226514   0.683   1.830   6.238
 8539SOL     OW26515   6.106   1.063   1.907
 8539SOL    HW126516   6.172   1.070   1.982
 8539SOL    HW226517   6.100   1.151   1.860
 8540SOL     OW26518   4.784   0.935   0.434
 8540SOL    HW126519   4.731   0.961   0.354
 8540SOL    HW226520   4.822   1.016   0.478
 8541SOL     OW26521   2.945   2.209   4.207
 8541SOL    HW126522   2.886   2.290   4.214
 8541SOL    HW226523   2.942   2.158   4.293
 8542SOL     OW26524   2.763   4.655   6.756
 8542SOL    HW126525   2.735   4.563   6.786
 8542SOL    HW226526   2.688   4.696   6.705
 8543SOL     OW26527   3.378   1.376   0.131
 8543SOL    HW126528   3.405   1.341   0.221
 8543SOL    HW226529   3.315   1.311   0.088
 8544SOL     OW26530   5.294   2.830   4.921
 8544SOL    HW126531   5.367   2.770   4.956
 8544SOL    HW226532   5.217   2.774   4.891
 8545SOL     OW26533   4.509   0.215   4.373
 8545SOL    HW126534   4.461   0.153   4.310
 8545SOL    HW226535   4.463   0.213   4.462
 8546SOL     OW26536   0.586   0.438   2.793
 8546SOL    HW126537   0.640   0.509   2.749
 8546SOL    HW226538   0.513   0.480   2.847
 8547SOL     OW26539   0.917   6.671   6.658
 8547SOL    HW126540   0.986   6.725   6.705
 8547SOL    HW226541   0.927   6.682   6.559
 8548SOL     OW26542   6.755   3.004   5.620
 8548SOL    HW126543   6.850   2.974   5.632
 8548SOL    HW226544   6.704   2.987   5.705
 8549SOL     OW26545   0.990   3.094   4.849
 8549SOL    HW126546   0.925   3.034   4.802
 8549SOL    HW226547   1.029   3.159   4.783
 8550SOL     OW26548   1.209   5.301   0.283
 8550SOL    HW126549   1.287   5.239   0.283
 8550SOL    HW226550   1.144   5.274   0.212
 8551SOL     OW26551   2.398   3.089   6.792
 8551SOL    HW126552   2.471   3.046   6.844
 8551SOL    HW226553   2.412   3.071   6.694
 8552SOL     OW26554   1.944   0.252   2.730
 8552SOL    HW126555   1.977   0.343   2.755
 8552SOL    HW226556   1.912   0.205   2.812
 8553SOL     OW26557   4.361   5.085   0.082
 8553SOL    HW126558   4.450   5.041   0.073
 8553SOL    HW226559   4.290   5.016   0.093
 8554SOL     OW26560   0.611   4.578   0.645
 8554SOL    HW126561   0.518   4.551   0.623
 8554SOL    HW226562   0.673   4.549   0.572
 8555SOL     OW26563   2.947   0.666   3.541
 8555SOL    HW126564   2.892   0.715   3.474
 8555SOL    HW226565   2.970   0.576   3.505
 8556SOL     OW26566   2.009   6.113   5.091
 8556SOL    HW126567   2.011   6.070   5.182
 8556SOL    HW226568   2.088   6.083   5.038
 8557SOL     OW26569   6.803   6.618   2.105
 8557SOL    HW126570   6.791   6.660   2.195
 8557SOL    HW226571   6.900   6.617   2.081
 8558SOL     OW26572   2.779   4.711   3.131
 8558SOL    HW126573   2.741   4.801   3.112
 8558SOL    HW226574   2.744   4.677   3.218
 8559SOL     OW26575   1.901   0.329   2.398
 8559SOL    HW126576   1.934   0.239   2.371
 8559SOL    HW226577   1.802   0.335   2.382
 8560SOL     OW26578   0.857   6.272   1.654
 8560SOL    HW126579   0.895   6.206   1.588
 8560SOL    HW226580   0.764   6.295   1.628
 8561SOL     OW26581   3.236   0.462   2.794
 8561SOL    HW126582   3.205   0.368   2.810
 8561SOL    HW226583   3.305   0.463   2.722
 8562SOL     OW26584   4.032   6.326   6.116
 8562SOL    HW126585   3.954   6.379   6.151
 8562SOL    HW226586   4.116   6.379   6.128
 8563SOL     OW26587   1.282   4.777   1.101
 8563SOL    HW126588   1.196   4.730   1.122
 8563SOL    HW226589   1.279   4.810   1.006
 8564SOL     OW26590   2.918   0.387   4.975
 8564SOL    HW126591   2.875   0.475   4.956
 8564SOL    HW226592   2.991   0.370   4.909
 8565SOL     OW26593   3.415   5.321   1.033
 8565SOL    HW126594   3.392   5.242   1.090
 8565SOL    HW226595   3.333   5.378   1.022
 8566SOL     OW26596   0.691   6.634   1.399
 8566SOL    HW126597   0.743   6.697   1.341
 8566SOL    HW226598   0.751   6.592   1.467
 8567SOL     OW26599   0.530   1.904   3.059
 8567SOL    HW126600   0.572   1.819   3.091
 8567SOL    HW226601   0.461   1.933   3.124
 8568SOL     OW26602   5.839   1.139   6.551
 8568SOL    HW126603   5.840   1.059   6.610
 8568SOL    HW226604   5.755   1.191   6.567
 8569SOL     OW26605   4.606   1.591   6.042
 8569SOL    HW126606   4.679   1.582   5.975
 8569SOL    HW226607   4.518   1.602   5.995
 8570SOL     OW26608   1.824   1.771   4.896
 8570SOL    HW126609   1.780   1.824   4.823
 8570SOL    HW226610   1.804   1.674   4.883
 8571SOL     OW26611   0.106   5.939   5.237
 8571SOL    HW126612   0.125   5.979   5.327
 8571SOL    HW226613   0.153   5.851   5.229
 8572SOL     OW26614   2.553   4.885   6.336
 8572SOL    HW126615   2.632   4.940   6.307
 8572SOL    HW226616   2.572   4.788   6.320
 8573SOL     OW26617   3.611   6.188   6.189
 8573SOL    HW126618   3.704   6.160   6.211
 8573SOL    HW226619   3.606   6.222   6.096
 8574SOL     OW26620   0.057   6.553   6.184
 8574SOL    HW126621   0.075   6.572   6.280
 8574SOL    HW226622   0.064   6.638   6.131
 8575SOL     OW26623   1.978   2.528   3.696
 8575SOL    HW126624   1.949   2.495   3.606
 8575SOL    HW226625   2.067   2.489   3.719
 8576SOL     OW26626   1.450   4.175   5.493
 8576SOL    HW126627   1.510   4.249   5.523
 8576SOL    HW226628   1.375   4.164   5.559
 8577SOL     OW26629   1.512   6.538   4.244
 8577SOL    HW126630   1.580   6.538   4.170
 8577SOL    HW226631   1.447   6.612   4.230
 8578SOL     OW26632   5.944   6.647   4.648
 8578SOL    HW126633   5.926   6.552   4.620
 8578SOL    HW226634   5.923   6.656   4.746
 8579SOL     OW26635   2.380   0.667   2.251
 8579SOL    HW126636   2.423   0.705   2.333
 8579SOL    HW226637   2.281   0.683   2.254
 8580SOL     OW26638   2.425   5.895   0.949
 8580SOL    HW126639   2.334   5.857   0.930
 8580SOL    HW226640   2.435   5.982   0.901
 8581SOL     OW26641   3.394   3.513   1.410
 8581SOL    HW126642   3.465   3.544   1.347
 8581SOL    HW226643   3.412   3.550   1.501
 8582SOL     OW26644   4.902   4.099   4.584
 8582SOL    HW126645   4.847   4.173   4.545
 8582SOL    HW226646   4.873   4.082   4.678
 8583SOL     OW26647   4.605   0.816   4.455
 8583SOL    HW126648   4.585   0.884   4.525
 8583SOL    HW226649   4.541   0.826   4.379
 8584SOL     OW26650   0.327   5.469   6.598
 8584SOL    HW126651   0.254   5.496   6.535
 8584SOL    HW226652   0.316   5.373   6.623
 8585SOL     OW26653   6.828   0.058   6.499
 8585SOL    HW126654   6.894   0.044   6.573
 8585SOL    HW226655   6.848   0.144   6.452
 8586SOL     OW26656   3.304   6.773   2.052
 8586SOL    HW126657   3.221   6.752   2.103
 8586SOL    HW226658   3.324   6.871   2.060
 8587SOL     OW26659   1.448   0.470   4.262
 8587SOL    HW126660   1.470   0.515   4.176
 8587SOL    HW226661   1.358   0.501   4.293
 8588SOL     OW26662   3.931   0.720   0.650
 8588SOL    HW126663   4.021   0.679   0.643
 8588SOL    HW226664   3.929   0.806   0.599
 8589SOL     OW26665   5.340   2.640   5.754
 8589SOL    HW126666   5.349   2.566   5.687
 8589SOL    HW226667   5.416   2.704   5.743
 8590SOL     OW26668   6.971   6.371   2.844
 8590SOL    HW126669   6.969   6.328   2.753
 8590SOL    HW226670   7.015   6.460   2.837
 8591SOL     OW26671   0.560   4.275   0.336
 8591SOL    HW126672   0.569   4.304   0.240
 8591SOL    HW226673   0.465   4.285   0.365
 8592SOL     OW26674   6.023   2.694   6.992
 8592SOL    HW126675   5.955   2.656   0.034
 8592SOL    HW226676   6.014   2.650   6.902
 8593SOL     OW26677   2.617   1.546   0.618
 8593SOL    HW126678   2.660   1.619   0.565
 8593SOL    HW226679   2.688   1.487   0.656
 8594SOL     OW26680   4.422   2.450   5.270
 8594SOL    HW126681   4.495   2.452   5.339
 8594SOL    HW226682   4.455   2.492   5.185
 8595SOL     OW26683   0.439   1.536   3.119
 8595SOL    HW126684   0.515   1.598   3.134
 8595SOL    HW226685   0.386   1.526   3.203
 8596SOL     OW26686   1.082   4.745   2.970
 8596SOL    HW126687   1.137   4.799   2.907
 8596SOL    HW226688   1.019   4.687   2.918
 8597SOL     OW26689   4.597   1.970   1.126
 8597SOL    HW126690   4.636   1.899   1.186
 8597SOL    HW226691   4.545   2.035   1.181
 8598SOL     OW26692   6.047   0.208   0.445
 8598SOL    HW126693   5.957   0.203   0.489
 8598SOL    HW226694   6.080   0.302   0.446
 8599SOL     OW26695   1.386   2.584   4.906
 8599SOL    HW126696   1.370   2.658   4.972
 8599SOL    HW226697   1.445   2.515   4.948
 8600SOL     OW26698   5.334   4.486   5.763
 8600SOL    HW126699   5.256   4.458   5.707
 8600SOL    HW226700   5.408   4.518   5.704
 8601SOL     OW26701   1.222   1.672   4.611
 8601SOL    HW126702   1.147   1.629   4.661
 8601SOL    HW226703   1.228   1.634   4.519
 8602SOL     OW26704   3.177   6.330   2.140
 8602SOL    HW126705   3.140   6.246   2.179
 8602SOL    HW226706   3.158   6.407   2.202
 8603SOL     OW26707   5.033   6.228   0.921
 8603SOL    HW126708   5.092   6.184   0.988
 8603SOL    HW226709   5.006   6.162   0.851
 8604SOL     OW26710   0.435   2.861   4.935
 8604SOL    HW126711   0.388   2.949   4.941
 8604SOL    HW226712   0.468   2.835   5.026
 8605SOL     OW26713   2.510   5.521   4.074
 8605SOL    HW126714   2.566   5.566   4.005
 8605SOL    HW226715   2.520   5.422   4.066
 8606SOL     OW26716   1.575   3.235   6.519
 8606SOL    HW126717   1.484   3.256   6.483
 8606SOL    HW226718   1.584   3.137   6.533
 8607SOL     OW26719   3.266   5.162   6.619
 8607SOL    HW126720   3.221   5.220   6.550
 8607SOL    HW226721   3.203   5.090   6.647
 8608SOL     OW26722   3.074   4.817   2.656
 8608SOL    HW126723   3.016   4.798   2.734
 8608SOL    HW226724   3.018   4.851   2.580
 8609SOL     OW26725   5.370   0.813   3.084
 8609SOL    HW126726   5.373   0.745   3.011
 8609SOL    HW226727   5.459   0.859   3.091
 8610SOL     OW26728   0.749   1.874   2.859
 8610SOL    HW126729   0.669   1.883   2.918
 8610SOL    HW226730   0.720   1.839   2.769
 8611SOL     OW26731   3.248   2.121   4.850
 8611SOL    HW126732   3.218   2.136   4.756
 8611SOL    HW226733   3.191   2.175   4.913
 8612SOL     OW26734   2.565   3.217   0.328
 8612SOL    HW126735   2.529   3.126   0.345
 8612SOL    HW226736   2.652   3.228   0.375
 8613SOL     OW26737   2.945   1.349   1.248
 8613SOL    HW126738   2.852   1.334   1.214
 8613SOL    HW226739   2.984   1.429   1.202
 8614SOL     OW26740   1.126   2.766   3.440
 8614SOL    HW126741   1.185   2.705   3.386
 8614SOL    HW226742   1.180   2.841   3.476
 8615SOL     OW26743   3.901   1.637   5.154
 8615SOL    HW126744   3.839   1.711   5.126
 8615SOL    HW226745   3.881   1.555   5.099
 8616SOL     OW26746   3.116   4.577   1.672
 8616SOL    HW126747   3.063   4.541   1.749
 8616SOL    HW226748   3.153   4.666   1.696
 8617SOL     OW26749   6.616   1.567   5.660
 8617SOL    HW126750   6.664   1.535   5.742
 8617SOL    HW226751   6.616   1.667   5.657
 8618SOL     OW26752   5.912   4.850   1.034
 8618SOL    HW126753   5.848   4.884   1.103
 8618SOL    HW226754   5.861   4.806   0.960
 8619SOL     OW26755   3.641   4.874   2.272
 8619SOL    HW126756   3.642   4.848   2.175
 8619SOL    HW226757   3.548   4.893   2.300
 8620SOL     OW26758   1.233   0.410   3.241
 8620SOL    HW126759   1.193   0.335   3.292
 8620SOL    HW226760   1.172   0.437   3.166
 8621SOL     OW26761   5.926   1.607   2.959
 8621SOL    HW126762   5.867   1.655   2.895
 8621SOL    HW226763   6.022   1.627   2.939
 8622SOL     OW26764   5.581   3.355   1.111
 8622SOL    HW126765   5.564   3.452   1.128
 8622SOL    HW226766   5.510   3.301   1.156
 8623SOL     OW26767   0.597   3.649   4.603
 8623SOL    HW126768   0.562   3.602   4.522
 8623SOL    HW226769   0.650   3.586   4.659
 8624SOL     OW26770   1.704   4.050   4.525
 8624SOL    HW126771   1.721   3.980   4.593
 8624SOL    HW226772   1.706   4.140   4.569
 8625SOL     OW26773   4.600   0.842   6.319
 8625SOL    HW126774   4.627   0.808   6.229
 8625SOL    HW226775   4.535   0.918   6.308
 8626SOL     OW26776   3.267   2.987   6.331
 8626SOL    HW126777   3.346   2.979   6.270
 8626SOL    HW226778   3.214   3.068   6.307
 8627SOL     OW26779   0.787   1.466   3.260
 8627SOL    HW126780   0.865   1.428   3.310
 8627SOL    HW226781   0.703   1.447   3.311
 8628SOL     OW26782   6.487   6.366   0.632
 8628SOL    HW126783   6.530   6.428   0.698
 8628SOL    HW226784   6.396   6.400   0.609
 8629SOL     OW26785   2.139   5.771   4.823
 8629SOL    HW126786   2.186   5.812   4.901
 8629SOL    HW226787   2.158   5.673   4.820
 8630SOL     OW26788   5.263   4.691   4.035
 8630SOL    HW126789   5.181   4.666   4.087
 8630SOL    HW226790   5.307   4.769   4.079
 8631SOL     OW26791   0.794   5.349   6.241
 8631SOL    HW126792   0.792   5.249   6.238
 8631SOL    HW226793   0.886   5.381   6.218
 8632SOL     OW26794   4.077   4.952   4.970
 8632SOL    HW126795   4.006   5.020   4.951
 8632SOL    HW226796   4.071   4.923   5.066
 8633SOL     OW26797   5.625   2.293   5.624
 8633SOL    HW126798   5.646   2.258   5.715
 8633SOL    HW226799   5.660   2.387   5.616
 8634SOL     OW26800   5.017   3.498   0.206
 8634SOL    HW126801   4.948   3.552   0.157
 8634SOL    HW226802   4.972   3.427   0.259
 8635SOL     OW26803   5.265   3.229   6.358
 8635SOL    HW126804   5.255   3.142   6.311
 8635SOL    HW226805   5.230   3.303   6.300
 8636SOL     OW26806   5.682   5.908   0.869
 8636SOL    HW126807   5.731   5.994   0.852
 8636SOL    HW226808   5.611   5.897   0.799
 8637SOL     OW26809   2.929   0.827   6.891
 8637SOL    HW126810   2.902   0.924   6.888
 8637SOL    HW226811   2.860   0.775   6.941
 8638SOL     OW26812   3.445   2.209   5.230
 8638SOL    HW126813   3.483   2.196   5.138
 8638SOL    HW226814   3.361   2.262   5.224
 8639SOL     OW26815   5.251   2.388   0.298
 8639SOL    HW126816   5.258   2.456   0.370
 8639SOL    HW226817   5.196   2.310   0.331
 8640SOL     OW26818   4.182   4.107   6.844
 8640SOL    HW126819   4.161   4.109   6.941
 8640SOL    HW226820   4.255   4.172   6.824
 8641SOL     OW26821   4.623   4.710   3.962
 8641SOL    HW126822   4.660   4.799   3.934
 8641SOL    HW226823   4.555   4.680   3.895
 8642SOL     OW26824   1.062   6.190   3.420
 8642SOL    HW126825   1.152   6.234   3.410
 8642SOL    HW226826   1.044   6.172   3.517
 8643SOL     OW26827   3.023   0.710   6.541
 8643SOL    HW126828   2.941   0.665   6.576
 8643SOL    HW226829   3.104   0.658   6.567
 8644SOL     OW26830   5.136   2.205   5.093
 8644SOL    HW126831   5.119   2.168   5.184
 8644SOL    HW226832   5.069   2.168   5.029
 8645SOL     OW26833   4.257   4.308   1.139
 8645SOL    HW126834   4.284   4.281   1.232
 8645SOL    HW226835   4.338   4.341   1.090
 8646SOL     OW26836   6.997   2.081   0.317
 8646SOL    HW126837   6.907   2.072   0.359
 8646SOL    HW226838   6.988   2.128   0.229
 8647SOL     OW26839   2.819   5.273   6.411
 8647SOL    HW126840   2.861   5.339   6.473
 8647SOL    HW226841   2.813   5.311   6.319
 8648SOL     OW26842   6.554   7.010   2.701
 8648SOL    HW126843   6.624   0.047   2.658
 8648SOL    HW226844   6.597   6.945   2.763
 8649SOL     OW26845   5.519   5.540   6.018
 8649SOL    HW126846   5.488   5.446   5.998
 8649SOL    HW226847   5.537   5.548   6.116
 8650SOL     OW26848   1.974   4.864   4.204
 8650SOL    HW126849   2.062   4.911   4.204
 8650SOL    HW226850   1.984   4.772   4.169
 8651SOL     OW26851   4.173   0.504   0.264
 8651SOL    HW126852   4.183   0.440   0.188
 8651SOL    HW226853   4.096   0.476   0.321
 8652SOL     OW26854   1.645   5.476   3.682
 8652SOL    HW126855   1.690   5.555   3.725
 8652SOL    HW226856   1.695   5.393   3.704
 8653SOL     OW26857   6.924   0.662   6.243
 8653SOL    HW126858   6.939   0.584   6.303
 8653SOL    HW226859   6.825   0.679   6.234
 8654SOL     OW26860   0.650   5.004   2.054
 8654SOL    HW126861   0.731   4.994   2.113
 8654SOL    HW226862   0.676   4.983   1.960
 8655SOL     OW26863   6.289   1.197   4.426
 8655SOL    HW126864   6.206   1.156   4.388
 8655SOL    HW226865   6.367   1.139   4.405
 8656SOL     OW26866   6.808   0.060   0.942
 8656SOL    HW126867   6.842   0.062   0.848
 8656SOL    HW226868   6.719   0.104   0.946
 8657SOL     OW26869   5.093   5.262   6.988
 8657SOL    HW126870   5.181   5.262   0.015
 8657SOL    HW226871   5.020   5.245   0.035
 8658SOL     OW26872   6.594   6.288   0.342
 8658SOL    HW126873   6.588   6.327   0.434
 8658SOL    HW226874   6.517   6.227   0.326
 8659SOL     OW26875   4.758   1.934   2.454
 8659SOL    HW126876   4.690   1.980   2.398
 8659SOL    HW226877   4.742   1.835   2.452
 8660SOL     OW26878   0.104   3.477   2.005
 8660SOL    HW126879   0.204   3.481   1.998
 8660SOL    HW226880   0.075   3.383   2.021
 8661SOL     OW26881   6.411   4.098   1.251
 8661SOL    HW126882   6.501   4.066   1.279
 8661SOL    HW226883   6.348   4.020   1.245
 8662SOL     OW26884   4.161   5.833   1.118
 8662SOL    HW126885   4.088   5.828   1.049
 8662SOL    HW226886   4.247   5.802   1.077
 8663SOL     OW26887   2.817   5.810   2.311
 8663SOL    HW126888   2.832   5.901   2.272
 8663SOL    HW226889   2.893   5.785   2.371
 8664SOL     OW26890   1.742   6.473   1.711
 8664SOL    HW126891   1.812   6.480   1.640
 8664SOL    HW226892   1.654   6.501   1.674
 8665SOL     OW26893   5.616   5.610   5.251
 8665SOL    HW126894   5.613   5.709   5.265
 8665SOL    HW226895   5.562   5.586   5.170
 8666SOL     OW26896   6.082   1.118   3.671
 8666SOL    HW126897   6.034   1.030   3.672
 8666SOL    HW226898   6.036   1.181   3.609
 8667SOL     OW26899   3.756   2.141   3.796
 8667SOL    HW126900   3.769   2.165   3.700
 8667SOL    HW226901   3.836   2.171   3.848
 8668SOL     OW26902   4.898   3.214   3.393
 8668SOL    HW126903   4.889   3.301   3.443
 8668SOL    HW226904   4.910   3.140   3.459
 8669SOL     OW26905   1.188   6.361   6.284
 8669SOL    HW126906   1.284   6.381   6.306
 8669SOL    HW226907   1.179   6.266   6.253
 8670SOL     OW26908   4.402   4.934   5.976
 8670SOL    HW126909   4.459   4.905   6.052
 8670SOL    HW226910   4.370   4.853   5.926
 8671SOL     OW26911   5.317   1.837   2.930
 8671SOL    HW126912   5.229   1.872   2.899
 8671SOL    HW226913   5.385   1.846   2.857
 8672SOL     OW26914   1.294   5.400   3.925
 8672SOL    HW126915   1.344   5.328   3.973
 8672SOL    HW226916   1.207   5.365   3.892
 8673SOL     OW26917   5.063   2.851   0.071
 8673SOL    HW126918   4.981   2.803   0.100
 8673SOL    HW226919   5.144   2.803   0.106
 8674SOL     OW26920   4.866   6.300   3.075
 8674SOL    HW126921   4.926   6.347   3.139
 8674SOL    HW226922   4.865   6.350   2.988
 8675SOL     OW26923   3.863   2.147   5.021
 8675SOL    HW126924   3.945   2.192   4.987
 8675SOL    HW226925   3.828   2.197   5.101
 8676SOL     OW26926   5.633   6.595   3.336
 8676SOL    HW126927   5.564   6.646   3.284
 8676SOL    HW226928   5.716   6.588   3.281
 8677SOL     OW26929   2.153   5.647   6.232
 8677SOL    HW126930   2.176   5.555   6.262
 8677SOL    HW226931   2.235   5.691   6.196
 8678SOL     OW26932   0.028   0.322   1.904
 8678SOL    HW126933   0.021   0.290   1.810
 8678SOL    HW226934   0.015   0.421   1.906
 8679SOL     OW26935   0.349   2.001   3.277
 8679SOL    HW126936   0.388   2.075   3.331
 8679SOL    HW226937   0.276   2.037   3.218
 8680SOL     OW26938   0.100   3.316   6.833
 8680SOL    HW126939   0.159   3.391   6.804
 8680SOL    HW226940   0.060   3.336   6.922
 8681SOL     OW26941   4.614   5.019   1.123
 8681SOL    HW126942   4.527   5.057   1.090
 8681SOL    HW226943   4.638   5.060   1.210
 8682SOL     OW26944   5.611   6.615   2.639
 8682SOL    HW126945   5.648   6.574   2.555
 8682SOL    HW226946   5.681   6.673   2.681
 8683SOL     OW26947   1.778   2.253   4.383
 8683SOL    HW126948   1.680   2.270   4.383
 8683SOL    HW226949   1.796   2.158   4.356
 8684SOL     OW26950   6.176   2.656   4.948
 8684SOL    HW126951   6.130   2.655   5.037
 8684SOL    HW226952   6.267   2.697   4.957
 8685SOL     OW26953   6.994   1.977   6.591
 8685SOL    HW126954   6.913   1.939   6.636
 8685SOL    HW226955   0.054   1.962   6.649
 8686SOL     OW26956   0.059   1.111   2.977
 8686SOL    HW126957   0.032   1.178   3.046
 8686SOL    HW226958   0.039   1.019   3.010
 8687SOL     OW26959   4.571   5.193   2.093
 8687SOL    HW126960   4.619   5.188   2.180
 8687SOL    HW226961   4.582   5.284   2.053
 8688SOL     OW26962   0.535   5.447   5.834
 8688SOL    HW126963   0.441   5.419   5.815
 8688SOL    HW226964   0.592   5.429   5.754
 8689SOL     OW26965   3.839   3.538   1.347
 8689SOL    HW126966   3.748   3.568   1.321
 8689SOL    HW226967   3.877   3.479   1.276
 8690SOL     OW26968   1.531   4.155   3.811
 8690SOL    HW126969   1.433   4.138   3.823
 8690SOL    HW226970   1.574   4.166   3.901
 8691SOL     OW26971   3.961   1.874   5.880
 8691SOL    HW126972   3.964   1.790   5.933
 8691SOL    HW226973   3.935   1.950   5.940
 8692SOL     OW26974   2.966   1.450   4.891
 8692SOL    HW126975   2.887   1.430   4.949
 8692SOL    HW226976   2.984   1.373   4.831
 8693SOL     OW26977   5.180   0.367   0.568
 8693SOL    HW126978   5.255   0.349   0.505
 8693SOL    HW226979   5.161   0.465   0.571
 8694SOL     OW26980   5.224   0.776   4.794
 8694SOL    HW126981   5.296   0.716   4.760
 8694SOL    HW226982   5.137   0.727   4.792
 8695SOL     OW26983   4.441   2.653   5.885
 8695SOL    HW126984   4.487   2.564   5.872
 8695SOL    HW226985   4.442   2.677   5.982
 8696SOL     OW26986   1.977   5.181   5.310
 8696SOL    HW126987   2.036   5.235   5.370
 8696SOL    HW226988   2.034   5.128   5.247
 8697SOL     OW26989   0.319   3.492   5.893
 8697SOL    HW126990   0.232   3.511   5.849
 8697SOL    HW226991   0.310   3.508   5.992
 8698SOL     OW26992   4.853   5.995   5.153
 8698SOL    HW126993   4.930   5.933   5.172
 8698SOL    HW226994   4.887   6.076   5.106
 8699SOL     OW26995   0.536   2.854   5.205
 8699SOL    HW126996   0.567   2.825   5.295
 8699SOL    HW226997   0.548   2.953   5.196
 8700SOL     OW26998   1.017   0.434   4.511
 8700SOL    HW126999   0.921   0.423   4.486
 8700SOL    HW227000   1.023   0.458   4.608
 8701SOL     OW27001   1.597   0.916   6.716
 8701SOL    HW127002   1.585   0.817   6.716
 8701SOL    HW227003   1.540   0.957   6.644
 8702SOL     OW27004   5.663   4.901   1.556
 8702SOL    HW127005   5.684   4.914   1.459
 8702SOL    HW227006   5.590   4.833   1.565
 8703SOL     OW27007   2.967   5.194   0.157
 8703SOL    HW127008   3.006   5.253   0.228
 8703SOL    HW227009   2.879   5.231   0.128
 8704SOL     OW27010   0.420   3.984   3.427
 8704SOL    HW127011   0.324   3.992   3.453
 8704SOL    HW227012   0.461   4.075   3.422
 8705SOL     OW27013   5.407   1.029   6.627
 8705SOL    HW127014   5.342   1.072   6.564
 8705SOL    HW227015   5.363   1.017   6.717
 8706SOL     OW27016   5.184   2.463   6.866
 8706SOL    HW127017   5.169   2.380   6.812
 8706SOL    HW227018   5.118   2.533   6.840
 8707SOL     OW27019   0.532   1.482   5.849
 8707SOL    HW127020   0.507   1.475   5.753
 8707SOL    HW227021   0.493   1.566   5.888
 8708SOL     OW27022   4.024   1.426   2.684
 8708SOL    HW127023   3.970   1.500   2.723
 8708SOL    HW227024   4.119   1.455   2.673
 8709SOL     OW27025   6.871   6.759   0.336
 8709SOL    HW127026   6.883   6.669   0.378
 8709SOL    HW227027   6.948   6.779   0.277
 8710SOL     OW27028   2.021   3.078   3.650
 8710SOL    HW127029   2.077   3.052   3.729
 8710SOL    HW227030   1.982   2.995   3.608
 8711SOL     OW27031   1.791   6.613   2.797
 8711SOL    HW127032   1.717   6.670   2.762
 8711SOL    HW227033   1.759   6.563   2.878
 8712SOL     OW27034   3.801   1.824   4.804
 8712SOL    HW127035   3.728   1.755   4.810
 8712SOL    HW227036   3.824   1.857   4.896
 8713SOL     OW27037   6.182   3.061   3.042
 8713SOL    HW127038   6.205   3.132   3.109
 8713SOL    HW227039   6.173   3.103   2.952
 8714SOL     OW27040   1.021   6.833   5.690
 8714SOL    HW127041   1.050   6.928   5.674
 8714SOL    HW227042   1.094   6.784   5.738
 8715SOL     OW27043   4.276   0.718   1.054
 8715SOL    HW127044   4.194   0.744   1.003
 8715SOL    HW227045   4.294   0.787   1.124
 8716SOL     OW27046   6.871   0.140   1.191
 8716SOL    HW127047   6.835   0.103   1.106
 8716SOL    HW227048   6.891   0.237   1.180
 8717SOL     OW27049   2.892   3.763   4.902
 8717SOL    HW127050   2.899   3.677   4.852
 8717SOL    HW227051   2.796   3.790   4.908
 8718SOL     OW27052   1.147   3.130   5.507
 8718SOL    HW127053   1.227   3.188   5.523
 8718SOL    HW227054   1.126   3.128   5.409
 8719SOL     OW27055   4.242   0.031   6.881
 8719SOL    HW127056   4.303   0.054   6.956
 8719SOL    HW227057   4.278   0.070   6.796
 8720SOL     OW27058   0.060   5.657   5.957
 8720SOL    HW127059   0.131   5.596   5.993
 8720SOL    HW227060   0.059   5.741   6.010
 8721SOL     OW27061   6.457   2.422   1.831
 8721SOL    HW127062   6.542   2.408   1.882
 8721SOL    HW227063   6.385   2.452   1.894
 8722SOL     OW27064   3.636   1.333   0.886
 8722SOL    HW127065   3.537   1.322   0.879
 8722SOL    HW227066   3.670   1.284   0.966
 8723SOL     OW27067   4.521   6.743   1.951
 8723SOL    HW127068   4.607   6.794   1.960
 8723SOL    HW227069   4.540   6.652   1.915
 8724SOL     OW27070   5.318   0.016   4.507
 8724SOL    HW127071   5.357   0.009   4.415
 8724SOL    HW227072   5.303   6.944   4.544
 8725SOL     OW27073   1.804   5.962   5.801
 8725SOL    HW127074   1.741   5.999   5.732
 8725SOL    HW227075   1.759   5.962   5.890
 8726SOL     OW27076   0.347   1.101   2.956
 8726SOL    HW127077   0.251   1.107   2.928
 8726SOL    HW227078   0.406   1.128   2.879
 8727SOL     OW27079   5.364   0.305   2.440
 8727SOL    HW127080   5.423   0.273   2.366
 8727SOL    HW227081   5.286   0.355   2.402
 8728SOL     OW27082   6.469   0.931   2.386
 8728SOL    HW127083   6.529   0.887   2.319
 8728SOL    HW227084   6.458   1.027   2.362
 8729SOL     OW27085   3.606   4.841   5.844
 8729SOL    HW127086   3.574   4.905   5.914
 8729SOL    HW227087   3.689   4.877   5.801
 8730SOL     OW27088   5.361   4.299   2.495
 8730SOL    HW127089   5.416   4.304   2.578
 8730SOL    HW227090   5.287   4.366   2.501
 8731SOL     OW27091   1.426   3.067   2.795
 8731SOL    HW127092   1.446   3.056   2.698
 8731SOL    HW227093   1.337   3.027   2.817
 8732SOL     OW27094   5.741   4.968   1.802
 8732SOL    HW127095   5.705   4.949   1.710
 8732SOL    HW227096   5.834   4.932   1.809
 8733SOL     OW27097   1.975   5.764   1.415
 8733SOL    HW127098   1.897   5.720   1.458
 8733SOL    HW227099   2.038   5.694   1.381
 8734SOL     OW27100   0.732   4.103   2.504
 8734SOL    HW127101   0.768   4.031   2.444
 8734SOL    HW227102   0.677   4.167   2.451
 8735SOL     OW27103   0.810   2.443   0.012
 8735SOL    HW127104   0.779   2.516   6.971
 8735SOL    HW227105   0.751   2.363   7.020
 8736SOL     OW27106   0.112   5.450   0.589
 8736SOL    HW127107   0.042   5.512   0.552
 8736SOL    HW227108   0.117   5.369   0.531
 8737SOL     OW27109   1.858   6.584   0.277
 8737SOL    HW127110   1.935   6.603   0.339
 8737SOL    HW227111   1.875   6.626   0.188
 8738SOL     OW27112   2.962   5.702   4.058
 8738SOL    HW127113   2.906   5.673   3.980
 8738SOL    HW227114   3.057   5.676   4.043
 8739SOL     OW27115   5.604   5.664   6.596
 8739SOL    HW127116   5.511   5.643   6.625
 8739SOL    HW227117   5.668   5.602   6.640
 8740SOL     OW27118   3.972   1.387   4.796
 8740SOL    HW127119   3.872   1.390   4.798
 8740SOL    HW227120   4.002   1.333   4.718
 8741SOL     OW27121   2.310   1.535   2.551
 8741SOL    HW127122   2.219   1.520   2.513
 8741SOL    HW227123   2.378   1.534   2.477
 8742SOL     OW27124   4.896   6.575   1.825
 8742SOL    HW127125   4.889   6.539   1.732
 8742SOL    HW227126   4.845   6.516   1.887
 8743SOL     OW27127   1.564   7.008   2.126
 8743SOL    HW127128   1.545   0.078   2.086
 8743SOL    HW227129   1.501   6.941   2.088
 8744SOL     OW27130   3.858   2.878   0.249
 8744SOL    HW127131   3.848   2.952   0.314
 8744SOL    HW227132   3.900   2.912   0.165
 8745SOL     OW27133   6.443   1.698   5.955
 8745SOL    HW127134   6.448   1.773   6.021
 8745SOL    HW227135   6.534   1.660   5.940
 8746SOL     OW27136   4.560   5.477   4.327
 8746SOL    HW127137   4.496   5.539   4.372
 8746SOL    HW227138   4.535   5.469   4.230
 8747SOL     OW27139   0.059   2.055   3.433
 8747SOL    HW127140   0.034   2.142   3.390
 8747SOL    HW227141   0.147   2.066   3.481
 8748SOL     OW27142   0.336   1.212   4.160
 8748SOL    HW127143   0.360   1.118   4.140
 8748SOL    HW227144   0.274   1.215   4.239
 8749SOL     OW27145   2.278   0.626   5.169
 8749SOL    HW127146   2.323   0.597   5.084
 8749SOL    HW227147   2.345   0.667   5.230
 8750SOL     OW27148   3.139   4.022   5.001
 8750SOL    HW127149   3.224   4.038   5.051
 8750SOL    HW227150   3.074   3.973   5.059
 8751SOL     OW27151   6.177   1.857   2.169
 8751SOL    HW127152   6.133   1.922   2.107
 8751SOL    HW227153   6.272   1.884   2.184
 8752SOL     OW27154   3.477   2.969   6.084
 8752SOL    HW127155   3.504   2.949   5.990
 8752SOL    HW227156   3.447   3.064   6.091
 8753SOL     OW27157   3.192   1.735   6.302
 8753SOL    HW127158   3.103   1.770   6.273
 8753SOL    HW227159   3.211   1.764   6.396
 8754SOL     OW27160   1.685   3.741   5.590
 8754SOL    HW127161   1.696   3.697   5.679
 8754SOL    HW227162   1.701   3.675   5.517
 8755SOL     OW27163   2.555   1.171   0.928
 8755SOL    HW127164   2.626   1.140   0.864
 8755SOL    HW227165   2.486   1.224   0.879
 8756SOL     OW27166   1.494   3.069   4.468
 8756SOL    HW127167   1.529   2.982   4.435
 8756SOL    HW227168   1.396   3.061   4.487
 8757SOL     OW27169   3.624   6.011   6.420
 8757SOL    HW127170   3.581   5.994   6.331
 8757SOL    HW227171   3.685   5.935   6.442
 8758SOL     OW27172   5.280   6.088   2.982
 8758SOL    HW127173   5.188   6.051   2.996
 8758SOL    HW227174   5.297   6.162   3.047
 8759SOL     OW27175   4.461   3.018   6.365
 8759SOL    HW127176   4.531   3.074   6.409
 8759SOL    HW227177   4.485   2.921   6.372
 8760SOL     OW27178   2.993   0.802   5.579
 8760SOL    HW127179   3.006   0.887   5.630
 8760SOL    HW227180   2.939   0.820   5.497
 8761SOL     OW27181   6.046   2.304   1.535
 8761SOL    HW127182   6.130   2.251   1.535
 8761SOL    HW227183   6.034   2.348   1.446
 8762SOL     OW27184   0.904   4.936   3.495
 8762SOL    HW127185   0.876   4.873   3.568
 8762SOL    HW227186   0.863   5.026   3.512
 8763SOL     OW27187   6.266   6.896   6.272
 8763SOL    HW127188   6.170   6.869   6.263
 8763SOL    HW227189   6.297   6.882   6.366
 8764SOL     OW27190   4.953   0.113   5.448
 8764SOL    HW127191   4.860   0.076   5.446
 8764SOL    HW227192   4.950   0.209   5.475
 8765SOL     OW27193   5.041   0.422   3.756
 8765SOL    HW127194   5.107   0.497   3.761
 8765SOL    HW227195   4.956   0.448   3.803
 8766SOL     OW27196   4.339   4.679   4.579
 8766SOL    HW127197   4.312   4.703   4.672
 8766SOL    HW227198   4.391   4.593   4.581
 8767SOL     OW27199   5.107   5.829   2.590
 8767SOL    HW127200   5.201   5.859   2.572
 8767SOL    HW227201   5.052   5.840   2.507
 8768SOL     OW27202   1.399   2.543   0.313
 8768SOL    HW127203   1.328   2.562   0.380
 8768SOL    HW227204   1.394   2.447   0.285
 8769SOL     OW27205   6.980   0.902   3.336
 8769SOL    HW127206   0.003   0.934   3.420
 8769SOL    HW227207   6.973   0.802   3.338
 8770SOL     OW27208   4.426   4.557   2.053
 8770SOL    HW127209   4.446   4.463   2.027
 8770SOL    HW227210   4.511   4.605   2.074
 8771SOL     OW27211   1.081   1.640   6.534
 8771SOL    HW127212   0.993   1.596   6.552
 8771SOL    HW227213   1.115   1.682   6.618
 8772SOL     OW27214   4.377   0.563   6.928
 8772SOL    HW127215   4.292   0.520   6.959
 8772SOL    HW227216   4.432   0.587   7.007
 8773SOL     OW27217   5.689   3.039   3.848
 8773SOL    HW127218   5.787   3.030   3.866
 8773SOL    HW227219   5.641   2.958   3.884
 8774SOL     OW27220   1.415   1.032   0.003
 8774SOL    HW127221   1.410   0.975   6.942
 8774SOL    HW227222   1.471   1.113   7.004
 8775SOL     OW27223   5.488   0.382   5.628
 8775SOL    HW127224   5.564   0.324   5.659
 8775SOL    HW227225   5.524   0.469   5.596
 8776SOL     OW27226   4.661   3.001   0.522
 8776SOL    HW127227   4.622   3.036   0.437
 8776SOL    HW227228   4.678   3.076   0.585
 8777SOL     OW27229   6.102   4.094   3.673
 8777SOL    HW127230   6.098   4.186   3.634
 8777SOL    HW227231   6.091   4.027   3.600
 8778SOL     OW27232   5.657   3.333   5.979
 8778SOL    HW127233   5.756   3.336   5.984
 8778SOL    HW227234   5.629   3.271   5.905
 8779SOL     OW27235   2.946   5.016   2.452
 8779SOL    HW127236   2.872   4.983   2.392
 8779SOL    HW227237   2.933   5.113   2.470
 8780SOL     OW27238   0.666   6.750   2.796
 8780SOL    HW127239   0.627   6.817   2.733
 8780SOL    HW227240   0.595   6.685   2.824
 8781SOL     OW27241   4.733   0.870   4.112
 8781SOL    HW127242   4.800   0.912   4.173
 8781SOL    HW227243   4.640   0.894   4.142
 8782SOL     OW27244   6.662   6.900   1.864
 8782SOL    HW127245   6.617   6.934   1.947
 8782SOL    HW227246   6.668   6.800   1.869
 8783SOL     OW27247   6.325   4.052   3.913
 8783SOL    HW127248   6.264   4.045   3.834
 8783SOL    HW227249   6.307   4.137   3.962
 8784SOL     OW27250   6.978   5.313   5.624
 8784SOL    HW127251   6.931   5.313   5.712
 8784SOL    HW227252   6.944   5.389   5.569
 8785SOL     OW27253   5.129   5.051   0.254
 8785SOL    HW127254   5.083   4.992   0.187
 8785SOL    HW227255   5.195   5.110   0.207
 8786SOL     OW27256   2.921   0.910   0.404
 8786SOL    HW127257   2.950   0.977   0.472
 8786SOL    HW227258   2.950   0.819   0.432
 8787SOL     OW27259   2.950   1.385   1.789
 8787SOL    HW127260   3.004   1.463   1.821
 8787SOL    HW227261   2.964   1.375   1.690
 8788SOL     OW27262   6.329   6.971   5.527
 8788SOL    HW127263   6.229   6.975   5.536
 8788SOL    HW227264   6.357   7.020   5.444
 8789SOL     OW27265   5.897   6.113   4.557
 8789SOL    HW127266   5.853   6.038   4.506
 8789SOL    HW227267   5.982   6.138   4.511
 8790SOL     OW27268   6.887   0.284   6.345
 8790SOL    HW127269   6.985   0.276   6.324
 8790SOL    HW227270   6.836   0.297   6.260
 8791SOL     OW27271   5.269   6.750   5.077
 8791SOL    HW127272   5.238   6.839   5.045
 8791SOL    HW227273   5.339   6.714   5.015
 8792SOL     OW27274   2.749   5.697   3.511
 8792SOL    HW127275   2.667   5.642   3.528
 8792SOL    HW227276   2.731   5.763   3.438
 8793SOL     OW27277   0.975   4.351   2.367
 8793SOL    HW127278   1.010   4.324   2.457
 8793SOL    HW227279   1.035   4.313   2.296
 8794SOL     OW27280   4.966   0.103   2.594
 8794SOL    HW127281   4.958   0.110   2.694
 8794SOL    HW227282   5.016   0.021   2.570
 8795SOL     OW27283   1.020   4.102   5.869
 8795SOL    HW127284   0.955   4.031   5.843
 8795SOL    HW227285   0.978   4.160   5.939
 8796SOL     OW27286   4.667   2.121   4.133
 8796SOL    HW127287   4.635   2.203   4.086
 8796SOL    HW227288   4.604   2.045   4.114
 8797SOL     OW27289   0.524   0.370   0.051
 8797SOL    HW127290   0.429   0.391   0.071
 8797SOL    HW227291   0.529   0.295   7.005
 8798SOL     OW27292   4.915   6.050   6.353
 8798SOL    HW127293   5.009   6.034   6.324
 8798SOL    HW227294   4.868   6.105   6.285
 8799SOL     OW27295   2.685   4.689   3.403
 8799SOL    HW127296   2.691   4.788   3.416
 8799SOL    HW227297   2.686   4.644   3.492
 8800SOL     OW27298   6.022   4.521   6.045
 8800SOL    HW127299   6.009   4.436   6.095
 8800SOL    HW227300   5.992   4.509   5.950
 8801SOL     OW27301   6.831   1.148   4.138
 8801SOL    HW127302   6.775   1.215   4.188
 8801SOL    HW227303   6.779   1.114   4.060
 8802SOL     OW27304   2.276   0.185   6.588
 8802SOL    HW127305   2.284   0.278   6.622
 8802SOL    HW227306   2.181   0.154   6.598
 8803SOL     OW27307   0.139   6.336   0.133
 8803SOL    HW127308   0.057   6.345   0.076
 8803SOL    HW227309   0.216   6.308   0.076
 8804SOL     OW27310   2.486   6.578   1.762
 8804SOL    HW127311   2.522   6.525   1.686
 8804SOL    HW227312   2.473   6.518   1.841
 8805SOL     OW27313   3.526   6.153   3.666
 8805SOL    HW127314   3.500   6.066   3.623
 8805SOL    HW227315   3.459   6.223   3.642
 8806SOL     OW27316   3.286   4.758   1.801
 8806SOL    HW127317   3.276   4.852   1.770
 8806SOL    HW227318   3.382   4.739   1.819
 8807SOL     OW27319   5.273   0.430   0.200
 8807SOL    HW127320   5.328   0.426   0.117
 8807SOL    HW227321   5.316   0.374   0.271
 8808SOL     OW27322   5.998   3.046   6.777
 8808SOL    HW127323   6.062   3.068   6.850
 8808SOL    HW227324   5.918   2.999   6.815
 8809SOL     OW27325   3.482   5.219   3.391
 8809SOL    HW127326   3.541   5.205   3.312
 8809SOL    HW227327   3.432   5.305   3.381
 8810SOL     OW27328   6.139   0.665   4.875
 8810SOL    HW127329   6.160   0.579   4.921
 8810SOL    HW227330   6.062   0.652   4.813
 8811SOL     OW27331   3.453   1.412   2.513
 8811SOL    HW127332   3.366   1.378   2.547
 8811SOL    HW227333   3.438   1.497   2.463
 8812SOL     OW27334   2.303   0.595   0.428
 8812SOL    HW127335   2.330   0.501   0.407
 8812SOL    HW227336   2.365   0.633   0.497
 8813SOL     OW27337   2.442   5.729   2.876
 8813SOL    HW127338   2.511   5.718   2.948
 8813SOL    HW227339   2.351   5.732   2.917
 8814SOL     OW27340   6.722   0.365   0.593
 8814SOL    HW127341   6.623   0.347   0.597
 8814SOL    HW227342   6.752   0.405   0.679
 8815SOL     OW27343   5.697   6.802   1.046
 8815SOL    HW127344   5.648   6.884   1.075
 8815SOL    HW227345   5.636   6.723   1.052
 8816SOL     OW27346   1.107   6.398   0.620
 8816SOL    HW127347   1.102   6.489   0.579
 8816SOL    HW227348   1.158   6.337   0.560
 8817SOL     OW27349   0.118   4.829   3.910
 8817SOL    HW127350   0.106   4.921   3.872
 8817SOL    HW227351   0.153   4.835   4.003
 8818SOL     OW27352   0.820   4.677   4.448
 8818SOL    HW127353   0.745   4.637   4.500
 8818SOL    HW227354   0.870   4.742   4.505
 8819SOL     OW27355   5.321   4.831   5.281
 8819SOL    HW127356   5.332   4.913   5.225
 8819SOL    HW227357   5.294   4.754   5.222
 8820SOL     OW27358   2.442   1.026   5.291
 8820SOL    HW127359   2.472   0.932   5.272
 8820SOL    HW227360   2.518   1.089   5.272
 8821SOL     OW27361   1.749   6.023   0.961
 8821SOL    HW127362   1.766   6.119   0.983
 8821SOL    HW227363   1.695   6.016   0.877
 8822SOL     OW27364   0.866   0.687   4.202
 8822SOL    HW127365   0.891   0.782   4.220
 8822SOL    HW227366   0.833   0.644   4.286
 8823SOL     OW27367   2.181   0.995   2.926
 8823SOL    HW127368   2.209   1.087   2.899
 8823SOL    HW227369   2.190   0.933   2.847
 8824SOL     OW27370   1.389   1.713   0.114
 8824SOL    HW127371   1.481   1.747   0.097
 8824SOL    HW227372   1.381   1.686   0.210
 8825SOL     OW27373   2.025   0.947   1.852
 8825SOL    HW127374   2.062   0.926   1.943
 8825SOL    HW227375   2.088   1.007   1.804
 8826SOL     OW27376   0.797   3.751   0.500
 8826SOL    HW127377   0.763   3.762   0.407
 8826SOL    HW227378   0.880   3.806   0.513
 8827SOL     OW27379   4.661   0.798   2.670
 8827SOL    HW127380   4.573   0.832   2.637
 8827SOL    HW227381   4.735   0.838   2.616
 8828SOL     OW27382   4.197   5.714   6.391
 8828SOL    HW127383   4.236   5.646   6.453
 8828SOL    HW227384   4.118   5.675   6.344
 8829SOL     OW27385   4.882   2.791   1.374
 8829SOL    HW127386   4.795   2.773   1.419
 8829SOL    HW227387   4.901   2.889   1.376
 8830SOL     OW27388   1.239   1.794   2.755
 8830SOL    HW127389   1.192   1.851   2.823
 8830SOL    HW227390   1.293   1.853   2.695
 8831SOL     OW27391   4.771   2.390   3.793
 8831SOL    HW127392   4.675   2.390   3.766
 8831SOL    HW227393   4.825   2.340   3.724
 8832SOL     OW27394   6.793   6.695   3.129
 8832SOL    HW127395   6.789   6.731   3.222
 8832SOL    HW227396   6.887   6.700   3.095
 8833SOL     OW27397   2.632   5.501   6.265
 8833SOL    HW127398   2.637   5.405   6.236
 8833SOL    HW227399   2.617   5.559   6.185
 8834SOL     OW27400   5.806   3.859   4.988
 8834SOL    HW127401   5.813   3.764   4.957
 8834SOL    HW227402   5.758   3.862   5.076
 8835SOL     OW27403   4.752   0.860   5.729
 8835SOL    HW127404   4.816   0.878   5.654
 8835SOL    HW227405   4.712   0.769   5.717
 8836SOL     OW27406   4.880   1.906   0.420
 8836SOL    HW127407   4.831   1.893   0.506
 8836SOL    HW227408   4.979   1.905   0.437
 8837SOL     OW27409   7.002   6.639   2.415
 8837SOL    HW127410   6.915   6.590   2.420
 8837SOL    HW227411   0.056   6.577   2.443
 8838SOL     OW27412   1.795   4.901   3.409
 8838SOL    HW127413   1.767   4.953   3.327
 8838SOL    HW227414   1.717   4.847   3.441
 8839SOL     OW27415   4.937   5.549   1.706
 8839SOL    HW127416   4.854   5.538   1.760
 8839SOL    HW227417   4.939   5.482   1.632
 8840SOL     OW27418   0.056   1.642   3.013
 8840SOL    HW127419   0.106   1.701   2.950
 8840SOL    HW227420   0.056   1.683   3.104
 8841SOL     OW27421   0.506   0.548   4.312
 8841SOL    HW127422   0.582   0.555   4.376
 8841SOL    HW227423   0.494   0.453   4.284
 8842SOL     OW27424   3.726   2.961   2.874
 8842SOL    HW127425   3.656   3.033   2.877
 8842SOL    HW227426   3.770   2.953   2.964
 8843SOL     OW27427   1.818   3.386   5.680
 8843SOL    HW127428   1.793   3.384   5.583
 8843SOL    HW227429   1.917   3.392   5.689
 8844SOL     OW27430   0.863   1.373   5.468
 8844SOL    HW127431   0.955   1.336   5.472
 8844SOL    HW227432   0.796   1.301   5.487
 8845SOL     OW27433   3.687   3.766   0.821
 8845SOL    HW127434   3.720   3.820   0.744
 8845SOL    HW227435   3.625   3.821   0.877
 8846SOL     OW27436   3.913   4.884   4.438
 8846SOL    HW127437   3.844   4.924   4.379
 8846SOL    HW227438   3.872   4.861   4.527
 8847SOL     OW27439   2.631   1.729   2.741
 8847SOL    HW127440   2.553   1.681   2.782
 8847SOL    HW227441   2.614   1.743   2.644
 8848SOL     OW27442   2.340   1.924   2.041
 8848SOL    HW127443   2.353   1.825   2.046
 8848SOL    HW227444   2.402   1.962   1.972
 8849SOL     OW27445   3.135   5.861   3.497
 8849SOL    HW127446   3.196   5.844   3.575
 8849SOL    HW227447   3.058   5.918   3.527
 8850SOL     OW27448   1.796   1.517   6.601
 8850SOL    HW127449   1.716   1.565   6.566
 8850SOL    HW227450   1.820   1.442   6.539
 8851SOL     OW27451   0.867   5.426   1.906
 8851SOL    HW127452   0.934   5.381   1.846
 8851SOL    HW227453   0.868   5.381   1.996
 8852SOL     OW27454   4.855   3.746   5.511
 8852SOL    HW127455   4.890   3.754   5.418
 8852SOL    HW227456   4.822   3.653   5.527
 8853SOL     OW27457   2.790   1.071   6.911
 8853SOL    HW127458   2.714   1.128   6.880
 8853SOL    HW227459   2.803   1.083   7.009
 8854SOL     OW27460   3.632   1.556   6.006
 8854SOL    HW127461   3.547   1.509   5.980
 8854SOL    HW227462   3.637   1.644   5.960
 8855SOL     OW27463   0.619   6.096   1.136
 8855SOL    HW127464   0.660   6.107   1.227
 8855SOL    HW227465   0.691   6.104   1.066
 8856SOL     OW27466   0.190   0.002   6.231
 8856SOL    HW127467   0.175   0.093   6.270
 8856SOL    HW227468   0.103   6.985   6.198
 8857SOL     OW27469   0.069   1.696   4.255
 8857SOL    HW127470   0.047   1.784   4.296
 8857SOL    HW227471   0.071   1.626   4.327
 8858SOL     OW27472   1.158   2.278   5.099
 8858SOL    HW127473   1.187   2.360   5.050
 8858SOL    HW227474   1.062   2.258   5.078
 8859SOL     OW27475   6.559   0.431   3.941
 8859SOL    HW127476   6.623   0.415   3.866
 8859SOL    HW227477   6.599   0.395   4.026
 8860SOL     OW27478   0.605   3.137   2.621
 8860SOL    HW127479   0.589   3.233   2.598
 8860SOL    HW227480   0.662   3.131   2.703
 8861SOL     OW27481   4.340   1.673   5.908
 8861SOL    HW127482   4.316   1.766   5.880
 8861SOL    HW227483   4.328   1.611   5.831
 8862SOL     OW27484   5.550   1.076   3.823
 8862SOL    HW127485   5.474   1.053   3.885
 8862SOL    HW227486   5.636   1.074   3.874
 8863SOL     OW27487   1.622   4.899   4.439
 8863SOL    HW127488   1.560   4.891   4.516
 8863SOL    HW227489   1.678   4.816   4.433
 8864SOL     OW27490   3.482   4.156   5.775
 8864SOL    HW127491   3.392   4.184   5.744
 8864SOL    HW227492   3.499   4.062   5.747
 8865SOL     OW27493   2.758   1.394   6.267
 8865SOL    HW127494   2.840   1.367   6.217
 8865SOL    HW227495   2.698   1.316   6.279
 8866SOL     OW27496   5.153   7.014   3.048
 8866SOL    HW127497   5.137   6.955   3.128
 8866SOL    HW227498   5.252   0.001   3.032
 8867SOL     OW27499   5.908   3.453   2.068
 8867SOL    HW127500   5.916   3.553   2.063
 8867SOL    HW227501   5.811   3.428   2.065
 8868SOL     OW27502   6.770   2.649   0.945
 8868SOL    HW127503   6.844   2.706   0.982
 8868SOL    HW227504   6.723   2.603   1.020
 8869SOL     OW27505   4.288   6.284   4.754
 8869SOL    HW127506   4.345   6.284   4.672
 8869SOL    HW227507   4.331   6.339   4.825
 8870SOL     OW27508   3.681   0.397   6.880
 8870SOL    HW127509   3.774   0.414   6.912
 8870SOL    HW227510   3.631   0.484   6.875
 8871SOL     OW27511   1.695   0.871   3.929
 8871SOL    HW127512   1.667   0.940   3.862
 8871SOL    HW227513   1.791   0.846   3.912
 8872SOL     OW27514   1.650   4.226   4.770
 8872SOL    HW127515   1.564   4.273   4.792
 8872SOL    HW227516   1.657   4.142   4.824
 8873SOL     OW27517   1.335   6.149   1.769
 8873SOL    HW127518   1.380   6.099   1.696
 8873SOL    HW227519   1.363   6.245   1.766
 8874SOL     OW27520   2.069   5.508   2.651
 8874SOL    HW127521   2.133   5.584   2.654
 8874SOL    HW227522   2.119   5.422   2.655
 8875SOL     OW27523   6.849   2.870   5.225
 8875SOL    HW127524   6.933   2.921   5.244
 8875SOL    HW227525   6.851   2.784   5.274
 8876SOL     OW27526   1.919   6.877   4.714
 8876SOL    HW127527   2.007   6.829   4.724
 8876SOL    HW227528   1.890   6.912   4.803
 8877SOL     OW27529   3.120   1.032   3.881
 8877SOL    HW127530   3.087   0.958   3.822
 8877SOL    HW227531   3.041   1.083   3.917
 8878SOL     OW27532   6.566   5.025   0.088
 8878SOL    HW127533   6.553   4.986   7.018
 8878SOL    HW227534   6.581   4.952   0.154
 8879SOL     OW27535   5.025   4.469   2.066
 8879SOL    HW127536   5.070   4.478   1.977
 8879SOL    HW227537   4.929   4.495   2.057
 8880SOL     OW27538   4.985   5.740   4.781
 8880SOL    HW127539   4.925   5.756   4.860
 8880SOL    HW227540   4.936   5.766   4.698
 8881SOL     OW27541   5.890   6.900   3.794
 8881SOL    HW127542   5.831   6.847   3.733
 8881SOL    HW227543   5.833   6.954   3.855
 8882SOL     OW27544   5.696   1.138   1.202
 8882SOL    HW127545   5.773   1.130   1.139
 8882SOL    HW227546   5.673   1.048   1.238
 8883SOL     OW27547   1.511   6.008   6.319
 8883SOL    HW127548   1.500   6.068   6.240
 8883SOL    HW227549   1.506   6.062   6.403
 8884SOL     OW27550   6.209   3.876   6.187
 8884SOL    HW127551   6.132   3.837   6.135
 8884SOL    HW227552   6.224   3.970   6.158
 8885SOL     OW27553   6.808   3.505   0.660
 8885SOL    HW127554   6.783   3.409   0.646
 8885SOL    HW227555   6.754   3.542   0.735
 8886SOL     OW27556   3.076   6.867   4.962
 8886SOL    HW127557   3.144   6.798   4.986
 8886SOL    HW227558   3.045   6.914   5.044
 8887SOL     OW27559   3.368   1.531   1.090
 8887SOL    HW127560   3.294   1.549   1.025
 8887SOL    HW227561   3.426   1.612   1.097
 8888SOL     OW27562   1.807   1.853   6.037
 8888SOL    HW127563   1.881   1.904   5.994
 8888SOL    HW227564   1.809   1.868   6.136
 8889SOL     OW27565   6.841   0.309   6.057
 8889SOL    HW127566   6.938   0.331   6.049
 8889SOL    HW227567   6.808   0.270   5.971
 8890SOL     OW27568   6.703   5.847   3.864
 8890SOL    HW127569   6.615   5.834   3.909
 8890SOL    HW227570   6.736   5.940   3.882
 8891SOL     OW27571   5.136   3.707   6.685
 8891SOL    HW127572   5.213   3.733   6.628
 8891SOL    HW227573   5.169   3.668   6.771
 8892SOL     OW27574   3.582   5.634   3.450
 8892SOL    HW127575   3.601   5.572   3.526
 8892SOL    HW227576   3.547   5.582   3.372
 8893SOL     OW27577   0.681   5.863   3.216
 8893SOL    HW127578   0.586   5.893   3.216
 8893SOL    HW227579   0.730   5.908   3.291
 8894SOL     OW27580   4.235   2.900   6.659
 8894SOL    HW127581   4.183   2.975   6.620
 8894SOL    HW227582   4.204   2.813   6.619
 8895SOL     OW27583   6.399   2.552   2.413
 8895SOL    HW127584   6.404   2.589   2.506
 8895SOL    HW227585   6.330   2.602   2.361
 8896SOL     OW27586   2.460   3.477   5.333
 8896SOL    HW127587   2.556   3.493   5.314
 8896SOL    HW227588   2.408   3.560   5.318
 8897SOL     OW27589   1.706   2.791   3.258
 8897SOL    HW127590   1.805   2.791   3.246
 8897SOL    HW227591   1.670   2.882   3.238
 8898SOL     OW27592   5.302   3.104   2.922
 8898SOL    HW127593   5.309   3.021   2.977
 8898SOL    HW227594   5.265   3.178   2.978
 8899SOL     OW27595   1.833   5.451   0.862
 8899SOL    HW127596   1.880   5.413   0.942
 8899SOL    HW227597   1.761   5.389   0.833
 8900SOL     OW27598   6.109   3.089   2.661
 8900SOL    HW127599   6.045   3.035   2.715
 8900SOL    HW227600   6.067   3.114   2.574
 8901SOL     OW27601   1.898   0.907   4.830
 8901SOL    HW127602   1.816   0.852   4.848
 8901SOL    HW227603   1.972   0.848   4.800
 8902SOL     OW27604   2.075   7.010   0.358
 8902SOL    HW127605   2.128   6.996   0.442
 8902SOL    HW227606   2.113   6.953   0.285
 8903SOL     OW27607   1.062   1.562   5.021
 8903SOL    HW127608   1.025   1.525   4.936
 8903SOL    HW227609   1.142   1.618   5.001
 8904SOL     OW27610   5.899   6.510   4.096
 8904SOL    HW127611   5.879   6.537   4.190
 8904SOL    HW227612   5.818   6.524   4.039
 8905SOL     OW27613   1.175   4.695   4.133
 8905SOL    HW127614   1.216   4.605   4.122
 8905SOL    HW227615   1.111   4.712   4.058
 8906SOL     OW27616   0.352   6.223   0.010
 8906SOL    HW127617   0.446   6.255   0.016
 8906SOL    HW227618   0.350   6.123   0.008
 8907SOL     OW27619   2.599   2.343   4.986
 8907SOL    HW127620   2.586   2.371   5.081
 8907SOL    HW227621   2.629   2.248   4.984
 8908SOL     OW27622   1.335   4.121   6.550
 8908SOL    HW127623   1.378   4.144   6.462
 8908SOL    HW227624   1.242   4.157   6.551
 8909SOL     OW27625   2.832   0.854   6.297
 8909SOL    HW127626   2.858   0.768   6.253
 8909SOL    HW227627   2.892   0.927   6.264
 8910SOL     OW27628   0.271   2.341   6.077
 8910SOL    HW127629   0.177   2.330   6.045
 8910SOL    HW227630   0.312   2.423   6.036
 8911SOL     OW27631   3.802   2.138   4.498
 8911SOL    HW127632   3.795   2.099   4.406
 8911SOL    HW227633   3.710   2.151   4.535
 8912SOL     OW27634   3.356   3.287   0.286
 8912SOL    HW127635   3.369   3.210   0.349
 8912SOL    HW227636   3.328   3.252   0.197
 8913SOL     OW27637   5.122   5.051   5.719
 8913SOL    HW127638   5.032   5.091   5.706
 8913SOL    HW227639   5.120   4.954   5.692
 8914SOL     OW27640   4.578   0.399   4.818
 8914SOL    HW127641   4.512   0.437   4.883
 8914SOL    HW227642   4.661   0.372   4.867
 8915SOL     OW27643   0.703   2.889   3.875
 8915SOL    HW127644   0.605   2.872   3.868
 8915SOL    HW227645   0.720   2.964   3.938
 8916SOL     OW27646   6.964   3.734   0.576
 8916SOL    HW127647   0.001   3.678   0.635
 8916SOL    HW227648   6.887   3.680   0.542
 8917SOL     OW27649   6.688   3.479   0.366
 8917SOL    HW127650   6.729   3.484   0.458
 8917SOL    HW227651   6.724   3.553   0.310
 8918SOL     OW27652   6.482   4.213   0.997
 8918SOL    HW127653   6.526   4.300   1.016
 8918SOL    HW227654   6.413   4.194   1.067
 8919SOL     OW27655   3.756   4.258   0.725
 8919SOL    HW127656   3.835   4.197   0.717
 8919SOL    HW227657   3.676   4.206   0.752
 8920SOL     OW27658   0.516   0.227   6.781
 8920SOL    HW127659   0.576   0.171   6.725
 8920SOL    HW227660   0.430   0.179   6.797
 8921SOL     OW27661   1.922   2.435   2.794
 8921SOL    HW127662   1.938   2.533   2.803
 8921SOL    HW227663   1.825   2.418   2.781
 8922SOL     OW27664   3.854   5.125   1.743
 8922SOL    HW127665   3.766   5.077   1.747
 8922SOL    HW227666   3.892   5.115   1.651
 8923SOL     OW27667   1.882   3.029   6.503
 8923SOL    HW127668   1.798   2.977   6.512
 8923SOL    HW227669   1.926   3.007   6.415
 8924SOL     OW27670   4.029   5.381   5.520
 8924SOL    HW127671   4.126   5.358   5.521
 8924SOL    HW227672   4.013   5.460   5.579
 8925SOL     OW27673   1.126   1.232   2.370
 8925SOL    HW127674   1.095   1.137   2.363
 8925SOL    HW227675   1.081   1.276   2.448
 8926SOL     OW27676   7.018   3.477   6.153
 8926SOL    HW127677   0.081   3.427   6.179
 8926SOL    HW227678   6.941   3.446   6.208
 8927SOL     OW27679   0.170   1.393   4.654
 8927SOL    HW127680   0.119   1.383   4.739
 8927SOL    HW227681   0.239   1.465   4.665
 8928SOL     OW27682   0.677   0.375   6.055
 8928SOL    HW127683   0.604   0.308   6.065
 8928SOL    HW227684   0.756   0.332   6.011
 8929SOL     OW27685   6.265   2.841   4.545
 8929SOL    HW127686   6.275   2.743   4.526
 8929SOL    HW227687   6.213   2.884   4.471
 8930SOL     OW27688   1.569   3.859   3.729
 8930SOL    HW127689   1.665   3.830   3.738
 8930SOL    HW227690   1.552   3.936   3.790
 8931SOL     OW27691   2.392   3.007   0.353
 8931SOL    HW127692   2.303   2.973   0.322
 8931SOL    HW227693   2.413   2.968   0.443
 8932SOL     OW27694   6.541   0.871   1.209
 8932SOL    HW127695   6.482   0.865   1.128
 8932SOL    HW227696   6.612   0.801   1.204
 8933SOL     OW27697   1.710   2.968   5.800
 8933SOL    HW127698   1.739   3.017   5.883
 8933SOL    HW227699   1.778   2.983   5.728
 8934SOL     OW27700   3.720   4.912   4.669
 8934SOL    HW127701   3.670   4.988   4.626
 8934SOL    HW227702   3.656   4.854   4.719
 8935SOL     OW27703   6.640   4.479   1.016
 8935SOL    HW127704   6.717   4.422   1.043
 8935SOL    HW227705   6.620   4.464   0.919
 8936SOL     OW27706   0.892   3.323   2.570
 8936SOL    HW127707   0.983   3.351   2.601
 8936SOL    HW227708   0.900   3.277   2.481
 8937SOL     OW27709   6.886   6.734   4.123
 8937SOL    HW127710   6.821   6.717   4.049
 8937SOL    HW227711   6.979   6.736   4.086
 8938SOL     OW27712   0.384   0.465   0.536
 8938SOL    HW127713   0.385   0.558   0.499
 8938SOL    HW227714   0.418   0.401   0.467
 8939SOL     OW27715   5.851   4.856   4.479
 8939SOL    HW127716   5.894   4.945   4.495
 8939SOL    HW227717   5.922   4.786   4.468
 8940SOL     OW27718   6.042   1.469   1.989
 8940SOL    HW127719   5.985   1.507   1.916
 8940SOL    HW227720   6.003   1.383   2.020
 8941SOL     OW27721   5.953   2.540   4.587
 8941SOL    HW127722   5.912   2.452   4.612
 8941SOL    HW227723   5.951   2.601   4.666
 8942SOL     OW27724   6.362   5.372   5.782
 8942SOL    HW127725   6.316   5.456   5.811
 8942SOL    HW227726   6.460   5.380   5.799
 8943SOL     OW27727   3.822   5.516   0.518
 8943SOL    HW127728   3.867   5.601   0.491
 8943SOL    HW227729   3.780   5.473   0.438
 8944SOL     OW27730   5.468   5.953   4.451
 8944SOL    HW127731   5.461   5.864   4.496
 8944SOL    HW227732   5.387   5.968   4.394
 8945SOL     OW27733   0.880   1.630   4.067
 8945SOL    HW127734   0.845   1.543   4.033
 8945SOL    HW227735   0.845   1.704   4.010
 8946SOL     OW27736   2.728   1.034   3.727
 8946SOL    HW127737   2.770   1.113   3.682
 8946SOL    HW227738   2.790   0.956   3.720
 8947SOL     OW27739   2.497   3.439   5.816
 8947SOL    HW127740   2.536   3.529   5.794
 8947SOL    HW227741   2.446   3.405   5.738
 8948SOL     OW27742   5.838   6.043   3.825
 8948SOL    HW127743   5.885   6.131   3.833
 8948SOL    HW227744   5.748   6.049   3.868
 8949SOL     OW27745   4.076   6.279   0.888
 8949SOL    HW127746   4.142   6.353   0.873
 8949SOL    HW227747   4.041   6.285   0.982
 8950SOL     OW27748   3.701   4.386   0.000
 8950SOL    HW127749   3.706   4.485   7.011
 8950SOL    HW227750   3.693   4.363   0.097
 8951SOL     OW27751   2.165   0.825   4.678
 8951SOL    HW127752   2.256   0.809   4.641
 8951SOL    HW227753   2.166   0.903   4.740
 8952SOL     OW27754   0.734   5.207   3.173
 8952SOL    HW127755   0.674   5.136   3.210
 8952SOL    HW227756   0.683   5.292   3.161
 8953SOL     OW27757   1.177   4.163   0.551
 8953SOL    HW127758   1.195   4.236   0.485
 8953SOL    HW227759   1.264   4.125   0.583
 8954SOL     OW27760   6.724   6.750   4.350
 8954SOL    HW127761   6.776   6.785   4.427
 8954SOL    HW227762   6.781   6.747   4.268
 8955SOL     OW27763   6.692   4.682   3.446
 8955SOL    HW127764   6.774   4.721   3.489
 8955SOL    HW227765   6.611   4.711   3.496
 8956SOL     OW27766   2.074   1.496   6.070
 8956SOL    HW127767   2.110   1.518   5.979
 8956SOL    HW227768   1.984   1.453   6.060
 8957SOL     OW27769   1.649   4.793   1.597
 8957SOL    HW127770   1.601   4.748   1.672
 8957SOL    HW227771   1.665   4.889   1.620
 8958SOL     OW27772   0.453   2.388   4.983
 8958SOL    HW127773   0.436   2.290   4.982
 8958SOL    HW227774   0.490   2.415   5.071
 8959SOL     OW27775   1.550   4.282   2.155
 8959SOL    HW127776   1.506   4.368   2.178
 8959SOL    HW227777   1.637   4.273   2.205
 8960SOL     OW27778   4.293   5.923   3.469
 8960SOL    HW127779   4.290   5.916   3.569
 8960SOL    HW227780   4.346   6.003   3.443
 8961SOL     OW27781   3.187   1.419   3.652
 8961SOL    HW127782   3.168   1.515   3.669
 8961SOL    HW227783   3.115   1.362   3.692
 8962SOL     OW27784   6.144   5.549   2.357
 8962SOL    HW127785   6.243   5.541   2.346
 8962SOL    HW227786   6.100   5.465   2.325
 8963SOL     OW27787   3.599   0.346   4.889
 8963SOL    HW127788   3.521   0.395   4.928
 8963SOL    HW227789   3.677   0.408   4.884
 8964SOL     OW27790   5.800   2.979   3.393
 8964SOL    HW127791   5.744   3.014   3.318
 8964SOL    HW227792   5.784   2.881   3.403
 8965SOL     OW27793   2.213   5.481   0.291
 8965SOL    HW127794   2.277   5.476   0.215
 8965SOL    HW227795   2.260   5.516   0.372
 8966SOL     OW27796   6.916   3.991   6.848
 8966SOL    HW127797   7.002   4.009   6.801
 8966SOL    HW227798   6.842   3.982   6.781
 8967SOL     OW27799   3.863   0.605   1.850
 8967SOL    HW127800   3.909   0.605   1.761
 8967SOL    HW227801   3.889   0.523   1.901
 8968SOL     OW27802   4.170   5.614   2.657
 8968SOL    HW127803   4.093   5.601   2.594
 8968SOL    HW227804   4.217   5.699   2.633
 8969SOL     OW27805   6.566   0.119   3.436
 8969SOL    HW127806   6.539   0.170   3.518
 8969SOL    HW227807   6.518   0.032   3.434
 8970SOL     OW27808   2.340   3.339   6.754
 8970SOL    HW127809   2.289   3.340   6.668
 8970SOL    HW227810   2.373   3.246   6.772
 8971SOL     OW27811   5.744   5.214   1.677
 8971SOL    HW127812   5.645   5.220   1.663
 8971SOL    HW227813   5.763   5.143   1.746
 8972SOL     OW27814   4.336   3.464   0.003
 8972SOL    HW127815   4.425   3.470   6.979
 8972SOL    HW227816   4.327   3.375   0.048
 8973SOL     OW27817   0.101   3.582   3.414
 8973SOL    HW127818   0.170   3.522   3.453
 8973SOL    HW227819   0.023   3.528   3.381
 8974SOL     OW27820   1.305   3.309   3.768
 8974SOL    HW127821   1.232   3.269   3.823
 8974SOL    HW227822   1.379   3.243   3.757
 8975SOL     OW27823   1.044   6.197   0.220
 8975SOL    HW127824   0.982   6.123   0.250
 8975SOL    HW227825   1.092   6.168   0.137
 8976SOL     OW27826   0.444   5.082   0.571
 8976SOL    HW127827   0.497   5.001   0.598
 8976SOL    HW227828   0.398   5.120   0.651
 8977SOL     OW27829   6.843   3.328   6.717
 8977SOL    HW127830   6.855   3.418   6.759
 8977SOL    HW227831   6.929   3.277   6.723
 8978SOL     OW27832   4.968   6.877   4.477
 8978SOL    HW127833   5.004   6.952   4.421
 8978SOL    HW227834   4.999   6.888   4.571
 8979SOL     OW27835   0.552   4.544   5.176
 8979SOL    HW127836   0.597   4.455   5.171
 8979SOL    HW227837   0.618   4.613   5.203
 8980SOL     OW27838   4.597   2.704   4.975
 8980SOL    HW127839   4.608   2.730   5.071
 8980SOL    HW227840   4.537   2.624   4.969
 8981SOL     OW27841   4.158   1.766   5.071
 8981SOL    HW127842   4.151   1.812   4.982
 8981SOL    HW227843   4.070   1.725   5.094
 8982SOL     OW27844   1.846   1.603   1.432
 8982SOL    HW127845   1.749   1.578   1.440
 8982SOL    HW227846   1.859   1.659   1.350
 8983SOL     OW27847   0.902   5.535   0.630
 8983SOL    HW127848   0.946   5.456   0.590
 8983SOL    HW227849   0.886   5.605   0.560
 8984SOL     OW27850   5.958   6.557   3.667
 8984SOL    HW127851   6.016   6.567   3.586
 8984SOL    HW227852   6.016   6.543   3.747
 8985SOL     OW27853   2.332   1.304   0.823
 8985SOL    HW127854   2.299   1.280   0.914
 8985SOL    HW227855   2.324   1.402   0.809
 8986SOL     OW27856   4.149   4.993   2.144
 8986SOL    HW127857   4.246   4.973   2.137
 8986SOL    HW227858   4.132   5.047   2.226
 8987SOL     OW27859   4.423   6.947   0.667
 8987SOL    HW127860   4.443   7.000   0.585
 8987SOL    HW227861   4.328   6.962   0.695
 8988SOL     OW27862   1.795   4.302   0.583
 8988SOL    HW127863   1.837   4.370   0.523
 8988SOL    HW227864   1.696   4.309   0.577
 8989SOL     OW27865   4.764   4.173   1.932
 8989SOL    HW127866   4.693   4.223   1.884
 8989SOL    HW227867   4.743   4.170   2.030
 8990SOL     OW27868   2.107   5.986   2.342
 8990SOL    HW127869   2.060   6.064   2.302
 8990SOL    HW227870   2.199   5.979   2.304
 8991SOL     OW27871   1.660   1.777   6.565
 8991SOL    HW127872   1.563   1.751   6.569
 8991SOL    HW227873   1.689   1.807   6.656
 8992SOL     OW27874   6.643   2.400   6.553
 8992SOL    HW127875   6.610   2.450   6.473
 8992SOL    HW227876   6.656   2.463   6.629
 8993SOL     OW27877   4.976   2.722   2.945
 8993SOL    HW127878   4.912   2.697   2.873
 8993SOL    HW227879   4.996   2.820   2.939
 8994SOL     OW27880   0.788   4.956   4.758
 8994SOL    HW127881   0.745   4.979   4.845
 8994SOL    HW227882   0.849   4.877   4.770
 8995SOL     OW27883   1.171   2.423   6.603
 8995SOL    HW127884   1.198   2.489   6.533
 8995SOL    HW227885   1.194   2.459   6.693
 8996SOL     OW27886   6.647   5.130   1.686
 8996SOL    HW127887   6.636   5.228   1.703
 8996SOL    HW227888   6.694   5.117   1.600
 8997SOL     OW27889   4.267   1.379   6.638
 8997SOL    HW127890   4.360   1.343   6.644
 8997SOL    HW227891   4.268   1.467   6.592
 8998SOL     OW27892   0.182   3.358   5.378
 8998SOL    HW127893   0.162   3.270   5.421
 8998SOL    HW227894   0.125   3.369   5.296
 8999SOL     OW27895   5.288   7.001   0.504
 8999SOL    HW127896   5.191   6.976   0.501
 8999SOL    HW227897   5.340   6.939   0.445
 9000SOL     OW27898   2.584   4.402   6.800
 9000SOL    HW127899   2.518   4.392   6.874
 9000SOL    HW227900   2.542   4.455   6.726
 9001SOL     OW27901   0.539   5.618   2.796
 9001SOL    HW127902   0.474   5.578   2.860
 9001SOL    HW227903   0.569   5.707   2.830
 9002SOL     OW27904   6.706   4.885   4.955
 9002SOL    HW127905   6.657   4.971   4.944
 9002SOL    HW227906   6.799   4.894   4.919
 9003SOL     OW27907   5.077   2.685   1.145
 9003SOL    HW127908   4.989   2.731   1.136
 9003SOL    HW227909   5.064   2.586   1.134
 9004SOL     OW27910   5.026   6.885   1.817
 9004SOL    HW127911   5.096   6.947   1.854
 9004SOL    HW227912   4.941   6.899   1.867
 9005SOL     OW27913   4.876   1.777   5.012
 9005SOL    HW127914   4.973   1.754   5.003
 9005SOL    HW227915   4.821   1.694   5.007
 9006SOL     OW27916   2.575   6.422   0.508
 9006SOL    HW127917   2.575   6.504   0.452
 9006SOL    HW227918   2.625   6.349   0.461
 9007SOL     OW27919   3.607   6.621   4.063
 9007SOL    HW127920   3.603   6.613   3.964
 9007SOL    HW227921   3.678   6.560   4.099
 9008SOL     OW27922   6.979   5.376   2.999
 9008SOL    HW127923   0.016   5.359   3.079
 9008SOL    HW227924   7.013   5.456   2.950
 9009SOL     OW27925   2.728   0.624   0.366
 9009SOL    HW127926   2.678   0.561   0.306
 9009SOL    HW227927   2.744   0.710   0.317
 9010SOL     OW27928   0.728   0.060   4.870
 9010SOL    HW127929   0.692   6.988   4.886
 9010SOL    HW227930   0.730   0.078   4.772
 9011SOL     OW27931   4.055   2.027   1.563
 9011SOL    HW127932   3.967   1.981   1.578
 9011SOL    HW227933   4.051   2.119   1.601
 9012SOL     OW27934   3.307   4.350   1.071
 9012SOL    HW127935   3.292   4.298   1.155
 9012SOL    HW227936   3.311   4.287   0.993
 9013SOL     OW27937   0.257   6.031   3.909
 9013SOL    HW127938   0.283   6.066   4.000
 9013SOL    HW227939   0.294   6.092   3.839
 9014SOL     OW27940   0.838   0.774   7.018
 9014SOL    HW127941   0.810   0.870   0.007
 9014SOL    HW227942   0.868   0.740   0.087
 9015SOL     OW27943   6.208   2.046   0.908
 9015SOL    HW127944   6.247   1.955   0.896
 9015SOL    HW227945   6.128   2.041   0.969
 9016SOL     OW27946   0.579   6.462   6.529
 9016SOL    HW127947   0.539   6.528   6.591
 9016SOL    HW227948   0.574   6.496   6.435
 9017SOL     OW27949   4.389   2.429   1.871
 9017SOL    HW127950   4.426   2.485   1.944
 9017SOL    HW227951   4.369   2.337   1.906
 9018SOL     OW27952   4.703   1.358   5.739
 9018SOL    HW127953   4.770   1.414   5.787
 9018SOL    HW227954   4.677   1.281   5.798
 9019SOL     OW27955   0.175   0.717   1.498
 9019SOL    HW127956   0.271   0.734   1.475
 9019SOL    HW227957   0.141   0.640   1.444
 9020SOL     OW27958   1.552   3.471   1.602
 9020SOL    HW127959   1.471   3.447   1.549
 9020SOL    HW227960   1.613   3.528   1.546
 9021SOL     OW27961   6.615   0.101   3.792
 9021SOL    HW127962   6.588   0.192   3.760
 9021SOL    HW227963   6.687   0.065   3.733
 9022SOL     OW27964   2.930   1.450   0.828
 9022SOL    HW127965   2.909   1.398   0.745
 9022SOL    HW227966   3.023   1.430   0.857
 9023SOL     OW27967   3.259   3.248   2.222
 9023SOL    HW127968   3.208   3.168   2.192
 9023SOL    HW227969   3.304   3.229   2.309
 9024SOL     OW27970   0.389   5.193   5.079
 9024SOL    HW127971   0.397   5.193   5.179
 9024SOL    HW227972   0.404   5.286   5.044
 9025SOL     OW27973   0.596   5.784   0.373
 9025SOL    HW127974   0.565   5.849   0.442
 9025SOL    HW227975   0.608   5.831   0.286
 9026SOL     OW27976   3.949   3.525   2.154
 9026SOL    HW127977   4.024   3.471   2.117
 9026SOL    HW227978   3.966   3.543   2.251
 9027SOL     OW27979   1.206   1.771   4.135
 9027SOL    HW127980   1.301   1.768   4.165
 9027SOL    HW227981   1.150   1.813   4.207
 9028SOL     OW27982   2.448   3.939   6.516
 9028SOL    HW127983   2.475   3.911   6.424
 9028SOL    HW227984   2.525   3.930   6.578
 9029SOL     OW27985   3.301   5.275   4.906
 9029SOL    HW127986   3.226   5.213   4.885
 9029SOL    HW227987   3.375   5.225   4.951
 9030SOL     OW27988   2.007   1.568   3.582
 9030SOL    HW127989   1.918   1.562   3.537
 9030SOL    HW227990   2.072   1.508   3.537
 9031SOL     OW27991   4.521   6.090   4.653
 9031SOL    HW127992   4.547   6.055   4.743
 9031SOL    HW227993   4.463   6.022   4.607
 9032SOL     OW27994   3.150   3.007   1.225
 9032SOL    HW127995   3.125   2.962   1.311
 9032SOL    HW227996   3.100   2.965   1.150
 9033SOL     OW27997   1.783   5.236   3.752
 9033SOL    HW127998   1.878   5.258   3.770
 9033SOL    HW227999   1.755   5.159   3.809
 9034SOL     OW28000   2.755   0.589   5.172
 9034SOL    HW128001   2.808   0.609   5.090
 9034SOL    HW228002   2.680   0.527   5.149
 9035SOL     OW28003   1.051   5.037   5.655
 9035SOL    HW128004   1.036   5.122   5.604
 9035SOL    HW228005   1.041   5.054   5.753
 9036SOL     OW28006   1.682   0.947   5.454
 9036SOL    HW128007   1.636   1.030   5.421
 9036SOL    HW228008   1.716   0.962   5.546
 9037SOL     OW28009   1.599   3.745   5.919
 9037SOL    HW128010   1.562   3.691   5.995
 9037SOL    HW228011   1.688   3.782   5.944
 9038SOL     OW28012   5.078   6.874   5.735
 9038SOL    HW128013   5.124   6.952   5.694
 9038SOL    HW228014   5.044   6.813   5.663
 9039SOL     OW28015   2.678   4.676   4.378
 9039SOL    HW128016   2.761   4.666   4.433
 9039SOL    HW228017   2.606   4.618   4.416
 9040SOL     OW28018   2.433   2.258   2.689
 9040SOL    HW128019   2.502   2.330   2.698
 9040SOL    HW228020   2.344   2.294   2.717
 9041SOL     OW28021   0.730   2.263   2.114
 9041SOL    HW128022   0.735   2.360   2.138
 9041SOL    HW228023   0.692   2.212   2.191
 9042SOL     OW28024   2.208   7.014   3.536
 9042SOL    HW128025   2.300   7.018   3.498
 9042SOL    HW228026   2.203   0.054   3.616
 9043SOL     OW28027   2.797   1.665   6.691
 9043SOL    HW128028   2.839   1.723   6.761
 9043SOL    HW228029   2.771   1.722   6.613
 9044SOL     OW28030   5.750   1.891   1.776
 9044SOL    HW128031   5.681   1.955   1.810
 9044SOL    HW228032   5.721   1.798   1.797
 9045SOL     OW28033   2.816   1.536   2.522
 9045SOL    HW128034   2.859   1.527   2.432
 9045SOL    HW228035   2.766   1.623   2.527
 9046SOL     OW28036   3.525   4.065   4.733
 9046SOL    HW128037   3.622   4.062   4.709
 9046SOL    HW228038   3.514   4.112   4.821
 9047SOL     OW28039   1.002   3.009   5.873
 9047SOL    HW128040   0.976   3.046   5.784
 9047SOL    HW228041   1.080   2.946   5.861
 9048SOL     OW28042   6.427   2.229   5.928
 9048SOL    HW128043   6.349   2.217   5.989
 9048SOL    HW228044   6.511   2.233   5.981
 9049SOL     OW28045   3.866   0.101   6.085
 9049SOL    HW128046   3.795   0.058   6.140
 9049SOL    HW228047   3.883   0.194   6.119
 9050SOL     OW28048   0.054   4.286   5.838
 9050SOL    HW128049   0.101   4.222   5.776
 9050SOL    HW228050   0.119   4.320   5.906
 9051SOL     OW28051   4.065   6.016   0.809
 9051SOL    HW128052   4.059   6.111   0.841
 9051SOL    HW228053   4.161   5.994   0.789
 9052SOL     OW28054   1.622   2.258   3.244
 9052SOL    HW128055   1.642   2.166   3.210
 9052SOL    HW228056   1.666   2.326   3.185
 9053SOL     OW28057   1.558   1.738   3.189
 9053SOL    HW128058   1.482   1.706   3.133
 9053SOL    HW228059   1.643   1.699   3.155
 9054SOL     OW28060   1.605   0.284   2.419
 9054SOL    HW128061   1.600   0.368   2.364
 9054SOL    HW228062   1.541   0.216   2.383
 9055SOL     OW28063   6.321   3.342   3.648
 9055SOL    HW128064   6.320   3.426   3.593
 9055SOL    HW228065   6.415   3.314   3.665
 9056SOL     OW28066   6.832   0.685   1.425
 9056SOL    HW128067   6.770   0.728   1.491
 9056SOL    HW228068   6.898   0.752   1.393
 9057SOL     OW28069   6.070   4.976   5.693
 9057SOL    HW128070   6.156   4.961   5.643
 9057SOL    HW228071   6.066   4.913   5.771
 9058SOL     OW28072   1.992   1.861   3.651
 9058SOL    HW128073   2.016   1.764   3.656
 9058SOL    HW228074   1.906   1.876   3.699
 9059SOL     OW28075   1.310   1.274   5.086
 9059SOL    HW128076   1.390   1.298   5.140
 9059SOL    HW228077   1.310   1.325   5.000
 9060SOL     OW28078   6.567   3.042   2.432
 9060SOL    HW128079   6.476   3.015   2.462
 9060SOL    HW228080   6.567   3.138   2.404
 9061SOL     OW28081   3.137   5.931   2.154
 9061SOL    HW128082   3.115   5.894   2.064
 9061SOL    HW228083   3.067   5.995   2.183
 9062SOL     OW28084   1.989   5.784   2.214
 9062SOL    HW128085   1.997   5.807   2.117
 9062SOL    HW228086   2.046   5.845   2.268
 9063SOL     OW28087   2.340   6.919   2.847
 9063SOL    HW128088   2.430   6.935   2.888
 9063SOL    HW228089   2.282   6.867   2.911
 9064SOL     OW28090   6.071   3.104   5.968
 9064SOL    HW128091   6.126   3.120   5.886
 9064SOL    HW228092   6.081   3.009   5.997
 9065SOL     OW28093   3.229   6.580   6.446
 9065SOL    HW128094   3.159   6.600   6.515
 9065SOL    HW228095   3.239   6.481   6.436
 9066SOL     OW28096   5.447   6.845   0.364
 9066SOL    HW128097   5.431   6.865   0.268
 9066SOL    HW228098   5.536   6.883   0.391
 9067SOL     OW28099   6.356   0.459   4.233
 9067SOL    HW128100   6.413   0.429   4.157
 9067SOL    HW228101   6.359   0.391   4.306
 9068SOL     OW28102   2.847   0.315   5.510
 9068SOL    HW128103   2.802   0.340   5.596
 9068SOL    HW228104   2.919   0.382   5.491
 9069SOL     OW28105   2.634   2.391   1.937
 9069SOL    HW128106   2.571   2.437   2.000
 9069SOL    HW228107   2.726   2.394   1.974
 9070SOL     OW28108   1.138   3.326   5.899
 9070SOL    HW128109   1.111   3.376   5.816
 9070SOL    HW228110   1.190   3.244   5.873
 9071SOL     OW28111   5.679   0.150   0.754
 9071SOL    HW128112   5.662   0.061   0.794
 9071SOL    HW228113   5.593   0.201   0.746
 9072SOL     OW28114   6.413   1.182   2.292
 9072SOL    HW128115   6.360   1.230   2.362
 9072SOL    HW228116   6.467   1.247   2.240
 9073SOL     OW28117   3.414   6.496   0.428
 9073SOL    HW128118   3.464   6.490   0.514
 9073SOL    HW228119   3.335   6.557   0.439
 9074SOL     OW28120   2.421   1.161   1.696
 9074SOL    HW128121   2.393   1.190   1.604
 9074SOL    HW228122   2.477   1.078   1.689
 9075SOL     OW28123   1.354   1.236   2.261
 9075SOL    HW128124   1.266   1.220   2.306
 9075SOL    HW228125   1.370   1.165   2.192
 9076SOL     OW28126   5.968   1.959   5.107
 9076SOL    HW128127   5.971   2.015   5.190
 9076SOL    HW228128   5.915   1.876   5.124
 9077SOL     OW28129   5.340   6.663   6.865
 9077SOL    HW128130   5.406   6.692   6.796
 9077SOL    HW228131   5.371   6.693   6.956
 9078SOL     OW28132   4.422   3.816   6.357
 9078SOL    HW128133   4.325   3.837   6.368
 9078SOL    HW228134   4.456   3.768   6.438
 9079SOL     OW28135   2.326   6.525   3.898
 9079SOL    HW128136   2.259   6.566   3.836
 9079SOL    HW228137   2.410   6.506   3.848
 9080SOL     OW28138   5.450   2.190   0.086
 9080SOL    HW128139   5.420   2.165   7.015
 9080SOL    HW228140   5.479   2.285   0.087
 9081SOL     OW28141   4.078   6.505   3.042
 9081SOL    HW128142   4.097   6.583   2.981
 9081SOL    HW228143   4.113   6.422   3.000
 9082SOL     OW28144   2.603   6.499   5.135
 9082SOL    HW128145   2.505   6.486   5.121
 9082SOL    HW228146   2.628   6.460   5.224
 9083SOL     OW28147   3.915   4.615   5.956
 9083SOL    HW128148   3.844   4.607   6.026
 9083SOL    HW228149   3.906   4.541   5.890
 9084SOL     OW28150   2.970   3.762   5.455
 9084SOL    HW128151   3.007   3.837   5.400
 9084SOL    HW228152   2.953   3.683   5.396
 9085SOL     OW28153   1.851   4.720   1.191
 9085SOL    HW128154   1.791   4.668   1.252
 9085SOL    HW228155   1.866   4.811   1.229
 9086SOL     OW28156   0.783   4.159   0.443
 9086SOL    HW128157   0.704   4.193   0.391
 9086SOL    HW228158   0.751   4.120   0.530
 9087SOL     OW28159   4.680   2.588   2.063
 9087SOL    HW128160   4.642   2.619   1.976
 9087SOL    HW228161   4.713   2.667   2.115
 9088SOL     OW28162   5.434   6.049   0.731
 9088SOL    HW128163   5.391   6.116   0.670
 9088SOL    HW228164   5.488   6.098   0.801
 9089SOL     OW28165   4.996   6.428   5.306
 9089SOL    HW128166   4.925   6.428   5.376
 9089SOL    HW228167   5.046   6.515   5.308
 9090SOL     OW28168   0.160   0.087   3.319
 9090SOL    HW128169   0.214   0.043   3.248
 9090SOL    HW228170   0.185   0.049   3.408
 9091SOL     OW28171   3.500   3.935   0.990
 9091SOL    HW128172   3.542   4.023   0.969
 9091SOL    HW228173   3.407   3.932   0.954
 9092SOL     OW28174   0.091   1.674   0.798
 9092SOL    HW128175   0.104   1.618   0.880
 9092SOL    HW228176   0.015   1.737   0.812
 9093SOL     OW28177   1.166   6.635   6.195
 9093SOL    HW128178   1.266   6.630   6.197
 9093SOL    HW228179   1.128   6.543   6.201
 9094SOL     OW28180   6.189   5.218   2.741
 9094SOL    HW128181   6.152   5.302   2.702
 9094SOL    HW228182   6.123   5.179   2.805
 9095SOL     OW28183   4.586   4.381   6.038
 9095SOL    HW128184   4.561   4.306   5.977
 9095SOL    HW228185   4.609   4.345   6.128
 9096SOL     OW28186   6.070   3.610   1.576
 9096SOL    HW128187   6.003   3.538   1.556
 9096SOL    HW228188   6.162   3.571   1.571
 9097SOL     OW28189   0.773   1.865   0.134
 9097SOL    HW128190   0.728   1.782   0.099
 9097SOL    HW228191   0.863   1.841   0.170
 9098SOL     OW28192   3.672   1.839   5.906
 9098SOL    HW128193   3.659   1.870   5.811
 9098SOL    HW228194   3.692   1.918   5.963
 9099SOL     OW28195   2.568   2.667   5.737
 9099SOL    HW128196   2.486   2.610   5.743
 9099SOL    HW228197   2.565   2.721   5.653
 9100SOL     OW28198   0.690   3.681   4.148
 9100SOL    HW128199   0.669   3.611   4.080
 9100SOL    HW228200   0.728   3.761   4.103
 9101SOL     OW28201   2.079   2.595   3.104
 9101SOL    HW128202   2.159   2.592   3.165
 9101SOL    HW228203   2.064   2.504   3.065
 9102SOL     OW28204   2.833   0.068   1.877
 9102SOL    HW128205   2.927   0.038   1.890
 9102SOL    HW228206   2.821   0.158   1.918
 9103SOL     OW28207   6.381   3.135   6.418
 9103SOL    HW128208   6.458   3.197   6.404
 9103SOL    HW228209   6.313   3.150   6.346
 9104SOL     OW28210   0.327   6.597   1.944
 9104SOL    HW128211   0.383   6.674   1.973
 9104SOL    HW228212   0.381   6.513   1.947
 9105SOL     OW28213   1.401   1.733   6.602
 9105SOL    HW128214   1.411   1.643   6.560
 9105SOL    HW228215   1.325   1.732   6.666
 9106SOL     OW28216   0.337   2.970   0.795
 9106SOL    HW128217   0.426   2.980   0.751
 9106SOL    HW228218   0.300   2.879   0.775
 9107SOL     OW28219   3.640   0.819   5.965
 9107SOL    HW128220   3.692   0.737   5.940
 9107SOL    HW228221   3.661   0.892   5.901
 9108SOL     OW28222   4.736   4.061   5.801
 9108SOL    HW128223   4.713   3.998   5.727
 9108SOL    HW228224   4.835   4.074   5.804
 9109SOL     OW28225   6.735   2.881   3.686
 9109SOL    HW128226   6.824   2.927   3.692
 9109SOL    HW228227   6.679   2.908   3.764
 9110SOL     OW28228   1.529   5.277   4.277
 9110SOL    HW128229   1.471   5.333   4.336
 9110SOL    HW228230   1.625   5.299   4.294
 9111SOL     OW28231   4.581   2.074   0.616
 9111SOL    HW128232   4.618   1.985   0.590
 9111SOL    HW228233   4.605   2.094   0.711
 9112SOL     OW28234   0.705   5.228   2.897
 9112SOL    HW128235   0.670   5.289   2.969
 9112SOL    HW228236   0.772   5.165   2.936
 9113SOL     OW28237   4.729   1.648   2.861
 9113SOL    HW128238   4.676   1.574   2.903
 9113SOL    HW228239   4.796   1.609   2.797
 9114SOL     OW28240   1.145   4.726   2.120
 9114SOL    HW128241   1.138   4.653   2.052
 9114SOL    HW228242   1.065   4.725   2.179
 9115SOL     OW28243   0.207   5.717   4.082
 9115SOL    HW128244   0.149   5.719   4.001
 9115SOL    HW228245   0.255   5.630   4.087
 9116SOL     OW28246   7.013   0.991   1.781
 9116SOL    HW128247   0.036   1.048   1.852
 9116SOL    HW228248   0.026   0.897   1.790
 9117SOL     OW28249   5.079   2.377   0.070
 9117SOL    HW128250   5.103   2.429   7.008
 9117SOL    HW228251   5.141   2.402   0.144
 9118SOL     OW28252   6.789   3.608   0.147
 9118SOL    HW128253   6.794   3.520   0.099
 9118SOL    HW228254   6.879   3.629   0.186
 9119SOL     OW28255   4.197   0.285   2.451
 9119SOL    HW128256   4.234   0.377   2.465
 9119SOL    HW228257   4.267   0.228   2.408
 9120SOL     OW28258   6.527   1.904   6.115
 9120SOL    HW128259   6.505   1.971   6.186
 9120SOL    HW228260   6.620   1.918   6.082
 9121SOL     OW28261   4.236   0.630   5.215
 9121SOL    HW128262   4.166   0.616   5.285
 9121SOL    HW228263   4.326   0.626   5.258
 9122SOL     OW28264   2.364   4.313   2.303
 9122SOL    HW128265   2.421   4.390   2.332
 9122SOL    HW228266   2.307   4.283   2.380
 9123SOL     OW28267   2.091   0.358   3.562
 9123SOL    HW128268   2.141   0.444   3.571
 9123SOL    HW228269   2.054   0.350   3.470
 9124SOL     OW28270   5.441   5.804   0.309
 9124SOL    HW128271   5.479   5.859   0.383
 9124SOL    HW228272   5.515   5.755   0.263
 9125SOL     OW28273   4.894   4.267   0.164
 9125SOL    HW128274   4.948   4.188   0.132
 9125SOL    HW228275   4.798   4.241   0.171
 9126SOL     OW28276   6.111   3.526   1.295
 9126SOL    HW128277   6.024   3.564   1.327
 9126SOL    HW228278   6.145   3.459   1.362
 9127SOL     OW28279   6.717   1.692   6.488
 9127SOL    HW128280   6.694   1.672   6.393
 9127SOL    HW228281   6.637   1.674   6.546
 9128SOL     OW28282   6.135   2.592   5.477
 9128SOL    HW128283   6.101   2.531   5.548
 9128SOL    HW228284   6.077   2.673   5.473
 9129SOL     OW28285   0.346   2.708   0.002
 9129SOL    HW128286   0.281   2.769   0.049
 9129SOL    HW228287   0.435   2.753   7.017
 9130SOL     OW28288   0.609   2.814   6.325
 9130SOL    HW128289   0.519   2.844   6.357
 9130SOL    HW228290   0.681   2.860   6.377
 9131SOL     OW28291   5.501   2.964   5.870
 9131SOL    HW128292   5.404   2.945   5.852
 9131SOL    HW228293   5.529   2.921   5.955
 9132SOL     OW28294   0.553   5.600   4.357
 9132SOL    HW128295   0.580   5.589   4.262
 9132SOL    HW228296   0.562   5.696   4.383
 9133SOL     OW28297   4.193   6.485   1.629
 9133SOL    HW128298   4.183   6.585   1.633
 9133SOL    HW228299   4.291   6.462   1.627
 9134SOL     OW28300   3.585   5.588   1.653
 9134SOL    HW128301   3.651   5.602   1.580
 9134SOL    HW228302   3.621   5.521   1.718
 9135SOL     OW28303   6.467   0.252   1.536
 9135SOL    HW128304   6.380   0.285   1.499
 9135SOL    HW228305   6.450   0.186   1.609
 9136SOL     OW28306   5.292   6.534   0.088
 9136SOL    HW128307   5.332   6.619   0.120
 9136SOL    HW228308   5.259   6.546   7.014
 9137SOL     OW28309   4.886   1.230   0.578
 9137SOL    HW128310   4.906   1.241   0.481
 9137SOL    HW228311   4.963   1.263   0.632
 9138SOL     OW28312   0.139   5.719   6.641
 9138SOL    HW128313   0.087   5.640   6.674
 9138SOL    HW228314   0.095   5.755   6.558
 9139SOL     OW28315   1.861   2.202   3.456
 9139SOL    HW128316   1.818   2.163   3.375
 9139SOL    HW228317   1.803   2.186   3.536
 9140SOL     OW28318   0.006   3.324   2.469
 9140SOL    HW128319   6.973   3.407   2.488
 9140SOL    HW228320   6.964   3.246   2.463
 9141SOL     OW28321   5.695   7.007   1.414
 9141SOL    HW128322   5.740   0.073   1.435
 9141SOL    HW228323   5.732   6.935   1.474
 9142SOL     OW28324   0.934   3.231   0.984
 9142SOL    HW128325   1.016   3.250   0.930
 9142SOL    HW228326   0.957   3.170   1.059
 9143SOL     OW28327   6.188   2.653   0.398
 9143SOL    HW128328   6.269   2.605   0.362
 9143SOL    HW228329   6.195   2.750   0.377
 9144SOL     OW28330   2.400   4.869   5.074
 9144SOL    HW128331   2.320   4.885   5.018
 9144SOL    HW228332   2.464   4.808   5.026
 9145SOL     OW28333   0.443   5.473   6.900
 9145SOL    HW128334   0.481   5.463   6.992
 9145SOL    HW228335   0.438   5.383   6.857
 9146SOL     OW28336   5.196   3.059   3.500
 9146SOL    HW128337   5.224   3.039   3.406
 9146SOL    HW228338   5.261   3.123   3.541
 9147SOL     OW28339   5.819   6.922   5.029
 9147SOL    HW128340   5.821   7.017   5.000
 9147SOL    HW228341   5.757   6.912   5.107
 9148SOL     OW28342   5.024   6.332   2.177
 9148SOL    HW128343   5.051   6.428   2.173
 9148SOL    HW228344   5.021   6.302   2.272
 9149SOL     OW28345   5.135   3.671   2.534
 9149SOL    HW128346   5.119   3.631   2.444
 9149SOL    HW228347   5.233   3.689   2.546
 9150SOL     OW28348   3.121   5.232   1.214
 9150SOL    HW128349   3.048   5.266   1.154
 9150SOL    HW228350   3.082   5.210   1.304
 9151SOL     OW28351   0.957   4.344   3.571
 9151SOL    HW128352   1.014   4.416   3.532
 9151SOL    HW228353   1.007   4.298   3.644
 9152SOL     OW28354   2.225   4.035   4.356
 9152SOL    HW128355   2.193   3.941   4.367
 9152SOL    HW228356   2.323   4.035   4.337
 9153SOL     OW28357   0.668   3.192   0.195
 9153SOL    HW128358   0.667   3.201   0.095
 9153SOL    HW228359   0.690   3.097   0.219
 9154SOL     OW28360   5.710   4.728   5.287
 9154SOL    HW128361   5.740   4.759   5.377
 9154SOL    HW228362   5.699   4.629   5.288
 9155SOL     OW28363   1.713   4.326   2.635
 9155SOL    HW128364   1.622   4.294   2.661
 9155SOL    HW228365   1.782   4.273   2.685
 9156SOL     OW28366   0.335   2.396   0.743
 9156SOL    HW128367   0.353   2.470   0.808
 9156SOL    HW228368   0.404   2.398   0.671
 9157SOL     OW28369   2.803   4.139   6.860
 9157SOL    HW128370   2.886   4.193   6.878
 9157SOL    HW228371   2.728   4.173   6.917
 9158SOL     OW28372   6.529   3.937   4.492
 9158SOL    HW128373   6.593   3.924   4.416
 9158SOL    HW228374   6.551   3.872   4.565
 9159SOL     OW28375   1.410   0.650   2.730
 9159SOL    HW128376   1.505   0.635   2.702
 9159SOL    HW228377   1.380   0.740   2.697
 9160SOL     OW28378   0.220   6.421   5.875
 9160SOL    HW128379   0.262   6.488   5.813
 9160SOL    HW228380   0.223   6.330   5.832
 9161SOL     OW28381   5.386   5.176   3.374
 9161SOL    HW128382   5.380   5.102   3.307
 9161SOL    HW228383   5.305   5.176   3.432
 9162SOL     OW28384   4.286   0.521   3.461
 9162SOL    HW128385   4.261   0.526   3.558
 9162SOL    HW228386   4.238   0.593   3.411
 9163SOL     OW28387   6.737   2.490   4.315
 9163SOL    HW128388   6.717   2.462   4.409
 9163SOL    HW228389   6.668   2.556   4.285
 9164SOL     OW28390   1.830   0.705   6.762
 9164SOL    HW128391   1.755   0.660   6.810
 9164SOL    HW228392   1.816   0.804   6.762
 9165SOL     OW28393   5.795   1.625   6.202
 9165SOL    HW128394   5.836   1.591   6.286
 9165SOL    HW228395   5.736   1.555   6.162
 9166SOL     OW28396   4.294   6.082   1.133
 9166SOL    HW128397   4.264   5.989   1.115
 9166SOL    HW228398   4.233   6.124   1.200
 9167SOL     OW28399   2.229   2.131   5.541
 9167SOL    HW128400   2.141   2.173   5.562
 9167SOL    HW228401   2.257   2.074   5.619
 9168SOL     OW28402   6.514   5.895   6.584
 9168SOL    HW128403   6.539   5.956   6.659
 9168SOL    HW228404   6.589   5.891   6.518
 9169SOL     OW28405   6.853   6.801   6.753
 9169SOL    HW128406   6.902   6.769   6.834
 9169SOL    HW228407   6.781   6.864   6.781
 9170SOL     OW28408   2.017   0.077   6.582
 9170SOL    HW128409   1.995   0.078   6.485
 9170SOL    HW228410   1.935   0.058   6.636
 9171SOL     OW28411   3.320   6.152   0.662
 9171SOL    HW128412   3.364   6.080   0.609
 9171SOL    HW228413   3.222   6.152   0.643
 9172SOL     OW28414   4.803   1.190   3.920
 9172SOL    HW128415   4.821   1.261   3.851
 9172SOL    HW228416   4.777   1.105   3.874
 9173SOL     OW28417   6.030   4.396   5.579
 9173SOL    HW128418   5.972   4.372   5.502
 9173SOL    HW228419   6.091   4.320   5.600
 9174SOL     OW28420   0.323   5.473   0.332
 9174SOL    HW128421   0.390   5.464   0.258
 9174SOL    HW228422   0.368   5.508   0.414
 9175SOL     OW28423   1.217   6.949   6.458
 9175SOL    HW128424   1.134   6.895   6.447
 9175SOL    HW228425   1.245   6.947   6.554
 9176SOL     OW28426   3.005   0.681   1.909
 9176SOL    HW128427   3.060   0.745   1.855
 9176SOL    HW228428   2.982   0.602   1.852
 9177SOL     OW28429   0.919   3.679   4.332
 9177SOL    HW128430   0.944   3.597   4.282
 9177SOL    HW228431   0.827   3.708   4.305
 9178SOL     OW28432   2.070   5.225   6.835
 9178SOL    HW128433   2.102   5.305   6.784
 9178SOL    HW228434   2.001   5.254   6.901
 9179SOL     OW28435   1.380   5.791   4.231
 9179SOL    HW128436   1.324   5.760   4.154
 9179SOL    HW228437   1.465   5.830   4.197
 9180SOL     OW28438   6.277   2.348   3.347
 9180SOL    HW128439   6.329   2.333   3.263
 9180SOL    HW228440   6.328   2.308   3.424
 9181SOL     OW28441   6.282   2.443   4.780
 9181SOL    HW128442   6.282   2.358   4.833
 9181SOL    HW228443   6.285   2.521   4.842
 9182SOL     OW28444   2.515   6.909   3.058
 9182SOL    HW128445   2.513   6.841   3.131
 9182SOL    HW228446   2.609   6.936   3.040
 9183SOL     OW28447   4.560   4.741   6.355
 9183SOL    HW128448   4.604   4.697   6.277
 9183SOL    HW228449   4.630   4.775   6.417
 9184SOL     OW28450   4.117   2.600   1.038
 9184SOL    HW128451   4.145   2.687   0.996
 9184SOL    HW228452   4.196   2.540   1.045
 9185SOL     OW28453   6.904   6.541   4.580
 9185SOL    HW128454   6.882   6.535   4.483
 9185SOL    HW228455   6.848   6.612   4.623
 9186SOL     OW28456   5.472   0.141   4.720
 9186SOL    HW128457   5.552   0.157   4.662
 9186SOL    HW228458   5.389   0.169   4.671
 9187SOL     OW28459   3.748   2.034   0.277
 9187SOL    HW128460   3.804   1.980   0.339
 9187SOL    HW228461   3.679   1.976   0.234
 9188SOL     OW28462   2.103   0.356   1.110
 9188SOL    HW128463   2.189   0.366   1.160
 9188SOL    HW228464   2.028   0.346   1.176
 9189SOL     OW28465   3.485   6.217   2.504
 9189SOL    HW128466   3.445   6.243   2.416
 9189SOL    HW228467   3.579   6.253   2.510
 9190SOL     OW28468   0.670   2.961   5.812
 9190SOL    HW128469   0.739   2.962   5.739
 9190SOL    HW228470   0.712   2.992   5.897
 9191SOL     OW28471   5.927   1.140   6.292
 9191SOL    HW128472   5.921   1.162   6.389
 9191SOL    HW228473   5.840   1.160   6.248
 9192SOL     OW28474   6.884   2.490   6.318
 9192SOL    HW128475   6.975   2.508   6.281
 9192SOL    HW228476   6.876   2.531   6.408
 9193SOL     OW28477   3.989   3.502   4.914
 9193SOL    HW128478   4.007   3.514   4.816
 9193SOL    HW228479   3.901   3.455   4.925
 9194SOL     OW28480   2.817   0.109   2.653
 9194SOL    HW128481   2.806   0.012   2.631
 9194SOL    HW228482   2.820   0.162   2.569
 9195SOL     OW28483   1.796   3.459   2.929
 9195SOL    HW128484   1.840   3.379   2.888
 9195SOL    HW228485   1.705   3.472   2.888
 9196SOL     OW28486   5.114   6.760   3.880
 9196SOL    HW128487   5.059   6.734   3.800
 9196SOL    HW228488   5.145   6.678   3.928
 9197SOL     OW28489   3.266   5.044   1.057
 9197SOL    HW128490   3.237   5.108   1.129
 9197SOL    HW228491   3.344   4.991   1.089
 9198SOL     OW28492   6.322   4.147   0.118
 9198SOL    HW128493   6.308   4.131   0.216
 9198SOL    HW228494   6.324   4.246   0.101
 9199SOL     OW28495   0.503   2.498   5.912
 9199SOL    HW128496   0.567   2.572   5.888
 9199SOL    HW228497   0.547   2.437   5.978
 9200SOL     OW28498   2.683   6.022   5.502
 9200SOL    HW128499   2.766   6.056   5.546
 9200SOL    HW228500   2.642   6.095   5.447
 9201SOL     OW28501   6.946   3.144   0.205
 9201SOL    HW128502   6.894   3.075   0.155
 9201SOL    HW228503   7.004   3.100   0.273
 9202SOL     OW28504   0.829   5.553   4.171
 9202SOL    HW128505   0.906   5.608   4.205
 9202SOL    HW228506   0.860   5.495   4.097
 9203SOL     OW28507   6.030   2.872   6.364
 9203SOL    HW128508   5.973   2.950   6.392
 9203SOL    HW228509   6.060   2.821   6.445
 9204SOL     OW28510   4.865   3.498   4.077
 9204SOL    HW128511   4.851   3.405   4.112
 9204SOL    HW228512   4.874   3.561   4.154
 9205SOL     OW28513   5.159   5.643   2.983
 9205SOL    HW128514   5.201   5.731   2.964
 9205SOL    HW228515   5.090   5.623   2.912
 9206SOL     OW28516   3.111   6.485   3.695
 9206SOL    HW128517   3.178   6.529   3.635
 9206SOL    HW228518   3.158   6.444   3.773
 9207SOL     OW28519   4.038   4.968   7.012
 9207SOL    HW128520   4.084   4.914   6.942
 9207SOL    HW228521   4.002   5.052   6.972
 9208SOL     OW28522   5.929   3.717   2.163
 9208SOL    HW128523   6.004   3.782   2.151
 9208SOL    HW228524   5.950   3.654   2.238
 9209SOL     OW28525   4.596   0.584   1.397
 9209SOL    HW128526   4.530   0.538   1.457
 9209SOL    HW228527   4.558   0.670   1.365
 9210SOL     OW28528   0.732   0.920   1.372
 9210SOL    HW128529   0.798   0.845   1.369
 9210SOL    HW228530   0.671   0.914   1.293
 9211SOL     OW28531   5.701   3.243   6.807
 9211SOL    HW128532   5.686   3.208   6.900
 9211SOL    HW228533   5.612   3.250   6.761
 9212SOL     OW28534   5.049   4.337   4.213
 9212SOL    HW128535   5.007   4.342   4.304
 9212SOL    HW228536   5.111   4.258   4.209
 9213SOL     OW28537   4.763   5.788   4.585
 9213SOL    HW128538   4.715   5.818   4.668
 9213SOL    HW228539   4.777   5.866   4.525
 9214SOL     OW28540   0.047   2.707   5.458
 9214SOL    HW128541   0.041   2.617   5.500
 9214SOL    HW228542   0.055   2.697   5.359
 9215SOL     OW28543   1.319   4.477   2.623
 9215SOL    HW128544   1.371   4.421   2.687
 9215SOL    HW228545   1.234   4.507   2.667
 9216SOL     OW28546   2.410   6.693   3.568
 9216SOL    HW128547   2.432   6.749   3.648
 9216SOL    HW228548   2.476   6.618   3.561
 9217SOL     OW28549   6.365   2.446   0.271
 9217SOL    HW128550   6.280   2.433   0.220
 9217SOL    HW228551   6.443   2.436   0.209
 9218SOL     OW28552   4.146   0.826   0.235
 9218SOL    HW128553   4.201   0.744   0.254
 9218SOL    HW228554   4.145   0.843   0.137
 9219SOL     OW28555   4.985   3.625   6.471
 9219SOL    HW128556   5.027   3.661   6.555
 9219SOL    HW228557   4.886   3.640   6.474
 9220SOL     OW28558   1.381   6.627   2.396
 9220SOL    HW128559   1.364   6.534   2.428
 9220SOL    HW228560   1.320   6.648   2.320
 9221SOL     OW28561   2.507   6.934   3.736
 9221SOL    HW128562   2.499   6.974   3.644
 9221SOL    HW228563   2.492   7.006   3.804
 9222SOL     OW28564   2.599   5.506   5.119
 9222SOL    HW128565   2.599   5.605   5.108
 9222SOL    HW228566   2.678   5.467   5.071
 9223SOL     OW28567   1.387   3.160   4.019
 9223SOL    HW128568   1.288   3.152   4.006
 9223SOL    HW228569   1.405   3.215   4.101
 9224SOL     OW28570   1.319   4.655   3.501
 9224SOL    HW128571   1.332   4.741   3.550
 9224SOL    HW228572   1.350   4.579   3.558
 9225SOL     OW28573   3.587   6.228   5.854
 9225SOL    HW128574   3.588   6.321   5.818
 9225SOL    HW228575   3.676   6.185   5.837
 9226SOL     OW28576   0.439   6.838   1.384
 9226SOL    HW128577   0.483   6.769   1.327
 9226SOL    HW228578   0.430   6.803   1.477
 9227SOL     OW28579   2.164   6.342   1.398
 9227SOL    HW128580   2.172   6.352   1.299
 9227SOL    HW228581   2.129   6.251   1.420
 9228SOL     OW28582   2.512   2.072   0.248
 9228SOL    HW128583   2.537   2.043   0.340
 9228SOL    HW228584   2.505   1.991   0.189
 9229SOL     OW28585   1.049   4.386   5.547
 9229SOL    HW128586   1.080   4.462   5.490
 9229SOL    HW228587   0.998   4.421   5.625
 9230SOL     OW28588   5.177   3.001   3.231
 9230SOL    HW128589   5.080   2.998   3.205
 9230SOL    HW228590   5.232   2.961   3.158
 9231SOL     OW28591   1.451   3.002   5.454
 9231SOL    HW128592   1.545   3.026   5.479
 9231SOL    HW228593   1.410   3.078   5.403
 9232SOL     OW28594   3.329   5.163   0.122
 9232SOL    HW128595   3.290   5.190   0.033
 9232SOL    HW228596   3.300   5.070   0.143
 9233SOL     OW28597   0.028   6.424   0.810
 9233SOL    HW128598   6.980   6.351   0.819
 9233SOL    HW228599   0.110   6.399   0.860
 9234SOL     OW28600   2.816   5.706   0.686
 9234SOL    HW128601   2.888   5.755   0.736
 9234SOL    HW228602   2.839   5.609   0.682
 9235SOL     OW28603   1.968   2.817   3.211
 9235SOL    HW128604   2.004   2.744   3.153
 9235SOL    HW228605   2.001   2.905   3.177
 9236SOL     OW28606   1.529   4.023   0.626
 9236SOL    HW128607   1.547   4.059   0.534
 9236SOL    HW228608   1.579   3.938   0.639
 9237SOL     OW28609   0.359   5.484   2.944
 9237SOL    HW128610   0.290   5.504   2.874
 9237SOL    HW228611   0.341   5.539   3.026
 9238SOL     OW28612   2.612   2.847   6.200
 9238SOL    HW128613   2.624   2.833   6.102
 9238SOL    HW228614   2.515   2.861   6.220
 9239SOL     OW28615   0.248   4.393   5.976
 9239SOL    HW128616   0.320   4.325   5.992
 9239SOL    HW228617   0.286   4.485   5.987
 9240SOL     OW28618   4.898   3.155   1.968
 9240SOL    HW128619   4.817   3.097   1.972
 9240SOL    HW228620   4.871   3.248   1.943
 9241SOL     OW28621   0.275   4.837   0.403
 9241SOL    HW128622   0.272   4.925   0.449
 9241SOL    HW228623   0.229   4.844   0.314
 9242SOL     OW28624   1.743   3.975   1.305
 9242SOL    HW128625   1.743   4.032   1.387
 9242SOL    HW228626   1.670   3.907   1.313
 9243SOL     OW28627   6.617   0.377   1.311
 9243SOL    HW128628   6.547   0.447   1.293
 9243SOL    HW228629   6.588   0.320   1.388
 9244SOL     OW28630   2.981   5.822   6.095
 9244SOL    HW128631   2.932   5.906   6.072
 9244SOL    HW228632   2.976   5.759   6.017
 9245SOL     OW28633   0.790   5.175   3.553
 9245SOL    HW128634   0.874   5.227   3.567
 9245SOL    HW228635   0.745   5.160   3.640
 9246SOL     OW28636   6.248   0.243   2.630
 9246SOL    HW128637   6.212   0.151   2.649
 9246SOL    HW228638   6.216   0.273   2.540
 9247SOL     OW28639   2.532   6.199   3.302
 9247SOL    HW128640   2.521   6.129   3.232
 9247SOL    HW228641   2.450   6.256   3.305
 9248SOL     OW28642   2.930   1.705   4.377
 9248SOL    HW128643   2.845   1.749   4.350
 9248SOL    HW228644   2.942   1.621   4.324
 9249SOL     OW28645   3.771   4.746   1.433
 9249SOL    HW128646   3.854   4.790   1.398
 9249SOL    HW228647   3.737   4.680   1.366
 9250SOL     OW28648   5.678   3.362   4.583
 9250SOL    HW128649   5.730   3.428   4.529
 9250SOL    HW228650   5.719   3.354   4.674
 9251SOL     OW28651   4.237   2.032   2.682
 9251SOL    HW128652   4.297   2.029   2.763
 9251SOL    HW228653   4.292   2.034   2.599
 9252SOL     OW28654   5.498   0.845   4.473
 9252SOL    HW128655   5.545   0.803   4.395
 9252SOL    HW228656   5.553   0.834   4.556
 9253SOL     OW28657   5.507   5.182   5.511
 9253SOL    HW128658   5.414   5.155   5.485
 9253SOL    HW228659   5.514   5.282   5.508
 9254SOL     OW28660   4.674   5.553   3.084
 9254SOL    HW128661   4.727   5.611   3.145
 9254SOL    HW228662   4.592   5.520   3.132
 9255SOL     OW28663   5.088   3.749   6.988
 9255SOL    HW128664   5.176   3.760   0.014
 9255SOL    HW228665   5.077   3.822   6.920
 9256SOL     OW28666   2.916   0.393   2.633
 9256SOL    HW128667   2.824   0.363   2.657
 9256SOL    HW228668   2.931   0.485   2.668
 9257SOL     OW28669   6.441   5.151   3.333
 9257SOL    HW128670   6.406   5.135   3.426
 9257SOL    HW228671   6.455   5.249   3.319
 9258SOL     OW28672   4.117   3.348   2.060
 9258SOL    HW128673   4.097   3.252   2.078
 9258SOL    HW228674   4.169   3.357   1.976
 9259SOL     OW28675   0.291   1.714   0.621
 9259SOL    HW128676   0.231   1.715   0.701
 9259SOL    HW228677   0.248   1.763   0.546
 9260SOL     OW28678   5.956   2.007   5.389
 9260SOL    HW128679   5.956   1.916   5.431
 9260SOL    HW228680   5.980   2.076   5.458
 9261SOL     OW28681   3.782   1.250   0.374
 9261SOL    HW128682   3.837   1.167   0.362
 9261SOL    HW228683   3.778   1.273   0.471
 9262SOL     OW28684   6.810   5.649   5.114
 9262SOL    HW128685   6.839   5.741   5.142
 9262SOL    HW228686   6.730   5.656   5.054
 9263SOL     OW28687   4.089   6.690   2.414
 9263SOL    HW128688   4.083   6.755   2.490
 9263SOL    HW228689   4.133   6.606   2.445
 9264SOL     OW28690   4.868   3.961   0.841
 9264SOL    HW128691   4.914   4.047   0.820
 9264SOL    HW228692   4.798   3.942   0.773
 9265SOL     OW28693   3.320   2.555   6.888
 9265SOL    HW128694   3.416   2.566   6.914
 9265SOL    HW228695   3.278   2.485   6.946
 9266SOL     OW28696   1.225   6.322   0.988
 9266SOL    HW128697   1.203   6.318   0.890
 9266SOL    HW228698   1.149   6.283   1.041
 9267SOL     OW28699   7.001   1.741   4.837
 9267SOL    HW128700   0.019   1.780   4.753
 9267SOL    HW228701   6.904   1.722   4.823
 9268SOL     OW28702   1.840   6.786   2.443
 9268SOL    HW128703   1.862   6.702   2.393
 9268SOL    HW228704   1.742   6.803   2.437
 9269SOL     OW28705   5.124   1.239   6.633
 9269SOL    HW128706   5.065   1.305   6.586
 9269SOL    HW228707   5.081   1.149   6.630
 9270SOL     OW28708   4.436   6.632   6.306
 9270SOL    HW128709   4.490   6.603   6.385
 9270SOL    HW228710   4.418   6.730   6.311
 9271SOL     OW28711   6.087   0.289   1.021
 9271SOL    HW128712   6.120   0.355   1.089
 9271SOL    HW228713   5.990   0.269   1.037
 9272SOL     OW28714   1.241   5.742   5.463
 9272SOL    HW128715   1.321   5.683   5.473
 9272SOL    HW228716   1.228   5.795   5.547
 9273SOL     OW28717   5.872   5.797   3.001
 9273SOL    HW128718   5.960   5.752   2.988
 9273SOL    HW228719   5.805   5.729   3.032
 9274SOL     OW28720   6.575   1.608   0.434
 9274SOL    HW128721   6.483   1.596   0.398
 9274SOL    HW228722   6.609   1.520   0.470
 9275SOL     OW28723   6.537   0.561   6.805
 9275SOL    HW128724   6.540   0.509   6.720
 9275SOL    HW228725   6.562   0.656   6.787
 9276SOL     OW28726   2.121   4.507   1.264
 9276SOL    HW128727   2.055   4.564   1.216
 9276SOL    HW228728   2.139   4.425   1.210
 9277SOL     OW28729   4.743   4.472   1.458
 9277SOL    HW128730   4.651   4.473   1.496
 9277SOL    HW228731   4.739   4.452   1.360
 9278SOL     OW28732   1.947   6.952   5.566
 9278SOL    HW128733   1.938   6.883   5.638
 9278SOL    HW228734   1.908   6.917   5.481
 9279SOL     OW28735   2.842   0.245   1.573
 9279SOL    HW128736   2.908   0.193   1.520
 9279SOL    HW228737   2.779   0.183   1.619
 9280SOL     OW28738   2.180   1.627   2.248
 9280SOL    HW128739   2.101   1.679   2.215
 9280SOL    HW228740   2.151   1.569   2.324
 9281SOL     OW28741   3.020   4.088   6.615
 9281SOL    HW128742   2.948   4.027   6.649
 9281SOL    HW228743   3.103   4.075   6.669
 9282SOL     OW28744   5.457   1.307   3.325
 9282SOL    HW128745   5.487   1.231   3.268
 9282SOL    HW228746   5.524   1.381   3.320
 9283SOL     OW28747   4.894   0.470   4.207
 9283SOL    HW128748   4.803   0.434   4.227
 9283SOL    HW228749   4.893   0.570   4.216
 9284SOL     OW28750   2.886   2.940   5.310
 9284SOL    HW128751   2.969   2.973   5.264
 9284SOL    HW228752   2.823   3.016   5.324
 9285SOL     OW28753   4.789   3.326   1.300
 9285SOL    HW128754   4.850   3.385   1.246
 9285SOL    HW228755   4.694   3.348   1.277
 9286SOL     OW28756   5.478   5.873   1.048
 9286SOL    HW128757   5.551   5.887   0.980
 9286SOL    HW228758   5.504   5.918   1.134
 9287SOL     OW28759   3.610   5.051   6.530
 9287SOL    HW128760   3.562   5.092   6.453
 9287SOL    HW228761   3.707   5.040   6.506
 9288SOL     OW28762   4.480   1.294   2.668
 9288SOL    HW128763   4.577   1.302   2.694
 9288SOL    HW228764   4.432   1.378   2.691
 9289SOL     OW28765   4.397   0.433   1.513
 9289SOL    HW128766   4.424   0.356   1.456
 9289SOL    HW228767   4.368   0.400   1.603
 9290SOL     OW28768   5.248   0.994   3.521
 9290SOL    HW128769   5.218   1.088   3.534
 9290SOL    HW228770   5.179   0.931   3.555
 9291SOL     OW28771   1.294   5.343   5.724
 9291SOL    HW128772   1.200   5.358   5.694
 9291SOL    HW228773   1.356   5.348   5.645
 9292SOL     OW28774   2.342   2.760   6.009
 9292SOL    HW128775   2.332   2.663   6.030
 9292SOL    HW228776   2.366   2.810   6.092
 9293SOL     OW28777   6.802   3.586   6.835
 9293SOL    HW128778   6.760   3.520   6.897
 9293SOL    HW228779   6.733   3.651   6.803
 9294SOL     OW28780   5.219   0.921   5.947
 9294SOL    HW128781   5.135   0.954   5.904
 9294SOL    HW228782   5.281   0.998   5.963
 9295SOL     OW28783   5.296   0.521   5.197
 9295SOL    HW128784   5.385   0.565   5.190
 9295SOL    HW228785   5.266   0.491   5.107
 9296SOL     OW28786   1.851   5.408   6.684
 9296SOL    HW128787   1.868   5.505   6.699
 9296SOL    HW228788   1.933   5.364   6.649
 9297SOL     OW28789   1.133   6.936   2.942
 9297SOL    HW128790   1.096   0.003   2.910
 9297SOL    HW228791   1.182   6.891   2.867
 9298SOL     OW28792   1.084   6.379   6.742
 9298SOL    HW128793   1.064   6.359   6.646
 9298SOL    HW228794   1.020   6.449   6.775
 9299SOL     OW28795   0.283   2.189   4.296
 9299SOL    HW128796   0.377   2.156   4.292
 9299SOL    HW228797   0.229   2.141   4.227
 9300SOL     OW28798   0.565   4.430   5.890
 9300SOL    HW128799   0.595   4.338   5.865
 9300SOL    HW228800   0.572   4.442   5.989
 9301SOL     OW28801   5.635   5.628   4.357
 9301SOL    HW128802   5.590   5.590   4.277
 9301SOL    HW228803   5.566   5.662   4.421
 9302SOL     OW28804   1.992   3.531   3.971
 9302SOL    HW128805   1.916   3.473   3.941
 9302SOL    HW228806   2.068   3.474   4.002
 9303SOL     OW28807   3.197   3.906   0.538
 9303SOL    HW128808   3.208   3.998   0.501
 9303SOL    HW228809   3.134   3.909   0.616
 9304SOL     OW28810   4.179   4.669   1.527
 9304SOL    HW128811   4.159   4.576   1.557
 9304SOL    HW228812   4.247   4.666   1.453
 9305SOL     OW28813   3.809   1.277   0.663
 9305SOL    HW128814   3.897   1.271   0.711
 9305SOL    HW228815   3.745   1.331   0.717
 9306SOL     OW28816   1.030   3.842   5.384
 9306SOL    HW128817   1.033   3.870   5.480
 9306SOL    HW228818   0.935   3.841   5.352
 9307SOL     OW28819   1.157   4.214   1.056
 9307SOL    HW128820   1.142   4.266   0.971
 9307SOL    HW228821   1.150   4.275   1.134
 9308SOL     OW28822   1.794   3.619   1.507
 9308SOL    HW128823   1.855   3.696   1.492
 9308SOL    HW228824   1.828   3.539   1.458
 9309SOL     OW28825   3.385   5.606   6.008
 9309SOL    HW128826   3.389   5.517   5.962
 9309SOL    HW228827   3.472   5.654   5.996
 9310SOL     OW28828   5.530   5.698   5.613
 9310SOL    HW128829   5.486   5.779   5.573
 9310SOL    HW228830   5.535   5.709   5.712
 9311SOL     OW28831   5.002   4.838   0.872
 9311SOL    HW128832   5.055   4.826   0.788
 9311SOL    HW228833   5.021   4.763   0.935
 9312SOL     OW28834   1.338   3.114   0.997
 9312SOL    HW128835   1.430   3.078   0.980
 9312SOL    HW228836   1.293   3.058   1.067
 9313SOL     OW28837   6.965   0.228   1.654
 9313SOL    HW128838   6.884   0.180   1.686
 9313SOL    HW228839   6.939   0.307   1.599
 9314SOL     OW28840   6.418   3.702   6.923
 9314SOL    HW128841   6.485   3.714   6.850
 9314SOL    HW228842   6.464   3.706   7.011
 9315SOL     OW28843   6.762   0.075   5.566
 9315SOL    HW128844   6.739   7.000   5.584
 9315SOL    HW228845   6.776   0.088   5.468
 9316SOL     OW28846   5.901   6.261   5.603
 9316SOL    HW128847   5.943   6.198   5.539
 9316SOL    HW228848   5.808   6.229   5.625
 9317SOL     OW28849   4.371   5.583   3.875
 9317SOL    HW128850   4.303   5.652   3.853
 9317SOL    HW228851   4.449   5.592   3.813
 9318SOL     OW28852   6.381   0.683   6.475
 9318SOL    HW128853   6.327   0.641   6.548
 9318SOL    HW228854   6.441   0.615   6.435
 9319SOL     OW28855   2.330   3.106   1.206
 9319SOL    HW128856   2.420   3.140   1.231
 9319SOL    HW228857   2.325   3.008   1.224
 9320SOL     OW28858   4.014   0.693   5.419
 9320SOL    HW128859   4.046   0.732   5.505
 9320SOL    HW228860   3.928   0.644   5.434
 9321SOL     OW28861   1.016   0.475   4.781
 9321SOL    HW128862   0.933   0.523   4.811
 9321SOL    HW228863   1.073   0.453   4.860
 9322SOL     OW28864   0.313   3.860   6.584
 9322SOL    HW128865   0.407   3.875   6.553
 9322SOL    HW228866   0.281   3.771   6.550
 9323SOL     OW28867   0.924   1.136   4.841
 9323SOL    HW128868   0.830   1.165   4.823
 9323SOL    HW228869   0.931   1.104   4.935
 9324SOL     OW28870   1.904   4.150   2.319
 9324SOL    HW128871   1.842   4.112   2.388
 9324SOL    HW228872   1.924   4.080   2.251
 9325SOL     OW28873   6.436   0.175   6.696
 9325SOL    HW128874   6.346   0.195   6.734
 9325SOL    HW228875   6.488   0.260   6.688
 9326SOL     OW28876   2.620   4.751   0.112
 9326SOL    HW128877   2.710   4.712   0.091
 9326SOL    HW228878   2.632   4.834   0.166
 9327SOL     OW28879   4.383   0.115   2.357
 9327SOL    HW128880   4.452   0.046   2.378
 9327SOL    HW228881   4.428   0.198   2.325
 9328SOL     OW28882   2.184   0.695   4.190
 9328SOL    HW128883   2.175   0.743   4.103
 9328SOL    HW228884   2.110   0.722   4.251
 9329SOL     OW28885   6.115   4.091   0.977
 9329SOL    HW128886   6.141   4.016   0.916
 9329SOL    HW228887   6.038   4.063   1.034
 9330SOL     OW28888   6.973   0.332   5.723
 9330SOL    HW128889   6.955   0.239   5.756
 9330SOL    HW228890   0.025   0.330   5.655
 9331SOL     OW28891   2.531   1.212   6.517
 9331SOL    HW128892   2.511   1.234   6.421
 9331SOL    HW228893   2.574   1.122   6.522
 9332SOL     OW28894   3.257   4.764   0.436
 9332SOL    HW128895   3.318   4.823   0.489
 9332SOL    HW228896   3.192   4.821   0.385
 9333SOL     OW28897   3.419   5.532   6.358
 9333SOL    HW128898   3.491   5.480   6.404
 9333SOL    HW228899   3.414   5.503   6.262
 9334SOL     OW28900   4.320   6.627   5.120
 9334SOL    HW128901   4.412   6.667   5.128
 9334SOL    HW228902   4.328   6.530   5.096
 9335SOL     OW28903   1.593   1.263   6.376
 9335SOL    HW128904   1.636   1.204   6.308
 9335SOL    HW228905   1.598   1.358   6.346
 9336SOL     OW28906   4.423   0.249   4.638
 9336SOL    HW128907   4.495   0.285   4.697
 9336SOL    HW228908   4.352   0.206   4.694
 9337SOL     OW28909   4.313   1.093   5.214
 9337SOL    HW128910   4.345   1.044   5.133
 9337SOL    HW228911   4.251   1.035   5.266
 9338SOL     OW28912   6.243   0.075   1.207
 9338SOL    HW128913   6.252   0.023   1.291
 9338SOL    HW228914   6.186   0.156   1.224
 9339SOL     OW28915   6.126   6.163   0.089
 9339SOL    HW128916   6.124   6.116   0.000
 9339SOL    HW228917   6.198   6.232   0.087
 9340SOL     OW28918   3.850   4.858   3.173
 9340SOL    HW128919   3.837   4.951   3.140
 9340SOL    HW228920   3.866   4.859   3.271
 9341SOL     OW28921   5.506   4.988   1.158
 9341SOL    HW128922   5.505   5.072   1.214
 9341SOL    HW228923   5.587   4.934   1.181
 9342SOL     OW28924   2.722   6.725   4.455
 9342SOL    HW128925   2.761   6.710   4.546
 9342SOL    HW228926   2.796   6.729   4.387
 9343SOL     OW28927   4.699   4.220   2.197
 9343SOL    HW128928   4.697   4.266   2.286
 9343SOL    HW228929   4.626   4.258   2.140
 9344SOL     OW28930   5.421   6.331   1.781
 9344SOL    HW128931   5.346   6.294   1.836
 9344SOL    HW228932   5.396   6.422   1.748
 9345SOL     OW28933   6.445   5.184   0.943
 9345SOL    HW128934   6.496   5.235   1.012
 9345SOL    HW228935   6.475   5.211   0.852
 9346SOL     OW28936   4.555   0.712   2.120
 9346SOL    HW128937   4.600   0.631   2.158
 9346SOL    HW228938   4.579   0.722   2.024
 9347SOL     OW28939   3.223   5.595   0.456
 9347SOL    HW128940   3.302   5.619   0.512
 9347SOL    HW228941   3.224   5.496   0.437
 9348SOL     OW28942   2.975   5.559   3.144
 9348SOL    HW128943   2.981   5.566   3.243
 9348SOL    HW228944   3.018   5.639   3.103
 9349SOL     OW28945   6.440   4.977   2.014
 9349SOL    HW128946   6.351   5.022   2.012
 9349SOL    HW228947   6.466   4.958   2.109
 9350SOL     OW28948   6.615   1.782   5.047
 9350SOL    HW128949   6.550   1.814   4.978
 9350SOL    HW228950   6.608   1.841   5.128
 9351SOL     OW28951   3.801   6.561   6.102
 9351SOL    HW128952   3.720   6.591   6.053
 9351SOL    HW228953   3.882   6.607   6.064
 9352SOL     OW28954   3.605   2.118   6.368
 9352SOL    HW128955   3.573   2.098   6.460
 9352SOL    HW228956   3.604   2.034   6.313
 9353SOL     OW28957   1.055   4.649   1.190
 9353SOL    HW128958   1.071   4.553   1.210
 9353SOL    HW228959   1.039   4.660   1.092
 9354SOL     OW28960   0.405   1.683   5.984
 9354SOL    HW128961   0.477   1.752   5.972
 9354SOL    HW228962   0.390   1.668   6.082
 9355SOL     OW28963   0.388   1.608   4.544
 9355SOL    HW128964   0.416   1.514   4.525
 9355SOL    HW228965   0.443   1.671   4.489
 9356SOL     OW28966   4.599   5.989   2.032
 9356SOL    HW128967   4.538   6.035   2.097
 9356SOL    HW228968   4.676   6.050   2.010
 9357SOL     OW28969   2.314   3.678   6.586
 9357SOL    HW128970   2.367   3.598   6.558
 9357SOL    HW228971   2.352   3.760   6.544
 9358SOL     OW28972   6.266   3.064   2.417
 9358SOL    HW128973   6.207   3.034   2.342
 9358SOL    HW228974   6.248   3.161   2.436
 9359SOL     OW28975   0.748   3.754   5.447
 9359SOL    HW128976   0.692   3.831   5.477
 9359SOL    HW228977   0.701   3.669   5.467
 9360SOL     OW28978   1.712   5.997   6.581
 9360SOL    HW128979   1.772   6.071   6.549
 9360SOL    HW228980   1.766   5.928   6.629
 9361SOL     OW28981   1.301   6.660   3.269
 9361SOL    HW128982   1.247   6.667   3.352
 9361SOL    HW228983   1.269   6.582   3.215
 9362SOL     OW28984   1.949   3.181   2.777
 9362SOL    HW128985   1.883   3.143   2.712
 9362SOL    HW228986   2.005   3.250   2.731
 9363SOL     OW28987   4.041   6.700   2.150
 9363SOL    HW128988   4.011   6.791   2.122
 9363SOL    HW228989   4.065   6.701   2.247
 9364SOL     OW28990   3.823   3.099   6.312
 9364SOL    HW128991   3.918   3.088   6.339
 9364SOL    HW228992   3.791   3.014   6.268
 9365SOL     OW28993   2.304   2.233   4.268
 9365SOL    HW128994   2.361   2.209   4.346
 9365SOL    HW228995   2.280   2.151   4.217
 9366SOL     OW28996   3.527   6.592   6.695
 9366SOL    HW128997   3.552   6.503   6.732
 9366SOL    HW228998   3.605   6.632   6.647
 9367SOL     OW28999   0.101   6.358   2.203
 9367SOL    HW129000   0.079   6.363   2.106
 9367SOL    HW229001   0.173   6.423   2.225
 9368SOL     OW29002   3.019   1.265   3.310
 9368SOL    HW129003   3.059   1.217   3.389
 9368SOL    HW229004   2.920   1.252   3.310
 9369SOL     OW29005   6.407   6.609   4.838
 9369SOL    HW129006   6.410   6.595   4.739
 9369SOL    HW229007   6.314   6.593   4.871
 9370SOL     OW29008   4.923   0.860   2.598
 9370SOL    HW129009   4.952   0.779   2.648
 9370SOL    HW229010   4.958   0.942   2.645
 9371SOL     OW29011   2.333   4.845   0.368
 9371SOL    HW129012   2.291   4.782   0.434
 9371SOL    HW229013   2.349   4.796   0.282
 9372SOL     OW29014   5.315   5.979   2.485
 9372SOL    HW129015   5.245   6.021   2.426
 9372SOL    HW229016   5.405   6.012   2.457
 9373SOL     OW29017   4.535   2.088   2.807
 9373SOL    HW129018   4.517   2.115   2.902
 9373SOL    HW229019   4.528   1.989   2.798
 9374SOL     OW29020   0.780   3.858   0.235
 9374SOL    HW129021   0.693   3.816   0.209
 9374SOL    HW229022   0.780   3.954   0.206
 9375SOL     OW29023   0.237   1.218   2.331
 9375SOL    HW129024   0.287   1.247   2.412
 9375SOL    HW229025   0.299   1.171   2.269
 9376SOL     OW29026   2.559   4.416   1.396
 9376SOL    HW129027   2.566   4.370   1.485
 9376SOL    HW229028   2.480   4.478   1.396
 9377SOL     OW29029   2.227   4.980   4.208
 9377SOL    HW129030   2.294   4.965   4.135
 9377SOL    HW229031   2.272   5.027   4.284
 9378SOL     OW29032   1.937   1.180   4.452
 9378SOL    HW129033   2.001   1.253   4.428
 9378SOL    HW229034   1.857   1.219   4.498
 9379SOL     OW29035   4.003   5.889   5.553
 9379SOL    HW129036   4.097   5.859   5.541
 9379SOL    HW229037   4.002   5.984   5.584
 9380SOL     OW29038   5.469   5.301   4.551
 9380SOL    HW129039   5.447   5.227   4.488
 9380SOL    HW229040   5.390   5.363   4.559
 9381SOL     OW29041   3.728   2.874   6.151
 9381SOL    HW129042   3.630   2.885   6.168
 9381SOL    HW229043   3.746   2.782   6.118
 9382SOL     OW29044   3.647   0.912   3.525
 9382SOL    HW129045   3.737   0.870   3.516
 9382SOL    HW229046   3.608   0.926   3.434
 9383SOL     OW29047   0.992   5.760   4.507
 9383SOL    HW129048   0.900   5.755   4.546
 9383SOL    HW229049   0.991   5.722   4.415
 9384SOL     OW29050   4.297   0.446   2.100
 9384SOL    HW129051   4.212   0.440   2.153
 9384SOL    HW229052   4.369   0.395   2.147
 9385SOL     OW29053   4.313   1.200   3.887
 9385SOL    HW129054   4.300   1.255   3.804
 9385SOL    HW229055   4.231   1.145   3.903
 9386SOL     OW29056   2.303   5.879   5.002
 9386SOL    HW129057   2.401   5.861   4.989
 9386SOL    HW229058   2.280   5.968   4.962
 9387SOL     OW29059   2.951   1.771   6.869
 9387SOL    HW129060   3.034   1.778   6.813
 9387SOL    HW229061   2.968   1.811   6.959
 9388SOL     OW29062   3.004   5.755   2.599
 9388SOL    HW129063   3.081   5.736   2.660
 9388SOL    HW229064   2.919   5.756   2.652
 9389SOL     OW29065   1.881   0.124   3.694
 9389SOL    HW129066   1.905   0.211   3.651
 9389SOL    HW229067   1.794   0.091   3.656
 9390SOL     OW29068   5.129   4.797   5.706
 9390SOL    HW129069   5.212   4.751   5.675
 9390SOL    HW229070   5.057   4.785   5.637
 9391SOL     OW29071   2.700   1.422   4.972
 9391SOL    HW129072   2.617   1.409   5.026
 9391SOL    HW229073   2.681   1.487   4.897
 9392SOL     OW29074   6.173   6.574   4.974
 9392SOL    HW129075   6.182   6.569   5.074
 9392SOL    HW229076   6.109   6.503   4.943
 9393SOL     OW29077   3.267   6.294   6.453
 9393SOL    HW129078   3.189   6.284   6.515
 9393SOL    HW229079   3.351   6.280   6.504
 9394SOL     OW29080   0.129   1.103   2.010
 9394SOL    HW129081   0.217   1.133   2.047
 9394SOL    HW229082   0.076   1.182   1.980
 9395SOL     OW29083   2.791   0.967   1.275
 9395SOL    HW129084   2.756   1.054   1.239
 9395SOL    HW229085   2.874   0.942   1.226
 9396SOL     OW29086   1.840   4.519   3.990
 9396SOL    HW129087   1.924   4.490   4.035
 9396SOL    HW229088   1.860   4.595   3.928
 9397SOL     OW29089   5.004   0.207   6.469
 9397SOL    HW129090   4.978   0.260   6.388
 9397SOL    HW229091   4.977   0.111   6.456
 9398SOL     OW29092   6.372   0.655   5.130
 9398SOL    HW129093   6.273   0.657   5.144
 9398SOL    HW229094   6.418   0.679   5.216
 9399SOL     OW29095   1.163   1.884   5.976
 9399SOL    HW129096   1.137   1.879   5.880
 9399SOL    HW229097   1.140   1.798   6.022
 9400SOL     OW29098   4.648   0.712   1.860
 9400SOL    HW129099   4.747   0.726   1.862
 9400SOL    HW229100   4.612   0.744   1.772
 9401SOL     OW29101   6.475   0.783   3.655
 9401SOL    HW129102   6.376   0.786   3.674
 9401SOL    HW229103   6.497   0.849   3.584
 9402SOL     OW29104   1.025   5.354   2.734
 9402SOL    HW129105   1.112   5.357   2.782
 9402SOL    HW229106   1.017   5.435   2.675
 9403SOL     OW29107   6.333   1.268   2.992
 9403SOL    HW129108   6.249   1.321   3.003
 9403SOL    HW229109   6.397   1.293   3.065
 9404SOL     OW29110   1.591   2.981   0.309
 9404SOL    HW129111   1.593   2.959   0.407
 9404SOL    HW229112   1.598   2.897   0.256
 9405SOL     OW29113   2.247   4.755   3.311
 9405SOL    HW129114   2.148   4.742   3.321
 9405SOL    HW229115   2.289   4.764   3.401
 9406SOL     OW29116   6.885   2.979   5.946
 9406SOL    HW129117   6.938   2.986   5.861
 9406SOL    HW229118   6.840   2.889   5.949
 9407SOL     OW29119   2.769   5.004   3.388
 9407SOL    HW129120   2.788   5.070   3.460
 9407SOL    HW229121   2.837   4.930   3.393
 9408SOL     OW29122   6.410   2.659   6.428
 9408SOL    HW129123   6.412   2.655   6.328
 9408SOL    HW229124   6.470   2.734   6.459
 9409SOL     OW29125   5.882   5.925   0.425
 9409SOL    HW129126   5.783   5.932   0.426
 9409SOL    HW229127   5.922   5.997   0.482
 9410SOL     OW29128   3.013   0.400   1.279
 9410SOL    HW129129   2.957   0.483   1.286
 9410SOL    HW229130   3.049   0.376   1.369
 9411SOL     OW29131   3.304   2.884   2.196
 9411SOL    HW129132   3.261   2.900   2.108
 9411SOL    HW229133   3.392   2.839   2.183
 9412SOL     OW29134   0.199   1.536   2.668
 9412SOL    HW129135   0.171   1.442   2.648
 9412SOL    HW229136   0.266   1.535   2.742
 9413SOL     OW29137   3.840   5.677   3.369
 9413SOL    HW129138   3.750   5.655   3.406
 9413SOL    HW229139   3.871   5.601   3.312
 9414SOL     OW29140   2.537   0.865   3.229
 9414SOL    HW129141   2.542   0.776   3.183
 9414SOL    HW229142   2.442   0.894   3.236
 9415SOL     OW29143   2.653   6.778   1.603
 9415SOL    HW129144   2.641   6.873   1.572
 9415SOL    HW229145   2.587   6.758   1.675
 9416SOL     OW29146   0.074   2.450   0.662
 9416SOL    HW129147   0.166   2.449   0.702
 9416SOL    HW229148   0.081   2.449   0.562
 9417SOL     OW29149   4.823   0.656   0.770
 9417SOL    HW129150   4.882   0.585   0.809
 9417SOL    HW229151   4.868   0.696   0.690
 9418SOL     OW29152   4.027   0.012   1.019
 9418SOL    HW129153   3.983   6.989   1.097
 9418SOL    HW229154   4.000   0.108   1.014
 9419SOL     OW29155   2.903   4.543   5.805
 9419SOL    HW129156   2.859   4.633   5.807
 9419SOL    HW229157   3.002   4.554   5.794
 9420SOL     OW29158   6.088   3.947   5.547
 9420SOL    HW129159   6.055   3.853   5.538
 9420SOL    HW229160   6.180   3.953   5.509
 9421SOL     OW29161   2.161   6.403   4.589
 9421SOL    HW129162   2.168   6.499   4.563
 9421SOL    HW229163   2.106   6.354   4.522
 9422SOL     OW29164   3.045   5.248   3.260
 9422SOL    HW129165   3.121   5.218   3.202
 9422SOL    HW229166   3.027   5.345   3.244
 9423SOL     OW29167   2.746   6.780   3.802
 9423SOL    HW129168   2.665   6.838   3.794
 9423SOL    HW229169   2.772   6.773   3.899
 9424SOL     OW29170   4.930   1.375   5.078
 9424SOL    HW129171   4.846   1.425   5.059
 9424SOL    HW229172   4.947   1.374   5.177
 9425SOL     OW29173   6.000   3.616   0.862
 9425SOL    HW129174   5.995   3.704   0.813
 9425SOL    HW229175   5.908   3.591   0.893
 9426SOL     OW29176   4.049   2.044   6.297
 9426SOL    HW129177   3.985   1.968   6.310
 9426SOL    HW229178   4.009   2.128   6.334
 9427SOL     OW29179   2.618   5.353   2.840
 9427SOL    HW129180   2.631   5.258   2.868
 9427SOL    HW229181   2.707   5.392   2.814
 9428SOL     OW29182   6.883   1.095   1.095
 9428SOL    HW129183   6.820   1.080   1.172
 9428SOL    HW229184   6.903   1.008   1.050
 9429SOL     OW29185   2.159   3.494   2.825
 9429SOL    HW129186   2.232   3.562   2.822
 9429SOL    HW229187   2.165   3.435   2.744
 9430SOL     OW29188   0.332   3.792   4.148
 9430SOL    HW129189   0.353   3.770   4.243
 9430SOL    HW229190   0.418   3.802   4.097
 9431SOL     OW29191   6.608   3.764   0.544
 9431SOL    HW129192   6.678   3.835   0.535
 9431SOL    HW229193   6.588   3.749   0.641
 9432SOL     OW29194   5.338   0.389   3.452
 9432SOL    HW129195   5.290   0.462   3.403
 9432SOL    HW229196   5.285   0.305   3.446
 9433SOL     OW29197   3.442   6.251   2.876
 9433SOL    HW129198   3.466   6.156   2.898
 9433SOL    HW229199   3.517   6.311   2.902
 9434SOL     OW29200   5.446   5.689   2.907
 9434SOL    HW129201   5.386   5.643   2.842
 9434SOL    HW229202   5.445   5.788   2.889
 9435SOL     OW29203   0.282   2.624   4.995
 9435SOL    HW129204   0.333   2.696   4.948
 9435SOL    HW229205   0.332   2.538   4.990
 9436SOL     OW29206   1.514   2.561   1.129
 9436SOL    HW129207   1.558   2.533   1.214
 9436SOL    HW229208   1.537   2.496   1.056
 9437SOL     OW29209   1.303   5.959   2.947
 9437SOL    HW129210   1.320   6.056   2.966
 9437SOL    HW229211   1.211   5.947   2.910
 9438SOL     OW29212   0.140   0.037   1.679
 9438SOL    HW129213   0.147   6.986   1.609
 9438SOL    HW229214   0.090   0.115   1.642
 9439SOL     OW29215   0.563   3.479   1.185
 9439SOL    HW129216   0.662   3.470   1.179
 9439SOL    HW229217   0.530   3.535   1.108
 9440SOL     OW29218   3.839   5.366   3.254
 9440SOL    HW129219   3.922   5.418   3.237
 9440SOL    HW229220   3.851   5.308   3.335
 9441SOL     OW29221   6.397   4.215   5.432
 9441SOL    HW129222   6.458   4.166   5.370
 9441SOL    HW229223   6.418   4.313   5.428
 9442SOL     OW29224   4.793   3.411   0.917
 9442SOL    HW129225   4.735   3.468   0.858
 9442SOL    HW229226   4.807   3.322   0.874
 9443SOL     OW29227   2.601   5.267   0.854
 9443SOL    HW129228   2.654   5.204   0.911
 9443SOL    HW229229   2.511   5.281   0.896
 9444SOL     OW29230   1.150   3.267   0.815
 9444SOL    HW129231   1.222   3.232   0.875
 9444SOL    HW229232   1.143   3.211   0.733
 9445SOL     OW29233   5.947   2.682   3.250
 9445SOL    HW129234   6.016   2.754   3.238
 9445SOL    HW229235   5.870   2.699   3.188
 9446SOL     OW29236   6.375   5.329   3.934
 9446SOL    HW129237   6.471   5.329   3.905
 9446SOL    HW229238   6.368   5.285   4.023
 9447SOL     OW29239   6.005   4.370   3.504
 9447SOL    HW129240   5.907   4.361   3.489
 9447SOL    HW229241   6.054   4.332   3.425
 9448SOL     OW29242   0.347   0.029   6.927
 9448SOL    HW129243   0.304   6.961   6.906
 9448SOL    HW229244   0.277   0.100   6.929
 9449SOL     OW29245   6.417   6.826   0.251
 9449SOL    HW129246   6.499   6.863   0.294
 9449SOL    HW229247   6.416   6.727   0.261
 9450SOL     OW29248   1.778   5.080   4.269
 9450SOL    HW129249   1.693   5.058   4.317
 9450SOL    HW229250   1.829   4.996   4.252
 9451SOL     OW29251   4.500   0.425   6.063
 9451SOL    HW129252   4.538   0.412   5.971
 9451SOL    HW229253   4.421   0.365   6.076
 9452SOL     OW29254   1.759   3.880   0.752
 9452SOL    HW129255   1.696   3.899   0.827
 9452SOL    HW229256   1.821   3.805   0.778
 9453SOL     OW29257   2.419   4.923   3.187
 9453SOL    HW129258   2.369   4.999   3.144
 9453SOL    HW229259   2.356   4.847   3.203
 9454SOL     OW29260   3.675   3.498   6.480
 9454SOL    HW129261   3.710   3.482   6.573
 9454SOL    HW229262   3.740   3.553   6.428
 9455SOL     OW29263   2.498   1.516   3.525
 9455SOL    HW129264   2.484   1.611   3.551
 9455SOL    HW229265   2.590   1.505   3.487
 9456SOL     OW29266   6.845   3.809   0.940
 9456SOL    HW129267   6.896   3.729   0.910
 9456SOL    HW229268   6.875   3.889   0.888
 9457SOL     OW29269   1.637   3.504   5.094
 9457SOL    HW129270   1.737   3.503   5.099
 9457SOL    HW229271   1.608   3.535   5.003
 9458SOL     OW29272   1.224   2.815   0.322
 9458SOL    HW129273   1.268   2.893   0.366
 9458SOL    HW229274   1.226   2.829   0.222
 9459SOL     OW29275   5.731   4.465   3.612
 9459SOL    HW129276   5.656   4.529   3.598
 9459SOL    HW229277   5.796   4.502   3.679
 9460SOL     OW29278   1.125   3.147   3.913
 9460SOL    HW129279   1.075   3.176   3.995
 9460SOL    HW229280   1.061   3.140   3.836
 9461SOL     OW29281   0.185   1.821   1.651
 9461SOL    HW129282   0.126   1.744   1.677
 9461SOL    HW229283   0.163   1.851   1.558
 9462SOL     OW29284   2.119   3.814   3.362
 9462SOL    HW129285   2.093   3.747   3.293
 9462SOL    HW229286   2.066   3.898   3.349
 9463SOL     OW29287   6.213   0.266   1.776
 9463SOL    HW129288   6.188   0.359   1.806
 9463SOL    HW229289   6.228   0.266   1.678
 9464SOL     OW29290   5.877   0.637   0.753
 9464SOL    HW129291   5.964   0.599   0.784
 9464SOL    HW229292   5.854   0.716   0.810
 9465SOL     OW29293   1.685   4.567   1.886
 9465SOL    HW129294   1.639   4.619   1.958
 9465SOL    HW229295   1.629   4.567   1.804
 9466SOL     OW29296   3.855   4.444   5.767
 9466SOL    HW129297   3.772   4.429   5.712
 9466SOL    HW229298   3.934   4.449   5.707
 9467SOL     OW29299   1.395   2.281   2.421
 9467SOL    HW129300   1.489   2.313   2.431
 9467SOL    HW229301   1.345   2.343   2.360
 9468SOL     OW29302   5.902   3.676   6.628
 9468SOL    HW129303   5.924   3.755   6.687
 9468SOL    HW229304   5.933   3.695   6.535
 9469SOL     OW29305   6.360   5.067   1.754
 9469SOL    HW129306   6.456   5.070   1.726
 9469SOL    HW229307   6.351   5.099   1.848
 9470SOL     OW29308   5.025   3.074   5.958
 9470SOL    HW129309   4.944   3.048   6.010
 9470SOL    HW229310   4.998   3.116   5.872
 9471SOL     OW29311   6.842   1.727   4.623
 9471SOL    HW129312   6.756   1.720   4.572
 9471SOL    HW229313   6.896   1.804   4.587
 9472SOL     OW29314   6.387   2.646   5.599
 9472SOL    HW129315   6.401   2.578   5.671
 9472SOL    HW229316   6.305   2.623   5.547
 9473SOL     OW29317   2.550   5.393   6.883
 9473SOL    HW129318   2.559   5.377   6.784
 9473SOL    HW229319   2.508   5.313   6.926
 9474SOL     OW29320   0.364   3.075   0.033
 9474SOL    HW129321   0.278   3.086   7.004
 9474SOL    HW229322   0.418   3.002   7.010
 9475SOL     OW29323   3.519   3.034   0.078
 9475SOL    HW129324   3.475   2.959   0.029
 9475SOL    HW229325   3.463   3.116   0.072
 9476SOL     OW29326   3.915   4.065   4.835
 9476SOL    HW129327   3.861   4.087   4.754
 9476SOL    HW229328   4.006   4.036   4.807
 9477SOL     OW29329   0.659   2.838   0.951
 9477SOL    HW129330   0.586   2.809   1.013
 9477SOL    HW229331   0.670   2.937   0.956
 9478SOL     OW29332   4.991   3.236   0.559
 9478SOL    HW129333   5.083   3.269   0.536
 9478SOL    HW229334   4.935   3.233   0.476
 9479SOL     OW29335   4.287   6.426   6.759
 9479SOL    HW129336   4.243   6.496   6.702
 9479SOL    HW229337   4.252   6.336   6.733
 9480SOL     OW29338   5.732   4.798   0.840
 9480SOL    HW129339   5.665   4.742   0.889
 9480SOL    HW229340   5.683   4.859   0.777
 9481SOL     OW29341   4.916   3.081   2.379
 9481SOL    HW129342   4.919   3.090   2.479
 9481SOL    HW229343   5.006   3.100   2.340
 9482SOL     OW29344   0.602   1.192   2.822
 9482SOL    HW129345   0.647   1.270   2.866
 9482SOL    HW229346   0.637   1.107   2.861
 9483SOL     OW29347   1.746   1.192   0.940
 9483SOL    HW129348   1.672   1.181   0.875
 9483SOL    HW229349   1.802   1.271   0.914
 9484SOL     OW29350   4.345   0.667   4.008
 9484SOL    HW129351   4.331   0.572   4.034
 9484SOL    HW229352   4.390   0.716   4.082
 9485SOL     OW29353   0.751   0.581   0.628
 9485SOL    HW129354   0.712   0.585   0.536
 9485SOL    HW229355   0.699   0.517   0.684
 9486SOL     OW29356   4.074   6.589   1.156
 9486SOL    HW129357   4.166   6.621   1.135
 9486SOL    HW229358   4.065   6.493   1.127
 9487SOL     OW29359   3.543   3.505   3.965
 9487SOL    HW129360   3.613   3.489   3.895
 9487SOL    HW229361   3.587   3.533   4.050
 9488SOL     OW29362   2.785   6.397   0.890
 9488SOL    HW129363   2.801   6.299   0.901
 9488SOL    HW229364   2.832   6.446   0.964
 9489SOL     OW29365   4.630   4.165   1.387
 9489SOL    HW129366   4.711   4.192   1.335
 9489SOL    HW229367   4.650   4.081   1.437
 9490SOL     OW29368   6.246   4.702   2.433
 9490SOL    HW129369   6.285   4.783   2.476
 9490SOL    HW229370   6.187   4.655   2.498
 9491SOL     OW29371   5.866   5.012   4.128
 9491SOL    HW129372   5.780   4.973   4.161
 9491SOL    HW229373   5.889   4.972   4.040
 9492SOL     OW29374   3.731   2.944   4.183
 9492SOL    HW129375   3.641   2.904   4.197
 9492SOL    HW229376   3.732   2.994   4.097
 9493SOL     OW29377   3.239   5.666   4.353
 9493SOL    HW129378   3.177   5.729   4.399
 9493SOL    HW229379   3.239   5.578   4.402
 9494SOL     OW29380   5.261   3.629   2.164
 9494SOL    HW129381   5.179   3.667   2.207
 9494SOL    HW229382   5.331   3.699   2.156
 9495SOL     OW29383   6.612   1.665   3.714
 9495SOL    HW129384   6.547   1.597   3.680
 9495SOL    HW229385   6.700   1.621   3.734
 9496SOL     OW29386   6.526   3.654   1.889
 9496SOL    HW129387   6.491   3.625   1.800
 9496SOL    HW229388   6.622   3.682   1.879
 9497SOL     OW29389   5.766   6.325   5.887
 9497SOL    HW129390   5.674   6.289   5.902
 9497SOL    HW229391   5.813   6.269   5.819
 9498SOL     OW29392   4.084   6.701   4.561
 9498SOL    HW129393   4.118   6.777   4.506
 9498SOL    HW229394   4.109   6.715   4.657
 9499SOL     OW29395   2.475   5.353   6.466
 9499SOL    HW129396   2.498   5.295   6.544
 9499SOL    HW229397   2.469   5.296   6.383
 9500SOL     OW29398   5.434   0.170   1.004
 9500SOL    HW129399   5.385   0.115   0.936
 9500SOL    HW229400   5.480   0.110   1.070
 9501SOL     OW29401   3.022   1.019   4.384
 9501SOL    HW129402   3.059   1.102   4.425
 9501SOL    HW229403   3.086   0.984   4.315
 9502SOL     OW29404   5.337   3.097   5.112
 9502SOL    HW129405   5.417   3.156   5.098
 9502SOL    HW229406   5.316   3.050   5.026
 9503SOL     OW29407   0.565   1.480   1.350
 9503SOL    HW129408   0.491   1.448   1.408
 9503SOL    HW229409   0.528   1.508   1.261
 9504SOL     OW29410   0.257   2.740   0.383
 9504SOL    HW129411   0.308   2.658   0.359
 9504SOL    HW229412   0.201   2.768   0.305
 9505SOL     OW29413   4.846   4.569   3.970
 9505SOL    HW129414   4.840   4.473   3.996
 9505SOL    HW229415   4.755   4.605   3.951
 9506SOL     OW29416   1.173   1.801   6.321
 9506SOL    HW129417   1.113   1.865   6.273
 9506SOL    HW229418   1.125   1.763   6.400
 9507SOL     OW29419   1.186   2.289   3.558
 9507SOL    HW129420   1.166   2.350   3.481
 9507SOL    HW229421   1.256   2.223   3.532
 9508SOL     OW29422   6.296   2.165   1.348
 9508SOL    HW129423   6.342   2.252   1.364
 9508SOL    HW229424   6.226   2.176   1.278
 9509SOL     OW29425   0.828   1.298   4.073
 9509SOL    HW129426   0.916   1.270   4.111
 9509SOL    HW229427   0.760   1.227   4.092
 9510SOL     OW29428   1.533   3.725   3.191
 9510SOL    HW129429   1.472   3.797   3.159
 9510SOL    HW229430   1.628   3.748   3.167
 9511SOL     OW29431   1.650   0.771   0.417
 9511SOL    HW129432   1.572   0.717   0.386
 9511SOL    HW229433   1.640   0.792   0.514
 9512SOL     OW29434   6.338   1.539   1.351
 9512SOL    HW129435   6.387   1.624   1.334
 9512SOL    HW229436   6.355   1.475   1.276
 9513SOL     OW29437   2.170   3.657   6.825
 9513SOL    HW129438   2.218   3.610   6.899
 9513SOL    HW229439   2.223   3.650   6.741
 9514SOL     OW29440   1.912   5.514   5.929
 9514SOL    HW129441   1.894   5.594   5.986
 9514SOL    HW229442   2.010   5.506   5.912
 9515SOL     OW29443   1.992   5.687   1.033
 9515SOL    HW129444   1.950   5.775   1.059
 9515SOL    HW229445   2.087   5.702   1.007
 9516SOL     OW29446   5.735   4.679   6.027
 9516SOL    HW129447   5.702   4.724   5.944
 9516SOL    HW229448   5.736   4.580   6.013
 9517SOL     OW29449   2.230   4.660   0.559
 9517SOL    HW129450   2.181   4.662   0.646
 9517SOL    HW229451   2.201   4.580   0.506
 9518SOL     OW29452   2.081   2.214   0.349
 9518SOL    HW129453   2.094   2.225   0.250
 9518SOL    HW229454   2.044   2.124   0.368
 9519SOL     OW29455   3.761   3.775   5.088
 9519SOL    HW129456   3.853   3.745   5.114
 9519SOL    HW229457   3.739   3.740   4.997
 9520SOL     OW29458   1.629   1.458   3.844
 9520SOL    HW129459   1.641   1.534   3.908
 9520SOL    HW229460   1.544   1.471   3.793
 9521SOL     OW29461   4.911   5.279   1.593
 9521SOL    HW129462   4.971   5.263   1.515
 9521SOL    HW229463   4.816   5.261   1.566
 9522SOL     OW29464   3.102   5.531   1.351
 9522SOL    HW129465   3.068   5.612   1.398
 9522SOL    HW229466   3.034   5.499   1.284
 9523SOL     OW29467   2.580   4.673   5.017
 9523SOL    HW129468   2.537   4.626   5.095
 9523SOL    HW229469   2.679   4.665   5.024
 9524SOL     OW29470   3.445   3.104   1.216
 9524SOL    HW129471   3.517   3.057   1.164
 9524SOL    HW229472   3.371   3.039   1.237
 9525SOL     OW29473   2.235   2.702   5.451
 9525SOL    HW129474   2.184   2.626   5.493
 9525SOL    HW229475   2.317   2.666   5.406
 9526SOL     OW29476   5.483   5.174   1.345
 9526SOL    HW129477   5.411   5.143   1.408
 9526SOL    HW229478   5.541   5.240   1.392
 9527SOL     OW29479   0.501   0.712   4.082
 9527SOL    HW129480   0.507   0.667   4.171
 9527SOL    HW229481   0.485   0.644   4.011
 9528SOL     OW29482   6.887   1.238   0.408
 9528SOL    HW129483   6.818   1.186   0.357
 9528SOL    HW229484   6.958   1.270   0.345
 9529SOL     OW29485   6.420   3.193   5.984
 9529SOL    HW129486   6.393   3.125   5.915
 9529SOL    HW229487   6.458   3.273   5.938
 9530SOL     OW29488   1.443   4.035   2.093
 9530SOL    HW129489   1.510   3.961   2.079
 9530SOL    HW229490   1.491   4.122   2.104
 9531SOL     OW29491   4.787   5.311   3.105
 9531SOL    HW129492   4.755   5.405   3.111
 9531SOL    HW229493   4.717   5.249   3.141
 9532SOL     OW29494   6.624   7.008   2.122
 9532SOL    HW129495   6.633   6.958   2.208
 9532SOL    HW229496   6.700   0.052   2.112
 9533SOL     OW29497   6.787   6.296   5.618
 9533SOL    HW129498   6.705   6.240   5.628
 9533SOL    HW229499   6.837   6.268   5.536
 9534SOL     OW29500   0.179   3.765   4.931
 9534SOL    HW129501   0.120   3.684   4.938
 9534SOL    HW229502   0.236   3.759   4.849
 9535SOL     OW29503   2.047   1.180   5.953
 9535SOL    HW129504   2.133   1.207   5.911
 9535SOL    HW229505   2.058   1.178   6.053
 9536SOL     OW29506   2.578   4.196   5.493
 9536SOL    HW129507   2.635   4.183   5.574
 9536SOL    HW229508   2.628   4.250   5.425
 9537SOL     OW29509   2.883   6.551   3.099
 9537SOL    HW129510   2.960   6.518   3.044
 9537SOL    HW229511   2.918   6.602   3.178
 9538SOL     OW29512   6.174   1.835   3.455
 9538SOL    HW129513   6.191   1.811   3.360
 9538SOL    HW229514   6.140   1.756   3.505
 9539SOL     OW29515   2.965   3.932   5.195
 9539SOL    HW129516   2.867   3.947   5.207
 9539SOL    HW229517   2.982   3.838   5.166
 9540SOL     OW29518   5.914   4.193   4.399
 9540SOL    HW129519   5.869   4.221   4.483
 9540SOL    HW229520   5.948   4.100   4.408
 9541SOL     OW29521   4.340   0.529   5.715
 9541SOL    HW129522   4.432   0.557   5.688
 9541SOL    HW229523   4.341   0.433   5.741
 9542SOL     OW29524   5.150   4.289   4.561
 9542SOL    HW129525   5.126   4.191   4.565
 9542SOL    HW229526   5.074   4.339   4.520
 9543SOL     OW29527   3.782   0.865   5.395
 9543SOL    HW129528   3.835   0.812   5.329
 9543SOL    HW229529   3.692   0.885   5.356
 9544SOL     OW29530   6.931   1.529   3.877
 9544SOL    HW129531   0.004   1.499   3.900
 9544SOL    HW229532   6.873   1.525   3.959
 9545SOL     OW29533   5.780   5.308   4.115
 9545SOL    HW129534   5.711   5.268   4.176
 9545SOL    HW229535   5.871   5.289   4.151
 9546SOL     OW29536   3.662   2.177   5.757
 9546SOL    HW129537   3.589   2.152   5.694
 9546SOL    HW229538   3.749   2.142   5.724
 9547SOL     OW29539   2.169   6.731   4.741
 9547SOL    HW129540   2.254   6.715   4.791
 9547SOL    HW229541   2.173   6.686   4.652
 9548SOL     OW29542   6.221   5.652   6.425
 9548SOL    HW129543   6.177   5.586   6.365
 9548SOL    HW229544   6.239   5.737   6.375
 9549SOL     OW29545   2.767   2.982   1.036
 9549SOL    HW129546   2.831   2.905   1.033
 9549SOL    HW229547   2.695   2.968   0.969
 9550SOL     OW29548   0.425   1.317   0.445
 9550SOL    HW129549   0.493   1.266   0.497
 9550SOL    HW229550   0.440   1.415   0.457
 9551SOL     OW29551   5.716   1.186   4.276
 9551SOL    HW129552   5.684   1.262   4.220
 9551SOL    HW229553   5.646   1.162   4.343
 9552SOL     OW29554   1.455   6.250   2.967
 9552SOL    HW129555   1.448   6.339   2.923
 9552SOL    HW229556   1.400   6.250   3.051
 9553SOL     OW29557   6.262   3.856   6.766
 9553SOL    HW129558   6.292   3.781   6.824
 9553SOL    HW229559   6.285   3.836   6.671
 9554SOL     OW29560   2.688   0.409   1.373
 9554SOL    HW129561   2.753   0.380   1.444
 9554SOL    HW229562   2.595   0.396   1.406
 9555SOL     OW29563   1.120   1.036   2.659
 9555SOL    HW129564   1.216   1.030   2.632
 9555SOL    HW229565   1.088   1.130   2.648
 9556SOL     OW29566   1.525   1.902   1.374
 9556SOL    HW129567   1.500   1.808   1.397
 9556SOL    HW229568   1.484   1.965   1.440
 9557SOL     OW29569   0.214   0.355   2.760
 9557SOL    HW129570   0.217   0.446   2.719
 9557SOL    HW229571   0.119   0.327   2.772
 9558SOL     OW29572   6.293   6.226   4.563
 9558SOL    HW129573   6.382   6.255   4.528
 9558SOL    HW229574   6.235   6.198   4.487
 9559SOL     OW29575   0.759   4.199   0.890
 9559SOL    HW129576   0.832   4.209   0.822
 9559SOL    HW229577   0.786   4.129   0.957
 9560SOL     OW29578   1.215   1.880   3.330
 9560SOL    HW129579   1.196   1.931   3.246
 9560SOL    HW229580   1.162   1.795   3.330
 9561SOL     OW29581   1.228   6.446   0.210
 9561SOL    HW129582   1.167   6.369   0.189
 9561SOL    HW229583   1.293   6.457   0.135
 9562SOL     OW29584   3.208   0.305   5.600
 9562SOL    HW129585   3.144   0.368   5.555
 9562SOL    HW229586   3.273   0.358   5.655
 9563SOL     OW29587   6.469   0.067   0.748
 9563SOL    HW129588   6.545   0.018   0.705
 9563SOL    HW229589   6.400   0.001   0.778
 9564SOL     OW29590   3.289   0.336   0.377
 9564SOL    HW129591   3.296   0.380   0.288
 9564SOL    HW229592   3.216   0.268   0.375
 9565SOL     OW29593   4.153   6.062   4.673
 9565SOL    HW129594   4.202   6.137   4.718
 9565SOL    HW229595   4.061   6.055   4.711
 9566SOL     OW29596   2.589   4.889   6.627
 9566SOL    HW129597   2.603   4.885   6.528
 9566SOL    HW229598   2.505   4.840   6.650
 9567SOL     OW29599   5.644   4.907   6.627
 9567SOL    HW129600   5.708   4.877   6.557
 9567SOL    HW229601   5.694   4.951   6.702
 9568SOL     OW29602   4.373   2.349   6.459
 9568SOL    HW129603   4.439   2.327   6.532
 9568SOL    HW229604   4.382   2.445   6.434
 9569SOL     OW29605   0.123   0.615   2.627
 9569SOL    HW129606   0.158   0.654   2.541
 9569SOL    HW229607   0.040   0.663   2.653
 9570SOL     OW29608   1.075   2.985   2.515
 9570SOL    HW129609   1.059   2.890   2.488
 9570SOL    HW229610   1.115   3.036   2.438
 9571SOL     OW29611   2.481   3.852   6.855
 9571SOL    HW129612   2.395   3.904   6.857
 9571SOL    HW229613   2.462   3.756   6.839
 9572SOL     OW29614   2.320   5.599   1.734
 9572SOL    HW129615   2.310   5.664   1.659
 9572SOL    HW229616   2.280   5.638   1.818
 9573SOL     OW29617   1.234   0.889   6.465
 9573SOL    HW129618   1.234   0.841   6.377
 9573SOL    HW229619   1.140   0.904   6.495
 9574SOL     OW29620   3.945   3.568   4.412
 9574SOL    HW129621   3.971   3.655   4.370
 9574SOL    HW229622   3.938   3.498   4.341
 9575SOL     OW29623   5.756   1.796   0.995
 9575SOL    HW129624   5.673   1.807   0.940
 9575SOL    HW229625   5.757   1.703   1.034
 9576SOL     OW29626   2.849   0.179   2.378
 9576SOL    HW129627   2.843   0.266   2.330
 9576SOL    HW229628   2.783   0.115   2.337
 9577SOL     OW29629   1.160   0.816   4.263
 9577SOL    HW129630   1.247   0.860   4.285
 9577SOL    HW229631   1.087   0.884   4.264
 9578SOL     OW29632   0.345   4.475   3.883
 9578SOL    HW129633   0.441   4.492   3.902
 9578SOL    HW229634   0.335   4.389   3.833
 9579SOL     OW29635   1.872   5.262   2.824
 9579SOL    HW129636   1.821   5.333   2.775
 9579SOL    HW229637   1.962   5.251   2.783
 9580SOL     OW29638   4.325   3.081   1.090
 9580SOL    HW129639   4.412   3.131   1.088
 9580SOL    HW229640   4.344   2.983   1.083
 9581SOL     OW29641   1.331   5.390   6.355
 9581SOL    HW129642   1.367   5.380   6.262
 9581SOL    HW229643   1.388   5.454   6.406
 9582SOL     OW29644   4.689   4.726   4.703
 9582SOL    HW129645   4.629   4.656   4.741
 9582SOL    HW229646   4.779   4.721   4.746
 9583SOL     OW29647   3.259   4.600   1.134
 9583SOL    HW129648   3.198   4.622   1.059
 9583SOL    HW229649   3.279   4.502   1.133
 9584SOL     OW29650   6.909   6.454   0.366
 9584SOL    HW129651   6.875   6.389   0.298
 9584SOL    HW229652   7.005   6.435   0.386
 9585SOL     OW29653   6.238   0.285   3.408
 9585SOL    HW129654   6.309   0.252   3.469
 9585SOL    HW229655   6.279   0.340   3.335
 9586SOL     OW29656   5.829   3.866   2.805
 9586SOL    HW129657   5.819   3.840   2.709
 9586SOL    HW229658   5.926   3.871   2.827
 9587SOL     OW29659   6.626   0.666   2.563
 9587SOL    HW129660   6.549   0.714   2.607
 9587SOL    HW229661   6.663   0.722   2.490
 9588SOL     OW29662   0.526   1.519   2.380
 9588SOL    HW129663   0.517   1.491   2.476
 9588SOL    HW229664   0.606   1.580   2.371
 9589SOL     OW29665   2.632   5.669   6.032
 9589SOL    HW129666   2.655   5.612   5.953
 9589SOL    HW229667   2.657   5.764   6.012
 9590SOL     OW29668   0.146   4.304   2.194
 9590SOL    HW129669   0.185   4.360   2.121
 9590SOL    HW229670   0.212   4.234   2.221
 9591SOL     OW29671   2.959   6.005   0.054
 9591SOL    HW129672   2.860   6.016   0.063
 9591SOL    HW229673   3.001   6.013   0.144
 9592SOL     OW29674   3.773   4.588   1.688
 9592SOL    HW129675   3.756   4.657   1.618
 9592SOL    HW229676   3.696   4.584   1.752
 9593SOL     OW29677   6.438   0.518   4.787
 9593SOL    HW129678   6.382   0.518   4.704
 9593SOL    HW229679   6.421   0.603   4.838
 9594SOL     OW29680   1.610   5.813   3.292
 9594SOL    HW129681   1.512   5.831   3.296
 9594SOL    HW229682   1.634   5.774   3.203
 9595SOL     OW29683   1.867   4.371   5.022
 9595SOL    HW129684   1.769   4.347   5.022
 9595SOL    HW229685   1.899   4.377   5.116
 9596SOL     OW29686   0.581   5.940   0.135
 9596SOL    HW129687   0.636   5.904   0.060
 9596SOL    HW229688   0.484   5.939   0.109
 9597SOL     OW29689   0.311   4.639   0.606
 9597SOL    HW129690   0.239   4.578   0.573
 9597SOL    HW229691   0.319   4.718   0.546
 9598SOL     OW29692   0.805   3.649   5.203
 9598SOL    HW129693   0.799   3.660   5.302
 9598SOL    HW229694   0.900   3.632   5.177
 9599SOL     OW29695   3.218   0.359   5.272
 9599SOL    HW129696   3.200   0.301   5.193
 9599SOL    HW229697   3.309   0.399   5.264
 9600SOL     OW29698   2.469   6.807   6.964
 9600SOL    HW129699   2.479   6.852   0.032
 9600SOL    HW229700   2.529   6.726   6.961
 9601SOL     OW29701   6.260   4.123   6.850
 9601SOL    HW129702   6.306   4.144   6.937
 9601SOL    HW229703   6.275   4.027   6.828
 9602SOL     OW29704   6.561   4.916   6.870
 9602SOL    HW129705   6.484   4.860   6.839
 9602SOL    HW229706   6.645   4.888   6.823
 9603SOL     OW29707   3.087   0.655   4.782
 9603SOL    HW129708   3.104   0.718   4.857
 9603SOL    HW229709   3.126   0.691   4.698
 9604SOL     OW29710   4.935   0.239   0.623
 9604SOL    HW129711   4.892   0.230   0.713
 9604SOL    HW229712   5.025   0.282   0.633
 9605SOL     OW29713   0.830   5.265   4.976
 9605SOL    HW129714   0.866   5.218   5.056
 9605SOL    HW229715   0.733   5.242   4.964
 9606SOL     OW29716   1.729   6.070   5.051
 9606SOL    HW129717   1.715   6.095   4.955
 9606SOL    HW229718   1.826   6.079   5.073
 9607SOL     OW29719   0.945   2.072   2.018
 9607SOL    HW129720   0.940   1.998   2.086
 9607SOL    HW229721   0.885   2.147   2.046
 9608SOL     OW29722   6.477   6.655   1.617
 9608SOL    HW129723   6.534   6.634   1.696
 9608SOL    HW229724   6.521   6.725   1.561
 9609SOL     OW29725   1.692   4.024   5.549
 9609SOL    HW129726   1.712   3.925   5.549
 9609SOL    HW229727   1.595   4.038   5.532
 9610SOL     OW29728   1.296   4.494   3.987
 9610SOL    HW129729   1.384   4.527   3.953
 9610SOL    HW229730   1.309   4.408   4.037
 9611SOL     OW29731   0.194   6.799   6.917
 9611SOL    HW129732   0.103   6.813   6.956
 9611SOL    HW229733   0.218   6.702   6.922
 9612SOL     OW29734   6.547   3.223   1.371
 9612SOL    HW129735   6.642   3.248   1.353
 9612SOL    HW229736   6.495   3.228   1.286
 9613SOL     OW29737   3.776   6.321   3.419
 9613SOL    HW129738   3.780   6.222   3.430
 9613SOL    HW229739   3.801   6.346   3.325
 9614SOL     OW29740   3.780   2.886   1.217
 9614SOL    HW129741   3.774   2.795   1.175
 9614SOL    HW229742   3.726   2.951   1.164
 9615SOL     OW29743   0.990   6.859   2.456
 9615SOL    HW129744   1.013   6.812   2.542
 9615SOL    HW229745   1.043   6.943   2.449
 9616SOL     OW29746   4.427   3.848   0.764
 9616SOL    HW129747   4.365   3.781   0.723
 9616SOL    HW229748   4.487   3.886   0.693
 9617SOL     OW29749   1.247   3.520   4.484
 9617SOL    HW129750   1.293   3.583   4.422
 9617SOL    HW229751   1.314   3.458   4.525
 9618SOL     OW29752   5.011   0.096   6.043
 9618SOL    HW129753   4.958   0.107   6.127
 9618SOL    HW229754   5.054   0.005   6.043
 9619SOL     OW29755   1.341   0.426   0.651
 9619SOL    HW129756   1.377   0.395   0.739
 9619SOL    HW229757   1.347   0.525   0.645
 9620SOL     OW29758   5.680   1.632   6.626
 9620SOL    HW129759   5.679   1.565   6.701
 9620SOL    HW229760   5.728   1.593   6.547
 9621SOL     OW29761   1.789   1.592   2.880
 9621SOL    HW129762   1.764   1.655   2.806
 9621SOL    HW229763   1.712   1.531   2.898
 9622SOL     OW29764   6.246   1.101   6.507
 9622SOL    HW129765   6.268   1.196   6.529
 9622SOL    HW229766   6.254   1.087   6.408
 9623SOL     OW29767   4.301   5.337   5.510
 9623SOL    HW129768   4.323   5.362   5.416
 9623SOL    HW229769   4.350   5.398   5.573
 9624SOL     OW29770   5.408   4.017   3.997
 9624SOL    HW129771   5.345   3.985   3.926
 9624SOL    HW229772   5.496   4.040   3.955
 9625SOL     OW29773   4.989   4.652   6.734
 9625SOL    HW129774   4.988   4.657   6.634
 9625SOL    HW229775   5.053   4.581   6.763
 9626SOL     OW29776   2.240   5.831   5.594
 9626SOL    HW129777   2.193   5.841   5.683
 9626SOL    HW229778   2.211   5.906   5.534
 9627SOL     OW29779   6.941   4.068   4.558
 9627SOL    HW129780   6.970   4.033   4.647
 9627SOL    HW229781   6.909   3.992   4.501
 9628SOL     OW29782   6.147   4.420   0.396
 9628SOL    HW129783   6.072   4.444   0.458
 9628SOL    HW229784   6.233   4.419   0.446
 9629SOL     OW29785   6.684   5.617   2.273
 9629SOL    HW129786   6.688   5.699   2.330
 9629SOL    HW229787   6.776   5.590   2.244
 9630SOL     OW29788   6.463   6.550   5.470
 9630SOL    HW129789   6.527   6.510   5.536
 9630SOL    HW229790   6.458   6.491   5.389
 9631SOL     OW29791   4.770   1.870   0.660
 9631SOL    HW129792   4.812   1.885   0.749
 9631SOL    HW229793   4.709   1.790   0.665
 9632SOL     OW29794   2.563   5.509   1.713
 9632SOL    HW129795   2.474   5.542   1.745
 9632SOL    HW229796   2.636   5.554   1.764
 9633SOL     OW29797   3.806   4.172   0.337
 9633SOL    HW129798   3.859   4.255   0.355
 9633SOL    HW229799   3.714   4.182   0.375
 9634SOL     OW29800   0.439   6.038   3.551
 9634SOL    HW129801   0.447   5.972   3.626
 9634SOL    HW229802   0.364   6.011   3.491
 9635SOL     OW29803   2.161   4.368   5.286
 9635SOL    HW129804   2.221   4.289   5.301
 9635SOL    HW229805   2.189   4.415   5.203
 9636SOL     OW29806   4.789   1.733   6.234
 9636SOL    HW129807   4.705   1.701   6.191
 9636SOL    HW229808   4.811   1.824   6.201
 9637SOL     OW29809   3.846   2.740   0.871
 9637SOL    HW129810   3.816   2.758   0.965
 9637SOL    HW229811   3.841   2.642   0.853
 9638SOL     OW29812   0.134   3.113   5.523
 9638SOL    HW129813   0.053   3.055   5.531
 9638SOL    HW229814   0.154   3.153   5.612
 9639SOL     OW29815   4.106   2.207   2.088
 9639SOL    HW129816   4.101   2.300   2.125
 9639SOL    HW229817   4.019   2.185   2.044
 9640SOL     OW29818   3.050   0.661   2.887
 9640SOL    HW129819   3.137   0.647   2.839
 9640SOL    HW229820   2.974   0.656   2.822
 9641SOL     OW29821   5.452   5.576   1.586
 9641SOL    HW129822   5.448   5.627   1.500
 9641SOL    HW229823   5.544   5.585   1.625
 9642SOL     OW29824   1.390   6.076   4.528
 9642SOL    HW129825   1.388   6.172   4.558
 9642SOL    HW229826   1.458   6.065   4.456
 9643SOL     OW29827   5.007   4.186   3.479
 9643SOL    HW129828   5.029   4.246   3.556
 9643SOL    HW229829   5.049   4.222   3.396
 9644SOL     OW29830   0.914   5.714   5.644
 9644SOL    HW129831   0.870   5.801   5.623
 9644SOL    HW229832   1.010   5.730   5.667
 9645SOL     OW29833   2.815   4.758   4.105
 9645SOL    HW129834   2.752   4.730   4.178
 9645SOL    HW229835   2.767   4.762   4.018
 9646SOL     OW29836   2.596   5.143   1.915
 9646SOL    HW129837   2.610   5.230   1.962
 9646SOL    HW229838   2.630   5.068   1.972
 9647SOL     OW29839   0.096   6.617   2.782
 9647SOL    HW129840   0.112   6.699   2.838
 9647SOL    HW229841   0.184   6.584   2.748
 9648SOL     OW29842   3.737   2.729   6.794
 9648SOL    HW129843   3.684   2.781   6.728
 9648SOL    HW229844   3.677   2.665   6.843
 9649SOL     OW29845   1.838   4.277   0.188
 9649SOL    HW129846   1.873   4.331   0.112
 9649SOL    HW229847   1.746   4.243   0.166
 9650SOL     OW29848   4.840   5.013   3.155
 9650SOL    HW129849   4.830   5.085   3.086
 9650SOL    HW229850   4.937   4.996   3.171
 9651SOL     OW29851   5.317   1.309   0.929
 9651SOL    HW129852   5.259   1.289   1.008
 9651SOL    HW229853   5.394   1.367   0.958
 9652SOL     OW29854   1.397   4.789   1.990
 9652SOL    HW129855   1.407   4.726   1.913
 9652SOL    HW229856   1.304   4.782   2.027
 9653SOL     OW29857   4.918   5.095   4.400
 9653SOL    HW129858   4.878   5.088   4.491
 9653SOL    HW229859   5.015   5.073   4.404
 9654SOL     OW29860   3.056   3.088   3.080
 9654SOL    HW129861   2.963   3.054   3.092
 9654SOL    HW229862   3.056   3.188   3.086
 9655SOL     OW29863   0.061   1.800   0.349
 9655SOL    HW129864   7.019   1.722   0.361
 9655SOL    HW229865   0.008   1.883   0.334
 9656SOL     OW29866   4.220   2.832   1.279
 9656SOL    HW129867   4.294   2.814   1.215
 9656SOL    HW229868   4.215   2.758   1.347
 9657SOL     OW29869   5.605   3.428   2.547
 9657SOL    HW129870   5.529   3.435   2.484
 9657SOL    HW229871   5.611   3.512   2.602
 9658SOL     OW29872   5.372   1.572   2.334
 9658SOL    HW129873   5.434   1.496   2.351
 9658SOL    HW229874   5.282   1.552   2.373
 9659SOL     OW29875   0.540   3.561   6.643
 9659SOL    HW129876   0.629   3.561   6.597
 9659SOL    HW229877   0.526   3.648   6.689
 9660SOL     OW29878   0.750   6.990   2.970
 9660SOL    HW129879   0.786   6.922   3.033
 9660SOL    HW229880   0.777   6.968   2.877
 9661SOL     OW29881   3.622   6.422   1.398
 9661SOL    HW129882   3.685   6.404   1.473
 9661SOL    HW229883   3.540   6.467   1.435
 9662SOL     OW29884   4.093   2.988   6.070
 9662SOL    HW129885   4.041   3.073   6.061
 9662SOL    HW229886   4.190   3.009   6.078
 9663SOL     OW29887   6.891   6.131   2.299
 9663SOL    HW129888   6.791   6.141   2.298
 9663SOL    HW229889   6.933   6.214   2.261
 9664SOL     OW29890   5.606   5.276   4.304
 9664SOL    HW129891   5.617   5.257   4.402
 9664SOL    HW229892   5.515   5.314   4.288
 9665SOL     OW29893   5.752   6.466   6.393
 9665SOL    HW129894   5.726   6.448   6.487
 9665SOL    HW229895   5.804   6.388   6.357
 9666SOL     OW29896   6.410   3.991   2.120
 9666SOL    HW129897   6.487   3.930   2.101
 9666SOL    HW229898   6.437   4.061   2.186
 9667SOL     OW29899   4.147   3.642   6.931
 9667SOL    HW129900   4.186   3.554   6.958
 9667SOL    HW229901   4.057   3.628   6.890
 9668SOL     OW29902   0.473   0.709   6.171
 9668SOL    HW129903   0.505   0.771   6.243
 9668SOL    HW229904   0.552   0.665   6.128
 9669SOL     OW29905   1.991   0.032   1.691
 9669SOL    HW129906   1.998   6.953   1.689
 9669SOL    HW229907   1.902   0.058   1.727
 9670SOL     OW29908   0.130   4.786   6.063
 9670SOL    HW129909   0.178   4.715   6.011
 9670SOL    HW229910   0.195   4.854   6.097
 9671SOL     OW29911   0.266   4.309   0.125
 9671SOL    HW129912   0.256   4.210   0.134
 9671SOL    HW229913   0.178   4.349   0.097
 9672SOL     OW29914   1.546   5.450   3.444
 9672SOL    HW129915   1.474   5.380   3.436
 9672SOL    HW229916   1.581   5.451   3.537
 9673SOL     OW29917   4.241   4.029   1.502
 9673SOL    HW129918   4.156   4.082   1.501
 9673SOL    HW229919   4.220   3.934   1.476
 9674SOL     OW29920   3.097   6.872   3.380
 9674SOL    HW129921   3.060   6.919   3.300
 9674SOL    HW229922   3.195   6.856   3.367
 9675SOL     OW29923   5.554   2.465   6.147
 9675SOL    HW129924   5.596   2.471   6.056
 9675SOL    HW229925   5.542   2.557   6.184
 9676SOL     OW29926   1.355   3.391   5.671
 9676SOL    HW129927   1.421   3.354   5.736
 9676SOL    HW229928   1.337   3.487   5.693
 9677SOL     OW29929   6.981   5.810   4.788
 9677SOL    HW129930   6.909   5.818   4.720
 9677SOL    HW229931   6.976   5.887   4.852
 9678SOL     OW29932   3.072   3.939   3.872
 9678SOL    HW129933   3.029   3.870   3.930
 9678SOL    HW229934   3.037   3.931   3.778
 9679SOL     OW29935   2.929   0.199   3.577
 9679SOL    HW129936   2.877   0.195   3.492
 9679SOL    HW229937   2.891   0.270   3.637
 9680SOL     OW29938   4.230   1.185   3.573
 9680SOL    HW129939   4.294   1.115   3.539
 9680SOL    HW229940   4.222   1.258   3.505
 9681SOL     OW29941   2.862   1.983   0.850
 9681SOL    HW129942   2.787   1.934   0.807
 9681SOL    HW229943   2.857   2.080   0.826
 9682SOL     OW29944   4.639   4.245   3.439
 9682SOL    HW129945   4.659   4.327   3.493
 9682SOL    HW229946   4.598   4.271   3.352
 9683SOL     OW29947   3.387   6.454   1.723
 9683SOL    HW129948   3.388   6.421   1.628
 9683SOL    HW229949   3.317   6.405   1.774
 9684SOL     OW29950   1.003   3.415   6.206
 9684SOL    HW129951   1.076   3.475   6.174
 9684SOL    HW229952   1.041   3.325   6.227
 9685SOL     OW29953   4.011   4.554   0.650
 9685SOL    HW129954   3.928   4.533   0.701
 9685SOL    HW229955   4.034   4.651   0.661
 9686SOL     OW29956   0.711   3.162   6.774
 9686SOL    HW129957   0.631   3.204   6.816
 9686SOL    HW229958   0.780   3.143   6.844
 9687SOL     OW29959   0.939   0.994   4.237
 9687SOL    HW129960   0.974   1.037   4.153
 9687SOL    HW229961   0.842   0.974   4.225
 9688SOL     OW29962   1.389   2.840   1.314
 9688SOL    HW129963   1.336   2.765   1.273
 9688SOL    HW229964   1.416   2.814   1.407
 9689SOL     OW29965   0.752   4.541   6.361
 9689SOL    HW129966   0.695   4.517   6.282
 9689SOL    HW229967   0.829   4.478   6.367
 9690SOL     OW29968   6.156   5.553   0.021
 9690SOL    HW129969   6.089   5.584   0.088
 9690SOL    HW229970   6.120   5.473   6.992
 9691SOL     OW29971   3.479   4.903   1.138
 9691SOL    HW129972   3.502   4.911   1.235
 9691SOL    HW229973   3.468   4.806   1.115
 9692SOL     OW29974   3.943   5.818   1.846
 9692SOL    HW129975   4.033   5.849   1.817
 9692SOL    HW229976   3.875   5.889   1.826
 9693SOL     OW29977   5.375   3.862   2.761
 9693SOL    HW129978   5.409   3.954   2.777
 9693SOL    HW229979   5.410   3.827   2.674
 9694SOL     OW29980   3.272   1.182   1.561
 9694SOL    HW129981   3.266   1.235   1.476
 9694SOL    HW229982   3.182   1.181   1.605
 9695SOL     OW29983   0.369   2.980   3.253
 9695SOL    HW129984   0.362   2.880   3.249
 9695SOL    HW229985   0.306   3.021   3.187
 9696SOL     OW29986   5.346   2.982   1.376
 9696SOL    HW129987   5.309   2.976   1.470
 9696SOL    HW229988   5.366   2.890   1.343
 9697SOL     OW29989   0.249   5.160   0.080
 9697SOL    HW129990   0.321   5.145   0.148
 9697SOL    HW229991   0.219   5.255   0.083
 9698SOL     OW29992   5.223   1.907   5.883
 9698SOL    HW129993   5.126   1.896   5.859
 9698SOL    HW229994   5.248   2.003   5.875
 9699SOL     OW29995   6.276   6.069   6.522
 9699SOL    HW129996   6.317   6.095   6.608
 9699SOL    HW229997   6.338   6.009   6.471
 9700SOL     OW29998   4.927   5.576   5.031
 9700SOL    HW129999   4.828   5.588   5.020
 9700SOL    HW230000   4.954   5.487   4.996
 9701SOL     OW30001   4.307   5.099   5.634
 9701SOL    HW130002   4.311   5.189   5.590
 9701SOL    HW230003   4.278   5.031   5.568
 9702SOL     OW30004   4.324   1.052   6.781
 9702SOL    HW130005   4.359   1.101   6.861
 9702SOL    HW230006   4.396   1.045   6.712
 9703SOL     OW30007   4.855   3.873   3.611
 9703SOL    HW130008   4.888   3.912   3.697
 9703SOL    HW230009   4.910   3.792   3.588
 9704SOL     OW30010   3.543   6.672   1.768
 9704SOL    HW130011   3.529   6.734   1.846
 9704SOL    HW230012   3.475   6.599   1.772
 9705SOL     OW30013   5.653   4.088   5.839
 9705SOL    HW130014   5.730   4.150   5.852
 9705SOL    HW230015   5.687   3.999   5.811
 9706SOL     OW30016   1.967   2.927   0.836
 9706SOL    HW130017   1.943   2.953   0.930
 9706SOL    HW230018   2.064   2.943   0.821
 9707SOL     OW30019   6.249   4.354   2.228
 9707SOL    HW130020   6.186   4.354   2.305
 9707SOL    HW230021   6.326   4.414   2.248
 9708SOL     OW30022   1.339   1.957   3.818
 9708SOL    HW130023   1.414   1.922   3.873
 9708SOL    HW230024   1.274   1.883   3.799
 9709SOL     OW30025   5.361   6.319   3.149
 9709SOL    HW130026   5.456   6.334   3.120
 9709SOL    HW230027   5.308   6.402   3.133
 9710SOL     OW30028   0.125   1.926   1.407
 9710SOL    HW130029   0.131   2.017   1.364
 9710SOL    HW230030   0.031   1.907   1.433
 9711SOL     OW30031   3.613   5.417   6.162
 9711SOL    HW130032   3.663   5.333   6.187
 9711SOL    HW230033   3.582   5.410   6.067
 9712SOL     OW30034   5.530   4.077   6.529
 9712SOL    HW130035   5.517   3.992   6.580
 9712SOL    HW230036   5.562   4.149   6.591
 9713SOL     OW30037   1.751   4.305   3.152
 9713SOL    HW130038   1.661   4.348   3.154
 9713SOL    HW230039   1.785   4.293   3.245
 9714SOL     OW30040   4.253   6.423   6.452
 9714SOL    HW130041   4.243   6.349   6.518
 9714SOL    HW230042   4.346   6.458   6.454
 9715SOL     OW30043   5.779   4.507   0.093
 9715SOL    HW130044   5.777   4.429   0.155
 9715SOL    HW230045   5.869   4.550   0.096
 9716SOL     OW30046   3.853   4.933   6.371
 9716SOL    HW130047   3.849   4.855   6.309
 9716SOL    HW230048   3.946   4.970   6.372
 9717SOL     OW30049   5.507   6.261   5.851
 9717SOL    HW130050   5.475   6.341   5.800
 9717SOL    HW230051   5.484   6.178   5.801
 9718SOL     OW30052   5.224   3.362   0.472
 9718SOL    HW130053   5.317   3.325   0.472
 9718SOL    HW230054   5.227   3.458   0.499
 9719SOL     OW30055   6.700   0.783   5.828
 9719SOL    HW130056   6.676   0.702   5.881
 9719SOL    HW230057   6.674   0.769   5.732
 9720SOL     OW30058   0.460   5.039   2.319
 9720SOL    HW130059   0.502   5.126   2.346
 9720SOL    HW230060   0.526   4.965   2.332
 9721SOL     OW30061   0.286   2.163   0.643
 9721SOL    HW130062   0.291   2.257   0.674
 9721SOL    HW230063   0.378   2.131   0.617
 9722SOL     OW30064   4.305   1.220   4.608
 9722SOL    HW130065   4.218   1.262   4.582
 9722SOL    HW230066   4.378   1.288   4.601
 9723SOL     OW30067   3.070   6.849   3.048
 9723SOL    HW130068   3.066   6.905   2.966
 9723SOL    HW230069   3.117   6.763   3.027
 9724SOL     OW30070   1.692   4.968   0.153
 9724SOL    HW130071   1.610   4.935   0.107
 9724SOL    HW230072   1.668   5.045   0.212
 9725SOL     OW30073   4.964   5.394   5.673
 9725SOL    HW130074   4.940   5.435   5.585
 9725SOL    HW230075   5.062   5.401   5.688
 9726SOL     OW30076   5.057   1.608   3.787
 9726SOL    HW130077   5.028   1.532   3.846
 9726SOL    HW230078   5.119   1.573   3.717
 9727SOL     OW30079   1.010   2.394   0.209
 9727SOL    HW130080   1.077   2.460   0.246
 9727SOL    HW230081   0.978   2.425   0.120
 9728SOL     OW30082   1.732   0.207   5.485
 9728SOL    HW130083   1.755   0.191   5.581
 9728SOL    HW230084   1.780   0.290   5.453
 9729SOL     OW30085   1.303   4.539   3.030
 9729SOL    HW130086   1.357   4.556   2.948
 9729SOL    HW230087   1.225   4.602   3.031
 9730SOL     OW30088   1.952   4.284   3.601
 9730SOL    HW130089   1.906   4.262   3.515
 9730SOL    HW230090   2.048   4.306   3.584
 9731SOL     OW30091   5.297   4.677   0.920
 9731SOL    HW130092   5.332   4.594   0.877
 9731SOL    HW230093   5.220   4.654   0.980
 9732SOL     OW30094   6.830   5.100   2.622
 9732SOL    HW130095   6.885   5.107   2.705
 9732SOL    HW230096   6.891   5.091   2.543
 9733SOL     OW30097   5.155   5.373   0.378
 9733SOL    HW130098   5.062   5.409   0.384
 9733SOL    HW230099   5.212   5.416   0.448
 9734SOL     OW30100   6.332   1.811   0.904
 9734SOL    HW130101   6.400   1.775   0.839
 9734SOL    HW230102   6.363   1.793   0.997
 9735SOL     OW30103   2.101   3.595   3.717
 9735SOL    HW130104   2.105   3.497   3.699
 9735SOL    HW230105   2.083   3.610   3.814
 9736SOL     OW30106   5.994   1.767   6.102
 9736SOL    HW130107   5.910   1.723   6.134
 9736SOL    HW230108   6.067   1.751   6.168
 9737SOL     OW30109   5.780   2.717   3.062
 9737SOL    HW130110   5.722   2.787   3.021
 9737SOL    HW230111   5.725   2.637   3.086
 9738SOL     OW30112   2.354   0.334   0.311
 9738SOL    HW130113   2.302   0.343   0.226
 9738SOL    HW230114   2.442   0.291   0.292
 9739SOL     OW30115   5.667   5.363   1.386
 9739SOL    HW130116   5.733   5.386   1.314
 9739SOL    HW230117   5.704   5.389   1.475
 9740SOL     OW30118   6.986   1.223   3.377
 9740SOL    HW130119   6.979   1.272   3.291
 9740SOL    HW230120   7.009   1.127   3.360
 9741SOL     OW30121   3.836   1.897   2.754
 9741SOL    HW130122   3.744   1.920   2.721
 9741SOL    HW230123   3.846   1.798   2.757
 9742SOL     OW30124   4.651   1.299   0.778
 9742SOL    HW130125   4.746   1.275   0.760
 9742SOL    HW230126   4.607   1.225   0.830
 9743SOL     OW30127   6.564   3.216   4.728
 9743SOL    HW130128   6.480   3.162   4.739
 9743SOL    HW230129   6.639   3.171   4.778
 9744SOL     OW30130   2.182   6.872   1.880
 9744SOL    HW130131   2.145   6.957   1.919
 9744SOL    HW230132   2.167   6.797   1.943
 9745SOL     OW30133   5.398   2.529   6.466
 9745SOL    HW130134   5.434   2.540   6.373
 9745SOL    HW230135   5.321   2.465   6.464
 9746SOL     OW30136   6.188   0.288   5.509
 9746SOL    HW130137   6.147   0.218   5.567
 9746SOL    HW230138   6.209   0.249   5.419
 9747SOL     OW30139   2.637   0.778   1.444
 9747SOL    HW130140   2.551   0.789   1.393
 9747SOL    HW230141   2.708   0.834   1.401
 9748SOL     OW30142   0.225   0.636   3.366
 9748SOL    HW130143   0.223   0.538   3.345
 9748SOL    HW230144   0.132   0.670   3.380
 9749SOL     OW30145   2.406   0.192   4.386
 9749SOL    HW130146   2.401   0.173   4.288
 9749SOL    HW230147   2.344   0.131   4.435
 9750SOL     OW30148   5.976   3.739   3.106
 9750SOL    HW130149   6.016   3.649   3.123
 9750SOL    HW230150   5.880   3.727   3.078
 9751SOL     OW30151   2.285   1.040   0.251
 9751SOL    HW130152   2.228   0.994   0.182
 9751SOL    HW230153   2.274   0.995   0.339
 9752SOL     OW30154   4.135   2.241   4.943
 9752SOL    HW130155   4.111   2.254   4.847
 9752SOL    HW230156   4.177   2.324   4.979
 9753SOL     OW30157   6.818   5.537   6.291
 9753SOL    HW130158   6.817   5.511   6.388
 9753SOL    HW230159   6.800   5.636   6.283
 9754SOL     OW30160   1.914   0.526   0.095
 9754SOL    HW130161   1.945   0.550   0.003
 9754SOL    HW230162   1.882   0.609   0.142
 9755SOL     OW30163   3.529   3.908   4.446
 9755SOL    HW130164   3.588   3.971   4.496
 9755SOL    HW230165   3.464   3.960   4.391
 9756SOL     OW30166   5.578   3.243   0.304
 9756SOL    HW130167   5.676   3.226   0.313
 9756SOL    HW230168   5.537   3.171   0.248
 9757SOL     OW30169   5.610   4.138   4.145
 9757SOL    HW130170   5.522   4.136   4.099
 9757SOL    HW230171   5.684   4.124   4.079
 9758SOL     OW30172   3.021   0.264   6.512
 9758SOL    HW130173   3.061   0.172   6.512
 9758SOL    HW230174   3.048   0.312   6.428
 9759SOL     OW30175   1.354   0.349   0.046
 9759SOL    HW130176   1.419   0.294   0.099
 9759SOL    HW230177   1.362   0.445   0.072
 9760SOL     OW30178   4.926   2.758   5.442
 9760SOL    HW130179   4.883   2.839   5.402
 9760SOL    HW230180   5.003   2.730   5.385
 9761SOL     OW30181   6.720   1.516   2.118
 9761SOL    HW130182   6.753   1.442   2.176
 9761SOL    HW230183   6.629   1.494   2.083
 9762SOL     OW30184   3.256   1.681   4.547
 9762SOL    HW130185   3.192   1.755   4.565
 9762SOL    HW230186   3.350   1.716   4.551
 9763SOL     OW30187   4.813   1.634   2.455
 9763SOL    HW130188   4.857   1.592   2.375
 9763SOL    HW230189   4.880   1.642   2.529
 9764SOL     OW30190   0.322   2.716   3.195
 9764SOL    HW130191   0.235   2.666   3.192
 9764SOL    HW230192   0.397   2.651   3.201
 9765SOL     OW30193   6.748   0.223   3.253
 9765SOL    HW130194   6.816   0.155   3.223
 9765SOL    HW230195   6.706   0.193   3.338
 9766SOL     OW30196   2.765   6.715   2.223
 9766SOL    HW130197   2.674   6.686   2.253
 9766SOL    HW230198   2.816   6.635   2.192
 9767SOL     OW30199   3.879   1.102   5.477
 9767SOL    HW130200   3.841   1.011   5.463
 9767SOL    HW230201   3.978   1.099   5.465
 9768SOL     OW30202   5.665   1.637   2.119
 9768SOL    HW130203   5.695   1.551   2.079
 9768SOL    HW230204   5.678   1.635   2.218
 9769SOL     OW30205   3.828   1.482   3.110
 9769SOL    HW130206   3.886   1.493   3.191
 9769SOL    HW230207   3.748   1.428   3.134
 9770SOL     OW30208   4.452   1.400   6.341
 9770SOL    HW130209   4.375   1.409   6.278
 9770SOL    HW230210   4.491   1.490   6.359
 9771SOL     OW30211   2.863   6.332   0.194
 9771SOL    HW130212   2.905   6.369   0.111
 9771SOL    HW230213   2.933   6.324   0.266
 9772SOL     OW30214   2.092   6.080   1.423
 9772SOL    HW130215   2.012   6.021   1.433
 9772SOL    HW230216   2.133   6.064   1.333
 9773SOL     OW30217   4.644   5.520   3.794
 9773SOL    HW130218   4.674   5.480   3.880
 9773SOL    HW230219   4.721   5.527   3.731
 9774SOL     OW30220   0.476   5.359   1.596
 9774SOL    HW130221   0.481   5.268   1.637
 9774SOL    HW230222   0.536   5.421   1.647
 9775SOL     OW30223   2.242   0.566   3.602
 9775SOL    HW130224   2.244   0.595   3.698
 9775SOL    HW230225   2.334   0.539   3.574
 9776SOL     OW30226   1.031   4.590   4.949
 9776SOL    HW130227   1.019   4.511   5.010
 9776SOL    HW230228   1.100   4.569   4.880
 9777SOL     OW30229   6.428   5.845   6.951
 9777SOL    HW130230   6.362   5.824   6.880
 9777SOL    HW230231   6.492   5.915   6.918
 9778SOL     OW30232   6.923   0.875   4.200
 9778SOL    HW130233   6.912   0.964   4.156
 9778SOL    HW230234   6.884   0.879   4.293
 9779SOL     OW30235   1.239   1.552   4.359
 9779SOL    HW130236   1.151   1.539   4.314
 9779SOL    HW230237   1.310   1.570   4.290
 9780SOL     OW30238   1.835   2.624   1.287
 9780SOL    HW130239   1.899   2.569   1.232
 9780SOL    HW230240   1.759   2.567   1.316
 9781SOL     OW30241   2.015   3.552   4.280
 9781SOL    HW130242   2.035   3.542   4.377
 9781SOL    HW230243   2.016   3.462   4.236
 9782SOL     OW30244   0.212   1.057   1.276
 9782SOL    HW130245   0.228   1.019   1.185
 9782SOL    HW230246   0.299   1.081   1.319
 9783SOL     OW30247   4.019   2.210   3.077
 9783SOL    HW130248   3.930   2.176   3.108
 9783SOL    HW230249   4.043   2.167   2.990
 9784SOL     OW30250   3.152   1.640   4.932
 9784SOL    HW130251   3.103   1.556   4.912
 9784SOL    HW230252   3.120   1.677   5.019
 9785SOL     OW30253   1.151   2.298   6.330
 9785SOL    HW130254   1.056   2.304   6.298
 9785SOL    HW230255   1.153   2.303   6.430
 9786SOL     OW30256   2.368   4.135   0.671
 9786SOL    HW130257   2.422   4.065   0.624
 9786SOL    HW230258   2.287   4.156   0.617
 9787SOL     OW30259   3.758   3.881   2.041
 9787SOL    HW130260   3.744   3.976   2.011
 9787SOL    HW230261   3.838   3.843   1.996
 9788SOL     OW30262   1.103   1.166   3.771
 9788SOL    HW130263   1.107   1.133   3.676
 9788SOL    HW230264   1.046   1.248   3.775
 9789SOL     OW30265   1.838   5.656   0.673
 9789SOL    HW130266   1.845   5.585   0.743
 9789SOL    HW230267   1.921   5.713   0.675
 9790SOL     OW30268   6.588   4.504   6.663
 9790SOL    HW130269   6.666   4.452   6.699
 9790SOL    HW230270   6.544   4.553   6.738
 9791SOL     OW30271   0.543   1.227   1.987
 9791SOL    HW130272   0.476   1.228   1.913
 9791SOL    HW230273   0.631   1.258   1.952
 9792SOL     OW30274   4.086   4.835   0.620
 9792SOL    HW130275   4.132   4.784   0.548
 9792SOL    HW230276   4.141   4.914   0.646
 9793SOL     OW30277   4.442   6.413   3.136
 9793SOL    HW130278   4.446   6.509   3.110
 9793SOL    HW230279   4.408   6.405   3.229
 9794SOL     OW30280   6.987   4.367   0.098
 9794SOL    HW130281   6.914   4.331   0.040
 9794SOL    HW230282   6.952   4.384   0.190
 9795SOL     OW30283   2.266   1.565   4.293
 9795SOL    HW130284   2.243   1.601   4.202
 9795SOL    HW230285   2.260   1.638   4.360
 9796SOL     OW30286   3.401   2.588   1.766
 9796SOL    HW130287   3.315   2.635   1.785
 9796SOL    HW230288   3.477   2.651   1.778
 9797SOL     OW30289   2.150   5.446   6.976
 9797SOL    HW130290   2.121   5.351   6.964
 9797SOL    HW230291   2.113   5.483   0.041
 9798SOL     OW30292   2.537   0.404   1.906
 9798SOL    HW130293   2.501   0.322   1.862
 9798SOL    HW230294   2.521   0.483   1.847
 9799SOL     OW30295   2.965   3.269   4.815
 9799SOL    HW130296   3.045   3.226   4.858
 9799SOL    HW230297   2.886   3.208   4.823
 9800SOL     OW30298   3.863   5.606   4.820
 9800SOL    HW130299   3.882   5.525   4.764
 9800SOL    HW230300   3.941   5.625   4.878
 9801SOL     OW30301   4.622   4.216   0.144
 9801SOL    HW130302   4.577   4.306   0.146
 9801SOL    HW230303   4.642   4.191   0.050
 9802SOL     OW30304   0.100   3.939   1.312
 9802SOL    HW130305   0.103   3.972   1.406
 9802SOL    HW230306   0.005   3.929   1.283
 9803SOL     OW30307   0.948   2.314   6.796
 9803SOL    HW130308   0.961   2.358   6.884
 9803SOL    HW230309   1.004   2.359   6.727
 9804SOL     OW30310   1.835   6.274   2.695
 9804SOL    HW130311   1.771   6.244   2.624
 9804SOL    HW230312   1.871   6.364   2.671
 9805SOL     OW30313   1.506   6.598   3.902
 9805SOL    HW130314   1.526   6.659   3.825
 9805SOL    HW230315   1.588   6.587   3.958
 9806SOL     OW30316   1.312   0.684   6.886
 9806SOL    HW130317   1.323   0.648   6.978
 9806SOL    HW230318   1.236   0.749   6.884
 9807SOL     OW30319   3.056   4.472   0.058
 9807SOL    HW130320   3.014   4.546   0.006
 9807SOL    HW230321   3.150   4.497   0.082
 9808SOL     OW30322   4.007   0.338   5.327
 9808SOL    HW130323   3.918   0.344   5.283
 9808SOL    HW230324   3.995   0.332   5.426
 9809SOL     OW30325   1.493   2.562   6.087
 9809SOL    HW130326   1.413   2.504   6.102
 9809SOL    HW230327   1.544   2.529   6.008
 9810SOL     OW30328   2.241   2.749   3.760
 9810SOL    HW130329   2.328   2.724   3.801
 9810SOL    HW230330   2.168   2.693   3.799
 9811SOL     OW30331   5.348   4.626   3.215
 9811SOL    HW130332   5.326   4.652   3.309
 9811SOL    HW230333   5.434   4.573   3.214
 9812SOL     OW30334   3.431   2.410   5.817
 9812SOL    HW130335   3.436   2.334   5.882
 9812SOL    HW230336   3.347   2.463   5.835
 9813SOL     OW30337   5.516   1.402   0.755
 9813SOL    HW130338   5.423   1.370   0.771
 9813SOL    HW230339   5.516   1.501   0.739
 9814SOL     OW30340   0.079   0.031   0.193
 9814SOL    HW130341   0.038   0.059   0.280
 9814SOL    HW230342   0.176   0.009   0.208
 9815SOL     OW30343   5.360   4.376   3.424
 9815SOL    HW130344   5.302   4.349   3.348
 9815SOL    HW230345   5.303   4.403   3.502
 9816SOL     OW30346   0.441   1.286   6.019
 9816SOL    HW130347   0.451   1.377   5.979
 9816SOL    HW230348   0.382   1.291   6.100
 9817SOL     OW30349   2.733   0.425   3.273
 9817SOL    HW130350   2.710   0.335   3.311
 9817SOL    HW230351   2.816   0.417   3.218
 9818SOL     OW30352   1.214   0.666   4.624
 9818SOL    HW130353   1.284   0.602   4.594
 9818SOL    HW230354   1.153   0.621   4.689
 9819SOL     OW30355   4.918   3.114   4.101
 9819SOL    HW130356   4.896   3.189   4.163
 9819SOL    HW230357   4.954   3.036   4.154
 9820SOL     OW30358   4.308   3.417   6.612
 9820SOL    HW130359   4.310   3.334   6.557
 9820SOL    HW230360   4.364   3.403   6.694
 9821SOL     OW30361   5.135   0.804   0.061
 9821SOL    HW130362   5.163   0.755   6.999
 9821SOL    HW230363   5.195   0.779   0.137
 9822SOL     OW30364   2.945   6.034   3.577
 9822SOL    HW130365   2.882   6.102   3.540
 9822SOL    HW230366   2.894   5.969   3.633
 9823SOL     OW30367   2.616   1.275   6.797
 9823SOL    HW130368   2.618   1.273   6.697
 9823SOL    HW230369   2.663   1.357   6.830
 9824SOL     OW30370   1.826   4.636   4.464
 9824SOL    HW130371   1.758   4.640   4.391
 9824SOL    HW230372   1.908   4.588   4.432
 9825SOL     OW30373   5.134   5.725   4.257
 9825SOL    HW130374   5.139   5.649   4.321
 9825SOL    HW230375   5.038   5.752   4.244
 9826SOL     OW30376   4.601   5.324   5.500
 9826SOL    HW130377   4.631   5.409   5.542
 9826SOL    HW230378   4.568   5.342   5.408
 9827SOL     OW30379   1.794   3.947   3.904
 9827SOL    HW130380   1.824   4.016   3.970
 9827SOL    HW230381   1.834   3.967   3.815
 9828SOL     OW30382   2.090   2.068   5.309
 9828SOL    HW130383   2.153   2.084   5.385
 9828SOL    HW230384   2.025   2.143   5.304
 9829SOL     OW30385   4.570   5.447   6.322
 9829SOL    HW130386   4.625   5.442   6.238
 9829SOL    HW230387   4.615   5.506   6.388
 9830SOL     OW30388   4.907   2.427   2.071
 9830SOL    HW130389   4.985   2.469   2.024
 9830SOL    HW230390   4.831   2.493   2.073
 9831SOL     OW30391   1.611   5.074   1.977
 9831SOL    HW130392   1.644   5.165   2.005
 9831SOL    HW230393   1.657   5.004   2.032
 9832SOL     OW30394   4.825   5.611   2.307
 9832SOL    HW130395   4.749   5.645   2.252
 9832SOL    HW230396   4.845   5.517   2.282
 9833SOL     OW30397   3.202   3.320   4.579
 9833SOL    HW130398   3.113   3.313   4.624
 9833SOL    HW230399   3.259   3.241   4.605
 9834SOL     OW30400   2.392   4.196   5.295
 9834SOL    HW130401   2.471   4.208   5.356
 9834SOL    HW230402   2.407   4.117   5.236
 9835SOL     OW30403   4.363   3.560   5.246
 9835SOL    HW130404   4.313   3.499   5.184
 9835SOL    HW230405   4.459   3.564   5.217
 9836SOL     OW30406   6.686   4.104   3.496
 9836SOL    HW130407   6.661   4.048   3.575
 9836SOL    HW230408   6.776   4.145   3.511
 9837SOL     OW30409   3.835   0.208   2.323
 9837SOL    HW130410   3.753   0.256   2.356
 9837SOL    HW230411   3.879   0.161   2.399
 9838SOL     OW30412   1.642   6.795   0.560
 9838SOL    HW130413   1.664   6.735   0.636
 9838SOL    HW230414   1.544   6.815   0.559
 9839SOL     OW30415   5.107   0.157   3.763
 9839SOL    HW130416   5.087   0.254   3.752
 9839SOL    HW230417   5.048   0.104   3.701
 9840SOL     OW30418   5.349   1.642   0.936
 9840SOL    HW130419   5.392   1.594   1.013
 9840SOL    HW230420   5.411   1.713   0.903
 9841SOL     OW30421   1.581   4.305   5.042
 9841SOL    HW130422   1.544   4.213   5.032
 9841SOL    HW230423   1.507   4.369   5.064
 9842SOL     OW30424   3.214   2.942   1.926
 9842SOL    HW130425   3.272   2.994   1.863
 9842SOL    HW230426   3.120   2.974   1.918
 9843SOL     OW30427   6.559   0.885   1.933
 9843SOL    HW130428   6.553   0.983   1.948
 9843SOL    HW230429   6.584   0.839   2.018
 9844SOL     OW30430   6.662   1.020   3.064
 9844SOL    HW130431   6.674   1.088   2.991
 9844SOL    HW230432   6.679   1.063   3.153
 9845SOL     OW30433   1.898   2.895   3.483
 9845SOL    HW130434   1.826   2.837   3.522
 9845SOL    HW230435   1.955   2.840   3.423
 9846SOL     OW30436   3.401   2.377   1.341
 9846SOL    HW130437   3.426   2.428   1.423
 9846SOL    HW230438   3.304   2.352   1.345
 9847SOL     OW30439   3.755   2.925   3.526
 9847SOL    HW130440   3.718   2.834   3.506
 9847SOL    HW230441   3.737   2.948   3.622
 9848SOL     OW30442   4.279   3.041   5.455
 9848SOL    HW130443   4.346   3.094   5.505
 9848SOL    HW230444   4.245   2.966   5.514
 9849SOL     OW30445   1.018   0.084   5.677
 9849SOL    HW130446   0.941   0.032   5.713
 9849SOL    HW230447   0.984   0.159   5.621
 9850SOL     OW30448   6.380   6.953   3.712
 9850SOL    HW130449   6.443   0.003   3.744
 9850SOL    HW230450   6.288   6.991   3.705
 9851SOL     OW30451   0.018   0.233   4.590
 9851SOL    HW130452   7.020   0.330   4.573
 9851SOL    HW230453   7.006   0.179   4.512
 9852SOL     OW30454   3.054   1.524   4.120
 9852SOL    HW130455   3.014   1.572   4.041
 9852SOL    HW230456   3.152   1.542   4.124
 9853SOL     OW30457   5.242   3.987   4.801
 9853SOL    HW130458   5.310   4.060   4.792
 9853SOL    HW230459   5.201   3.969   4.711
 9854SOL     OW30460   6.739   5.962   4.742
 9854SOL    HW130461   6.738   6.047   4.688
 9854SOL    HW230462   6.776   5.981   4.833
 9855SOL     OW30463   1.996   3.569   1.249
 9855SOL    HW130464   1.973   3.665   1.267
 9855SOL    HW230465   2.046   3.531   1.327
 9856SOL     OW30466   4.914   4.404   4.489
 9856SOL    HW130467   4.827   4.361   4.511
 9856SOL    HW230468   4.903   4.503   4.490
 9857SOL     OW30469   5.151   3.409   2.635
 9857SOL    HW130470   5.217   3.405   2.710
 9857SOL    HW230471   5.118   3.503   2.625
 9858SOL     OW30472   6.722   0.076   1.400
 9858SOL    HW130473   6.762   0.112   1.316
 9858SOL    HW230474   6.758   0.128   1.478
 9859SOL     OW30475   6.472   6.135   2.562
 9859SOL    HW130476   6.515   6.153   2.651
 9859SOL    HW230477   6.393   6.076   2.575
 9860SOL     OW30478   1.904   2.473   3.443
 9860SOL    HW130479   1.887   2.378   3.417
 9860SOL    HW230480   1.819   2.525   3.437
 9861SOL     OW30481   2.567   0.549   3.534
 9861SOL    HW130482   2.632   0.530   3.461
 9861SOL    HW230483   2.582   0.642   3.569
 9862SOL     OW30484   3.340   2.850   6.922
 9862SOL    HW130485   3.294   2.936   6.900
 9862SOL    HW230486   3.288   2.773   6.883
 9863SOL     OW30487   3.423   6.584   2.346
 9863SOL    HW130488   3.475   6.608   2.264
 9863SOL    HW230489   3.342   6.641   2.352
 9864SOL     OW30490   3.329   0.014   3.851
 9864SOL    HW130491   3.268   0.047   3.779
 9864SOL    HW230492   3.299   0.051   3.939
 9865SOL     OW30493   1.529   6.801   4.477
 9865SOL    HW130494   1.584   6.869   4.524
 9865SOL    HW230495   1.587   6.744   4.420
 9866SOL     OW30496   5.129   4.175   5.940
 9866SOL    HW130497   5.119   4.124   5.855
 9866SOL    HW230498   5.226   4.191   5.958
 9867SOL     OW30499   6.868   1.863   1.083
 9867SOL    HW130500   6.834   1.769   1.088
 9867SOL    HW230501   6.888   1.886   0.987
 9868SOL     OW30502   0.329   3.438   4.761
 9868SOL    HW130503   0.374   3.511   4.811
 9868SOL    HW230504   0.398   3.381   4.716
 9869SOL     OW30505   0.446   2.318   1.353
 9869SOL    HW130506   0.470   2.227   1.319
 9869SOL    HW230507   0.399   2.309   1.441
 9870SOL     OW30508   4.015   5.727   2.387
 9870SOL    HW130509   4.044   5.808   2.336
 9870SOL    HW230510   4.078   5.652   2.368
 9871SOL     OW30511   6.465   4.634   5.802
 9871SOL    HW130512   6.513   4.547   5.787
 9871SOL    HW230513   6.416   4.660   5.719
 9872SOL     OW30514   3.073   5.294   5.119
 9872SOL    HW130515   3.077   5.236   5.038
 9872SOL    HW230516   3.165   5.326   5.141
 9873SOL     OW30517   2.298   2.447   0.733
 9873SOL    HW130518   2.375   2.416   0.790
 9873SOL    HW230519   2.227   2.377   0.733
 9874SOL     OW30520   5.546   3.234   4.942
 9874SOL    HW130521   5.549   3.321   4.992
 9874SOL    HW230522   5.503   3.248   4.853
 9875SOL     OW30523   5.937   5.617   1.809
 9875SOL    HW130524   5.988   5.635   1.893
 9875SOL    HW230525   5.882   5.534   1.820
 9876SOL     OW30526   5.599   0.770   3.859
 9876SOL    HW130527   5.584   0.865   3.887
 9876SOL    HW230528   5.547   0.709   3.917
 9877SOL     OW30529   6.477   4.635   4.490
 9877SOL    HW130530   6.455   4.696   4.566
 9877SOL    HW230531   6.493   4.689   4.407
 9878SOL     OW30532   2.752   4.083   5.659
 9878SOL    HW130533   2.802   4.161   5.622
 9878SOL    HW230534   2.806   4.040   5.732
 9879SOL     OW30535   5.283   5.731   5.267
 9879SOL    HW130536   5.252   5.664   5.334
 9879SOL    HW230537   5.373   5.704   5.232
 9880SOL     OW30538   3.344   1.020   0.232
 9880SOL    HW130539   3.265   1.065   0.192
 9880SOL    HW230540   3.318   0.975   0.317
 9881SOL     OW30541   0.452   1.801   5.241
 9881SOL    HW130542   0.547   1.816   5.215
 9881SOL    HW230543   0.400   1.770   5.162
 9882SOL     OW30544   1.756   3.557   5.386
 9882SOL    HW130545   1.680   3.576   5.325
 9882SOL    HW230546   1.800   3.471   5.359
 9883SOL     OW30547   1.482   6.206   1.096
 9883SOL    HW130548   1.567   6.221   1.148
 9883SOL    HW230549   1.455   6.291   1.052
 9884SOL     OW30550   4.809   1.696   1.161
 9884SOL    HW130551   4.848   1.712   1.070
 9884SOL    HW230552   4.709   1.693   1.154
 9885SOL     OW30553   6.797   2.042   4.712
 9885SOL    HW130554   6.806   2.080   4.620
 9885SOL    HW230555   6.877   2.066   4.766
 9886SOL     OW30556   1.110   5.289   1.832
 9886SOL    HW130557   1.198   5.336   1.830
 9886SOL    HW230558   1.090   5.253   1.741
 9887SOL     OW30559   3.917   0.176   0.219
 9887SOL    HW130560   3.931   0.077   0.231
 9887SOL    HW230561   3.944   0.202   0.126
 9888SOL     OW30562   5.232   5.330   2.840
 9888SOL    HW130563   5.152   5.287   2.799
 9888SOL    HW230564   5.240   5.424   2.806
 9889SOL     OW30565   6.143   4.684   0.951
 9889SOL    HW130566   6.076   4.750   0.985
 9889SOL    HW230567   6.215   4.671   1.020
 9890SOL     OW30568   0.521   2.141   1.012
 9890SOL    HW130569   0.580   2.209   0.970
 9890SOL    HW230570   0.571   2.094   1.085
 9891SOL     OW30571   6.181   3.343   1.484
 9891SOL    HW130572   6.257   3.279   1.470
 9891SOL    HW230573   6.095   3.293   1.483
 9892SOL     OW30574   1.038   5.105   2.611
 9892SOL    HW130575   1.100   5.110   2.533
 9892SOL    HW230576   1.037   5.192   2.660
 9893SOL     OW30577   6.605   0.250   2.417
 9893SOL    HW130578   6.667   0.311   2.367
 9893SOL    HW230579   6.626   0.254   2.514
 9894SOL     OW30580   3.252   1.984   6.817
 9894SOL    HW130581   3.279   2.070   6.774
 9894SOL    HW230582   3.186   2.002   6.889
 9895SOL     OW30583   5.156   3.435   5.403
 9895SOL    HW130584   5.241   3.399   5.363
 9895SOL    HW230585   5.085   3.439   5.333
 9896SOL     OW30586   5.188   1.139   0.494
 9896SOL    HW130587   5.174   1.211   0.563
 9896SOL    HW230588   5.152   1.170   0.406
 9897SOL     OW30589   5.377   6.967   2.178
 9897SOL    HW130590   5.411   0.041   2.174
 9897SOL    HW230591   5.356   6.944   2.274
 9898SOL     OW30592   0.895   4.506   5.837
 9898SOL    HW130593   0.946   4.590   5.857
 9898SOL    HW230594   0.820   4.527   5.775
 9899SOL     OW30595   0.575   5.290   2.401
 9899SOL    HW130596   0.628   5.255   2.478
 9899SOL    HW230597   0.591   5.388   2.391
 9900SOL     OW30598   1.853   3.336   2.297
 9900SOL    HW130599   1.791   3.315   2.222
 9900SOL    HW230600   1.947   3.341   2.262
 9901SOL     OW30601   2.681   0.746   6.993
 9901SOL    HW130602   2.670   0.778   0.066
 9901SOL    HW230603   2.620   0.798   6.932
 9902SOL     OW30604   4.005   4.289   1.035
 9902SOL    HW130605   4.102   4.292   1.062
 9902SOL    HW230606   3.977   4.194   1.020
 9903SOL     OW30607   5.476   2.031   1.810
 9903SOL    HW130608   5.438   1.939   1.797
 9903SOL    HW230609   5.411   2.087   1.862
 9904SOL     OW30610   0.737   3.293   6.235
 9904SOL    HW130611   0.808   3.359   6.260
 9904SOL    HW230612   0.666   3.339   6.181
 9905SOL     OW30613   1.942   0.456   6.212
 9905SOL    HW130614   1.938   0.554   6.195
 9905SOL    HW230615   1.927   0.438   6.309
 9906SOL     OW30616   1.609   3.624   0.521
 9906SOL    HW130617   1.546   3.661   0.589
 9906SOL    HW230618   1.645   3.537   0.553
 9907SOL     OW30619   1.841   1.006   2.129
 9907SOL    HW130620   1.928   0.957   2.129
 9907SOL    HW230621   1.814   1.027   2.223
 9908SOL     OW30622   0.689   2.694   5.850
 9908SOL    HW130623   0.745   2.706   5.768
 9908SOL    HW230624   0.644   2.781   5.872
 9909SOL     OW30625   3.820   0.563   2.648
 9909SOL    HW130626   3.862   0.497   2.711
 9909SOL    HW230627   3.729   0.531   2.622
 9910SOL     OW30628   1.808   5.137   1.577
 9910SOL    HW130629   1.797   5.225   1.623
 9910SOL    HW230630   1.897   5.097   1.601
 9911SOL     OW30631   3.730   5.915   2.282
 9911SOL    HW130632   3.646   5.921   2.228
 9911SOL    HW230633   3.769   5.823   2.272
 9912SOL     OW30634   4.543   1.117   1.793
 9912SOL    HW130635   4.527   1.195   1.732
 9912SOL    HW230636   4.608   1.143   1.864
 9913SOL     OW30637   5.986   3.067   1.127
 9913SOL    HW130638   5.893   3.071   1.090
 9913SOL    HW230639   6.039   3.144   1.092
 9914SOL     OW30640   6.913   6.835   5.165
 9914SOL    HW130641   6.854   6.754   5.172
 9914SOL    HW230642   6.962   6.847   5.251
 9915SOL     OW30643   5.777   1.996   3.226
 9915SOL    HW130644   5.812   1.996   3.132
 9915SOL    HW230645   5.852   2.005   3.290
 9916SOL     OW30646   1.852   2.112   4.018
 9916SOL    HW130647   1.899   2.042   4.072
 9916SOL    HW230648   1.810   2.068   3.938
 9917SOL     OW30649   3.539   3.903   5.252
 9917SOL    HW130650   3.609   3.841   5.217
 9917SOL    HW230651   3.458   3.898   5.193
 9918SOL     OW30652   1.155   3.075   2.261
 9918SOL    HW130653   1.199   3.006   2.203
 9918SOL    HW230654   1.152   3.162   2.212
 9919SOL     OW30655   2.131   5.802   2.571
 9919SOL    HW130656   2.228   5.825   2.568
 9919SOL    HW230657   2.077   5.881   2.542
 9920SOL     OW30658   4.184   0.676   2.764
 9920SOL    HW130659   4.111   0.739   2.737
 9920SOL    HW230660   4.205   0.614   2.688
 9921SOL     OW30661   4.509   0.171   4.973
 9921SOL    HW130662   4.414   0.191   4.999
 9921SOL    HW230663   4.571   0.229   5.027
 9922SOL     OW30664   4.693   4.435   1.204
 9922SOL    HW130665   4.615   4.452   1.145
 9922SOL    HW230666   4.747   4.359   1.168
 9923SOL     OW30667   6.180   3.248   0.406
 9923SOL    HW130668   6.247   3.240   0.332
 9923SOL    HW230669   6.137   3.338   0.403
 9924SOL     OW30670   5.081   1.869   2.723
 9924SOL    HW130671   5.069   1.913   2.634
 9924SOL    HW230672   5.021   1.912   2.790
 9925SOL     OW30673   1.153   5.000   3.707
 9925SOL    HW130674   1.100   5.020   3.789
 9925SOL    HW230675   1.195   5.085   3.674
 9926SOL     OW30676   4.390   2.887   0.619
 9926SOL    HW130677   4.485   2.858   0.607
 9926SOL    HW230678   4.329   2.810   0.600
 9927SOL     OW30679   1.264   1.138   0.993
 9927SOL    HW130680   1.182   1.138   0.937
 9927SOL    HW230681   1.290   1.044   1.015
 9928SOL     OW30682   5.463   3.712   3.000
 9928SOL    HW130683   5.383   3.671   3.043
 9928SOL    HW230684   5.442   3.735   2.905
 9929SOL     OW30685   3.147   3.995   4.738
 9929SOL    HW130686   3.196   4.071   4.696
 9929SOL    HW230687   3.140   4.010   4.837
 9930SOL     OW30688   0.787   0.298   6.616
 9930SOL    HW130689   0.725   0.375   6.605
 9930SOL    HW230690   0.878   0.331   6.640
 9931SOL     OW30691   0.356   5.406   3.822
 9931SOL    HW130692   0.304   5.411   3.907
 9931SOL    HW230693   0.315   5.465   3.753
 9932SOL     OW30694   2.896   2.185   6.086
 9932SOL    HW130695   2.920   2.195   5.990
 9932SOL    HW230696   2.952   2.247   6.141
 9933SOL     OW30697   1.578   0.073   3.931
 9933SOL    HW130698   1.650   0.018   3.974
 9933SOL    HW230699   1.561   0.039   3.839
 9934SOL     OW30700   6.280   1.800   6.547
 9934SOL    HW130701   6.346   1.742   6.596
 9934SOL    HW230702   6.326   1.883   6.516
 9935SOL     OW30703   3.061   0.103   0.951
 9935SOL    HW130704   3.003   0.171   0.995
 9935SOL    HW230705   3.120   0.060   1.019
 9936SOL     OW30706   6.180   4.928   0.762
 9936SOL    HW130707   6.185   4.872   0.845
 9936SOL    HW230708   6.116   4.886   0.697
 9937SOL     OW30709   0.800   1.420   2.137
 9937SOL    HW130710   0.812   1.351   2.066
 9937SOL    HW230711   0.889   1.444   2.175
 9938SOL     OW30712   5.506   6.278   4.304
 9938SOL    HW130713   5.444   6.274   4.382
 9938SOL    HW230714   5.465   6.228   4.227
 9939SOL     OW30715   2.944   3.258   0.641
 9939SOL    HW130716   3.033   3.296   0.618
 9939SOL    HW230717   2.922   3.278   0.737
 9940SOL     OW30718   1.545   0.448   2.188
 9940SOL    HW130719   1.537   0.371   2.126
 9940SOL    HW230720   1.576   0.529   2.138
 9941SOL     OW30721   3.171   5.080   5.938
 9941SOL    HW130722   3.121   5.064   5.853
 9941SOL    HW230723   3.221   4.997   5.964
 9942SOL     OW30724   3.799   5.578   2.301
 9942SOL    HW130725   3.860   5.646   2.341
 9942SOL    HW230726   3.829   5.557   2.208
 9943SOL     OW30727   1.071   4.286   6.550
 9943SOL    HW130728   1.115   4.374   6.533
 9943SOL    HW230729   0.995   4.274   6.486
 9944SOL     OW30730   0.966   4.704   6.285
 9944SOL    HW130731   1.029   4.632   6.313
 9944SOL    HW230732   0.874   4.683   6.317
 9945SOL     OW30733   4.863   5.261   6.830
 9945SOL    HW130734   4.795   5.325   6.864
 9945SOL    HW230735   4.947   5.269   6.885
 9946SOL     OW30736   6.116   0.127   3.238
 9946SOL    HW130737   6.165   0.202   3.283
 9946SOL    HW230738   6.093   0.155   3.144
 9947SOL     OW30739   2.872   2.265   4.880
 9947SOL    HW130740   2.953   2.245   4.935
 9947SOL    HW230741   2.807   2.317   4.935
 9948SOL     OW30742   6.190   5.923   4.758
 9948SOL    HW130743   6.219   6.010   4.720
 9948SOL    HW230744   6.098   5.901   4.726
 9949SOL     OW30745   0.270   4.691   3.734
 9949SOL    HW130746   0.204   4.744   3.787
 9949SOL    HW230747   0.299   4.612   3.787
 9950SOL     OW30748   6.100   6.040   6.837
 9950SOL    HW130749   6.163   6.105   6.796
 9950SOL    HW230750   6.133   5.947   6.820
 9951SOL     OW30751   0.805   2.476   3.324
 9951SOL    HW130752   0.794   2.541   3.249
 9951SOL    HW230753   0.769   2.387   3.297
 9952SOL     OW30754   2.240   3.713   1.114
 9952SOL    HW130755   2.213   3.790   1.057
 9952SOL    HW230756   2.161   3.653   1.129
 9953SOL     OW30757   5.921   2.093   3.975
 9953SOL    HW130758   5.983   2.099   4.054
 9953SOL    HW230759   5.944   2.164   3.909
 9954SOL     OW30760   1.273   6.781   5.034
 9954SOL    HW130761   1.312   6.700   4.989
 9954SOL    HW230762   1.288   6.775   5.133
 9955SOL     OW30763   3.919   3.560   6.376
 9955SOL    HW130764   3.960   3.594   6.292
 9955SOL    HW230765   3.992   3.541   6.443
 9956SOL     OW30766   0.686   5.089   3.787
 9956SOL    HW130767   0.750   5.038   3.846
 9956SOL    HW230768   0.610   5.029   3.761
 9957SOL     OW30769   5.942   0.538   1.968
 9957SOL    HW130770   5.865   0.539   2.031
 9957SOL    HW230771   6.027   0.527   2.019
 9958SOL     OW30772   2.691   6.553   6.842
 9958SOL    HW130773   2.708   6.527   6.747
 9958SOL    HW230774   2.766   6.610   6.875
 9959SOL     OW30775   4.134   3.588   3.590
 9959SOL    HW130776   4.230   3.558   3.588
 9959SOL    HW230777   4.110   3.628   3.502
 9960SOL     OW30778   0.904   6.736   2.159
 9960SOL    HW130779   0.809   6.712   2.179
 9960SOL    HW230780   0.965   6.688   2.223
 9961SOL     OW30781   1.257   5.265   3.643
 9961SOL    HW130782   1.300   5.245   3.555
 9961SOL    HW230783   1.316   5.327   3.695
 9962SOL     OW30784   4.286   0.531   2.537
 9962SOL    HW130785   4.291   0.618   2.487
 9962SOL    HW230786   4.378   0.497   2.554
 9963SOL     OW30787   2.247   2.795   5.715
 9963SOL    HW130788   2.304   2.723   5.757
 9963SOL    HW230789   2.271   2.805   5.619
 9964SOL     OW30790   4.379   5.235   5.979
 9964SOL    HW130791   4.421   5.279   6.059
 9964SOL    HW230792   4.394   5.136   5.984
 9965SOL     OW30793   3.655   4.740   5.501
 9965SOL    HW130794   3.596   4.802   5.451
 9965SOL    HW230795   3.727   4.792   5.547
 9966SOL     OW30796   2.554   5.786   2.599
 9966SOL    HW130797   2.494   5.796   2.679
 9966SOL    HW230798   2.548   5.868   2.543
 9967SOL     OW30799   5.082   5.561   2.130
 9967SOL    HW130800   5.131   5.482   2.093
 9967SOL    HW230801   4.983   5.548   2.117
 9968SOL     OW30802   3.392   5.579   6.661
 9968SOL    HW130803   3.412   5.554   6.566
 9968SOL    HW230804   3.466   5.548   6.720
 9969SOL     OW30805   0.732   3.082   4.074
 9969SOL    HW130806   0.785   3.079   4.159
 9969SOL    HW230807   0.734   3.174   4.037
 9970SOL     OW30808   6.481   4.505   2.277
 9970SOL    HW130809   6.471   4.559   2.361
 9970SOL    HW230810   6.526   4.560   2.207
 9971SOL     OW30811   2.529   4.245   0.374
 9971SOL    HW130812   2.604   4.220   0.314
 9971SOL    HW230813   2.477   4.320   0.334
 9972SOL     OW30814   3.675   4.678   0.133
 9972SOL    HW130815   3.580   4.663   0.162
 9972SOL    HW230816   3.677   4.701   0.036
 9973SOL     OW30817   3.802   1.891   5.073
 9973SOL    HW130818   3.745   1.888   5.154
 9973SOL    HW230819   3.824   1.986   5.051
 9974SOL     OW30820   6.662   3.465   3.206
 9974SOL    HW130821   6.745   3.451   3.260
 9974SOL    HW230822   6.583   3.432   3.257
 9975SOL     OW30823   0.025   4.578   6.959
 9975SOL    HW130824   0.024   4.498   7.018
 9975SOL    HW230825   6.952   4.610   6.943
 9976SOL     OW30826   6.310   5.544   5.111
 9976SOL    HW130827   6.300   5.476   5.184
 9976SOL    HW230828   6.401   5.584   5.115
 9977SOL     OW30829   6.622   5.392   5.803
 9977SOL    HW130830   6.666   5.348   5.725
 9977SOL    HW230831   6.667   5.364   5.888
 9978SOL     OW30832   6.255   2.036   4.586
 9978SOL    HW130833   6.221   1.961   4.530
 9978SOL    HW230834   6.353   2.025   4.602
 9979SOL     OW30835   6.439   4.706   6.255
 9979SOL    HW130836   6.395   4.636   6.199
 9979SOL    HW230837   6.489   4.769   6.196
 9980SOL     OW30838   1.474   1.079   6.518
 9980SOL    HW130839   1.517   1.155   6.469
 9980SOL    HW230840   1.388   1.055   6.473
 9981SOL     OW30841   2.495   2.103   1.333
 9981SOL    HW130842   2.557   2.036   1.293
 9981SOL    HW230843   2.421   2.056   1.381
 9982SOL     OW30844   0.910   2.108   2.900
 9982SOL    HW130845   0.904   2.181   2.832
 9982SOL    HW230846   0.840   2.040   2.882
 9983SOL     OW30847   1.048   1.632   1.324
 9983SOL    HW130848   0.951   1.649   1.304
 9983SOL    HW230849   1.100   1.632   1.239
 9984SOL     OW30850   0.903   0.473   0.825
 9984SOL    HW130851   0.853   0.542   0.772
 9984SOL    HW230852   0.870   0.472   0.919
 9985SOL     OW30853   3.416   0.352   1.321
 9985SOL    HW130854   3.456   0.443   1.318
 9985SOL    HW230855   3.414   0.312   1.229
 9986SOL     OW30856   4.848   4.346   6.581
 9986SOL    HW130857   4.852   4.332   6.680
 9986SOL    HW230858   4.779   4.415   6.560
 9987SOL     OW30859   5.432   2.145   2.668
 9987SOL    HW130860   5.491   2.224   2.649
 9987SOL    HW230861   5.355   2.145   2.603
 9988SOL     OW30862   0.192   5.685   4.863
 9988SOL    HW130863   0.175   5.609   4.925
 9988SOL    HW230864   0.104   5.721   4.831
 9989SOL     OW30865   5.256   3.619   3.130
 9989SOL    HW130866   5.246   3.547   3.199
 9989SOL    HW230867   5.170   3.630   3.081
 9990SOL     OW30868   2.253   6.799   3.370
 9990SOL    HW130869   2.233   6.891   3.403
 9990SOL    HW230870   2.294   6.745   3.443
 9991SOL     OW30871   1.262   2.980   4.561
 9991SOL    HW130872   1.250   2.934   4.474
 9991SOL    HW230873   1.314   2.920   4.623
 9992SOL     OW30874   4.645   3.540   0.447
 9992SOL    HW130875   4.675   3.516   0.354
 9992SOL    HW230876   4.720   3.528   0.511
 9993SOL     OW30877   4.693   6.504   2.720
 9993SOL    HW130878   4.643   6.419   2.733
 9993SOL    HW230879   4.663   6.548   2.635
 9994SOL     OW30880   6.737   4.036   4.296
 9994SOL    HW130881   6.820   4.085   4.272
 9994SOL    HW230882   6.657   4.086   4.263
 9995SOL     OW30883   3.124   0.104   3.246
 9995SOL    HW130884   3.184   0.047   3.190
 9995SOL    HW230885   3.157   0.198   3.245
 9996SOL     OW30886   3.004   2.088   1.335
 9996SOL    HW130887   2.976   2.097   1.430
 9996SOL    HW230888   3.066   2.010   1.325
 9997SOL     OW30889   4.341   1.774   1.076
 9997SOL    HW130890   4.344   1.700   1.143
 9997SOL    HW230891   4.408   1.844   1.101
 9998SOL     OW30892   6.537   3.737   2.387
 9998SOL    HW130893   6.492   3.721   2.299
 9998SOL    HW230894   6.636   3.738   2.375
 9999SOL     OW30895   6.114   4.711   4.504
 9999SOL    HW130896   6.196   4.738   4.554
 9999SOL    HW230897   6.131   4.626   4.453
10000SOL     OW30898   6.306   2.107   6.487
10000SOL    HW130899   6.281   2.187   6.433
10000SOL    HW230900   6.239   2.094   6.561
10001SOL     OW30901   5.249   0.967   1.529
10001SOL    HW130902   5.164   0.931   1.569
10001SOL    HW230903   5.327   0.933   1.581
10002SOL     OW30904   1.587   0.828   1.362
10002SOL    HW130905   1.667   0.888   1.361
10002SOL    HW230906   1.504   0.882   1.375
10003SOL     OW30907   3.851   2.197   3.553
10003SOL    HW130908   3.951   2.206   3.550
10003SOL    HW230909   3.812   2.218   3.464
10004SOL     OW30910   5.285   2.989   4.614
10004SOL    HW130911   5.238   2.901   4.628
10004SOL    HW230912   5.245   3.058   4.675
10005SOL     OW30913   4.814   5.681   3.257
10005SOL    HW130914   4.871   5.737   3.198
10005SOL    HW230915   4.790   5.732   3.339
10006SOL     OW30916   5.503   1.129   4.435
10006SOL    HW130917   5.459   1.043   4.459
10006SOL    HW230918   5.439   1.187   4.385
10007SOL     OW30919   0.806   4.392   4.897
10007SOL    HW130920   0.765   4.305   4.870
10007SOL    HW230921   0.803   4.400   4.997
10008SOL     OW30922   4.061   1.515   3.908
10008SOL    HW130923   4.127   1.470   3.848
10008SOL    HW230924   4.107   1.545   3.991
10009SOL     OW30925   2.112   3.507   1.476
10009SOL    HW130926   2.168   3.546   1.549
10009SOL    HW230927   2.030   3.466   1.515
10010SOL     OW30928   2.042   6.719   0.405
10010SOL    HW130929   2.123   6.687   0.453
10010SOL    HW230930   2.049   6.817   0.387
10011SOL     OW30931   0.510   2.552   5.216
10011SOL    HW130932   0.606   2.550   5.244
10011SOL    HW230933   0.485   2.644   5.188
10012SOL     OW30934   4.974   6.680   3.004
10012SOL    HW130935   5.002   6.693   3.099
10012SOL    HW230936   4.942   6.767   2.966
10013SOL     OW30937   2.321   1.729   4.498
10013SOL    HW130938   2.292   1.725   4.594
10013SOL    HW230939   2.306   1.821   4.463
10014SOL     OW30940   6.746   2.247   0.270
10014SOL    HW130941   6.727   2.255   0.367
10014SOL    HW230942   6.791   2.330   0.237
10015SOL     OW30943   3.189   4.181   0.413
10015SOL    HW130944   3.095   4.207   0.436
10015SOL    HW230945   3.200   4.176   0.314
10016SOL     OW30946   2.314   0.104   4.698
10016SOL    HW130947   2.294   0.040   4.623
10016SOL    HW230948   2.236   0.106   4.760
10017SOL     OW30949   1.585   2.287   2.059
10017SOL    HW130950   1.635   2.243   1.984
10017SOL    HW230951   1.544   2.216   2.117
10018SOL     OW30952   5.921   5.509   6.228
10018SOL    HW130953   5.868   5.468   6.155
10018SOL    HW230954   5.878   5.595   6.257
10019SOL     OW30955   0.887   2.022   3.421
10019SOL    HW130956   0.937   1.936   3.411
10019SOL    HW230957   0.789   2.002   3.432
10020SOL     OW30958   0.058   2.039   1.104
10020SOL    HW130959   6.999   1.978   1.103
10020SOL    HW230960   0.117   2.019   1.026
10021SOL     OW30961   0.796   2.721   1.639
10021SOL    HW130962   0.812   2.629   1.602
10021SOL    HW230963   0.705   2.724   1.681
10022SOL     OW30964   3.668   6.840   1.030
10022SOL    HW130965   3.667   6.869   1.125
10022SOL    HW230966   3.682   6.919   0.971
10023SOL     OW30967   1.921   5.380   5.692
10023SOL    HW130968   1.840   5.330   5.662
10023SOL    HW230969   1.903   5.425   5.779
10024SOL     OW30970   2.343   6.827   1.683
10024SOL    HW130971   2.288   6.854   1.762
10024SOL    HW230972   2.365   6.730   1.690
10025SOL     OW30973   1.434   1.253   1.164
10025SOL    HW130974   1.362   1.211   1.109
10025SOL    HW230975   1.519   1.200   1.153
10026SOL     OW30976   4.743   6.266   3.645
10026SOL    HW130977   4.695   6.179   3.657
10026SOL    HW230978   4.829   6.263   3.696
10027SOL     OW30979   0.919   4.816   5.095
10027SOL    HW130980   0.823   4.823   5.068
10027SOL    HW230981   0.962   4.740   5.047
10028SOL     OW30982   1.400   1.677   1.449
10028SOL    HW130983   1.452   1.592   1.462
10028SOL    HW230984   1.324   1.661   1.386
10029SOL     OW30985   3.053   1.810   3.619
10029SOL    HW130986   2.962   1.822   3.659
10029SOL    HW230987   3.101   1.736   3.666
10030SOL     OW30988   2.328   6.793   4.007
10030SOL    HW130989   2.303   6.735   3.929
10030SOL    HW230990   2.357   6.883   3.974
10031SOL     OW30991   6.070   4.979   3.590
10031SOL    HW130992   6.099   4.888   3.560
10031SOL    HW230993   5.995   5.011   3.531
10032SOL     OW30994   3.278   0.750   5.192
10032SOL    HW130995   3.354   0.690   5.218
10032SOL    HW230996   3.192   0.712   5.226
10033SOL     OW30997   4.585   2.477   4.169
10033SOL    HW130998   4.561   2.418   4.092
10033SOL    HW230999   4.655   2.542   4.140
10034SOL     OW31000   3.084   6.974   4.196
10034SOL    HW131001   3.179   6.943   4.194
10034SOL    HW231002   3.065   0.008   4.114
10035SOL     OW31003   6.931   4.457   2.284
10035SOL    HW131004   6.952   4.459   2.382
10035SOL    HW231005   7.012   4.430   2.233
10036SOL     OW31006   5.465   1.512   1.159
10036SOL    HW131007   5.439   1.436   1.218
10036SOL    HW231008   5.447   1.598   1.205
10037SOL     OW31009   5.797   1.406   0.803
10037SOL    HW131010   5.797   1.454   0.891
10037SOL    HW231011   5.705   1.408   0.764
10038SOL     OW31012   4.165   1.180   6.440
10038SOL    HW131013   4.198   1.251   6.501
10038SOL    HW231014   4.083   1.138   6.478
10039SOL     OW31015   3.253   0.305   4.119
10039SOL    HW131016   3.154   0.296   4.127
10039SOL    HW231017   3.276   0.356   4.036
10040SOL     OW31018   4.241   5.980   6.423
10040SOL    HW131019   4.237   5.880   6.422
10040SOL    HW231020   4.227   6.015   6.331
10041SOL     OW31021   4.520   5.962   6.022
10041SOL    HW131022   4.422   5.984   6.021
10041SOL    HW231023   4.534   5.879   6.076
10042SOL     OW31024   0.881   1.762   4.332
10042SOL    HW131025   0.883   1.687   4.265
10042SOL    HW231026   0.830   1.732   4.413
10043SOL     OW31027   6.686   2.245   4.985
10043SOL    HW131028   6.773   2.198   4.971
10043SOL    HW231029   6.641   2.259   4.897
10044SOL     OW31030   2.906   1.502   5.200
10044SOL    HW131031   2.940   1.412   5.229
10044SOL    HW231032   2.817   1.519   5.243
10045SOL     OW31033   4.268   0.282   3.050
10045SOL    HW131034   4.302   0.259   2.959
10045SOL    HW231035   4.253   0.381   3.056
10046SOL     OW31036   2.423   3.923   0.929
10046SOL    HW131037   2.339   3.894   0.884
10046SOL    HW231038   2.491   3.850   0.923
10047SOL     OW31039   0.440   4.005   5.297
10047SOL    HW131040   0.378   4.055   5.357
10047SOL    HW231041   0.388   3.939   5.242
10048SOL     OW31042   6.266   0.768   3.089
10048SOL    HW131043   6.273   0.858   3.047
10048SOL    HW231044   6.334   0.759   3.161
10049SOL     OW31045   0.462   1.640   6.839
10049SOL    HW131046   0.366   1.662   6.856
10049SOL    HW231047   0.507   1.718   6.797
10050SOL     OW31048   5.459   3.790   4.804
10050SOL    HW131049   5.466   3.802   4.903
10050SOL    HW231050   5.363   3.795   4.777
10051SOL     OW31051   6.057   3.549   5.966
10051SOL    HW131052   6.139   3.528   6.019
10051SOL    HW231053   6.002   3.466   5.955
10052SOL     OW31054   1.743   2.017   3.188
10052SOL    HW131055   1.751   1.950   3.263
10052SOL    HW231056   1.795   1.984   3.109
10053SOL     OW31057   3.938   5.815   3.045
10053SOL    HW131058   3.842   5.823   3.071
10053SOL    HW231059   3.995   5.807   3.127
10054SOL     OW31060   5.781   5.851   6.803
10054SOL    HW131061   5.847   5.869   6.730
10054SOL    HW231062   5.694   5.823   6.763
10055SOL     OW31063   5.656   0.830   4.710
10055SOL    HW131064   5.589   0.899   4.738
10055SOL    HW231065   5.669   0.764   4.784
10056SOL     OW31066   5.231   4.385   2.813
10056SOL    HW131067   5.213   4.460   2.876
10056SOL    HW231068   5.205   4.412   2.720
10057SOL     OW31069   4.373   2.433   5.576
10057SOL    HW131070   4.398   2.342   5.542
10057SOL    HW231071   4.318   2.423   5.659
10058SOL     OW31072   6.507   2.935   5.497
10058SOL    HW131073   6.600   2.940   5.534
10058SOL    HW231074   6.474   2.841   5.504
10059SOL     OW31075   6.504   0.940   0.509
10059SOL    HW131076   6.530   0.880   0.433
10059SOL    HW231077   6.428   0.998   0.481
10060SOL     OW31078   1.889   3.137   2.004
10060SOL    HW131079   1.937   3.224   2.011
10060SOL    HW231080   1.791   3.152   2.020
10061SOL     OW31081   4.560   1.204   4.362
10061SOL    HW131082   4.602   1.234   4.448
10061SOL    HW231083   4.564   1.278   4.295
10062SOL     OW31084   5.568   0.778   3.557
10062SOL    HW131085   5.550   0.734   3.645
10062SOL    HW231086   5.546   0.875   3.563
10063SOL     OW31087   3.042   0.735   3.999
10063SOL    HW131088   2.980   0.659   4.022
10063SOL    HW231089   3.123   0.731   4.057
10064SOL     OW31090   4.961   6.706   0.227
10064SOL    HW131091   4.887   6.683   0.164
10064SOL    HW231092   4.933   6.784   0.283
10065SOL     OW31093   3.033   6.982   2.818
10065SOL    HW131094   3.054   0.048   2.771
10065SOL    HW231095   3.017   6.910   2.751
10066SOL     OW31096   0.214   2.493   4.631
10066SOL    HW131097   0.170   2.427   4.571
10066SOL    HW231098   0.148   2.564   4.657
10067SOL     OW31099   0.284   3.807   5.176
10067SOL    HW131100   0.351   3.733   5.177
10067SOL    HW231101   0.231   3.803   5.092
10068SOL     OW31102   0.425   3.427   3.308
10068SOL    HW131103   0.348   3.400   3.250
10068SOL    HW231104   0.475   3.502   3.264
10069SOL     OW31105   3.114   5.586   2.423
10069SOL    HW131106   3.058   5.642   2.483
10069SOL    HW231107   3.210   5.597   2.447
10070SOL     OW31108   0.128   6.155   5.064
10070SOL    HW131109   0.117   6.072   5.118
10070SOL    HW231110   0.181   6.222   5.117
10071SOL     OW31111   6.490   6.309   4.420
10071SOL    HW131112   6.585   6.289   4.396
10071SOL    HW231113   6.470   6.405   4.398
10072SOL     OW31114   0.188   6.366   4.053
10072SOL    HW131115   0.126   6.417   4.113
10072SOL    HW231116   0.218   6.425   3.978
10073SOL     OW31117   6.312   4.497   4.218
10073SOL    HW131118   6.213   4.489   4.232
10073SOL    HW231119   6.339   4.593   4.221
10074SOL     OW31120   2.269   0.229   5.773
10074SOL    HW131121   2.260   0.182   5.860
10074SOL    HW231122   2.193   0.204   5.713
10075SOL     OW31123   1.533   2.560   2.351
10075SOL    HW131124   1.572   2.650   2.370
10075SOL    HW231125   1.604   2.490   2.365
10076SOL     OW31126   5.986   6.250   3.905
10076SOL    HW131127   5.943   6.325   3.955
10076SOL    HW231128   6.063   6.284   3.852
10077SOL     OW31129   4.435   3.261   0.217
10077SOL    HW131130   4.428   3.183   0.279
10077SOL    HW231131   4.523   3.257   0.168
10078SOL     OW31132   6.605   6.252   4.085
10078SOL    HW131133   6.560   6.301   4.010
10078SOL    HW231134   6.545   6.252   4.165
10079SOL     OW31135   5.887   2.722   3.763
10079SOL    HW131136   5.895   2.820   3.783
10079SOL    HW231137   5.828   2.709   3.683
10080SOL     OW31138   5.077   0.659   5.638
10080SOL    HW131139   4.999   0.708   5.599
10080SOL    HW231140   5.121   0.605   5.567
10081SOL     OW31141   0.351   1.444   0.164
10081SOL    HW131142   0.325   1.374   0.232
10081SOL    HW231143   0.449   1.438   0.148
10082SOL     OW31144   0.745   5.216   1.633
10082SOL    HW131145   0.763   5.305   1.674
10082SOL    HW231146   0.764   5.220   1.535
10083SOL     OW31147   4.104   0.968   3.745
10083SOL    HW131148   4.124   1.047   3.687
10083SOL    HW231149   4.189   0.918   3.762
10084SOL     OW31150   2.034   0.446   5.760
10084SOL    HW131151   2.002   0.379   5.693
10084SOL    HW231152   2.133   0.437   5.770
10085SOL     OW31153   3.011   6.309   0.682
10085SOL    HW131154   2.916   6.330   0.705
10085SOL    HW231155   3.072   6.358   0.744
10086SOL     OW31156   6.024   5.987   2.499
10086SOL    HW131157   6.052   6.078   2.531
10086SOL    HW231158   6.079   5.917   2.544
10087SOL     OW31159   6.737   5.561   3.935
10087SOL    HW131160   6.718   5.648   3.892
10087SOL    HW231161   6.693   5.487   3.884
10088SOL     OW31162   6.964   6.875   2.276
10088SOL    HW131163   6.933   6.926   2.356
10088SOL    HW231164   6.963   6.777   2.296
10089SOL     OW31165   2.756   1.742   3.542
10089SOL    HW131166   2.759   1.682   3.622
10089SOL    HW231167   2.728   1.834   3.571
10090SOL     OW31168   0.444   5.126   1.882
10090SOL    HW131169   0.439   5.061   1.806
10090SOL    HW231170   0.490   5.083   1.959
10091SOL     OW31171   6.578   5.494   6.711
10091SOL    HW131172   6.496   5.549   6.694
10091SOL    HW231173   6.569   5.448   6.799
10092SOL     OW31174   2.206   3.161   6.157
10092SOL    HW131175   2.149   3.206   6.088
10092SOL    HW231176   2.246   3.231   6.216
10093SOL     OW31177   4.638   3.400   5.359
10093SOL    HW131178   4.646   3.447   5.447
10093SOL    HW231179   4.619   3.467   5.287
10094SOL     OW31180   3.181   5.630   1.861
10094SOL    HW131181   3.121   5.602   1.786
10094SOL    HW231182   3.183   5.557   1.930
10095SOL     OW31183   5.707   1.863   4.552
10095SOL    HW131184   5.740   1.934   4.490
10095SOL    HW231185   5.749   1.776   4.528
10096SOL     OW31186   4.335   6.067   2.696
10096SOL    HW131187   4.309   6.056   2.792
10096SOL    HW231188   4.386   6.152   2.685
10097SOL     OW31189   1.578   2.159   0.035
10097SOL    HW131190   1.678   2.153   0.035
10097SOL    HW231191   1.540   2.070   0.060
10098SOL     OW31192   2.924   0.226   5.182
10098SOL    HW131193   2.945   0.310   5.233
10098SOL    HW231194   2.927   0.245   5.084
10099SOL     OW31195   1.229   4.873   1.658
10099SOL    HW131196   1.236   4.829   1.568
10099SOL    HW231197   1.311   4.929   1.673
10100SOL     OW31198   5.143   5.816   5.515
10100SOL    HW131199   5.156   5.865   5.601
10100SOL    HW231200   5.047   5.820   5.488
10101SOL     OW31201   6.666   3.038   2.087
10101SOL    HW131202   6.677   2.987   2.001
10101SOL    HW231203   6.661   2.974   2.163
10102SOL     OW31204   6.992   0.929   2.168
10102SOL    HW131205   7.013   0.945   2.264
10102SOL    HW231206   0.037   0.979   2.111
10103SOL     OW31207   2.575   0.858   5.620
10103SOL    HW131208   2.524   0.944   5.619
10103SOL    HW231209   2.605   0.836   5.527
10104SOL     OW31210   1.495   1.916   5.023
10104SOL    HW131211   1.525   1.863   5.102
10104SOL    HW231212   1.448   1.999   5.053
10105SOL     OW31213   2.297   0.341   6.320
10105SOL    HW131214   2.222   0.311   6.261
10105SOL    HW231215   2.335   0.262   6.369
10106SOL     OW31216   3.714   6.718   0.554
10106SOL    HW131217   3.668   6.666   0.626
10106SOL    HW231218   3.721   6.662   0.472
10107SOL     OW31219   5.279   1.412   5.902
10107SOL    HW131220   5.371   1.377   5.885
10107SOL    HW231221   5.253   1.390   5.997
10108SOL     OW31222   6.915   0.921   0.464
10108SOL    HW131223   6.893   0.837   0.513
10108SOL    HW231224   6.841   0.987   0.476
10109SOL     OW31225   0.127   1.207   0.658
10109SOL    HW131226   0.048   1.165   0.614
10109SOL    HW231227   0.130   1.304   0.635
10110SOL     OW31228   5.051   4.944   3.688
10110SOL    HW131229   5.033   4.979   3.780
10110SOL    HW231230   5.065   4.845   3.692
10111SOL     OW31231   6.376   3.368   3.944
10111SOL    HW131232   6.336   3.378   3.853
10111SOL    HW231233   6.363   3.274   3.976
10112SOL     OW31234   5.964   3.370   3.198
10112SOL    HW131235   5.970   3.431   3.118
10112SOL    HW231236   5.887   3.307   3.186
10113SOL     OW31237   4.353   0.296   0.541
10113SOL    HW131238   4.417   0.310   0.616
10113SOL    HW231239   4.403   0.266   0.460
10114SOL     OW31240   4.087   2.205   2.501
10114SOL    HW131241   4.003   2.149   2.496
10114SOL    HW231242   4.153   2.159   2.560
10115SOL     OW31243   4.399   2.070   4.986
10115SOL    HW131244   4.321   2.011   5.004
10115SOL    HW231245   4.378   2.131   4.910
10116SOL     OW31246   0.895   0.181   6.930
10116SOL    HW131247   0.970   0.206   6.869
10116SOL    HW231248   0.809   0.214   6.893
10117SOL     OW31249   6.123   6.461   6.173
10117SOL    HW131250   6.049   6.466   6.105
10117SOL    HW231251   6.206   6.427   6.129
10118SOL     OW31252   2.284   4.336   3.755
10118SOL    HW131253   2.194   4.379   3.748
10118SOL    HW231254   2.287   4.255   3.697
10119SOL     OW31255   6.619   4.874   3.834
10119SOL    HW131256   6.531   4.904   3.870
10119SOL    HW231257   6.668   4.951   3.795
10120SOL     OW31258   1.768   3.662   4.239
10120SOL    HW131259   1.862   3.628   4.234
10120SOL    HW231260   1.769   3.758   4.265
10121SOL     OW31261   5.654   4.229   6.704
10121SOL    HW131262   5.751   4.222   6.729
10121SOL    HW231263   5.627   4.325   6.702
10122SOL     OW31264   5.287   2.430   3.163
10122SOL    HW131265   5.269   2.429   3.261
10122SOL    HW231266   5.274   2.338   3.125
10123SOL     OW31267   5.548   6.198   0.984
10123SOL    HW131268   5.514   6.288   0.956
10123SOL    HW231269   5.607   6.208   1.064
10124SOL     OW31270   1.545   4.677   0.582
10124SOL    HW131271   1.638   4.692   0.617
10124SOL    HW231272   1.500   4.766   0.569
10125SOL     OW31273   2.234   1.251   1.058
10125SOL    HW131274   2.150   1.233   1.110
10125SOL    HW231275   2.299   1.177   1.073
10126SOL     OW31276   0.350   0.221   0.344
10126SOL    HW131277   0.382   0.179   0.429
10126SOL    HW231278   0.364   0.156   0.268
10127SOL     OW31279   1.953   3.416   0.433
10127SOL    HW131280   1.920   3.324   0.414
10127SOL    HW231281   1.902   3.456   0.509
10128SOL     OW31282   3.051   1.061   6.271
10128SOL    HW131283   3.073   1.032   6.364
10128SOL    HW231284   3.103   1.143   6.249
10129SOL     OW31285   6.445   1.057   2.661
10129SOL    HW131286   6.455   1.155   2.681
10129SOL    HW231287   6.503   1.033   2.583
10130SOL     OW31288   0.826   3.308   1.398
10130SOL    HW131289   0.875   3.326   1.312
10130SOL    HW231290   0.863   3.225   1.440
10131SOL     OW31291   1.994   6.842   4.453
10131SOL    HW131292   1.959   6.873   4.542
10131SOL    HW231293   1.925   6.858   4.382
10132SOL     OW31294   1.887   0.821   3.217
10132SOL    HW131295   1.818   0.749   3.231
10132SOL    HW231296   1.914   0.823   3.121
10133SOL     OW31297   4.487   6.575   0.679
10133SOL    HW131298   4.422   6.617   0.615
10133SOL    HW231299   4.506   6.639   0.753
10134SOL     OW31300   5.709   1.398   2.015
10134SOL    HW131301   5.783   1.345   2.056
10134SOL    HW231302   5.621   1.363   2.047
10135SOL     OW31303   5.396   2.593   3.618
10135SOL    HW131304   5.415   2.516   3.557
10135SOL    HW231305   5.343   2.662   3.569
10136SOL     OW31306   5.275   2.101   2.146
10136SOL    HW131307   5.256   2.004   2.165
10136SOL    HW231308   5.301   2.146   2.232
10137SOL     OW31309   0.430   4.845   4.863
10137SOL    HW131310   0.389   4.921   4.812
10137SOL    HW231311   0.359   4.780   4.889
10138SOL     OW31312   5.211   3.637   0.353
10138SOL    HW131313   5.141   3.586   0.304
10138SOL    HW231314   5.172   3.675   0.437
10139SOL     OW31315   2.865   3.426   4.494
10139SOL    HW131316   2.772   3.390   4.494
10139SOL    HW231317   2.890   3.455   4.587
10140SOL     OW31318   0.441   6.215   6.621
10140SOL    HW131319   0.485   6.299   6.591
10140SOL    HW231320   0.510   6.150   6.651
10141SOL     OW31321   4.410   1.253   5.560
10141SOL    HW131322   4.486   1.297   5.607
10141SOL    HW231323   4.334   1.240   5.624
10142SOL     OW31324   6.020   6.186   6.069
10142SOL    HW131325   6.006   6.139   5.981
10142SOL    HW231326   6.099   6.246   6.063
10143SOL     OW31327   5.215   2.323   0.994
10143SOL    HW131328   5.277   2.393   0.961
10143SOL    HW231329   5.172   2.276   0.917
10144SOL     OW31330   4.707   0.113   6.165
10144SOL    HW131331   4.696   0.196   6.221
10144SOL    HW231332   4.720   0.139   6.069
10145SOL     OW31333   3.489   5.715   3.008
10145SOL    HW131334   3.563   5.666   3.054
10145SOL    HW231335   3.494   5.699   2.909
10146SOL     OW31336   6.008   4.049   4.997
10146SOL    HW131337   5.935   3.983   4.978
10146SOL    HW231338   6.014   4.115   4.922
10147SOL     OW31339   4.733   3.823   6.677
10147SOL    HW131340   4.714   3.888   6.604
10147SOL    HW231341   4.786   3.746   6.641
10148SOL     OW31342   5.836   4.871   0.019
10148SOL    HW131343   5.809   4.926   6.960
10148SOL    HW231344   5.912   4.916   0.067
10149SOL     OW31345   5.312   3.941   1.465
10149SOL    HW131346   5.271   3.940   1.374
10149SOL    HW231347   5.411   3.929   1.457
10150SOL     OW31348   3.931   2.881   1.819
10150SOL    HW131349   3.833   2.862   1.824
10150SOL    HW231350   3.955   2.952   1.885
10151SOL     OW31351   1.329   6.771   6.977
10151SOL    HW131352   1.325   6.676   7.008
10151SOL    HW231353   1.402   6.819   0.005
10152SOL     OW31354   6.705   6.030   3.423
10152SOL    HW131355   6.759   5.956   3.462
10152SOL    HW231356   6.658   5.998   3.342
10153SOL     OW31357   5.134   6.276   4.064
10153SOL    HW131358   5.130   6.257   4.162
10153SOL    HW231359   5.137   6.190   4.013
10154SOL     OW31360   3.988   6.446   4.950
10154SOL    HW131361   3.974   6.470   5.046
10154SOL    HW231362   4.048   6.365   4.945
10155SOL     OW31363   5.110   2.168   5.556
10155SOL    HW131364   5.156   2.219   5.483
10155SOL    HW231365   5.132   2.071   5.548
10156SOL     OW31366   5.541   0.643   1.513
10156SOL    HW131367   5.611   0.616   1.578
10156SOL    HW231368   5.470   0.572   1.509
10157SOL     OW31369   0.069   2.368   0.410
10157SOL    HW131370   0.057   2.273   0.382
10157SOL    HW231371   7.017   2.425   0.370
10158SOL     OW31372   6.363   5.901   1.271
10158SOL    HW131373   6.285   5.955   1.304
10158SOL    HW231374   6.444   5.923   1.325
10159SOL     OW31375   3.564   3.091   2.279
10159SOL    HW131376   3.490   3.109   2.214
10159SOL    HW231377   3.526   3.052   2.363
10160SOL     OW31378   1.408   3.487   3.215
10160SOL    HW131379   1.464   3.411   3.251
10160SOL    HW231380   1.462   3.571   3.216
10161SOL     OW31381   3.390   4.214   6.542
10161SOL    HW131382   3.461   4.155   6.504
10161SOL    HW231383   3.359   4.178   6.630
10162SOL     OW31384   2.763   5.228   0.583
10162SOL    HW131385   2.821   5.156   0.545
10162SOL    HW231386   2.686   5.187   0.632
10163SOL     OW31387   0.519   4.042   6.744
10163SOL    HW131388   0.449   4.114   6.747
10163SOL    HW231389   0.588   4.066   6.676
10164SOL     OW31390   5.822   3.584   4.930
10164SOL    HW131391   5.842   3.533   4.846
10164SOL    HW231392   5.759   3.531   4.987
10165SOL     OW31393   6.390   1.990   3.421
10165SOL    HW131394   6.318   1.927   3.450
10165SOL    HW231395   6.369   2.082   3.453
10166SOL     OW31396   2.179   1.688   1.406
10166SOL    HW131397   2.123   1.733   1.476
10166SOL    HW231398   2.187   1.591   1.426
10167SOL     OW31399   0.206   5.755   0.264
10167SOL    HW131400   0.247   5.677   0.312
10167SOL    HW231401   0.125   5.786   0.314
10168SOL     OW31402   6.722   2.446   5.931
10168SOL    HW131403   6.722   2.365   5.989
10168SOL    HW231404   6.708   2.419   5.836
10169SOL     OW31405   0.052   3.489   3.779
10169SOL    HW131406   7.005   3.446   3.840
10169SOL    HW231407   0.076   3.579   3.815
10170SOL     OW31408   6.085   5.378   6.415
10170SOL    HW131409   6.036   5.419   6.338
10170SOL    HW231410   6.079   5.278   6.408
10171SOL     OW31411   0.551   2.643   4.394
10171SOL    HW131412   0.649   2.635   4.375
10171SOL    HW231413   0.535   2.642   4.492
10172SOL     OW31414   0.828   6.322   4.430
10172SOL    HW131415   0.906   6.290   4.377
10172SOL    HW231416   0.849   6.413   4.468
10173SOL     OW31417   2.110   3.025   0.293
10173SOL    HW131418   2.082   2.931   0.274
10173SOL    HW231419   2.031   3.077   0.326
10174SOL     OW31420   5.014   4.683   3.428
10174SOL    HW131421   4.948   4.757   3.412
10174SOL    HW231422   4.965   4.601   3.459
10175SOL     OW31423   5.456   2.360   3.512
10175SOL    HW131424   5.489   2.315   3.428
10175SOL    HW231425   5.398   2.296   3.563
10176SOL     OW31426   6.611   2.401   5.671
10176SOL    HW131427   6.516   2.386   5.699
10176SOL    HW231428   6.625   2.365   5.579
10177SOL     OW31429   2.071   0.748   0.421
10177SOL    HW131430   2.157   0.710   0.386
10177SOL    HW231431   1.996   0.724   0.359
10178SOL     OW31432   1.057   0.594   0.556
10178SOL    HW131433   1.079   0.497   0.560
10178SOL    HW231434   0.959   0.608   0.569
10179SOL     OW31435   0.896   3.353   6.639
10179SOL    HW131436   0.970   3.287   6.647
10179SOL    HW231437   0.813   3.315   6.680
10180SOL     OW31438   4.992   0.485   0.927
10180SOL    HW131439   5.077   0.452   0.969
10180SOL    HW231440   4.935   0.406   0.903
10181SOL     OW31441   0.468   2.756   1.107
10181SOL    HW131442   0.510   2.697   1.176
10181SOL    HW231443   0.382   2.793   1.143
10182SOL     OW31444   5.180   0.685   0.569
10182SOL    HW131445   5.087   0.673   0.534
10182SOL    HW231446   5.178   0.706   0.666
10183SOL     OW31447   5.907   2.934   5.754
10183SOL    HW131448   5.863   2.907   5.840
10183SOL    HW231449   5.932   3.030   5.759
10184SOL     OW31450   4.516   2.753   6.453
10184SOL    HW131451   4.509   2.691   6.530
10184SOL    HW231452   4.608   2.747   6.413
10185SOL     OW31453   6.525   5.645   2.016
10185SOL    HW131454   6.529   5.610   2.110
10185SOL    HW231455   6.618   5.646   1.978
10186SOL     OW31456   4.886   3.672   4.483
10186SOL    HW131457   4.895   3.581   4.443
10186SOL    HW231458   4.926   3.673   4.574
10187SOL     OW31459   1.598   3.688   6.471
10187SOL    HW131460   1.621   3.591   6.471
10187SOL    HW231461   1.673   3.740   6.513
10188SOL     OW31462   2.488   5.180   6.669
10188SOL    HW131463   2.557   5.108   6.675
10188SOL    HW231464   2.400   5.144   6.702
10189SOL     OW31465   0.920   1.249   6.178
10189SOL    HW131466   0.877   1.252   6.268
10189SOL    HW231467   0.858   1.288   6.110
10190SOL     OW31468   3.908   2.858   1.537
10190SOL    HW131469   3.990   2.805   1.517
10190SOL    HW231470   3.894   2.862   1.636
10191SOL     OW31471   4.872   5.700   6.816
10191SOL    HW131472   4.851   5.607   6.845
10191SOL    HW231473   4.787   5.752   6.806
10192SOL     OW31474   3.513   1.676   5.436
10192SOL    HW131475   3.561   1.659   5.350
10192SOL    HW231476   3.415   1.682   5.419
10193SOL     OW31477   3.191   3.949   2.672
10193SOL    HW131478   3.230   3.859   2.691
10193SOL    HW231479   3.103   3.958   2.720
10194SOL     OW31480   4.913   0.986   4.404
10194SOL    HW131481   4.927   1.060   4.470
10194SOL    HW231482   4.911   1.024   4.311
10195SOL     OW31483   6.751   6.561   1.408
10195SOL    HW131484   6.759   6.649   1.361
10195SOL    HW231485   6.820   6.555   1.480
10196SOL     OW31486   4.530   2.281   3.961
10196SOL    HW131487   4.577   2.215   3.901
10196SOL    HW231488   4.454   2.322   3.910
10197SOL     OW31489   4.932   2.040   4.049
10197SOL    HW131490   4.856   2.013   4.107
10197SOL    HW231491   4.935   2.140   4.041
10198SOL     OW31492   4.148   0.263   1.566
10198SOL    HW131493   4.049   0.256   1.578
10198SOL    HW231494   4.191   0.283   1.654
10199SOL     OW31495   0.696   2.132   0.050
10199SOL    HW131496   0.731   2.055   0.102
10199SOL    HW231497   0.630   2.100   7.002
10200SOL     OW31498   4.951   3.051   5.369
10200SOL    HW131499   4.984   3.112   5.442
10200SOL    HW231500   4.916   3.106   5.293
10201SOL     OW31501   0.636   6.191   0.700
10201SOL    HW131502   0.662   6.245   0.620
10201SOL    HW231503   0.673   6.233   0.782
10202SOL     OW31504   2.372   4.396   6.978
10202SOL    HW131505   2.307   4.463   6.941
10202SOL    HW231506   2.352   4.381   0.055
10203SOL     OW31507   0.963   3.003   1.972
10203SOL    HW131508   1.053   3.046   1.976
10203SOL    HW231509   0.947   2.967   1.880
10204SOL     OW31510   3.566   5.841   6.792
10204SOL    HW131511   3.602   5.820   6.701
10204SOL    HW231512   3.508   5.766   6.823
10205SOL     OW31513   3.328   0.804   2.480
10205SOL    HW131514   3.359   0.899   2.486
10205SOL    HW231515   3.237   0.797   2.522
10206SOL     OW31516   5.355   6.942   6.613
10206SOL    HW131517   5.322   6.939   6.708
10206SOL    HW231518   5.404   6.858   6.593
10207SOL     OW31519   1.690   1.476   6.862
10207SOL    HW131520   1.743   1.534   6.924
10207SOL    HW231521   1.747   1.449   6.784
10208SOL     OW31522   6.468   4.419   3.819
10208SOL    HW131523   6.518   4.378   3.742
10208SOL    HW231524   6.383   4.459   3.786
10209SOL     OW31525   0.166   0.080   5.878
10209SOL    HW131526   0.264   0.073   5.897
10209SOL    HW231527   0.133   0.169   5.909
10210SOL     OW31528   5.423   7.000   1.497
10210SOL    HW131529   5.521   6.982   1.482
10210SOL    HW231530   5.411   0.028   1.584
10211SOL     OW31531   4.110   6.207   5.076
10211SOL    HW131532   4.100   6.114   5.043
10211SOL    HW231533   4.058   6.218   5.161
10212SOL     OW31534   6.933   0.257   4.912
10212SOL    HW131535   6.919   0.189   4.985
10212SOL    HW231536   7.004   0.224   4.849
10213SOL     OW31537   5.350   2.774   2.484
10213SOL    HW131538   5.380   2.776   2.579
10213SOL    HW231539   5.371   2.862   2.440
10214SOL     OW31540   1.184   1.740   2.233
10214SOL    HW131541   1.156   1.645   2.218
10214SOL    HW231542   1.275   1.755   2.195
10215SOL     OW31543   3.452   2.904   3.871
10215SOL    HW131544   3.541   2.947   3.889
10215SOL    HW231545   3.383   2.943   3.931
10216SOL     OW31546   0.479   0.015   1.202
10216SOL    HW131547   0.455   6.966   1.270
10216SOL    HW231548   0.429   0.100   1.221
10217SOL     OW31549   2.041   1.829   3.123
10217SOL    HW131550   1.994   1.851   3.038
10217SOL    HW231551   2.052   1.912   3.178
10218SOL     OW31552   1.647   0.640   1.629
10218SOL    HW131553   1.666   0.626   1.532
10218SOL    HW231554   1.693   0.723   1.660
10219SOL     OW31555   0.039   2.919   2.540
10219SOL    HW131556   0.115   2.957   2.593
10219SOL    HW231557   0.043   2.953   2.446
10220SOL     OW31558   4.294   1.570   1.246
10220SOL    HW131559   4.238   1.599   1.324
10220SOL    HW231560   4.241   1.507   1.189
10221SOL     OW31561   1.781   3.256   4.138
10221SOL    HW131562   1.877   3.281   4.141
10221SOL    HW231563   1.738   3.278   4.226
10222SOL     OW31564   2.660   3.840   5.509
10222SOL    HW131565   2.755   3.819   5.487
10222SOL    HW231566   2.653   3.935   5.541
10223SOL     OW31567   1.970   6.437   6.377
10223SOL    HW131568   2.017   6.391   6.301
10223SOL    HW231569   2.034   6.453   6.452
10224SOL     OW31570   0.431   1.390   5.174
10224SOL    HW131571   0.528   1.410   5.162
10224SOL    HW231572   0.409   1.391   5.272
10225SOL     OW31573   2.164   6.105   6.003
10225SOL    HW131574   2.220   6.185   5.978
10225SOL    HW231575   2.214   6.049   6.069
10226SOL     OW31576   2.465   0.893   6.617
10226SOL    HW131577   2.470   0.799   6.582
10226SOL    HW231578   2.543   0.946   6.583
10227SOL     OW31579   5.442   4.464   0.773
10227SOL    HW131580   5.504   4.396   0.813
10227SOL    HW231581   5.467   4.479   0.678
10228SOL     OW31582   1.132   6.113   1.962
10228SOL    HW131583   1.197   6.128   1.888
10228SOL    HW231584   1.055   6.057   1.929
10229SOL     OW31585   1.475   1.785   4.247
10229SOL    HW131586   1.544   1.754   4.312
10229SOL    HW231587   1.491   1.881   4.225
10230SOL     OW31588   6.286   6.455   2.900
10230SOL    HW131589   6.269   6.527   2.967
10230SOL    HW231590   6.352   6.489   2.832
10231SOL     OW31591   6.295   5.484   4.837
10231SOL    HW131592   6.300   5.489   4.937
10231SOL    HW231593   6.322   5.573   4.798
10232SOL     OW31594   2.876   0.997   4.712
10232SOL    HW131595   2.850   0.965   4.804
10232SOL    HW231596   2.827   0.943   4.643
10233SOL     OW31597   4.892   3.484   5.272
10233SOL    HW131598   4.872   3.540   5.191
10233SOL    HW231599   4.809   3.473   5.327
10234SOL     OW31600   5.618   0.211   0.279
10234SOL    HW131601   5.648   0.287   0.222
10234SOL    HW231602   5.684   0.196   0.353
10235SOL     OW31603   4.151   3.084   0.207
10235SOL    HW131604   4.105   3.074   0.295
10235SOL    HW231605   4.094   3.046   0.135
10236SOL     OW31606   2.109   0.572   1.728
10236SOL    HW131607   2.099   0.671   1.718
10236SOL    HW231608   2.206   0.549   1.727
10237SOL     OW31609   6.924   4.133   0.363
10237SOL    HW131610   6.908   4.097   0.271
10237SOL    HW231611   0.002   4.137   0.380
10238SOL     OW31612   3.213   3.831   3.291
10238SOL    HW131613   3.256   3.873   3.371
10238SOL    HW231614   3.126   3.790   3.318
10239SOL     OW31615   2.030   4.185   5.653
10239SOL    HW131616   2.095   4.111   5.639
10239SOL    HW231617   1.955   4.177   5.587
10240SOL     OW31618   1.502   4.415   3.130
10240SOL    HW131619   1.421   4.456   3.087
10240SOL    HW231620   1.481   4.322   3.159
10241SOL     OW31621   6.855   0.451   2.367
10241SOL    HW131622   6.912   0.372   2.344
10241SOL    HW231623   6.861   0.519   2.294
10242SOL     OW31624   6.661   1.261   0.122
10242SOL    HW131625   6.609   1.235   0.041
10242SOL    HW231626   6.711   1.345   0.104
10243SOL     OW31627   1.486   4.971   1.747
10243SOL    HW131628   1.550   5.034   1.790
10243SOL    HW231629   1.439   4.918   1.818
10244SOL     OW31630   1.253   4.384   0.393
10244SOL    HW131631   1.231   4.384   0.295
10244SOL    HW231632   1.352   4.390   0.404
10245SOL     OW31633   2.952   4.686   6.935
10245SOL    HW131634   2.960   4.785   6.947
10245SOL    HW231635   2.870   4.666   6.881
10246SOL     OW31636   3.419   4.166   3.753
10246SOL    HW131637   3.464   4.107   3.819
10246SOL    HW231638   3.323   4.180   3.780
10247SOL     OW31639   6.883   5.244   5.877
10247SOL    HW131640   6.902   5.320   5.939
10247SOL    HW231641   6.834   5.172   5.926
10248SOL     OW31642   3.102   0.029   2.375
10248SOL    HW131643   3.014   0.069   2.349
10248SOL    HW231644   3.160   0.098   2.417
10249SOL     OW31645   3.414   0.276   5.821
10249SOL    HW131646   3.380   0.368   5.804
10249SOL    HW231647   3.338   0.212   5.824
10250SOL     OW31648   6.849   3.021   1.298
10250SOL    HW131649   6.902   2.954   1.247
10250SOL    HW231650   6.758   3.030   1.257
10251SOL     OW31651   2.946   1.758   5.095
10251SOL    HW131652   2.875   1.822   5.124
10251SOL    HW231653   2.925   1.666   5.130
10252SOL     OW31654   4.460   4.852   0.314
10252SOL    HW131655   4.459   4.943   0.354
10252SOL    HW231656   4.399   4.849   0.234
10253SOL     OW31657   3.267   5.995   0.159
10253SOL    HW131658   3.344   6.048   0.123
10253SOL    HW231659   3.199   6.057   0.198
10254SOL     OW31660   4.606   1.352   4.820
10254SOL    HW131661   4.639   1.320   4.731
10254SOL    HW231662   4.526   1.410   4.807
10255SOL     OW31663   2.136   6.862   1.316
10255SOL    HW131664   2.227   6.831   1.343
10255SOL    HW231665   2.116   6.950   1.359
10256SOL     OW31666   6.122   1.356   1.748
10256SOL    HW131667   6.094   1.431   1.808
10256SOL    HW231668   6.042   1.312   1.708
10257SOL     OW31669   1.819   5.156   4.699
10257SOL    HW131670   1.832   5.109   4.786
10257SOL    HW231671   1.723   5.149   4.671
10258SOL     OW31672   3.586   0.958   4.331
10258SOL    HW131673   3.634   1.043   4.351
10258SOL    HW231674   3.652   0.884   4.321
10259SOL     OW31675   0.202   4.282   3.022
10259SOL    HW131676   0.272   4.267   3.092
10259SOL    HW231677   0.189   4.380   3.009
10260SOL     OW31678   0.423   0.966   3.887
10260SOL    HW131679   0.415   0.870   3.915
10260SOL    HW231680   0.508   0.978   3.835
10261SOL     OW31681   6.909   5.937   3.097
10261SOL    HW131682   6.940   6.022   3.140
10261SOL    HW231683   6.809   5.934   3.099
10262SOL     OW31684   1.785   6.818   4.197
10262SOL    HW131685   1.813   6.825   4.101
10262SOL    HW231686   1.796   6.724   4.228
10263SOL     OW31687   5.221   0.756   6.476
10263SOL    HW131688   5.213   0.772   6.377
10263SOL    HW231689   5.295   0.811   6.512
10264SOL     OW31690   6.063   2.233   5.521
10264SOL    HW131691   6.024   2.288   5.595
10264SOL    HW231692   6.013   2.251   5.436
10265SOL     OW31693   2.661   2.353   3.225
10265SOL    HW131694   2.608   2.285   3.276
10265SOL    HW231695   2.756   2.322   3.218
10266SOL     OW31696   3.343   2.933   4.857
10266SOL    HW131697   3.314   2.877   4.934
10266SOL    HW231698   3.440   2.917   4.839
10267SOL     OW31699   0.036   1.572   0.098
10267SOL    HW131700   6.967   1.540   0.067
10267SOL    HW231701   0.039   1.569   0.198
10268SOL     OW31702   5.542   5.133   2.002
10268SOL    HW131703   5.527   5.045   2.047
10268SOL    HW231704   5.641   5.151   1.996
10269SOL     OW31705   0.400   3.211   6.109
10269SOL    HW131706   0.435   3.226   6.017
10269SOL    HW231707   0.339   3.132   6.110
10270SOL     OW31708   3.009   4.827   3.206
10270SOL    HW131709   2.947   4.756   3.174
10270SOL    HW231710   3.006   4.831   3.306
10271SOL     OW31711   3.415   2.256   7.005
10271SOL    HW131712   3.365   2.247   6.919
10271SOL    HW231713   3.505   2.212   6.996
10272SOL     OW31714   0.814   0.292   4.928
10272SOL    HW131715   0.723   0.331   4.939
10272SOL    HW231716   0.807   0.195   4.907
10273SOL     OW31717   3.490   5.731   2.711
10273SOL    HW131718   3.491   5.819   2.663
10273SOL    HW231719   3.496   5.657   2.644
10274SOL     OW31720   6.685   5.077   4.083
10274SOL    HW131721   6.778   5.092   4.118
10274SOL    HW231722   6.690   5.022   4.000
10275SOL     OW31723   0.896   6.924   1.771
10275SOL    HW131724   0.887   7.012   1.818
10275SOL    HW231725   0.969   6.870   1.814
10276SOL     OW31726   5.607   5.284   5.187
10276SOL    HW131727   5.666   5.334   5.250
10276SOL    HW231728   5.603   5.188   5.213
10277SOL     OW31729   2.241   5.505   4.490
10277SOL    HW131730   2.209   5.534   4.580
10277SOL    HW231731   2.163   5.473   4.436
10278SOL     OW31732   6.812   0.592   4.622
10278SOL    HW131733   6.763   0.661   4.676
10278SOL    HW231734   6.785   0.501   4.652
10279SOL     OW31735   2.950   5.350   4.551
10279SOL    HW131736   2.926   5.394   4.464
10279SOL    HW231737   2.981   5.420   4.616
10280SOL     OW31738   1.148   4.392   1.260
10280SOL    HW131739   1.066   4.356   1.305
10280SOL    HW231740   1.228   4.373   1.317
10281SOL     OW31741   5.927   1.056   2.840
10281SOL    HW131742   6.003   1.024   2.783
10281SOL    HW231743   5.930   1.010   2.928
10282SOL     OW31744   5.876   4.298   4.139
10282SOL    HW131745   5.876   4.261   4.232
10282SOL    HW231746   5.924   4.235   4.079
10283SOL     OW31747   1.001   3.647   1.139
10283SOL    HW131748   1.091   3.626   1.101
10283SOL    HW231749   0.944   3.690   1.069
10284SOL     OW31750   5.229   2.989   5.337
10284SOL    HW131751   5.130   2.974   5.333
10284SOL    HW231752   5.266   2.998   5.244
10285SOL     OW31753   5.418   1.115   1.274
10285SOL    HW131754   5.509   1.108   1.233
10285SOL    HW231755   5.426   1.125   1.373
10286SOL     OW31756   3.231   1.691   3.791
10286SOL    HW131757   3.187   1.751   3.858
10286SOL    HW231758   3.327   1.677   3.815
10287SOL     OW31759   2.368   6.199   1.052
10287SOL    HW131760   2.388   6.234   0.960
10287SOL    HW231761   2.310   6.118   1.044
10288SOL     OW31762   4.985   5.685   2.772
10288SOL    HW131763   5.034   5.740   2.705
10288SOL    HW231764   4.894   5.724   2.786
10289SOL     OW31765   3.138   0.597   2.116
10289SOL    HW131766   3.187   0.673   2.158
10289SOL    HW231767   3.090   0.628   2.034
10290SOL     OW31768   2.796   3.557   1.735
10290SOL    HW131769   2.709   3.534   1.692
10290SOL    HW231770   2.844   3.472   1.759
10291SOL     OW31771   3.508   1.651   3.541
10291SOL    HW131772   3.453   1.733   3.558
10291SOL    HW231773   3.462   1.571   3.578
10292SOL     OW31774   1.708   0.206   4.888
10292SOL    HW131775   1.775   0.277   4.870
10292SOL    HW231776   1.655   0.187   4.805
10293SOL     OW31777   2.091   4.988   2.807
10293SOL    HW131778   2.149   4.913   2.838
10293SOL    HW231779   1.998   4.954   2.793
10294SOL     OW31780   5.580   3.148   2.577
10294SOL    HW131781   5.500   3.105   2.620
10294SOL    HW231782   5.586   3.243   2.606
10295SOL     OW31783   5.545   4.801   6.248
10295SOL    HW131784   5.472   4.869   6.241
10295SOL    HW231785   5.557   4.756   6.159
10296SOL     OW31786   4.709   2.995   0.226
10296SOL    HW131787   4.764   2.947   0.294
10296SOL    HW231788   4.641   2.932   0.187
10297SOL     OW31789   2.238   6.972   6.752
10297SOL    HW131790   2.325   7.008   6.719
10297SOL    HW231791   2.167   6.988   6.684
10298SOL     OW31792   3.621   5.048   2.029
10298SOL    HW131793   3.635   4.962   1.980
10298SOL    HW231794   3.709   5.093   2.044
10299SOL     OW31795   4.741   5.712   2.557
10299SOL    HW131796   4.790   5.654   2.491
10299SOL    HW231797   4.725   5.661   2.641
10300SOL     OW31798   1.090   4.533   3.437
10300SOL    HW131799   1.180   4.572   3.456
10300SOL    HW231800   1.034   4.601   3.389
10301SOL     OW31801   5.589   2.226   4.458
10301SOL    HW131802   5.547   2.289   4.392
10301SOL    HW231803   5.575   2.132   4.429
10302SOL     OW31804   1.068   5.732   3.473
10302SOL    HW131805   1.080   5.678   3.389
10302SOL    HW231806   1.157   5.755   3.511
10303SOL     OW31807   1.884   5.501   2.414
10303SOL    HW131808   1.835   5.587   2.403
10303SOL    HW231809   1.960   5.514   2.478
10304SOL     OW31810   5.155   0.340   2.219
10304SOL    HW131811   5.085   0.304   2.281
10304SOL    HW231812   5.161   0.440   2.229
10305SOL     OW31813   0.705   4.560   6.720
10305SOL    HW131814   0.644   4.589   6.646
10305SOL    HW231815   0.730   4.464   6.707
10306SOL     OW31816   4.242   6.572   0.132
10306SOL    HW131817   4.175   6.646   0.129
10306SOL    HW231818   4.272   6.557   0.226
10307SOL     OW31819   2.149   1.963   4.483
10307SOL    HW131820   2.080   1.939   4.551
10307SOL    HW231821   2.113   2.037   4.424
10308SOL     OW31822   2.014   4.493   4.353
10308SOL    HW131823   2.047   4.477   4.260
10308SOL    HW231824   2.078   4.453   4.419
10309SOL     OW31825   5.930   1.236   4.496
10309SOL    HW131826   5.843   1.223   4.544
10309SOL    HW231827   5.949   1.156   4.440
10310SOL     OW31828   3.860   3.179   1.858
10310SOL    HW131829   3.948   3.138   1.885
10310SOL    HW231830   3.844   3.262   1.910
10311SOL     OW31831   0.983   6.259   1.122
10311SOL    HW131832   1.002   6.348   1.162
10311SOL    HW231833   0.915   6.211   1.177
10312SOL     OW31834   2.641   6.393   1.590
10312SOL    HW131835   2.684   6.483   1.581
10312SOL    HW231836   2.693   6.326   1.536
10313SOL     OW31837   4.438   0.224   0.920
10313SOL    HW131838   4.348   0.203   0.881
10313SOL    HW231839   4.471   0.311   0.884
10314SOL     OW31840   6.927   0.164   2.396
10314SOL    HW131841   7.004   0.221   2.424
10314SOL    HW231842   6.902   0.102   2.470
10315SOL     OW31843   6.169   5.888   4.011
10315SOL    HW131844   6.134   5.886   3.917
10315SOL    HW231845   6.127   5.815   4.064
10316SOL     OW31846   6.611   2.537   5.009
10316SOL    HW131847   6.653   2.446   4.999
10316SOL    HW231848   6.601   2.558   5.106
10317SOL     OW31849   3.643   6.210   5.555
10317SOL    HW131850   3.684   6.294   5.522
10317SOL    HW231851   3.546   6.225   5.576
10318SOL     OW31852   5.418   6.140   6.462
10318SOL    HW131853   5.383   6.176   6.549
10318SOL    HW231854   5.355   6.163   6.389
10319SOL     OW31855   2.147   2.449   5.513
10319SOL    HW131856   2.099   2.465   5.427
10319SOL    HW231857   2.082   2.417   5.582
10320SOL     OW31858   1.053   0.447   2.315
10320SOL    HW131859   0.996   0.369   2.340
10320SOL    HW231860   1.078   0.440   2.218
10321SOL     OW31861   4.361   0.789   2.973
10321SOL    HW131862   4.333   0.879   3.005
10321SOL    HW231863   4.312   0.768   2.888
10322SOL     OW31864   6.690   5.806   6.313
10322SOL    HW131865   6.720   5.901   6.305
10322SOL    HW231866   6.610   5.791   6.255
10323SOL     OW31867   6.263   3.129   6.179
10323SOL    HW131868   6.182   3.092   6.133
10323SOL    HW231869   6.322   3.174   6.112
10324SOL     OW31870   3.163   3.322   3.216
10324SOL    HW131871   3.089   3.388   3.206
10324SOL    HW231872   3.242   3.352   3.164
10325SOL     OW31873   0.036   3.566   2.979
10325SOL    HW131874   0.037   3.660   2.945
10325SOL    HW231875   6.978   3.517   2.940
10326SOL     OW31876   3.832   3.973   0.043
10326SOL    HW131877   3.877   3.920   6.991
10326SOL    HW231878   3.875   4.063   0.050
10327SOL     OW31879   2.497   2.028   1.862
10327SOL    HW131880   2.499   2.091   1.784
10327SOL    HW231881   2.568   2.053   1.927
10328SOL     OW31882   5.893   2.869   0.792
10328SOL    HW131883   5.806   2.836   0.756
10328SOL    HW231884   5.880   2.901   0.886
10329SOL     OW31885   3.740   0.601   3.706
10329SOL    HW131886   3.828   0.574   3.745
10329SOL    HW231887   3.748   0.607   3.606
10330SOL     OW31888   3.504   5.809   1.797
10330SOL    HW131889   3.525   5.747   1.722
10330SOL    HW231890   3.506   5.760   1.883
10331SOL     OW31891   6.579   0.772   4.013
10331SOL    HW131892   6.582   0.767   4.113
10331SOL    HW231893   6.536   0.690   3.976
10332SOL     OW31894   5.846   1.483   0.340
10332SOL    HW131895   5.823   1.505   0.246
10332SOL    HW231896   5.875   1.387   0.346
10333SOL     OW31897   6.771   4.914   4.291
10333SOL    HW131898   6.735   4.881   4.204
10333SOL    HW231899   6.779   4.838   4.355
10334SOL     OW31900   2.497   5.904   4.288
10334SOL    HW131901   2.590   5.895   4.323
10334SOL    HW231902   2.456   5.988   4.323
10335SOL     OW31903   2.720   5.050   6.804
10335SOL    HW131904   2.793   5.064   6.737
10335SOL    HW231905   2.653   4.987   6.768
10336SOL     OW31906   5.763   0.120   3.100
10336SOL    HW131907   5.741   0.040   3.155
10336SOL    HW231908   5.774   0.199   3.160
10337SOL     OW31909   6.608   6.523   5.696
10337SOL    HW131910   6.683   6.457   5.695
10337SOL    HW231911   6.540   6.496   5.763
10338SOL     OW31912   2.639   6.227   2.289
10338SOL    HW131913   2.678   6.267   2.206
10338SOL    HW231914   2.609   6.300   2.351
10339SOL     OW31915   2.624   5.833   6.982
10339SOL    HW131916   2.583   5.783   0.038
10339SOL    HW231917   2.710   5.788   6.956
10340SOL     OW31918   1.231   5.118   0.719
10340SOL    HW131919   1.142   5.104   0.677
10340SOL    HW231920   1.235   5.210   0.759
10341SOL     OW31921   2.055   3.580   1.817
10341SOL    HW131922   2.093   3.524   1.890
10341SOL    HW231923   2.122   3.590   1.744
10342SOL     OW31924   1.622   6.079   5.624
10342SOL    HW131925   1.546   6.082   5.688
10342SOL    HW231926   1.596   6.024   5.544
10343SOL     OW31927   2.178   3.886   0.848
10343SOL    HW131928   2.084   3.898   0.880
10343SOL    HW231929   2.177   3.838   0.760
10344SOL     OW31930   4.205   3.413   1.780
10344SOL    HW131931   4.134   3.384   1.715
10344SOL    HW231932   4.186   3.505   1.812
10345SOL     OW31933   1.798   0.504   5.862
10345SOL    HW131934   1.892   0.475   5.844
10345SOL    HW231935   1.736   0.427   5.848
10346SOL     OW31936   6.124   0.908   1.104
10346SOL    HW131937   6.160   0.834   1.047
10346SOL    HW231938   6.197   0.943   1.163
10347SOL     OW31939   5.051   2.729   2.500
10347SOL    HW131940   5.061   2.630   2.504
10347SOL    HW231941   5.141   2.772   2.509
10348SOL     OW31942   6.458   1.797   0.055
10348SOL    HW131943   6.509   1.882   0.069
10348SOL    HW231944   6.387   1.788   0.126
10349SOL     OW31945   6.451   1.067   0.245
10349SOL    HW131946   6.382   1.061   0.173
10349SOL    HW231947   6.540   1.040   0.208
10350SOL     OW31948   2.292   6.281   5.380
10350SOL    HW131949   2.251   6.366   5.347
10350SOL    HW231950   2.244   6.203   5.339
10351SOL     OW31951   5.542   5.039   6.056
10351SOL    HW131952   5.443   5.049   6.065
10351SOL    HW231953   5.562   4.976   5.981
10352SOL     OW31954   5.854   1.689   6.884
10352SOL    HW131955   5.772   1.702   6.829
10352SOL    HW231956   5.928   1.745   6.848
10353SOL     OW31957   6.105   2.350   4.436
10353SOL    HW131958   6.072   2.439   4.467
10353SOL    HW231959   6.108   2.287   4.513
10354SOL     OW31960   6.964   1.954   1.829
10354SOL    HW131961   6.867   1.938   1.848
10354SOL    HW231962   6.992   1.900   1.750
10355SOL     OW31963   1.645   0.808   0.682
10355SOL    HW131964   1.725   0.867   0.693
10355SOL    HW231965   1.633   0.753   0.765
10356SOL     OW31966   6.768   3.211   5.432
10356SOL    HW131967   6.747   3.124   5.479
10356SOL    HW231968   6.843   3.197   5.368
10357SOL     OW31969   3.464   2.709   5.909
10357SOL    HW131970   3.444   2.755   5.823
10357SOL    HW231971   3.508   2.621   5.890
10358SOL     OW31972   0.424   2.855   3.889
10358SOL    HW131973   0.372   2.783   3.934
10358SOL    HW231974   0.406   2.853   3.791
10359SOL     OW31975   5.442   1.135   1.835
10359SOL    HW131976   5.463   1.047   1.792
10359SOL    HW231977   5.345   1.155   1.825
10360SOL     OW31978   4.849   5.322   1.908
10360SOL    HW131979   4.811   5.305   1.817
10360SOL    HW231980   4.923   5.257   1.925
10361SOL     OW31981   2.833   1.165   2.775
10361SOL    HW131982   2.794   1.229   2.841
10361SOL    HW231983   2.821   1.072   2.808
10362SOL     OW31984   0.447   5.277   2.761
10362SOL    HW131985   0.420   5.349   2.825
10362SOL    HW231986   0.542   5.251   2.777
10363SOL     OW31987   5.057   3.102   1.368
10363SOL    HW131988   5.142   3.058   1.399
10363SOL    HW231989   5.056   3.197   1.399
10364SOL     OW31990   4.368   4.255   1.411
10364SOL    HW131991   4.462   4.239   1.380
10364SOL    HW231992   4.344   4.188   1.481
10365SOL     OW31993   5.191   4.002   6.723
10365SOL    HW131994   5.253   3.928   6.752
10365SOL    HW231995   5.179   3.998   6.624
10366SOL     OW31996   3.124   6.761   3.723
10366SOL    HW131997   3.129   6.845   3.669
10366SOL    HW231998   3.149   6.683   3.667
10367SOL     OW31999   7.019   1.620   1.690
10367SOL    HW132000   0.045   1.551   1.635
10367SOL    HW232001   6.971   1.576   1.766
10368SOL     OW32002   2.076   1.468   2.442
10368SOL    HW132003   2.056   1.397   2.375
10368SOL    HW232004   2.040   1.442   2.531
10369SOL     OW32005   3.148   6.839   5.879
10369SOL    HW132006   3.204   6.771   5.926
10369SOL    HW232007   3.208   6.909   5.839
10370SOL     OW32008   0.184   0.855   5.130
10370SOL    HW132009   0.196   0.953   5.142
10370SOL    HW232010   0.200   0.831   5.034
10371SOL     OW32011   1.889   6.331   4.503
10371SOL    HW132012   1.801   6.337   4.551
10371SOL    HW232013   1.877   6.281   4.417
10372SOL     OW32014   2.113   1.083   6.878
10372SOL    HW132015   2.176   1.103   6.804
10372SOL    HW232016   2.118   1.155   6.947
10373SOL     OW32017   1.421   5.974   4.942
10373SOL    HW132018   1.408   5.931   5.031
10373SOL    HW232019   1.333   6.007   4.907
10374SOL     OW32020   3.270   0.685   3.812
10374SOL    HW132021   3.310   0.747   3.744
10374SOL    HW232022   3.192   0.730   3.856
10375SOL     OW32023   2.341   2.431   6.006
10375SOL    HW132024   2.368   2.437   5.910
10375SOL    HW232025   2.422   2.435   6.064
10376SOL     OW32026   1.048   5.935   3.240
10376SOL    HW132027   1.128   5.879   3.217
10376SOL    HW232028   1.010   5.903   3.327
10377SOL     OW32029   0.103   0.545   2.202
10377SOL    HW132030   0.110   0.616   2.272
10377SOL    HW232031   0.015   0.552   2.156
10378SOL     OW32032   5.865   5.645   5.504
10378SOL    HW132033   5.899   5.590   5.581
10378SOL    HW232034   5.766   5.634   5.497
10379SOL     OW32035   2.656   6.236   4.150
10379SOL    HW132036   2.686   6.143   4.128
10379SOL    HW232037   2.564   6.251   4.114
10380SOL     OW32038   0.837   2.711   4.933
10380SOL    HW132039   0.760   2.764   4.968
10380SOL    HW232040   0.804   2.628   4.889
10381SOL     OW32041   4.372   3.966   1.202
10381SOL    HW132042   4.318   4.030   1.256
10381SOL    HW232043   4.333   3.875   1.209
10382SOL     OW32044   2.289   5.058   1.594
10382SOL    HW132045   2.304   5.041   1.691
10382SOL    HW232046   2.298   5.156   1.575
10383SOL     OW32047   1.061   3.942   0.992
10383SOL    HW132048   1.097   4.035   0.996
10383SOL    HW232049   1.093   3.897   0.909
10384SOL     OW32050   6.574   0.209   0.954
10384SOL    HW132051   6.502   0.261   1.001
10384SOL    HW232052   6.534   0.161   0.876
10385SOL     OW32053   4.242   6.068   6.031
10385SOL    HW132054   4.214   6.159   6.063
10385SOL    HW232055   4.162   6.019   5.996
10386SOL     OW32056   0.032   1.097   5.371
10386SOL    HW132057   6.968   1.046   5.357
10386SOL    HW232058   0.109   1.048   5.330
10387SOL     OW32059   4.480   1.807   2.823
10387SOL    HW132060   4.402   1.777   2.769
10387SOL    HW232061   4.548   1.734   2.826
10388SOL     OW32062   2.240   5.682   1.992
10388SOL    HW132063   2.336   5.705   2.003
10388SOL    HW232064   2.207   5.632   2.072
10389SOL     OW32065   6.232   5.178   0.408
10389SOL    HW132066   6.286   5.124   0.472
10389SOL    HW232067   6.135   5.155   0.418
10390SOL     OW32068   2.047   3.362   1.103
10390SOL    HW132069   2.046   3.289   1.171
10390SOL    HW232070   2.056   3.450   1.148
10391SOL     OW32071   0.486   6.146   3.058
10391SOL    HW132072   0.408   6.159   2.996
10391SOL    HW232073   0.571   6.158   3.008
10392SOL     OW32074   6.718   4.893   5.368
10392SOL    HW132075   6.809   4.934   5.357
10392SOL    HW232076   6.649   4.965   5.363
10393SOL     OW32077   2.521   2.399   3.633
10393SOL    HW132078   2.544   2.453   3.553
10393SOL    HW232079   2.603   2.355   3.668
10394SOL     OW32080   2.590   5.409   5.375
10394SOL    HW132081   2.613   5.471   5.300
10394SOL    HW232082   2.513   5.351   5.349
10395SOL     OW32083   0.797   0.616   1.738
10395SOL    HW132084   0.733   0.588   1.809
10395SOL    HW232085   0.766   0.702   1.697
10396SOL     OW32086   3.876   1.355   3.363
10396SOL    HW132087   3.783   1.335   3.331
10396SOL    HW232088   3.874   1.373   3.462
10397SOL     OW32089   3.118   1.260   4.506
10397SOL    HW132090   3.047   1.308   4.454
10397SOL    HW232091   3.148   1.317   4.583
10398SOL     OW32092   5.483   2.264   0.522
10398SOL    HW132093   5.442   2.196   0.460
10398SOL    HW232094   5.583   2.257   0.518
10399SOL     OW32095   4.911   2.326   4.097
10399SOL    HW132096   5.009   2.346   4.094
10399SOL    HW232097   4.859   2.407   4.070
10400SOL     OW32098   4.089   6.103   0.408
10400SOL    HW132099   4.051   6.101   0.315
10400SOL    HW232100   4.019   6.072   0.473
10401SOL     OW32101   0.493   6.788   2.033
10401SOL    HW132102   0.477   6.885   2.048
10401SOL    HW232103   0.548   6.775   1.951
10402SOL     OW32104   0.271   1.610   5.465
10402SOL    HW132105   0.327   1.637   5.386
10402SOL    HW232106   0.234   1.691   5.510
10403SOL     OW32107   4.316   1.971   2.983
10403SOL    HW132108   4.384   1.905   2.951
10403SOL    HW232109   4.362   2.047   3.029
10404SOL     OW32110   6.898   6.516   4.302
10404SOL    HW132111   6.998   6.512   4.301
10404SOL    HW232112   6.866   6.577   4.229
10405SOL     OW32113   0.961   5.902   4.791
10405SOL    HW132114   0.901   5.858   4.724
10405SOL    HW232115   1.049   5.923   4.748
10406SOL     OW32116   2.198   3.145   4.886
10406SOL    HW132117   2.245   3.087   4.953
10406SOL    HW232118   2.114   3.181   4.926
10407SOL     OW32119   2.852   0.036   6.789
10407SOL    HW132120   2.756   0.043   6.760
10407SOL    HW232121   2.856   0.030   6.889
10408SOL     OW32122   4.558   6.904   1.534
10408SOL    HW132123   4.528   6.845   1.459
10408SOL    HW232124   4.654   6.926   1.523
10409SOL     OW32125   0.132   4.421   0.857
10409SOL    HW132126   0.201   4.489   0.883
10409SOL    HW232127   0.046   4.467   0.836
10410SOL     OW32128   5.068   2.627   1.767
10410SOL    HW132129   5.058   2.630   1.668
10410SOL    HW232130   5.013   2.699   1.809
10411SOL     OW32131   3.046   6.103   4.013
10411SOL    HW132132   3.042   6.169   4.087
10411SOL    HW232133   3.140   6.071   4.000
10412SOL     OW32134   0.371   1.263   0.889
10412SOL    HW132135   0.329   1.290   0.802
10412SOL    HW232136   0.305   1.210   0.943
10413SOL     OW32137   6.160   2.827   1.876
10413SOL    HW132138   6.185   2.735   1.905
10413SOL    HW232139   6.243   2.878   1.852
10414SOL     OW32140   3.397   4.644   6.397
10414SOL    HW132141   3.321   4.616   6.456
10414SOL    HW232142   3.400   4.585   6.316
10415SOL     OW32143   1.662   4.575   4.243
10415SOL    HW132144   1.626   4.575   4.150
10415SOL    HW232145   1.624   4.498   4.294
10416SOL     OW32146   5.671   6.799   5.255
10416SOL    HW132147   5.753   6.755   5.292
10416SOL    HW232148   5.590   6.763   5.301
10417SOL     OW32149   4.220   4.925   3.811
10417SOL    HW132150   4.236   4.887   3.720
10417SOL    HW232151   4.196   4.850   3.874
10418SOL     OW32152   6.692   4.410   5.651
10418SOL    HW132153   6.702   4.435   5.555
10418SOL    HW232154   6.685   4.311   5.659
10419SOL     OW32155   3.413   6.697   6.275
10419SOL    HW132156   3.354   6.650   6.341
10419SOL    HW232157   3.477   6.632   6.235
10420SOL     OW32158   0.628   3.501   4.342
10420SOL    HW132159   0.667   3.571   4.282
10420SOL    HW232160   0.573   3.438   4.288
10421SOL     OW32161   1.284   3.715   3.741
10421SOL    HW132162   1.381   3.738   3.731
10421SOL    HW232163   1.260   3.644   3.675
10422SOL     OW32164   6.424   3.451   5.427
10422SOL    HW132165   6.396   3.360   5.458
10422SOL    HW232166   6.497   3.484   5.486
10423SOL     OW32167   5.524   4.922   5.585
10423SOL    HW132168   5.438   4.873   5.570
10423SOL    HW232169   5.513   5.019   5.562
10424SOL     OW32170   3.772   3.357   0.994
10424SOL    HW132171   3.871   3.368   1.000
10424SOL    HW232172   3.735   3.421   0.927
10425SOL     OW32173   1.106   6.403   2.596
10425SOL    HW132174   1.106   6.500   2.573
10425SOL    HW232175   1.056   6.352   2.526
10426SOL     OW32176   5.033   4.834   0.098
10426SOL    HW132177   5.070   4.741   0.094
10426SOL    HW232178   4.977   4.851   0.017
10427SOL     OW32179   4.356   1.186   0.525
10427SOL    HW132180   4.258   1.206   0.523
10427SOL    HW232181   4.371   1.092   0.557
10428SOL     OW32182   2.950   1.174   4.106
10428SOL    HW132183   2.926   1.249   4.168
10428SOL    HW232184   3.037   1.133   4.135
10429SOL     OW32185   0.006   4.031   2.516
10429SOL    HW132186   0.018   4.095   2.592
10429SOL    HW232187   6.951   4.062   2.457
10430SOL     OW32188   4.382   6.922   5.406
10430SOL    HW132189   4.288   6.901   5.376
10430SOL    HW232190   4.419   6.843   5.455
10431SOL     OW32191   2.234   6.306   4.309
10431SOL    HW132192   2.295   6.287   4.232
10431SOL    HW232193   2.211   6.221   4.356
10432SOL     OW32194   6.225   0.210   4.622
10432SOL    HW132195   6.256   0.116   4.636
10432SOL    HW232196   6.179   0.243   4.705
10433SOL     OW32197   0.590   6.073   2.731
10433SOL    HW132198   0.511   6.011   2.737
10433SOL    HW232199   0.560   6.167   2.747
10434SOL     OW32200   3.755   6.333   2.551
10434SOL    HW132201   3.810   6.250   2.551
10434SOL    HW232202   3.805   6.406   2.505
10435SOL     OW32203   1.189   1.928   5.285
10435SOL    HW132204   1.125   1.905   5.211
10435SOL    HW232205   1.270   1.971   5.246
10436SOL     OW32206   5.855   4.838   5.498
10436SOL    HW132207   5.848   4.930   5.536
10436SOL    HW232208   5.951   4.808   5.502
10437SOL     OW32209   4.759   4.513   5.874
10437SOL    HW132210   4.850   4.493   5.911
10437SOL    HW232211   4.689   4.477   5.935
10438SOL     OW32212   0.286   6.018   6.760
10438SOL    HW132213   0.327   5.931   6.787
10438SOL    HW232214   0.355   6.076   6.717
10439SOL     OW32215   4.182   1.482   4.966
10439SOL    HW132216   4.149   1.461   5.058
10439SOL    HW232217   4.106   1.480   4.902
10440SOL     OW32218   0.305   6.940   0.971
10440SOL    HW132219   0.358   6.946   0.886
10440SOL    HW232220   0.332   7.014   1.032
10441SOL     OW32221   3.596   1.586   1.877
10441SOL    HW132222   3.610   1.607   1.780
10441SOL    HW232223   3.575   1.488   1.887
10442SOL     OW32224   4.450   6.915   6.331
10442SOL    HW132225   4.533   6.966   6.310
10442SOL    HW232226   4.420   6.936   6.424
10443SOL     OW32227   4.840   2.958   3.852
10443SOL    HW132228   4.878   2.990   3.764
10443SOL    HW232229   4.845   3.031   3.919
10444SOL     OW32230   4.221   5.996   2.953
10444SOL    HW132231   4.267   5.913   2.984
10444SOL    HW232232   4.148   5.972   2.889
10445SOL     OW32233   0.878   4.753   4.179
10445SOL    HW132234   0.844   4.686   4.113
10445SOL    HW232235   0.869   4.716   4.271
10446SOL     OW32236   1.951   3.280   6.604
10446SOL    HW132237   1.931   3.203   6.543
10446SOL    HW232238   1.899   3.270   6.689
10447SOL     OW32239   0.325   0.857   3.090
10447SOL    HW132240   0.336   0.876   3.187
10447SOL    HW232241   0.366   0.931   3.036
10448SOL     OW32242   4.567   0.506   2.591
10448SOL    HW132243   4.650   0.450   2.595
10448SOL    HW232244   4.558   0.557   2.677
10449SOL     OW32245   1.553   4.999   5.942
10449SOL    HW132246   1.618   4.927   5.914
10449SOL    HW232247   1.462   4.959   5.951
10450SOL     OW32248   0.253   1.213   0.274
10450SOL    HW132249   0.328   1.242   0.333
10450SOL    HW232250   0.264   1.117   0.251
10451SOL     OW32251   1.894   5.584   2.838
10451SOL    HW132252   1.947   5.545   2.762
10451SOL    HW232253   1.952   5.647   2.889
10452SOL     OW32254   6.441   3.182   2.108
10452SOL    HW132255   6.447   3.256   2.040
10452SOL    HW232256   6.531   3.141   2.120
10453SOL     OW32257   5.564   7.016   1.183
10453SOL    HW132258   5.621   7.000   1.263
10453SOL    HW232259   5.470   6.988   1.203
10454SOL     OW32260   4.906   3.240   0.305
10454SOL    HW132261   4.952   3.195   0.228
10454SOL    HW232262   4.809   3.216   0.305
10455SOL     OW32263   6.862   6.850   3.439
10455SOL    HW132264   6.781   6.791   3.433
10455SOL    HW232265   6.936   6.800   3.484
10456SOL     OW32266   1.640   5.559   0.504
10456SOL    HW132267   1.696   5.534   0.425
10456SOL    HW232268   1.699   5.595   0.576
10457SOL     OW32269   3.679   3.085   1.053
10457SOL    HW132270   3.639   3.029   0.980
10457SOL    HW232271   3.729   3.161   1.013
10458SOL     OW32272   6.401   0.368   6.169
10458SOL    HW132273   6.372   0.382   6.075
10458SOL    HW232274   6.375   0.276   6.198
10459SOL     OW32275   4.456   6.071   1.685
10459SOL    HW132276   4.477   6.115   1.597
10459SOL    HW232277   4.530   6.008   1.709
10460SOL     OW32278   0.654   4.203   1.901
10460SOL    HW132279   0.558   4.232   1.900
10460SOL    HW232280   0.672   4.146   1.821
10461SOL     OW32281   5.991   5.604   4.753
10461SOL    HW132282   6.046   5.527   4.722
10461SOL    HW232283   5.998   5.678   4.686
10462SOL     OW32284   5.074   1.643   3.355
10462SOL    HW132285   5.086   1.667   3.259
10462SOL    HW232286   4.998   1.578   3.365
10463SOL     OW32287   4.594   3.128   5.862
10463SOL    HW132288   4.535   3.080   5.797
10463SOL    HW232289   4.672   3.070   5.885
10464SOL     OW32290   6.987   6.365   1.312
10464SOL    HW132291   6.889   6.382   1.324
10464SOL    HW232292   7.007   6.351   1.216
10465SOL     OW32293   6.015   6.129   0.555
10465SOL    HW132294   6.061   6.103   0.640
10465SOL    HW232295   6.052   6.215   0.522
10466SOL     OW32296   4.966   5.144   5.447
10466SOL    HW132297   4.898   5.217   5.459
10466SOL    HW232298   5.027   5.167   5.371
10467SOL     OW32299   2.692   1.594   0.143
10467SOL    HW132300   2.606   1.546   0.124
10467SOL    HW232301   2.687   1.638   0.233
10468SOL     OW32302   3.801   5.263   3.013
10468SOL    HW132303   3.817   5.319   2.932
10468SOL    HW232304   3.820   5.317   3.095
10469SOL     OW32305   4.032   4.649   5.398
10469SOL    HW132306   3.976   4.577   5.356
10469SOL    HW232307   4.025   4.644   5.497
10470SOL     OW32308   2.174   2.513   3.424
10470SOL    HW132309   2.076   2.521   3.405
10470SOL    HW232310   2.187   2.454   3.504
10471SOL     OW32311   3.363   1.304   0.858
10471SOL    HW132312   3.326   1.390   0.892
10471SOL    HW232313   3.307   1.228   0.890
10472SOL     OW32314   3.401   5.937   0.519
10472SOL    HW132315   3.452   5.866   0.569
10472SOL    HW232316   3.447   5.957   0.433
10473SOL     OW32317   6.697   6.546   0.154
10473SOL    HW132318   6.627   6.616   0.169
10473SOL    HW232319   6.748   6.531   0.239
10474SOL     OW32320   3.514   1.739   4.252
10474SOL    HW132321   3.494   1.768   4.159
10474SOL    HW232322   3.440   1.680   4.285
10475SOL     OW32323   4.854   6.943   1.027
10475SOL    HW132324   4.765   6.986   1.043
10475SOL    HW232325   4.877   6.884   1.105
10476SOL     OW32326   0.102   6.698   0.233
10476SOL    HW132327   0.083   6.618   0.289
10476SOL    HW232328   0.178   6.679   0.171
10477SOL     OW32329   6.813   0.824   4.468
10477SOL    HW132330   6.779   0.886   4.539
10477SOL    HW232331   6.812   0.730   4.502
10478SOL     OW32332   6.381   0.808   0.986
10478SOL    HW132333   6.437   0.729   0.961
10478SOL    HW232334   6.364   0.864   0.906
10479SOL     OW32335   6.558   1.772   3.035
10479SOL    HW132336   6.656   1.764   3.018
10479SOL    HW232337   6.540   1.858   3.084
10480SOL     OW32338   6.740   0.095   1.716
10480SOL    HW132339   6.656   0.142   1.689
10480SOL    HW232340   6.726   0.048   1.804
10481SOL     OW32341   2.632   6.925   4.125
10481SOL    HW132342   2.589   6.928   4.215
10481SOL    HW232343   2.719   6.877   4.131
10482SOL     OW32344   6.350   4.862   4.601
10482SOL    HW132345   6.421   4.907   4.547
10482SOL    HW232346   6.287   4.931   4.638
10483SOL     OW32347   6.558   4.493   0.063
10483SOL    HW132348   6.477   4.553   0.066
10483SOL    HW232349   6.632   4.539   0.015
10484SOL     OW32350   5.994   1.828   1.863
10484SOL    HW132351   6.003   1.916   1.817
10484SOL    HW232352   5.927   1.836   1.937
10485SOL     OW32353   3.212   3.631   0.522
10485SOL    HW132354   3.210   3.729   0.542
10485SOL    HW232355   3.300   3.607   0.482
10486SOL     OW32356   0.117   0.389   0.555
10486SOL    HW132357   0.211   0.410   0.527
10486SOL    HW232358   0.104   0.289   0.554
10487SOL     OW32359   4.961   1.673   1.568
10487SOL    HW132360   5.030   1.665   1.639
10487SOL    HW232361   4.921   1.764   1.570
10488SOL     OW32362   3.310   1.526   5.715
10488SOL    HW132363   3.303   1.625   5.705
10488SOL    HW232364   3.401   1.496   5.687
10489SOL     OW32365   0.177   6.998   5.048
10489SOL    HW132366   0.128   0.005   4.965
10489SOL    HW232367   0.276   7.003   5.031
10490SOL     OW32368   5.588   1.681   0.737
10490SOL    HW132369   5.626   1.689   0.645
10490SOL    HW232370   5.549   1.770   0.764
10491SOL     OW32371   2.725   2.419   5.961
10491SOL    HW132372   2.683   2.393   6.048
10491SOL    HW232373   2.725   2.518   5.952
10492SOL     OW32374   5.522   5.434   0.753
10492SOL    HW132375   5.594   5.495   0.720
10492SOL    HW232376   5.560   5.368   0.818
10493SOL     OW32377   3.611   0.257   1.498
10493SOL    HW132378   3.626   0.315   1.578
10493SOL    HW232379   3.528   0.287   1.451
10494SOL     OW32380   6.055   3.998   5.807
10494SOL    HW132381   6.135   3.958   5.852
10494SOL    HW232382   6.068   3.997   5.708
10495SOL     OW32383   1.513   6.524   1.573
10495SOL    HW132384   1.480   6.454   1.510
10495SOL    HW232385   1.482   6.614   1.543
10496SOL     OW32386   6.615   3.735   6.726
10496SOL    HW132387   6.634   3.831   6.706
10496SOL    HW232388   6.577   3.691   6.645
10497SOL     OW32389   2.032   6.999   2.058
10497SOL    HW132390   1.941   0.002   2.023
10497SOL    HW232391   2.035   7.016   2.156
10498SOL     OW32392   4.893   5.413   1.103
10498SOL    HW132393   4.807   5.368   1.079
10498SOL    HW232394   4.874   5.500   1.149
10499SOL     OW32395   4.284   6.628   2.091
10499SOL    HW132396   4.193   6.660   2.065
10499SOL    HW232397   4.353   6.693   2.058
10500SOL     OW32398   6.494   1.335   5.882
10500SOL    HW132399   6.461   1.371   5.795
10500SOL    HW232400   6.510   1.236   5.873
10501SOL     OW32401   2.520   5.708   2.047
10501SOL    HW132402   2.573   5.667   2.121
10501SOL    HW232403   2.571   5.785   2.009
10502SOL     OW32404   2.475   1.441   1.971
10502SOL    HW132405   2.543   1.473   2.038
10502SOL    HW232406   2.516   1.440   1.880
10503SOL     OW32407   4.753   2.568   0.905
10503SOL    HW132408   4.746   2.519   0.818
10503SOL    HW232409   4.790   2.507   0.975
10504SOL     OW32410   1.522   1.983   5.687
10504SOL    HW132411   1.469   2.040   5.625
10504SOL    HW232412   1.480   1.892   5.693
10505SOL     OW32413   5.028   5.196   0.879
10505SOL    HW132414   5.053   5.256   0.954
10505SOL    HW232415   5.035   5.246   0.792
10506SOL     OW32416   0.226   4.138   0.526
10506SOL    HW132417   0.192   4.127   0.620
10506SOL    HW232418   0.226   4.049   0.480
10507SOL     OW32419   1.745   6.662   0.800
10507SOL    HW132420   1.773   6.701   0.887
10507SOL    HW232421   1.825   6.636   0.747
10508SOL     OW32422   6.095   5.589   4.134
10508SOL    HW132423   6.181   5.603   4.086
10508SOL    HW232424   6.083   5.491   4.153
10509SOL     OW32425   7.018   4.895   4.877
10509SOL    HW132426   0.054   4.940   4.947
10509SOL    HW232427   0.010   4.796   4.884
10510SOL     OW32428   4.796   5.625   6.518
10510SOL    HW132429   4.702   5.634   6.551
10510SOL    HW232430   4.835   5.539   6.550
10511SOL     OW32431   3.149   1.228   2.333
10511SOL    HW132432   3.245   1.233   2.362
10511SOL    HW232433   3.129   1.306   2.273
10512SOL     OW32434   4.549   0.612   6.456
10512SOL    HW132435   4.547   0.701   6.409
10512SOL    HW232436   4.464   0.563   6.436
10513SOL     OW32437   5.799   2.313   4.654
10513SOL    HW132438   5.725   2.271   4.601
10513SOL    HW232439   5.884   2.262   4.639
10514SOL     OW32440   0.588   3.193   1.190
10514SOL    HW132441   0.584   3.292   1.199
10514SOL    HW232442   0.510   3.160   1.138
10515SOL     OW32443   0.854   3.918   4.100
10515SOL    HW132444   0.803   3.926   4.015
10515SOL    HW232445   0.947   3.888   4.080
10516SOL     OW32446   4.189   1.577   0.684
10516SOL    HW132447   4.124   1.513   0.643
10516SOL    HW232448   4.277   1.532   0.698
10517SOL     OW32449   0.630   2.977   1.561
10517SOL    HW132450   0.681   2.967   1.475
10517SOL    HW232451   0.622   3.074   1.584
10518SOL     OW32452   0.526   5.975   0.548
10518SOL    HW132453   0.428   5.968   0.564
10518SOL    HW232454   0.574   5.975   0.636
10519SOL     OW32455   3.708   3.506   0.779
10519SOL    HW132456   3.750   3.491   0.690
10519SOL    HW232457   3.666   3.597   0.781
10520SOL     OW32458   0.408   2.111   6.137
10520SOL    HW132459   0.390   2.208   6.116
10520SOL    HW232460   0.451   2.068   6.058
10521SOL     OW32461   6.412   5.360   1.673
10521SOL    HW132462   6.314   5.356   1.693
10521SOL    HW232463   6.463   5.367   1.759
10522SOL     OW32464   0.604   0.171   5.276
10522SOL    HW132465   0.669   0.238   5.239
10522SOL    HW232466   0.608   0.088   5.220
10523SOL     OW32467   0.708   4.688   2.885
10523SOL    HW132468   0.727   4.666   2.789
10523SOL    HW232469   0.614   4.722   2.892
10524SOL     OW32470   0.672   6.996   3.770
10524SOL    HW132471   0.632   6.928   3.832
10524SOL    HW232472   0.727   0.040   3.821
10525SOL     OW32473   4.647   0.331   6.314
10525SOL    HW132474   4.675   0.320   6.409
10525SOL    HW232475   4.566   0.389   6.309
10526SOL     OW32476   1.749   6.849   3.273
10526SOL    HW132477   1.823   6.908   3.305
10526SOL    HW232478   1.746   6.851   3.173
10527SOL     OW32479   1.025   1.500   5.280
10527SOL    HW132480   0.971   1.416   5.289
10527SOL    HW232481   1.029   1.528   5.184
10528SOL     OW32482   1.584   3.277   6.233
10528SOL    HW132483   1.607   3.313   6.323
10528SOL    HW232484   1.593   3.178   6.233
10529SOL     OW32485   3.026   6.264   4.247
10529SOL    HW132486   2.949   6.279   4.308
10529SOL    HW232487   3.082   6.347   4.241
10530SOL     OW32488   1.477   6.903   6.380
10530SOL    HW132489   1.519   6.994   6.379
10530SOL    HW232490   1.378   6.912   6.390
10531SOL     OW32491   1.567   2.813   4.414
10531SOL    HW132492   1.623   2.750   4.360
10531SOL    HW232493   1.548   2.774   4.504
10532SOL     OW32494   1.150   6.875   6.069
10532SOL    HW132495   1.056   6.907   6.083
10532SOL    HW232496   1.167   6.796   6.127
10533SOL     OW32497   2.946   6.631   3.376
10533SOL    HW132498   2.995   6.718   3.371
10533SOL    HW232499   2.944   6.599   3.471
10534SOL     OW32500   6.618   5.554   1.639
10534SOL    HW132501   6.521   5.530   1.644
10534SOL    HW232502   6.627   5.652   1.625
10535SOL     OW32503   0.954   2.141   1.614
10535SOL    HW132504   0.856   2.121   1.604
10535SOL    HW232505   0.996   2.073   1.675
10536SOL     OW32506   4.069   1.144   4.016
10536SOL    HW132507   4.044   1.058   3.971
10536SOL    HW232508   3.988   1.203   4.022
10537SOL     OW32509   4.066   6.002   3.826
10537SOL    HW132510   3.973   6.014   3.792
10537SOL    HW232511   4.109   6.091   3.840
10538SOL     OW32512   5.776   2.958   0.319
10538SOL    HW132513   5.820   2.868   0.311
10538SOL    HW232514   5.816   3.007   0.397
10539SOL     OW32515   0.779   4.977   6.796
10539SOL    HW132516   0.717   4.928   6.735
10539SOL    HW232517   0.864   4.997   6.747
10540SOL     OW32518   1.759   2.060   5.775
10540SOL    HW132519   1.668   2.047   5.736
10540SOL    HW232520   1.751   2.072   5.874
10541SOL     OW32521   3.005   3.842   2.192
10541SOL    HW132522   2.964   3.827   2.282
10541SOL    HW232523   2.994   3.760   2.136
10542SOL     OW32524   0.965   0.337   5.554
10542SOL    HW132525   1.028   0.365   5.481
10542SOL    HW232526   0.981   0.393   5.636
10543SOL     OW32527   6.954   1.178   4.998
10543SOL    HW132528   0.006   1.110   5.009
10543SOL    HW232529   6.977   1.240   4.923
10544SOL     OW32530   2.708   6.855   1.946
10544SOL    HW132531   2.755   6.944   1.948
10544SOL    HW232532   2.774   6.782   1.965
10545SOL     OW32533   0.220   2.423   1.147
10545SOL    HW132534   0.199   2.325   1.140
10545SOL    HW232535   0.274   2.439   1.230
10546SOL     OW32536   1.603   0.673   0.907
10546SOL    HW132537   1.652   0.587   0.910
10546SOL    HW232538   1.565   0.694   0.997
10547SOL     OW32539   4.964   3.236   3.008
10547SOL    HW132540   4.944   3.189   2.922
10547SOL    HW232541   4.879   3.264   3.051
10548SOL     OW32542   5.803   4.563   4.231
10548SOL    HW132543   5.767   4.484   4.182
10548SOL    HW232544   5.769   4.562   4.326
10549SOL     OW32545   0.653   0.196   1.813
10549SOL    HW132546   0.578   0.136   1.839
10549SOL    HW232547   0.691   0.239   1.894
10550SOL     OW32548   4.551   6.914   3.665
10550SOL    HW132549   4.454   6.895   3.654
10550SOL    HW232550   4.583   6.877   3.752
10551SOL     OW32551   1.510   2.454   6.702
10551SOL    HW132552   1.455   2.385   6.750
10551SOL    HW232553   1.504   2.438   6.603
10552SOL     OW32554   2.865   0.875   5.958
10552SOL    HW132555   2.944   0.815   5.946
10552SOL    HW232556   2.833   0.908   5.869
10553SOL     OW32557   0.547   4.670   1.564
10553SOL    HW132558   0.540   4.758   1.611
10553SOL    HW232559   0.514   4.680   1.470
10554SOL     OW32560   5.942   4.793   0.586
10554SOL    HW132561   5.903   4.810   0.495
10554SOL    HW232562   5.870   4.798   0.654
10555SOL     OW32563   2.171   2.513   0.322
10555SOL    HW132564   2.110   2.455   0.375
10555SOL    HW232565   2.133   2.526   0.230
10556SOL     OW32566   1.808   1.504   4.867
10556SOL    HW132567   1.717   1.508   4.826
10556SOL    HW232568   1.876   1.491   4.795
10557SOL     OW32569   1.955   3.152   3.383
10557SOL    HW132570   1.924   3.216   3.454
10557SOL    HW232571   1.950   3.058   3.418
10558SOL     OW32572   4.150   0.294   4.221
10558SOL    HW132573   4.106   0.313   4.309
10558SOL    HW232574   4.192   0.204   4.223
10559SOL     OW32575   5.063   0.568   1.957
10559SOL    HW132576   5.137   0.592   2.020
10559SOL    HW232577   4.986   0.531   2.009
10560SOL     OW32578   4.329   6.478   2.578
10560SOL    HW132579   4.339   6.392   2.528
10560SOL    HW232580   4.237   6.485   2.615
10561SOL     OW32581   3.497   4.178   1.582
10561SOL    HW132582   3.492   4.177   1.682
10561SOL    HW232583   3.510   4.085   1.549
10562SOL     OW32584   3.910   5.575   6.850
10562SOL    HW132585   4.001   5.550   6.816
10562SOL    HW232586   3.845   5.571   6.775
10563SOL     OW32587   0.337   1.795   3.443
10563SOL    HW132588   0.350   1.864   3.371
10563SOL    HW232589   0.426   1.769   3.480
10564SOL     OW32590   6.081   6.235   2.613
10564SOL    HW132591   6.003   6.235   2.677
10564SOL    HW232592   6.128   6.322   2.618
10565SOL     OW32593   0.811   6.786   5.551
10565SOL    HW132594   0.799   6.879   5.515
10565SOL    HW232595   0.899   6.779   5.596
10566SOL     OW32596   3.530   2.086   6.650
10566SOL    HW132597   3.550   2.006   6.706
10566SOL    HW232598   3.588   2.163   6.679
10567SOL     OW32599   2.760   2.020   5.006
10567SOL    HW132600   2.797   2.026   5.098
10567SOL    HW232601   2.828   2.051   4.940
10568SOL     OW32602   6.856   3.342   1.621
10568SOL    HW132603   6.759   3.366   1.624
10568SOL    HW232604   6.866   3.246   1.596
10569SOL     OW32605   5.811   1.644   2.366
10569SOL    HW132606   5.821   1.613   2.461
10569SOL    HW232607   5.899   1.638   2.319
10570SOL     OW32608   1.316   4.986   3.174
10570SOL    HW132609   1.359   4.899   3.201
10570SOL    HW232610   1.229   4.997   3.221
10571SOL     OW32611   7.000   4.356   5.377
10571SOL    HW132612   6.991   4.445   5.333
10571SOL    HW232613   0.017   4.368   5.470
10572SOL     OW32614   6.604   3.848   3.376
10572SOL    HW132615   6.603   3.943   3.408
10572SOL    HW232616   6.688   3.831   3.324
10573SOL     OW32617   5.642   0.451   5.029
10573SOL    HW132618   5.614   0.516   5.100
10573SOL    HW232619   5.588   0.367   5.037
10574SOL     OW32620   1.369   1.483   4.124
10574SOL    HW132621   1.272   1.460   4.125
10574SOL    HW232622   1.380   1.581   4.110
10575SOL     OW32623   0.107   1.287   3.967
10575SOL    HW132624   0.121   1.306   4.064
10575SOL    HW232625   0.184   1.324   3.915
10576SOL     OW32626   6.958   5.413   5.158
10576SOL    HW132627   0.024   5.426   5.110
10576SOL    HW232628   6.900   5.493   5.145
10577SOL     OW32629   1.899   4.474   0.387
10577SOL    HW132630   1.858   4.400   0.334
10577SOL    HW232631   1.872   4.562   0.349
10578SOL     OW32632   4.748   1.263   2.748
10578SOL    HW132633   4.824   1.323   2.769
10578SOL    HW232634   4.717   1.218   2.832
10579SOL     OW32635   4.216   2.848   1.724
10579SOL    HW132636   4.137   2.834   1.783
10579SOL    HW232637   4.248   2.942   1.731
10580SOL     OW32638   6.557   0.534   6.315
10580SOL    HW132639   6.499   0.480   6.254
10580SOL    HW232640   6.609   0.601   6.261
10581SOL     OW32641   6.153   6.989   2.771
10581SOL    HW132642   6.067   6.990   2.822
10581SOL    HW232643   6.226   0.004   2.829
10582SOL     OW32644   4.705   4.781   5.902
10582SOL    HW132645   4.726   4.692   5.862
10582SOL    HW232646   4.668   4.841   5.832
10583SOL     OW32647   3.870   1.375   3.667
10583SOL    HW132648   3.867   1.314   3.746
10583SOL    HW232649   3.839   1.466   3.695
10584SOL     OW32650   6.571   0.443   0.246
10584SOL    HW132651   6.565   0.531   0.294
10584SOL    HW232652   6.550   0.369   0.309
10585SOL     OW32653   2.488   1.637   5.307
10585SOL    HW132654   2.418   1.685   5.255
10585SOL    HW232655   2.578   1.676   5.285
10586SOL     OW32656   6.736   5.430   4.620
10586SOL    HW132657   6.652   5.386   4.588
10586SOL    HW232658   6.726   5.529   4.612
10587SOL     OW32659   6.407   4.676   6.870
10587SOL    HW132660   6.312   4.655   6.850
10587SOL    HW232661   6.415   4.710   6.964
10588SOL     OW32662   1.727   3.512   4.544
10588SOL    HW132663   1.725   3.594   4.487
10588SOL    HW232664   1.654   3.450   4.515
10589SOL     OW32665   6.678   1.147   4.430
10589SOL    HW132666   6.611   1.091   4.381
10589SOL    HW232667   6.688   1.113   4.523
10590SOL     OW32668   0.405   0.322   1.446
10590SOL    HW132669   0.411   0.347   1.542
10590SOL    HW232670   0.309   0.305   1.422
10591SOL     OW32671   1.861   1.900   6.946
10591SOL    HW132672   1.886   1.991   6.980
10591SOL    HW232673   1.863   1.901   6.846
10592SOL     OW32674   5.967   3.427   2.763
10592SOL    HW132675   5.931   3.342   2.801
10592SOL    HW232676   5.934   3.438   2.669
10593SOL     OW32677   2.315   6.375   0.516
10593SOL    HW132678   2.294   6.334   0.428
10593SOL    HW232679   2.413   6.390   0.524
10594SOL     OW32680   5.108   0.677   2.919
10594SOL    HW132681   5.072   0.702   3.008
10594SOL    HW232682   5.149   0.586   2.923
10595SOL     OW32683   4.281   6.237   0.149
10595SOL    HW132684   4.290   6.303   0.223
10595SOL    HW232685   4.351   6.254   0.080
10596SOL     OW32686   4.390   0.581   0.426
10596SOL    HW132687   4.427   0.488   0.423
10596SOL    HW232688   4.299   0.582   0.385
10597SOL     OW32689   3.124   1.074   5.613
10597SOL    HW132690   3.189   1.149   5.627
10597SOL    HW232691   3.132   1.038   5.521
10598SOL     OW32692   3.635   2.795   0.107
10598SOL    HW132693   3.609   2.892   0.100
10598SOL    HW232694   3.721   2.788   0.159
10599SOL     OW32695   5.280   3.541   6.157
10599SOL    HW132696   5.371   3.500   6.156
10599SOL    HW232697   5.217   3.482   6.107
10600SOL     OW32698   3.138   2.640   0.310
10600SOL    HW132699   3.063   2.694   0.271
10600SOL    HW232700   3.220   2.651   0.255
10601SOL     OW32701   1.648   4.733   5.166
10601SOL    HW132702   1.654   4.700   5.072
10601SOL    HW232703   1.738   4.730   5.209
10602SOL     OW32704   2.481   0.849   2.032
10602SOL    HW132705   2.449   0.757   2.056
10602SOL    HW232706   2.564   0.843   1.976
10603SOL     OW32707   3.901   0.409   3.039
10603SOL    HW132708   3.867   0.326   3.084
10603SOL    HW232709   4.001   0.411   3.046
10604SOL     OW32710   6.005   5.896   5.019
10604SOL    HW132711   5.994   5.816   5.077
10604SOL    HW232712   6.102   5.914   5.005
10605SOL     OW32713   1.773   6.468   6.698
10605SOL    HW132714   1.692   6.484   6.642
10605SOL    HW232715   1.755   6.396   6.764
10606SOL     OW32716   0.274   0.528   1.898
10606SOL    HW132717   0.314   0.485   1.817
10606SOL    HW232718   0.312   0.486   1.980
10607SOL     OW32719   4.573   5.188   5.764
10607SOL    HW132720   4.585   5.228   5.674
10607SOL    HW232721   4.483   5.211   5.800
10608SOL     OW32722   5.627   3.173   5.756
10608SOL    HW132723   5.584   3.097   5.804
10608SOL    HW232724   5.686   3.138   5.683
10609SOL     OW32725   2.194   6.643   6.789
10609SOL    HW132726   2.198   6.687   6.879
10609SOL    HW232727   2.273   6.671   6.735
10610SOL     OW32728   0.878   2.371   4.378
10610SOL    HW132729   0.958   2.355   4.436
10610SOL    HW232730   0.861   2.470   4.372
10611SOL     OW32731   2.701   3.977   6.657
10611SOL    HW132732   2.725   4.023   6.571
10611SOL    HW232733   2.736   4.030   6.734
10612SOL     OW32734   3.604   1.646   4.739
10612SOL    HW132735   3.592   1.690   4.651
10612SOL    HW232736   3.626   1.549   4.726
10613SOL     OW32737   5.420   5.906   5.457
10613SOL    HW132738   5.338   5.850   5.443
10613SOL    HW232739   5.448   5.947   5.371
10614SOL     OW32740   5.033   1.619   4.576
10614SOL    HW132741   5.115   1.674   4.558
10614SOL    HW232742   5.052   1.553   4.648
10615SOL     OW32743   4.592   0.658   5.739
10615SOL    HW132744   4.574   0.707   5.824
10615SOL    HW232745   4.641   0.573   5.760
10616SOL     OW32746   2.474   6.965   0.187
10616SOL    HW132747   2.508   0.035   0.161
10616SOL    HW232748   2.472   6.957   0.287
10617SOL     OW32749   3.094   3.722   1.453
10617SOL    HW132750   3.143   3.653   1.400
10617SOL    HW232751   3.148   3.747   1.534
10618SOL     OW32752   1.210   3.629   5.711
10618SOL    HW132753   1.297   3.674   5.687
10618SOL    HW232754   1.166   3.679   5.786
10619SOL     OW32755   0.165   3.261   2.262
10619SOL    HW132756   0.110   3.299   2.337
10619SOL    HW232757   0.151   3.163   2.257
10620SOL     OW32758   0.999   5.901   5.093
10620SOL    HW132759   1.048   5.983   5.124
10620SOL    HW232760   0.953   5.920   5.006
10621SOL     OW32761   0.704   4.963   1.802
10621SOL    HW132762   0.790   4.916   1.788
10621SOL    HW232763   0.704   5.049   1.750
10622SOL     OW32764   4.754   2.057   1.920
10622SOL    HW132765   4.813   2.081   1.997
10622SOL    HW232766   4.662   2.036   1.953
10623SOL     OW32767   0.357   4.806   5.381
10623SOL    HW132768   0.445   4.805   5.334
10623SOL    HW232769   0.291   4.858   5.327
10624SOL     OW32770   0.838   2.172   4.732
10624SOL    HW132771   0.891   2.120   4.665
10624SOL    HW232772   0.806   2.257   4.690
10625SOL     OW32773   0.778   4.502   0.825
10625SOL    HW132774   0.766   4.424   0.887
10625SOL    HW232775   0.696   4.511   0.768
10626SOL     OW32776   2.649   2.649   0.388
10626SOL    HW132777   2.617   2.556   0.377
10626SOL    HW232778   2.607   2.690   0.470
10627SOL     OW32779   5.189   0.322   1.058
10627SOL    HW132780   5.133   0.240   1.070
10627SOL    HW232781   5.283   0.296   1.039
10628SOL     OW32782   4.640   6.400   0.304
10628SOL    HW132783   4.542   6.406   0.323
10628SOL    HW232784   4.660   6.313   0.259
10629SOL     OW32785   2.503   4.847   5.333
10629SOL    HW132786   2.449   4.835   5.249
10629SOL    HW232787   2.585   4.789   5.328
10630SOL     OW32788   6.051   1.324   3.891
10630SOL    HW132789   6.137   1.374   3.894
10630SOL    HW232790   6.055   1.255   3.819
10631SOL     OW32791   3.062   5.339   5.543
10631SOL    HW132792   3.008   5.264   5.580
10631SOL    HW232793   3.105   5.310   5.458
10632SOL     OW32794   5.688   1.282   3.619
10632SOL    HW132795   5.626   1.359   3.605
10632SOL    HW232796   5.665   1.235   3.704
10633SOL     OW32797   2.253   2.911   0.755
10633SOL    HW132798   2.292   2.827   0.793
10633SOL    HW232799   2.197   2.888   0.675
10634SOL     OW32800   3.273   4.612   0.678
10634SOL    HW132801   3.253   4.649   0.587
10634SOL    HW232802   3.366   4.639   0.705
10635SOL     OW32803   1.733   3.172   0.982
10635SOL    HW132804   1.682   3.218   0.909
10635SOL    HW232805   1.830   3.190   0.971
10636SOL     OW32806   0.572   2.054   1.314
10636SOL    HW132807   0.649   2.116   1.312
10636SOL    HW232808   0.593   1.975   1.373
10637SOL     OW32809   2.382   4.377   6.296
10637SOL    HW132810   2.351   4.452   6.355
10637SOL    HW232811   2.309   4.351   6.233
10638SOL     OW32812   6.412   5.302   2.520
10638SOL    HW132813   6.326   5.312   2.570
10638SOL    HW232814   6.488   5.300   2.585
10639SOL     OW32815   1.213   3.282   3.378
10639SOL    HW132816   1.175   3.330   3.299
10639SOL    HW232817   1.297   3.328   3.408
10640SOL     OW32818   3.721   0.203   5.089
10640SOL    HW132819   3.737   0.108   5.060
10640SOL    HW232820   3.659   0.248   5.025
10641SOL     OW32821   2.172   1.837   1.839
10641SOL    HW132822   2.215   1.916   1.883
10641SOL    HW232823   2.209   1.753   1.878
10642SOL     OW32824   6.211   2.619   1.562
10642SOL    HW132825   6.266   2.701   1.578
10642SOL    HW232826   6.136   2.617   1.628
10643SOL     OW32827   1.786   5.298   5.126
10643SOL    HW132828   1.756   5.266   5.036
10643SOL    HW232829   1.885   5.287   5.134
10644SOL     OW32830   5.682   2.758   2.736
10644SOL    HW132831   5.744   2.726   2.808
10644SOL    HW232832   5.588   2.734   2.761
10645SOL     OW32833   1.640   2.659   5.145
10645SOL    HW132834   1.560   2.606   5.121
10645SOL    HW232835   1.712   2.645   5.077
10646SOL     OW32836   0.597   0.555   6.692
10646SOL    HW132837   0.618   0.567   6.789
10646SOL    HW232838   0.508   0.510   6.683
10647SOL     OW32839   2.822   5.409   5.002
10647SOL    HW132840   2.814   5.324   4.949
10647SOL    HW232841   2.893   5.398   5.071
10648SOL     OW32842   6.006   4.274   6.156
10648SOL    HW132843   6.102   4.247   6.158
10648SOL    HW232844   5.949   4.192   6.150
10649SOL     OW32845   6.979   4.575   2.554
10649SOL    HW132846   6.962   4.571   2.652
10649SOL    HW232847   7.018   4.664   2.531
10650SOL     OW32848   1.020   0.478   4.087
10650SOL    HW132849   0.962   0.546   4.133
10650SOL    HW232850   0.980   0.456   3.998
10651SOL     OW32851   5.505   6.401   6.851
10651SOL    HW132852   5.425   6.343   6.836
10651SOL    HW232853   5.475   6.494   6.875
10652SOL     OW32854   3.518   0.029   5.560
10652SOL    HW132855   3.573   0.103   5.600
10652SOL    HW232856   3.566   6.962   5.574
10653SOL     OW32857   4.038   5.098   3.023
10653SOL    HW132858   4.021   5.026   2.955
10653SOL    HW232859   3.961   5.161   3.024
10654SOL     OW32860   5.335   0.932   0.593
10654SOL    HW132861   5.281   1.010   0.559
10654SOL    HW232862   5.277   0.850   0.594
10655SOL     OW32863   2.261   5.396   0.754
10655SOL    HW132864   2.180   5.376   0.700
10655SOL    HW232865   2.298   5.312   0.792
10656SOL     OW32866   6.779   2.386   2.642
10656SOL    HW132867   6.867   2.349   2.672
10656SOL    HW232868   6.786   2.485   2.634
10657SOL     OW32869   6.524   0.007   5.941
10657SOL    HW132870   6.424   0.002   5.939
10657SOL    HW232871   6.559   0.021   5.849
10658SOL     OW32872   6.237   4.767   4.913
10658SOL    HW132873   6.233   4.742   5.010
10658SOL    HW232874   6.303   4.709   4.867
10659SOL     OW32875   0.400   5.544   1.072
10659SOL    HW132876   0.330   5.487   1.116
10659SOL    HW232877   0.454   5.591   1.143
10660SOL     OW32878   5.000   4.344   6.281
10660SOL    HW132879   5.064   4.388   6.345
10660SOL    HW232880   5.029   4.250   6.266
10661SOL     OW32881   1.345   6.785   1.712
10661SOL    HW132882   1.280   6.721   1.670
10661SOL    HW232883   1.391   6.837   1.640
10662SOL     OW32884   5.613   6.388   3.072
10662SOL    HW132885   5.572   6.442   2.998
10662SOL    HW232886   5.624   6.446   3.153
10663SOL     OW32887   0.323   1.609   2.110
10663SOL    HW132888   0.377   1.562   2.039
10663SOL    HW232889   0.363   1.590   2.200
10664SOL     OW32890   0.096   4.071   4.981
10664SOL    HW132891   0.009   4.069   4.931
10664SOL    HW232892   0.139   3.980   4.976
10665SOL     OW32893   1.082   1.265   0.300
10665SOL    HW132894   1.179   1.288   0.304
10665SOL    HW232895   1.064   1.214   0.216
10666SOL     OW32896   3.290   3.738   1.865
10666SOL    HW132897   3.305   3.776   1.956
10666SOL    HW232898   3.253   3.809   1.804
10667SOL     OW32899   3.906   3.093   5.579
10667SOL    HW132900   3.866   3.050   5.499
10667SOL    HW232901   3.974   3.161   5.550
10668SOL     OW32902   2.325   0.170   5.024
10668SOL    HW132903   2.392   0.179   4.950
10668SOL    HW232904   2.234   0.157   4.985
10669SOL     OW32905   5.833   6.814   0.578
10669SOL    HW132906   5.859   6.728   0.534
10669SOL    HW232907   5.865   6.814   0.673
10670SOL     OW32908   5.332   3.475   5.092
10670SOL    HW132909   5.297   3.567   5.074
10670SOL    HW232910   5.257   3.409   5.083
10671SOL     OW32911   2.487   2.456   3.048
10671SOL    HW132912   2.437   2.497   3.124
10671SOL    HW232913   2.567   2.407   3.083
10672SOL     OW32914   6.340   2.771   0.948
10672SOL    HW132915   6.284   2.693   0.976
10672SOL    HW232916   6.294   2.822   0.876
10673SOL     OW32917   1.218   1.242   6.191
10673SOL    HW132918   1.226   1.329   6.240
10673SOL    HW232919   1.133   1.241   6.138
10674SOL     OW32920   3.778   4.090   1.871
10674SOL    HW132921   3.695   4.098   1.816
10674SOL    HW232922   3.852   4.142   1.827
10675SOL     OW32923   1.649   6.539   6.968
10675SOL    HW132924   1.720   6.601   7.001
10675SOL    HW232925   1.691   6.459   6.926
10676SOL     OW32926   6.395   6.134   6.167
10676SOL    HW132927   6.362   6.198   6.237
10676SOL    HW232928   6.343   6.146   6.083
10677SOL     OW32929   1.071   0.881   2.074
10677SOL    HW132930   1.044   0.825   2.152
10677SOL    HW232931   1.078   0.824   1.992
10678SOL     OW32932   3.335   6.075   4.073
10678SOL    HW132933   3.390   6.132   4.012
10678SOL    HW232934   3.361   6.092   4.168
10679SOL     OW32935   4.386   5.751   6.212
10679SOL    HW132936   4.344   5.722   6.298
10679SOL    HW232937   4.485   5.761   6.225
10680SOL     OW32938   2.530   2.019   2.687
10680SOL    HW132939   2.486   2.109   2.681
10680SOL    HW232940   2.462   1.948   2.677
10681SOL     OW32941   1.209   3.551   0.221
10681SOL    HW132942   1.152   3.624   0.260
10681SOL    HW232943   1.150   3.479   0.185
10682SOL     OW32944   2.125   1.253   4.864
10682SOL    HW132945   2.152   1.280   4.957
10682SOL    HW232946   2.186   1.297   4.798
10683SOL     OW32947   3.122   2.046   3.496
10683SOL    HW132948   3.109   1.951   3.524
10683SOL    HW232949   3.148   2.049   3.399
10684SOL     OW32950   5.435   4.032   0.935
10684SOL    HW132951   5.408   3.937   0.950
10684SOL    HW232952   5.355   4.087   0.912
10685SOL     OW32953   0.307   5.622   2.557
10685SOL    HW132954   0.404   5.632   2.538
10685SOL    HW232955   0.280   5.526   2.543
10686SOL     OW32956   1.498   5.035   6.388
10686SOL    HW132957   1.550   5.063   6.469
10686SOL    HW232958   1.498   5.109   6.321
10687SOL     OW32959   0.075   4.977   1.746
10687SOL    HW132960   0.152   5.024   1.703
10687SOL    HW232961   0.012   5.044   1.785
10688SOL     OW32962   6.140   4.279   3.282
10688SOL    HW132963   6.105   4.362   3.238
10688SOL    HW232964   6.111   4.199   3.230
10689SOL     OW32965   0.372   6.313   3.332
10689SOL    HW132966   0.348   6.292   3.427
10689SOL    HW232967   0.386   6.228   3.281
10690SOL     OW32968   0.530   6.547   2.856
10690SOL    HW132969   0.603   6.479   2.849
10690SOL    HW232970   0.471   6.525   2.934
10691SOL     OW32971   6.994   2.055   2.096
10691SOL    HW132972   6.988   2.023   2.001
10691SOL    HW232973   0.045   2.004   2.144
10692SOL     OW32974   2.633   5.400   3.100
10692SOL    HW132975   2.617   5.410   3.002
10692SOL    HW232976   2.711   5.339   3.115
10693SOL     OW32977   3.085   0.653   0.225
10693SOL    HW132978   3.135   0.737   0.246
10693SOL    HW232979   3.144   0.592   0.173
10694SOL     OW32980   5.351   6.755   1.808
10694SOL    HW132981   5.441   6.770   1.766
10694SOL    HW232982   5.361   6.748   1.907
10695SOL     OW32983   5.089   2.162   2.765
10695SOL    HW132984   5.000   2.204   2.750
10695SOL    HW232985   5.121   2.120   2.680
10696SOL     OW32986   0.107   3.732   3.871
10696SOL    HW132987   0.028   3.774   3.917
10696SOL    HW232988   0.104   3.753   3.774
10697SOL     OW32989   0.572   5.874   4.365
10697SOL    HW132990   0.671   5.888   4.357
10697SOL    HW232991   0.541   5.908   4.454
10698SOL     OW32992   4.333   5.642   4.576
10698SOL    HW132993   4.324   5.742   4.575
10698SOL    HW232994   4.417   5.618   4.624
10699SOL     OW32995   3.630   2.740   1.850
10699SOL    HW132996   3.626   2.700   1.941
10699SOL    HW232997   3.684   2.681   1.790
10700SOL     OW32998   0.239   6.332   0.981
10700SOL    HW132999   0.313   6.283   0.936
10700SOL    HW233000   0.271   6.368   1.069
10701SOL     OW33001   3.070   5.890   6.867
10701SOL    HW133002   3.046   5.932   6.955
10701SOL    HW233003   3.110   5.800   6.883
10702SOL     OW33004   5.986   3.056   1.935
10702SOL    HW133005   5.994   2.961   1.965
10702SOL    HW233006   6.049   3.072   1.859
10703SOL     OW33007   2.965   3.532   4.749
10703SOL    HW133008   2.965   3.437   4.780
10703SOL    HW233009   3.059   3.565   4.739
10704SOL     OW33010   6.412   5.369   1.389
10704SOL    HW133011   6.414   5.351   1.488
10704SOL    HW233012   6.396   5.466   1.373
10705SOL     OW33013   6.231   4.161   2.027
10705SOL    HW133014   6.237   4.224   2.104
10705SOL    HW233015   6.300   4.089   2.038
10706SOL     OW33016   4.697   6.564   2.445
10706SOL    HW133017   4.625   6.619   2.403
10706SOL    HW233018   4.779   6.619   2.458
10707SOL     OW33019   0.160   6.617   3.551
10707SOL    HW133020   0.254   6.607   3.518
10707SOL    HW233021   0.110   6.533   3.532
10708SOL     OW33022   4.415   0.845   2.555
10708SOL    HW133023   4.326   0.875   2.590
10708SOL    HW233024   4.405   0.813   2.461
10709SOL     OW33025   5.912   6.689   5.346
10709SOL    HW133026   5.962   6.729   5.423
10709SOL    HW233027   5.879   6.598   5.371
10710SOL     OW33028   0.124   6.583   4.681
10710SOL    HW133029   0.148   6.494   4.720
10710SOL    HW233030   0.037   6.576   4.632
10711SOL     OW33031   1.768   5.802   3.505
10711SOL    HW133032   1.844   5.742   3.481
10711SOL    HW233033   1.713   5.820   3.424
10712SOL     OW33034   2.452   0.786   1.253
10712SOL    HW133035   2.506   0.710   1.218
10712SOL    HW233036   2.355   0.762   1.251
10713SOL     OW33037   1.319   3.433   1.437
10713SOL    HW133038   1.269   3.520   1.430
10713SOL    HW233039   1.322   3.389   1.347
10714SOL     OW33040   6.270   3.643   5.306
10714SOL    HW133041   6.307   3.728   5.344
10714SOL    HW233042   6.323   3.565   5.342
10715SOL     OW33043   4.852   6.883   2.847
10715SOL    HW133044   4.881   6.973   2.881
10715SOL    HW233045   4.897   6.864   2.760
10716SOL     OW33046   5.675   3.082   4.586
10716SOL    HW133047   5.771   3.065   4.609
10716SOL    HW233048   5.663   3.179   4.566
10717SOL     OW33049   0.981   2.712   0.837
10717SOL    HW133050   1.045   2.784   0.812
10717SOL    HW233051   0.892   2.752   0.858
10718SOL     OW33052   0.638   2.860   6.686
10718SOL    HW133053   0.549   2.890   6.650
10718SOL    HW233054   0.704   2.934   6.676
10719SOL     OW33055   5.202   5.915   0.265
10719SOL    HW133056   5.179   5.942   0.172
10719SOL    HW233057   5.292   5.871   0.266
10720SOL     OW33058   6.600   2.958   5.854
10720SOL    HW133059   6.629   2.911   5.937
10720SOL    HW233060   6.502   2.947   5.841
10721SOL     OW33061   5.935   4.060   5.298
10721SOL    HW133062   5.990   4.004   5.360
10721SOL    HW233063   5.972   4.053   5.205
10722SOL     OW33064   0.214   3.887   0.413
10722SOL    HW133065   0.199   3.829   0.333
10722SOL    HW233066   0.273   3.839   0.478
10723SOL     OW33067   0.083   3.756   6.303
10723SOL    HW133068   0.024   3.755   6.222
10723SOL    HW233069   0.177   3.773   6.274
10724SOL     OW33070   4.655   0.660   0.351
10724SOL    HW133071   4.699   0.747   0.375
10724SOL    HW233072   4.568   0.652   0.400
10725SOL     OW33073   0.046   5.066   3.777
10725SOL    HW133074   0.129   5.106   3.816
10725SOL    HW233075   0.042   5.087   3.679
10726SOL     OW33076   5.695   6.079   5.644
10726SOL    HW133077   5.655   6.009   5.703
10726SOL    HW233078   5.629   6.106   5.574
10727SOL     OW33079   0.631   5.357   4.476
10727SOL    HW133080   0.695   5.388   4.547
10727SOL    HW233081   0.605   5.435   4.419
10728SOL     OW33082   6.259   6.232   1.711
10728SOL    HW133083   6.267   6.313   1.652
10728SOL    HW233084   6.344   6.180   1.706
10729SOL     OW33085   5.914   0.967   3.134
10729SOL    HW133086   5.998   0.984   3.186
10729SOL    HW233087   5.848   1.040   3.153
10730SOL     OW33088   2.512   0.237   0.821
10730SOL    HW133089   2.458   0.275   0.747
10730SOL    HW233090   2.452   0.208   0.895
10731SOL     OW33091   2.422   5.882   6.826
10731SOL    HW133092   2.372   5.795   6.833
10731SOL    HW233093   2.512   5.872   6.869
10732SOL     OW33094   5.257   5.579   2.698
10732SOL    HW133095   5.175   5.612   2.651
10732SOL    HW233096   5.336   5.589   2.639
10733SOL     OW33097   5.275   1.908   6.798
10733SOL    HW133098   5.243   1.870   6.711
10733SOL    HW233099   5.197   1.922   6.859
10734SOL     OW33100   1.290   0.203   6.811
10734SOL    HW133101   1.307   0.105   6.817
10734SOL    HW233102   1.329   0.248   6.891
10735SOL     OW33103   1.467   4.593   2.831
10735SOL    HW133104   1.527   4.573   2.753
10735SOL    HW233105   1.480   4.688   2.860
10736SOL     OW33106   0.561   0.958   3.489
10736SOL    HW133107   0.527   0.869   3.459
10736SOL    HW233108   0.616   0.999   3.416
10737SOL     OW33109   1.313   1.617   0.347
10737SOL    HW133110   1.391   1.633   0.407
10737SOL    HW233111   1.228   1.618   0.401
10738SOL     OW33112   2.503   0.769   2.471
10738SOL    HW133113   2.474   0.768   2.567
10738SOL    HW233114   2.584   0.712   2.460
10739SOL     OW33115   0.429   1.444   1.634
10739SOL    HW133116   0.359   1.510   1.608
10739SOL    HW233117   0.516   1.493   1.648
10740SOL     OW33118   1.530   4.287   5.991
10740SOL    HW133119   1.595   4.257   5.921
10740SOL    HW233120   1.440   4.250   5.972
10741SOL     OW33121   0.496   0.682   3.390
10741SOL    HW133122   0.404   0.652   3.362
10741SOL    HW233123   0.543   0.607   3.435
10742SOL     OW33124   6.123   0.101   1.976
10742SOL    HW133125   6.164   0.164   1.910
10742SOL    HW233126   6.194   0.064   2.036
10743SOL     OW33127   2.723   1.955   3.772
10743SOL    HW133128   2.769   2.043   3.783
10743SOL    HW233129   2.638   1.968   3.720
10744SOL     OW33130   3.262   1.234   2.670
10744SOL    HW133131   3.268   1.272   2.762
10744SOL    HW233132   3.172   1.253   2.631
10745SOL     OW33133   0.805   5.127   0.834
10745SOL    HW133134   0.869   5.139   0.758
10745SOL    HW233135   0.833   5.048   0.888
10746SOL     OW33136   1.865   3.763   1.887
10746SOL    HW133137   1.925   3.701   1.837
10746SOL    HW233138   1.916   3.847   1.910
10747SOL     OW33139   4.376   0.981   3.471
10747SOL    HW133140   4.389   0.891   3.429
10747SOL    HW233141   4.421   0.984   3.560
10748SOL     OW33142   4.177   6.998   0.784
10748SOL    HW133143   4.149   7.011   0.879
10748SOL    HW233144   4.135   0.047   0.726
10749SOL     OW33145   6.896   4.499   3.507
10749SOL    HW133146   6.929   4.563   3.576
10749SOL    HW233147   6.926   4.528   3.417
10750SOL     OW33148   4.053   6.031   4.264
10750SOL    HW133149   3.975   5.975   4.294
10750SOL    HW233150   4.060   6.112   4.323
10751SOL     OW33151   0.825   4.031   5.622
10751SOL    HW133152   0.818   4.129   5.603
10751SOL    HW233153   0.770   3.980   5.556
10752SOL     OW33154   6.554   3.577   6.069
10752SOL    HW133155   6.585   3.660   6.023
10752SOL    HW233156   6.605   3.565   6.154
10753SOL     OW33157   5.038   0.756   3.608
10753SOL    HW133158   5.113   0.713   3.658
10753SOL    HW233159   5.028   0.713   3.518
10754SOL     OW33160   1.572   1.893   3.941
10754SOL    HW133161   1.607   1.818   3.996
10754SOL    HW233162   1.629   1.904   3.859
10755SOL     OW33163   0.528   2.034   0.573
10755SOL    HW133164   0.480   2.006   0.490
10755SOL    HW233165   0.619   2.067   0.549
10756SOL     OW33166   6.580   4.011   0.005
10756SOL    HW133167   6.500   4.056   0.044
10756SOL    HW233168   6.595   3.924   0.052
10757SOL     OW33169   0.577   3.700   0.195
10757SOL    HW133170   0.597   3.609   0.232
10757SOL    HW233171   0.481   3.722   0.208
10758SOL     OW33172   1.052   6.556   4.966
10758SOL    HW133173   1.029   6.575   5.061
10758SOL    HW233174   1.150   6.536   4.958
10759SOL     OW33175   1.544   2.783   0.066
10759SOL    HW133176   1.599   2.717   0.014
10759SOL    HW233177   1.580   2.789   0.159
10760SOL     OW33178   0.042   0.625   0.470
10760SOL    HW133179   0.052   0.530   0.498
10760SOL    HW233180   0.082   0.684   0.540
10761SOL     OW33181   1.015   1.970   6.183
10761SOL    HW133182   1.072   1.958   6.102
10761SOL    HW233183   0.922   1.936   6.165
10762SOL     OW33184   3.705   2.079   4.792
10762SOL    HW133185   3.778   2.131   4.836
10762SOL    HW233186   3.738   1.987   4.772
10763SOL     OW33187   4.818   6.436   0.937
10763SOL    HW133188   4.894   6.384   0.976
10763SOL    HW233189   4.762   6.376   0.880
10764SOL     OW33190   5.611   1.701   5.757
10764SOL    HW133191   5.518   1.667   5.771
10764SOL    HW233192   5.612   1.762   5.677
10765SOL     OW33193   5.435   3.043   1.007
10765SOL    HW133194   5.354   3.097   0.984
10765SOL    HW233195   5.455   3.053   1.104
10766SOL     OW33196   3.186   3.128   0.889
10766SOL    HW133197   3.218   3.119   0.795
10766SOL    HW233198   3.097   3.172   0.890
10767SOL     OW33199   1.351   0.677   6.634
10767SOL    HW133200   1.338   0.684   6.733
10767SOL    HW233201   1.300   0.751   6.588
10768SOL     OW33202   4.895   5.728   1.418
10768SOL    HW133203   4.875   5.770   1.329
10768SOL    HW233204   4.991   5.700   1.422
10769SOL     OW33205   1.895   5.056   4.942
10769SOL    HW133206   1.975   5.019   4.894
10769SOL    HW233207   1.905   5.041   5.040
10770SOL     OW33208   5.133   6.969   4.962
10770SOL    HW133209   5.073   7.002   4.889
10770SOL    HW233210   5.095   6.993   5.051
10771SOL     OW33211   4.431   0.735   4.840
10771SOL    HW133212   4.420   0.697   4.748
10771SOL    HW233213   4.438   0.660   4.906
10772SOL     OW33214   6.445   6.521   4.064
10772SOL    HW133215   6.461   6.541   4.160
10772SOL    HW233216   6.350   6.493   4.051
10773SOL     OW33217   6.641   5.121   6.014
10773SOL    HW133218   6.552   5.076   6.029
10773SOL    HW233219   6.671   5.164   6.099
10774SOL     OW33220   1.968   1.429   6.362
10774SOL    HW133221   1.901   1.495   6.327
10774SOL    HW233222   2.041   1.417   6.294
10775SOL     OW33223   0.793   3.668   0.953
10775SOL    HW133224   0.723   3.611   0.996
10775SOL    HW233225   0.811   3.634   0.861
10776SOL     OW33226   1.589   6.185   0.230
10776SOL    HW133227   1.538   6.243   0.294
10776SOL    HW233228   1.530   6.163   0.152
10777SOL     OW33229   4.084   6.497   3.838
10777SOL    HW133230   4.041   6.460   3.756
10777SOL    HW233231   4.076   6.431   3.913
10778SOL     OW33232   5.405   6.273   5.452
10778SOL    HW133233   5.450   6.362   5.446
10778SOL    HW233234   5.340   6.263   5.376
10779SOL     OW33235   5.999   5.087   2.917
10779SOL    HW133236   5.931   5.014   2.915
10779SOL    HW233237   6.036   5.096   3.009
10780SOL     OW33238   1.282   6.943   3.410
10780SOL    HW133239   1.380   6.922   3.415
10780SOL    HW233240   1.240   6.924   3.499
10781SOL     OW33241   3.719   1.771   3.188
10781SOL    HW133242   3.773   1.701   3.140
10781SOL    HW233243   3.752   1.862   3.163
10782SOL     OW33244   6.619   1.838   3.455
10782SOL    HW133245   6.639   1.840   3.553
10782SOL    HW233246   6.531   1.882   3.438
10783SOL     OW33247   1.587   3.375   3.384
10783SOL    HW133248   1.592   3.282   3.420
10783SOL    HW233249   1.593   3.440   3.459
10784SOL     OW33250   2.912   0.377   3.014
10784SOL    HW133251   2.843   0.319   2.969
10784SOL    HW233252   3.003   0.352   2.982
10785SOL     OW33253   0.648   4.884   0.675
10785SOL    HW133254   0.629   4.786   0.666
10785SOL    HW233255   0.663   4.906   0.772
10786SOL     OW33256   5.038   3.393   2.223
10786SOL    HW133257   4.947   3.366   2.190
10786SOL    HW233258   5.092   3.427   2.146
10787SOL     OW33259   2.940   2.077   4.434
10787SOL    HW133260   2.972   1.997   4.484
10787SOL    HW233261   2.911   2.148   4.499
10788SOL     OW33262   2.162   4.426   0.436
10788SOL    HW133263   2.163   4.334   0.474
10788SOL    HW233264   2.067   4.457   0.426
10789SOL     OW33265   5.920   2.713   0.306
10789SOL    HW133266   6.005   2.663   0.320
10789SOL    HW233267   5.873   2.676   0.226
10790SOL     OW33268   1.271   0.611   3.410
10790SOL    HW133269   1.248   0.575   3.500
10790SOL    HW233270   1.261   0.538   3.342
10791SOL     OW33271   0.329   0.975   1.026
10791SOL    HW133272   0.382   0.933   0.952
10791SOL    HW233273   0.242   1.009   0.989
10792SOL     OW33274   3.742   3.408   2.022
10792SOL    HW133275   3.663   3.401   2.083
10792SOL    HW233276   3.819   3.450   2.072
10793SOL     OW33277   5.537   2.527   4.232
10793SOL    HW133278   5.504   2.610   4.275
10793SOL    HW233279   5.636   2.524   4.235
10794SOL     OW33280   2.947   3.780   3.336
10794SOL    HW133281   2.935   3.683   3.354
10794SOL    HW233282   2.932   3.797   3.238
10795SOL     OW33283   6.588   3.580   3.926
10795SOL    HW133284   6.543   3.640   3.859
10795SOL    HW233285   6.526   3.504   3.949
10796SOL     OW33286   4.572   6.914   0.071
10796SOL    HW133287   4.668   6.925   0.047
10796SOL    HW233288   4.542   6.822   0.046
10797SOL     OW33289   4.034   2.440   1.232
10797SOL    HW133290   4.037   2.508   1.158
10797SOL    HW233291   3.992   2.356   1.198
10798SOL     OW33292   2.217   6.629   0.611
10798SOL    HW133293   2.255   6.540   0.584
10798SOL    HW233294   2.268   6.665   0.689
10799SOL     OW33295   3.555   0.835   2.064
10799SOL    HW133296   3.611   0.894   2.124
10799SOL    HW233297   3.462   0.829   2.101
10800SOL     OW33298   0.873   0.151   0.187
10800SOL    HW133299   0.892   0.168   0.090
10800SOL    HW233300   0.889   0.055   0.207
10801SOL     OW33301   1.106   6.763   5.388
10801SOL    HW133302   1.066   6.850   5.358
10801SOL    HW233303   1.075   6.742   5.480
10802SOL     OW33304   1.821   3.042   3.977
10802SOL    HW133305   1.880   3.084   3.908
10802SOL    HW233306   1.812   3.104   4.055
10803SOL     OW33307   4.070   4.397   5.628
10803SOL    HW133308   4.085   4.310   5.674
10803SOL    HW233309   4.149   4.457   5.643
10804SOL     OW33310   6.733   4.247   1.336
10804SOL    HW133311   6.762   4.310   1.265
10804SOL    HW233312   6.641   4.271   1.368
10805SOL     OW33313   3.663   0.038   6.688
10805SOL    HW133314   3.735   7.017   6.743
10805SOL    HW233315   3.596   0.081   6.749
10806SOL     OW33316   4.987   4.429   5.967
10806SOL    HW133317   4.990   4.441   6.066
10806SOL    HW233318   5.041   4.349   5.941
10807SOL     OW33319   1.404   6.769   3.043
10807SOL    HW133320   1.377   6.724   3.128
10807SOL    HW233321   1.358   6.857   3.036
10808SOL     OW33322   6.602   4.222   6.453
10808SOL    HW133323   6.595   4.238   6.355
10808SOL    HW233324   6.560   4.299   6.502
10809SOL     OW33325   2.719   6.152   3.483
10809SOL    HW133326   2.709   6.221   3.555
10809SOL    HW233327   2.644   6.160   3.418
10810SOL     OW33328   1.915   6.949   4.978
10810SOL    HW133329   1.850   7.007   5.026
10810SOL    HW233330   1.979   6.908   5.044
10811SOL     OW33331   4.557   4.909   5.687
10811SOL    HW133332   4.522   4.999   5.715
10811SOL    HW233333   4.557   4.902   5.588
10812SOL     OW33334   0.823   3.828   1.826
10812SOL    HW133335   0.866   3.794   1.910
10812SOL    HW233336   0.866   3.914   1.799
10813SOL     OW33337   1.766   5.869   0.047
10813SOL    HW133338   1.813   5.794   0.002
10813SOL    HW233339   1.804   5.956   0.014
10814SOL     OW33340   1.347   6.309   6.801
10814SOL    HW133341   1.392   6.273   6.719
10814SOL    HW233342   1.250   6.325   6.781
10815SOL     OW33343   4.923   4.438   3.219
10815SOL    HW133344   4.967   4.528   3.229
10815SOL    HW233345   4.901   4.422   3.123
10816SOL     OW33346   1.309   1.728   1.169
10816SOL    HW133347   1.219   1.769   1.180
10816SOL    HW233348   1.365   1.785   1.109
10817SOL     OW33349   5.424   6.738   2.408
10817SOL    HW133350   5.495   6.736   2.338
10817SOL    HW233351   5.466   6.734   2.499
10818SOL     OW33352   4.393   4.393   5.372
10818SOL    HW133353   4.419   4.301   5.402
10818SOL    HW233354   4.352   4.387   5.281
10819SOL     OW33355   6.761   4.265   7.000
10819SOL    HW133356   6.742   4.167   7.003
10819SOL    HW233357   6.686   4.315   0.024
10820SOL     OW33358   5.633   5.790   4.086
10820SOL    HW133359   5.691   5.721   4.130
10820SOL    HW233360   5.688   5.870   4.062
10821SOL     OW33361   5.725   6.315   2.226
10821SOL    HW133362   5.684   6.297   2.137
10821SOL    HW233363   5.824   6.327   2.215
10822SOL     OW33364   1.029   2.877   3.198
10822SOL    HW133365   0.997   2.849   3.289
10822SOL    HW233366   1.111   2.933   3.207
10823SOL     OW33367   1.693   5.320   2.038
10823SOL    HW133368   1.680   5.382   1.961
10823SOL    HW233369   1.790   5.319   2.063
10824SOL     OW33370   5.232   0.748   4.050
10824SOL    HW133371   5.189   0.717   4.135
10824SOL    HW233372   5.312   0.692   4.030
10825SOL     OW33373   3.420   0.314   6.943
10825SOL    HW133374   3.517   0.338   6.939
10825SOL    HW233375   3.386   0.295   6.851
10826SOL     OW33376   0.791   3.413   3.481
10826SOL    HW133377   0.701   3.399   3.522
10826SOL    HW233378   0.822   3.506   3.497
10827SOL     OW33379   6.042   3.951   4.491
10827SOL    HW133380   6.124   3.960   4.546
10827SOL    HW233381   6.029   3.855   4.465
10828SOL     OW33382   1.358   5.293   2.110
10828SOL    HW133383   1.374   5.201   2.146
10828SOL    HW233384   1.379   5.295   2.013
10829SOL     OW33385   3.318   2.118   0.799
10829SOL    HW133386   3.266   2.189   0.846
10829SOL    HW233387   3.307   2.128   0.700
10830SOL     OW33388   5.204   1.523   3.569
10830SOL    HW133389   5.303   1.535   3.567
10830SOL    HW233390   5.164   1.561   3.485
10831SOL     OW33391   4.162   5.623   1.738
10831SOL    HW133392   4.123   5.656   1.823
10831SOL    HW233393   4.261   5.638   1.738
10832SOL     OW33394   0.565   2.445   0.606
10832SOL    HW133395   0.633   2.444   0.533
10832SOL    HW233396   0.577   2.528   0.661
10833SOL     OW33397   1.446   1.524   2.609
10833SOL    HW133398   1.467   1.591   2.680
10833SOL    HW233399   1.376   1.560   2.548
10834SOL     OW33400   1.662   2.254   6.019
10834SOL    HW133401   1.643   2.198   6.100
10834SOL    HW233402   1.760   2.273   6.014
10835SOL     OW33403   6.084   2.102   0.421
10835SOL    HW133404   6.092   2.118   0.520
10835SOL    HW233405   6.175   2.102   0.380
10836SOL     OW33406   6.817   1.419   5.121
10836SOL    HW133407   6.841   1.327   5.091
10836SOL    HW233408   6.783   1.472   5.044
10837SOL     OW33409   0.025   4.764   0.620
10837SOL    HW133410   0.082   4.827   0.567
10837SOL    HW233411   0.040   4.779   0.717
10838SOL     OW33412   5.522   6.913   4.791
10838SOL    HW133413   5.620   6.896   4.781
10838SOL    HW233414   5.502   7.006   4.758
10839SOL     OW33415   3.194   3.379   0.635
10839SOL    HW133416   3.194   3.471   0.595
10839SOL    HW233417   3.264   3.374   0.706
10840SOL     OW33418   3.974   5.866   1.324
10840SOL    HW133419   3.908   5.812   1.272
10840SOL    HW233420   4.057   5.879   1.270
10841SOL     OW33421   3.701   6.510   0.365
10841SOL    HW133422   3.612   6.465   0.360
10841SOL    HW233423   3.761   6.474   0.293
10842SOL     OW33424   5.032   3.065   1.079
10842SOL    HW133425   4.976   2.989   1.046
10842SOL    HW233426   5.028   3.069   1.179
10843SOL     OW33427   0.311   2.317   1.599
10843SOL    HW133428   0.317   2.224   1.634
10843SOL    HW233429   0.229   2.361   1.635
10844SOL     OW33430   0.385   6.891   4.159
10844SOL    HW133431   0.419   6.983   4.179
10844SOL    HW233432   0.286   6.893   4.149
10845SOL     OW33433   3.556   0.634   6.865
10845SOL    HW133434   3.619   0.688   6.921
10845SOL    HW233435   3.541   0.681   6.778
10846SOL     OW33436   4.588   3.157   1.083
10846SOL    HW133437   4.642   3.232   1.046
10846SOL    HW233438   4.648   3.079   1.101
10847SOL     OW33439   3.798   3.205   6.577
10847SOL    HW133440   3.715   3.192   6.631
10847SOL    HW233441   3.780   3.178   6.482
10848SOL     OW33442   3.095   2.464   0.082
10848SOL    HW133443   3.161   2.514   0.138
10848SOL    HW233444   3.013   2.445   0.135
10849SOL     OW33445   2.655   4.621   2.858
10849SOL    HW133446   2.698   4.687   2.796
10849SOL    HW233447   2.725   4.579   2.915
10850SOL     OW33448   3.498   5.910   0.262
10850SOL    HW133449   3.404   5.894   0.233
10850SOL    HW233450   3.559   5.906   0.182
10851SOL     OW33451   2.774   3.228   6.890
10851SOL    HW133452   2.861   3.270   6.867
10851SOL    HW233453   2.727   3.284   6.958
10852SOL     OW33454   0.573   6.517   6.265
10852SOL    HW133455   0.612   6.468   6.187
10852SOL    HW233456   0.473   6.512   6.261
10853SOL     OW33457   3.770   2.050   6.091
10853SOL    HW133458   3.852   2.084   6.044
10853SOL    HW233459   3.701   2.122   6.095
10854SOL     OW33460   5.378   6.475   5.690
10854SOL    HW133461   5.292   6.499   5.645
10854SOL    HW233462   5.455   6.498   5.631
10855SOL     OW33463   2.837   6.278   1.762
10855SOL    HW133464   2.928   6.302   1.727
10855SOL    HW233465   2.769   6.341   1.725
10856SOL     OW33466   6.041   1.611   2.213
10856SOL    HW133467   6.021   1.545   2.141
10856SOL    HW233468   6.062   1.700   2.172
10857SOL     OW33469   5.770   3.237   3.108
10857SOL    HW133470   5.686   3.185   3.125
10857SOL    HW233471   5.775   3.261   3.011
10858SOL     OW33472   0.844   2.438   6.333
10858SOL    HW133473   0.820   2.436   6.236
10858SOL    HW233474   0.763   2.418   6.387
10859SOL     OW33475   2.019   3.811   3.967
10859SOL    HW133476   2.006   3.716   3.994
10859SOL    HW233477   1.931   3.852   3.944
10860SOL     OW33478   6.591   0.920   6.050
10860SOL    HW133479   6.640   0.928   5.963
10860SOL    HW233480   6.505   0.871   6.036
10861SOL     OW33481   3.508   3.194   3.166
10861SOL    HW133482   3.575   3.264   3.190
10861SOL    HW233483   3.500   3.128   3.241
10862SOL     OW33484   2.425   2.140   6.285
10862SOL    HW133485   2.434   2.194   6.368
10862SOL    HW233486   2.508   2.149   6.230
10863SOL     OW33487   3.973   0.737   2.497
10863SOL    HW133488   3.963   0.696   2.406
10863SOL    HW233489   3.917   0.687   2.562
10864SOL     OW33490   3.184   5.108   0.764
10864SOL    HW133491   3.190   5.082   0.860
10864SOL    HW233492   3.256   5.174   0.743
10865SOL     OW33493   5.915   1.590   3.482
10865SOL    HW133494   5.959   1.626   3.564
10865SOL    HW233495   5.960   1.629   3.401
10866SOL     OW33496   4.506   5.074   0.474
10866SOL    HW133497   4.501   5.174   0.472
10866SOL    HW233498   4.591   5.044   0.431
10867SOL     OW33499   3.433   4.194   0.188
10867SOL    HW133500   3.512   4.157   0.138
10867SOL    HW233501   3.349   4.150   0.155
10868SOL     OW33502   2.303   2.064   3.881
10868SOL    HW133503   2.288   2.029   3.789
10868SOL    HW233504   2.227   2.123   3.908
10869NA      NA33505   0.362   2.098   6.383
10870NA      NA33506   4.445   4.563   5.212
10871NA      NA33507   2.314   4.174   2.121
10872NA      NA33508   4.790   4.071   3.488
10873NA      NA33509   4.198   2.384   5.307
10874NA      NA33510   3.259   4.439   1.517
10875NA      NA33511   0.512   4.635   0.091
10876NA      NA33512   3.721   3.888   2.729
10877NA      NA33513   5.107   5.020   1.008
10878NA      NA33514   3.335   0.153   5.442
10879NA      NA33515   5.843   5.772   0.990
10880NA      NA33516   2.044   0.709   5.190
10881NA      NA33517   4.105   4.878   1.931
10882NA      NA33518   3.840   3.038   1.400
   7.02025   7.02025   7.02025
