Generated by trjconv : CNT in water t= 267.00000
33518
    1C        C    1   2.839   2.765   4.748
    1C        C    2   2.903   2.724   4.866
    1C        C    3   2.845   2.774   4.984
    1C        C    4   2.851   2.773   4.260
    1C        C    5   2.901   2.729   4.384
    1C        C    6   2.851   2.777   4.507
    1C        C    7   3.012   2.636   4.625
    1C        C    8   2.899   2.721   4.628
    1C        C    9   3.077   2.603   4.746
    1C        C   10   3.012   2.634   4.867
    1C        C   11   3.180   2.493   4.975
    1C        C   12   3.058   2.561   4.977
    1C        C   13   2.847   2.764   3.770
    1C        C   14   2.902   2.722   3.893
    1C        C   15   2.851   2.775   4.014
    1C        C   16   3.017   2.645   4.139
    1C        C   17   2.904   2.729   4.137
    1C        C   18   3.080   2.613   4.262
    1C        C   19   3.017   2.649   4.383
    1C        C   20   3.207   2.554   4.504
    1C        C   21   3.073   2.599   4.503
    1C        C   22   3.279   2.538   4.624
    1C        C   23   3.208   2.548   4.746
    1C        C   24   3.413   2.485   4.867
    1C        C   25   3.270   2.498   4.864
    1C        C   26   3.491   2.477   4.983
    1C        C   27   2.854   2.773   3.282
    1C        C   28   2.905   2.723   3.404
    1C        C   29   2.850   2.769   3.526
    1C        C   30   3.018   2.639   3.650
    1C        C   31   2.902   2.720   3.648
    1C        C   32   3.078   2.602   3.772
    1C        C   33   3.016   2.639   3.894
    1C        C   34   3.207   2.549   4.017
    1C        C   35   3.078   2.607   4.017
    1C        C   36   3.274   2.526   4.140
    1C        C   37   3.210   2.558   4.262
    1C        C   38   3.414   2.499   4.382
    1C        C   39   3.277   2.530   4.383
    1C        C   40   3.484   2.495   4.504
    1C        C   41   3.416   2.502   4.627
    1C        C   42   3.631   2.480   4.744
    1C        C   43   3.488   2.485   4.747
    1C        C   44   3.705   2.484   4.864
    1C        C   45   3.630   2.481   4.983
    1C        C   46   2.842   2.758   2.792
    1C        C   47   2.895   2.714   2.915
    1C        C   48   2.847   2.765   3.037
    1C        C   49   3.024   2.646   3.161
    1C        C   50   2.907   2.725   3.159
    1C        C   51   3.084   2.611   3.284
    1C        C   52   3.020   2.641   3.406
    1C        C   53   3.211   2.548   3.528
    1C        C   54   3.081   2.604   3.528
    1C        C   55   3.276   2.523   3.651
    1C        C   56   3.207   2.544   3.773
    1C        C   57   3.413   2.502   3.895
    1C        C   58   3.273   2.521   3.896
    1C        C   59   3.484   2.495   4.017
    1C        C   60   3.412   2.501   4.138
    1C        C   61   3.626   2.499   4.259
    1C        C   62   3.485   2.492   4.259
    1C        C   63   3.698   2.503   4.381
    1C        C   64   3.626   2.498   4.502
    1C        C   65   3.833   2.547   4.622
    1C        C   66   3.699   2.503   4.623
    1C        C   67   3.902   2.567   4.744
    1C        C   68   3.841   2.522   4.863
    1C        C   69   4.051   2.586   4.972
    1C        C   70   3.923   2.529   4.976
    1C        C   71   2.825   2.734   2.310
    1C        C   72   2.882   2.689   2.431
    1C        C   73   2.831   2.745   2.550
    1C        C   74   3.011   2.631   2.673
    1C        C   75   2.891   2.704   2.671
    1C        C   76   3.073   2.596   2.795
    1C        C   77   3.013   2.635   2.916
    1C        C   78   3.204   2.541   3.036
    1C        C   79   3.075   2.598   3.038
    1C        C   80   3.274   2.524   3.158
    1C        C   81   3.211   2.550   3.282
    1C        C   82   3.414   2.493   3.406
    1C        C   83   3.277   2.526   3.405
    1C        C   84   3.484   2.486   3.528
    1C        C   85   3.414   2.494   3.651
    1C        C   86   3.625   2.496   3.770
    1C        C   87   3.484   2.491   3.773
    1C        C   88   3.695   2.504   3.892
    1C        C   89   3.626   2.494   4.015
    1C        C   90   3.831   2.545   4.135
    1C        C   91   3.696   2.505   4.137
    1C        C   92   3.897   2.572   4.257
    1C        C   93   3.833   2.545   4.380
    1C        C   94   4.027   2.635   4.497
    1C        C   95   3.899   2.576   4.500
    1C        C   96   4.090   2.671   4.618
    1C        C   97   4.028   2.632   4.739
    1C        C   98   4.195   2.764   4.860
    1C        C   99   4.102   2.655   4.858
    1C        C  100   4.221   2.837   4.977
    1C        C  101   2.822   2.727   2.071
    1C        C  102   2.991   2.591   2.190
    1C        C  103   2.878   2.678   2.190
    1C        C  104   3.066   2.573   2.310
    1C        C  105   3.002   2.615   2.429
    1C        C  106   3.200   2.534   2.549
    1C        C  107   3.072   2.594   2.550
    1C        C  108   3.269   2.522   2.671
    1C        C  109   3.202   2.538   2.795
    1C        C  110   3.411   2.491   2.916
    1C        C  111   3.272   2.516   2.915
    1C        C  112   3.482   2.485   3.038
    1C        C  113   3.412   2.496   3.160
    1C        C  114   3.624   2.497   3.280
    1C        C  115   3.483   2.488   3.282
    1C        C  116   3.693   2.511   3.402
    1C        C  117   3.625   2.499   3.525
    1C        C  118   3.831   2.546   3.645
    1C        C  119   3.695   2.507   3.648
    1C        C  120   3.894   2.574   3.769
    1C        C  121   3.830   2.548   3.892
    1C        C  122   4.021   2.641   4.013
    1C        C  123   3.897   2.573   4.013
    1C        C  124   4.083   2.681   4.133
    1C        C  125   4.021   2.639   4.254
    1C        C  126   4.191   2.769   4.376
    1C        C  127   4.082   2.679   4.374
    1C        C  128   4.245   2.819   4.497
    1C        C  129   4.194   2.767   4.618
    1C        C  130   4.327   2.935   4.737
    1C        C  131   4.246   2.818   4.739
    1C        C  132   4.353   3.003   4.857
    1C        C  133   4.284   2.961   4.971
    1C        C  134   3.173   2.470   2.078
    1C        C  135   3.038   2.507   2.084
    1C        C  136   3.260   2.481   2.187
    1C        C  137   3.198   2.522   2.307
    1C        C  138   3.406   2.481   2.428
    1C        C  139   3.266   2.502   2.429
    1C        C  140   3.480   2.483   2.548
    1C        C  141   3.408   2.495   2.669
    1C        C  142   3.619   2.490   2.791
    1C        C  143   3.478   2.486   2.791
    1C        C  144   3.690   2.503   2.913
    1C        C  145   3.623   2.491   3.037
    1C        C  146   3.831   2.537   3.154
    1C        C  147   3.695   2.499   3.158
    1C        C  148   3.895   2.568   3.276
    1C        C  149   3.831   2.543   3.399
    1C        C  150   4.021   2.634   3.523
    1C        C  151   3.896   2.569   3.522
    1C        C  152   4.077   2.677   3.645
    1C        C  153   4.017   2.643   3.769
    1C        C  154   4.186   2.774   3.886
    1C        C  155   4.077   2.684   3.890
    1C        C  156   4.239   2.820   4.008
    1C        C  157   4.195   2.766   4.131
    1C        C  158   4.338   2.922   4.251
    1C        C  159   4.246   2.815   4.254
    1C        C  160   4.375   2.986   4.372
    1C        C  161   4.334   2.929   4.494
    1C        C  162   4.442   3.113   4.617
    1C        C  163   4.373   2.990   4.615
    1C        C  164   4.467   3.182   4.738
    1C        C  165   4.424   3.126   4.860
    1C        C  166   4.517   3.317   4.974
    1C        C  167   4.478   3.184   4.975
    1C        C  168   3.474   2.432   2.074
    1C        C  169   3.400   2.460   2.189
    1C        C  170   3.619   2.467   2.305
    1C        C  171   3.477   2.464   2.307
    1C        C  172   3.692   2.485   2.425
    1C        C  173   3.622   2.483   2.548
    1C        C  174   3.828   2.535   2.666
    1C        C  175   3.691   2.499   2.669
    1C        C  176   3.894   2.562   2.788
    1C        C  177   3.826   2.541   2.910
    1C        C  178   4.023   2.623   3.033
    1C        C  179   3.896   2.562   3.031
    1C        C  180   4.086   2.659   3.154
    1C        C  181   4.021   2.631   3.277
    1C        C  182   4.195   2.752   3.398
    1C        C  183   4.081   2.669   3.400
    1C        C  184   4.247   2.803   3.519
    1C        C  185   4.193   2.757   3.642
    1C        C  186   4.333   2.921   3.760
    1C        C  187   4.242   2.813   3.762
    1C        C  188   4.374   2.978   3.883
    1C        C  189   4.331   2.927   4.008
    1C        C  190   4.441   3.108   4.129
    1C        C  191   4.377   2.982   4.130
    1C        C  192   4.467   3.175   4.250
    1C        C  193   4.439   3.111   4.373
    1C        C  194   4.503   3.316   4.494
    1C        C  195   4.463   3.181   4.494
    1C        C  196   4.521   3.388   4.614
    1C        C  197   4.509   3.318   4.736
    1C        C  198   4.546   3.533   4.853
    1C        C  199   4.532   3.391   4.856
    1C        C  200   4.587   3.621   4.958
    1C        C  201   3.613   2.418   2.073
    1C        C  202   3.829   2.507   2.184
    1C        C  203   3.693   2.462   2.183
    1C        C  204   3.901   2.535   2.303
    1C        C  205   3.830   2.515   2.423
    1C        C  206   4.019   2.621   2.543
    1C        C  207   3.895   2.553   2.543
    1C        C  208   4.081   2.655   2.665
    1C        C  209   4.024   2.618   2.788
    1C        C  210   4.190   2.751   2.907
    1C        C  211   4.082   2.659   2.910
    1C        C  212   4.243   2.799   3.029
    1C        C  213   4.193   2.751   3.152
    1C        C  214   4.329   2.912   3.272
    1C        C  215   4.245   2.798   3.274
    1C        C  216   4.371   2.972   3.392
    1C        C  217   4.335   2.913   3.516
    1C        C  218   4.437   3.102   3.638
    1C        C  219   4.373   2.976   3.636
    1C        C  220   4.466   3.167   3.760
    1C        C  221   4.443   3.102   3.883
    1C        C  222   4.503   3.305   4.001
    1C        C  223   4.471   3.168   4.004
    1C        C  224   4.518   3.378   4.121
    1C        C  225   4.508   3.311   4.245
    1C        C  226   4.526   3.520   4.366
    1C        C  227   4.519   3.379   4.369
    1C        C  228   4.519   3.595   4.486
    1C        C  229   4.528   3.529   4.611
    1C        C  230   4.503   3.744   4.726
    1C        C  231   4.531   3.604   4.730
    1C        C  232   4.497   3.821   4.844
    1C        C  233   4.547   3.755   4.958
    1C        C  234   4.023   2.600   2.066
    1C        C  235   3.896   2.542   2.067
    1C        C  236   4.091   2.642   2.181
    1C        C  237   4.026   2.604   2.300
    1C        C  238   4.199   2.732   2.423
    1C        C  239   4.083   2.650   2.420
    1C        C  240   4.254   2.783   2.543
    1C        C  241   4.194   2.741   2.663
    1C        C  242   4.332   2.905   2.784
    1C        C  243   4.244   2.795   2.784
    1C        C  244   4.378   2.962   2.905
    1C        C  245   4.338   2.904   3.027
    1C        C  246   4.436   3.093   3.147
    1C        C  247   4.373   2.966   3.149
    1C        C  248   4.457   3.161   3.268
    1C        C  249   4.435   3.098   3.393
    1C        C  250   4.498   3.302   3.513
    1C        C  251   4.459   3.167   3.514
    1C        C  252   4.515   3.373   3.634
    1C        C  253   4.503   3.303   3.757
    1C        C  254   4.522   3.516   3.877
    1C        C  255   4.515   3.374   3.878
    1C        C  256   4.516   3.587   3.999
    1C        C  257   4.517   3.519   4.122
    1C        C  258   4.489   3.729   4.241
    1C        C  259   4.516   3.590   4.244
    1C        C  260   4.468   3.801   4.360
    1C        C  261   4.489   3.733   4.482
    1C        C  262   4.420   3.936   4.605
    1C        C  263   4.475   3.806   4.603
    1C        C  264   4.393   4.007   4.724
    1C        C  265   4.438   3.949   4.844
    1C        C  266   4.315   4.129   4.957
    1C        C  267   4.384   4.008   4.959
    1C        C  268   4.266   2.770   2.061
    1C        C  269   4.202   2.730   2.179
    1C        C  270   4.343   2.890   2.300
    1C        C  271   4.250   2.782   2.301
    1C        C  272   4.382   2.953   2.420
    1C        C  273   4.341   2.894   2.542
    1C        C  274   4.451   3.080   2.662
    1C        C  275   4.381   2.957   2.662
    1C        C  276   4.478   3.151   2.781
    1C        C  277   4.447   3.085   2.902
    1C        C  278   4.505   3.291   3.022
    1C        C  279   4.469   3.154   3.024
    1C        C  280   4.512   3.364   3.142
    1C        C  281   4.496   3.297   3.266
    1C        C  282   4.511   3.508   3.389
    1C        C  283   4.510   3.367   3.388
    1C        C  284   4.510   3.584   3.508
    1C        C  285   4.514   3.514   3.631
    1C        C  286   4.490   3.723   3.752
    1C        C  287   4.506   3.583   3.754
    1C        C  288   4.473   3.794   3.873
    1C        C  289   4.488   3.726   3.996
    1C        C  290   4.424   3.929   4.114
    1C        C  291   4.468   3.795   4.118
    1C        C  292   4.399   3.997   4.235
    1C        C  293   4.423   3.935   4.359
    1C        C  294   4.326   4.123   4.480
    1C        C  295   4.396   4.000   4.481
    1C        C  296   4.285   4.187   4.599
    1C        C  297   4.322   4.130   4.722
    1C        C  298   4.200   4.315   4.835
    1C        C  299   4.284   4.199   4.840
    1C        C  300   4.168   4.398   4.947
    1C        C  301   4.342   2.887   2.064
    1C        C  302   4.471   3.067   2.177
    1C        C  303   4.396   2.944   2.180
    1C        C  304   4.479   3.143   2.297
    1C        C  305   4.446   3.078   2.419
    1C        C  306   4.510   3.282   2.536
    1C        C  307   4.477   3.145   2.539
    1C        C  308   4.520   3.356   2.655
    1C        C  309   4.503   3.290   2.779
    1C        C  310   4.525   3.502   2.897
    1C        C  311   4.516   3.361   2.900
    1C        C  312   4.520   3.575   3.018
    1C        C  313   4.519   3.505   3.141
    1C        C  314   4.482   3.713   3.261
    1C        C  315   4.503   3.573   3.263
    1C        C  316   4.471   3.785   3.382
    1C        C  317   4.489   3.723   3.507
    1C        C  318   4.428   3.926   3.628
    1C        C  319   4.469   3.791   3.630
    1C        C  320   4.393   3.989   3.750
    1C        C  321   4.424   3.926   3.873
    1C        C  322   4.314   4.112   3.989
    1C        C  323   4.395   3.996   3.993
    1C        C  324   4.274   4.168   4.112
    1C        C  325   4.320   4.114   4.234
    1C        C  326   4.187   4.280   4.354
    1C        C  327   4.279   4.173   4.356
    1C        C  328   4.138   4.339   4.473
    1C        C  329   4.188   4.290   4.595
    1C        C  330   4.023   4.436   4.712
    1C        C  331   4.135   4.349   4.713
    1C        C  332   3.968   4.490   4.830
    1C        C  333   4.052   4.477   4.941
    1C        C  334   4.546   3.270   2.059
    1C        C  335   4.531   3.130   2.064
    1C        C  336   4.541   3.349   2.174
    1C        C  337   4.515   3.280   2.295
    1C        C  338   4.517   3.496   2.411
    1C        C  339   4.510   3.355   2.414
    1C        C  340   4.516   3.569   2.532
    1C        C  341   4.519   3.498   2.654
    1C        C  342   4.496   3.711   2.771
    1C        C  343   4.515   3.571   2.774
    1C        C  344   4.477   3.780   2.892
    1C        C  345   4.494   3.714   3.016
    1C        C  346   4.419   3.913   3.138
    1C        C  347   4.464   3.779   3.138
    1C        C  348   4.390   3.980   3.259
    1C        C  349   4.421   3.917   3.382
    1C        C  350   4.317   4.102   3.501
    1C        C  351   4.392   3.983   3.504
    1C        C  352   4.273   4.162   3.621
    1C        C  353   4.315   4.106   3.744
    1C        C  354   4.174   4.266   3.865
    1C        C  355   4.273   4.165   3.865
    1C        C  356   4.123   4.314   3.988
    1C        C  357   4.176   4.270   4.111
    1C        C  358   4.008   4.398   4.233
    1C        C  359   4.128   4.323   4.233
    1C        C  360   3.953   4.450   4.352
    1C        C  361   4.022   4.420   4.472
    1C        C  362   3.826   4.516   4.593
    1C        C  363   3.956   4.461   4.590
    1C        C  364   3.761   4.547   4.714
    1C        C  365   3.836   4.538   4.834
    1C        C  366   3.629   4.596   4.948
    1C        C  367   3.767   4.580   4.949
    1C        C  368   4.509   3.562   2.054
    1C        C  369   4.528   3.490   2.172
    1C        C  370   4.500   3.707   2.283
    1C        C  371   4.516   3.567   2.289
    1C        C  372   4.488   3.780   2.404
    1C        C  373   4.501   3.709   2.526
    1C        C  374   4.427   3.910   2.647
    1C        C  375   4.474   3.776   2.647
    1C        C  376   4.392   3.972   2.768
    1C        C  377   4.419   3.909   2.892
    1C        C  378   4.316   4.095   3.014
    1C        C  379   4.390   3.974   3.014
    1C        C  380   4.273   4.153   3.135
    1C        C  381   4.315   4.100   3.259
    1C        C  382   4.175   4.261   3.375
    1C        C  383   4.276   4.162   3.379
    1C        C  384   4.123   4.308   3.498
    1C        C  385   4.176   4.265   3.621
    1C        C  386   4.005   4.391   3.743
    1C        C  387   4.124   4.316   3.743
    1C        C  388   3.945   4.430   3.865
    1C        C  389   4.007   4.394   3.987
    1C        C  390   3.820   4.492   4.108
    1C        C  391   3.947   4.431   4.110
    1C        C  392   3.753   4.521   4.229
    1C        C  393   3.823   4.506   4.350
    1C        C  394   3.617   4.559   4.473
    1C        C  395   3.756   4.533   4.472
    1C        C  396   3.546   4.570   4.594
    1C        C  397   3.622   4.568   4.713
    1C        C  398   3.411   4.555   4.836
    1C        C  399   3.549   4.580   4.834
    1C        C  400   3.344   4.520   4.955
    1C        C  401   4.500   3.701   2.048
    1C        C  402   4.447   3.916   2.163
    1C        C  403   4.486   3.780   2.163
    1C        C  404   4.406   3.977   2.284
    1C        C  405   4.437   3.911   2.405
    1C        C  406   4.323   4.094   2.525
    1C        C  407   4.402   3.976   2.525
    1C        C  408   4.275   4.150   2.646
    1C        C  409   4.315   4.091   2.768
    1C        C  410   4.176   4.250   2.886
    1C        C  411   4.276   4.150   2.890
    1C        C  412   4.123   4.298   3.008
    1C        C  413   4.177   4.257   3.132
    1C        C  414   4.002   4.381   3.253
    1C        C  415   4.121   4.305   3.252
    1C        C  416   3.943   4.418   3.375
    1C        C  417   4.008   4.389   3.497
    1C        C  418   3.815   4.478   3.619
    1C        C  419   3.945   4.423   3.619
    1C        C  420   3.748   4.500   3.742
    1C        C  421   3.815   4.485   3.865
    1C        C  422   3.610   4.535   3.985
    1C        C  423   3.750   4.514   3.987
    1C        C  424   3.542   4.543   4.109
    1C        C  425   3.614   4.548   4.231
    1C        C  426   3.402   4.554   4.356
    1C        C  427   3.543   4.560   4.352
    1C        C  428   3.329   4.551   4.477
    1C        C  429   3.405   4.563   4.596
    1C        C  430   3.194   4.525   4.722
    1C        C  431   3.334   4.550   4.718
    1C        C  432   3.126   4.497   4.844
    1C        C  433   3.207   4.497   4.959
    1C        C  434   4.379   4.122   2.047
    1C        C  435   4.441   3.996   2.049
    1C        C  436   4.300   4.163   2.159
    1C        C  437   4.327   4.095   2.282
    1C        C  438   4.185   4.253   2.399
    1C        C  439   4.284   4.153   2.403
    1C        C  440   4.124   4.294   2.519
    1C        C  441   4.176   4.250   2.643
    1C        C  442   4.005   4.377   2.767
    1C        C  443   4.119   4.294   2.765
    1C        C  444   3.944   4.415   2.889
    1C        C  445   4.004   4.374   3.010
    1C        C  446   3.812   4.470   3.129
    1C        C  447   3.944   4.419   3.129
    1C        C  448   3.747   4.495   3.251
    1C        C  449   3.813   4.474   3.374
    1C        C  450   3.609   4.527   3.497
    1C        C  451   3.746   4.496   3.497
    1C        C  452   3.539   4.539   3.619
    1C        C  453   3.611   4.533   3.741
    1C        C  454   3.399   4.543   3.865
    1C        C  455   3.541   4.544   3.863
    1C        C  456   3.332   4.530   3.989
    1C        C  457   3.401   4.536   4.111
    1C        C  458   3.196   4.503   4.238
    1C        C  459   3.332   4.539   4.234
    1C        C  460   3.127   4.485   4.360
    1C        C  461   3.193   4.514   4.482
    1C        C  462   2.995   4.436   4.603
    1C        C  463   3.125   4.491   4.604
    1C        C  464   2.934   4.400   4.725
    1C        C  465   2.994   4.443   4.846
    1C        C  466   2.800   4.338   4.955
    1C        C  467   2.907   4.429   4.959
    1C        C  468   4.119   4.281   2.042
    1C        C  469   4.187   4.250   2.161
    1C        C  470   4.007   4.378   2.279
    1C        C  471   4.127   4.301   2.279
    1C        C  472   3.941   4.407   2.400
    1C        C  473   4.003   4.368   2.521
    1C        C  474   3.814   4.464   2.644
    1C        C  475   3.941   4.401   2.643
    1C        C  476   3.744   4.491   2.763
    1C        C  477   3.816   4.474   2.884
    1C        C  478   3.608   4.516   3.010
    1C        C  479   3.748   4.496   3.006
    1C        C  480   3.538   4.528   3.132
    1C        C  481   3.608   4.521   3.255
    1C        C  482   3.395   4.528   3.376
    1C        C  483   3.536   4.532   3.376
    1C        C  484   3.326   4.527   3.500
    1C        C  485   3.398   4.538   3.621
    1C        C  486   3.192   4.496   3.747
    1C        C  487   3.328   4.534   3.744
    1C        C  488   3.128   4.471   3.870
    1C        C  489   3.195   4.495   3.992
    1C        C  490   3.005   4.409   4.119
    1C        C  491   3.129   4.477   4.116
    1C        C  492   2.940   4.381   4.241
    1C        C  493   2.999   4.425   4.361
    1C        C  494   2.829   4.299   4.484
    1C        C  495   2.937   4.390   4.483
    1C        C  496   2.773   4.253   4.606
    1C        C  497   2.821   4.314   4.724
    1C        C  498   2.666   4.161   4.844
    1C        C  499   2.753   4.273   4.841
    1C        C  500   2.597   4.116   4.957
    1C        C  501   3.999   4.350   2.040
    1C        C  502   3.814   4.462   2.156
    1C        C  503   3.944   4.407   2.156
    1C        C  504   3.745   4.481   2.277
    1C        C  505   3.811   4.460   2.401
    1C        C  506   3.605   4.504   2.520
    1C        C  507   3.745   4.486   2.523
    1C        C  508   3.535   4.517   2.642
    1C        C  509   3.606   4.519   2.765
    1C        C  510   3.395   4.521   2.889
    1C        C  511   3.537   4.522   2.888
    1C        C  512   3.323   4.515   3.010
    1C        C  513   3.397   4.525   3.130
    1C        C  514   3.190   4.490   3.255
    1C        C  515   3.327   4.523   3.253
    1C        C  516   3.123   4.467   3.378
    1C        C  517   3.190   4.490   3.501
    1C        C  518   3.000   4.405   3.628
    1C        C  519   3.125   4.470   3.625
    1C        C  520   2.941   4.370   3.751
    1C        C  521   3.004   4.403   3.873
    1C        C  522   2.839   4.276   3.999
    1C        C  523   2.947   4.368   3.997
    1C        C  524   2.787   4.233   4.122
    1C        C  525   2.835   4.286   4.243
    1C        C  526   2.694   4.128   4.365
    1C        C  527   2.782   4.239   4.365
    1C        C  528   2.654   4.073   4.489
    1C        C  529   2.690   4.140   4.609
    1C        C  530   2.580   3.956   4.731
    1C        C  531   2.636   4.086   4.728
    1C        C  532   2.531   3.901   4.853
    1C        C  533   2.530   3.993   4.963
    1C        C  534   3.616   4.558   2.042
    1C        C  535   3.749   4.514   2.043
    1C        C  536   3.534   4.533   2.157
    1C        C  537   3.606   4.511   2.277
    1C        C  538   3.392   4.509   2.401
    1C        C  539   3.534   4.508   2.398
    1C        C  540   3.322   4.506   2.523
    1C        C  541   3.394   4.516   2.644
    1C        C  542   3.186   4.487   2.767
    1C        C  543   3.324   4.517   2.767
    1C        C  544   3.121   4.456   2.888
    1C        C  545   3.187   4.478   3.011
    1C        C  546   2.995   4.398   3.134
    1C        C  547   3.122   4.460   3.135
    1C        C  548   2.942   4.360   3.259
    1C        C  549   2.999   4.400   3.382
    1C        C  550   2.832   4.275   3.506
    1C        C  551   2.941   4.365   3.506
    1C        C  552   2.781   4.229   3.630
    1C        C  553   2.829   4.284   3.751
    1C        C  554   2.699   4.121   3.875
    1C        C  555   2.787   4.232   3.875
    1C        C  556   2.662   4.060   3.996
    1C        C  557   2.699   4.122   4.118
    1C        C  558   2.600   3.940   4.245
    1C        C  559   2.659   4.069   4.242
    1C        C  560   2.570   3.876   4.367
    1C        C  561   2.592   3.946   4.487
    1C        C  562   2.522   3.749   4.617
    1C        C  563   2.561   3.885   4.611
    1C        C  564   2.512   3.682   4.741
    1C        C  565   2.519   3.759   4.861
    1C        C  566   2.529   3.545   4.978
    1C        C  567   2.523   3.684   4.979
    1C        C  568   3.327   4.471   2.042
    1C        C  569   3.393   4.514   2.157
    1C        C  570   3.183   4.471   2.282
    1C        C  571   3.320   4.507   2.279
    1C        C  572   3.114   4.453   2.404
    1C        C  573   3.183   4.477   2.524
    1C        C  574   2.990   4.396   2.648
    1C        C  575   3.117   4.457   2.647
    1C        C  576   2.928   4.359   2.770
    1C        C  577   2.993   4.395   2.890
    1C        C  578   2.820   4.274   3.018
    1C        C  579   2.932   4.361   3.013
    1C        C  580   2.775   4.220   3.141
    1C        C  581   2.832   4.271   3.260
    1C        C  582   2.692   4.116   3.386
    1C        C  583   2.781   4.226   3.384
    1C        C  584   2.656   4.056   3.508
    1C        C  585   2.695   4.117   3.630
    1C        C  586   2.593   3.935   3.752
    1C        C  587   2.659   4.060   3.754
    1C        C  588   2.575   3.869   3.876
    1C        C  589   2.603   3.932   3.999
    1C        C  590   2.532   3.737   4.127
    1C        C  591   2.578   3.870   4.124
    1C        C  592   2.519   3.670   4.250
    1C        C  593   2.529   3.741   4.372
    1C        C  594   2.508   3.534   4.498
    1C        C  595   2.514   3.676   4.496
    1C        C  596   2.517   3.466   4.621
    1C        C  597   2.514   3.540   4.741
    1C        C  598   2.531   3.327   4.862
    1C        C  599   2.518   3.467   4.862
    1C        C  600   2.533   3.249   4.978
    1C        C  601   3.194   4.435   2.045
    1C        C  602   2.978   4.400   2.161
    1C        C  603   3.115   4.440   2.161
    1C        C  604   2.922   4.354   2.283
    1C        C  605   2.987   4.391   2.403
    1C        C  606   2.817   4.270   2.530
    1C        C  607   2.929   4.356   2.527
    1C        C  608   2.768   4.219   2.653
    1C        C  609   2.817   4.273   2.774
    1C        C  610   2.684   4.111   2.896
    1C        C  611   2.766   4.226   2.897
    1C        C  612   2.652   4.050   3.019
    1C        C  613   2.692   4.106   3.142
    1C        C  614   2.585   3.927   3.267
    1C        C  615   2.649   4.054   3.266
    1C        C  616   2.562   3.863   3.391
    1C        C  617   2.591   3.931   3.511
    1C        C  618   2.529   3.727   3.637
    1C        C  619   2.567   3.863   3.633
    1C        C  620   2.513   3.663   3.762
    1C        C  621   2.533   3.734   3.882
    1C        C  622   2.508   3.524   4.008
    1C        C  623   2.523   3.665   4.005
    1C        C  624   2.513   3.456   4.132
    1C        C  625   2.512   3.529   4.252
    1C        C  626   2.536   3.322   4.379
    1C        C  627   2.514   3.462   4.377
    1C        C  628   2.555   3.253   4.501
    1C        C  629   2.539   3.326   4.621
    1C        C  630   2.595   3.119   4.744
    1C        C  631   2.549   3.254   4.742
    1C        C  632   2.615   3.049   4.865
    1C        C  633   2.556   3.111   4.980
    1C        C  634   2.777   4.307   2.054
    1C        C  635   2.893   4.385   2.047
    1C        C  636   2.740   4.235   2.168
    1C        C  637   2.803   4.276   2.288
    1C        C  638   2.671   4.112   2.411
    1C        C  639   2.759   4.223   2.411
    1C        C  640   2.636   4.050   2.533
    1C        C  641   2.678   4.110   2.653
    1C        C  642   2.575   3.926   2.778
    1C        C  643   2.640   4.051   2.776
    1C        C  644   2.554   3.859   2.901
    1C        C  645   2.586   3.924   3.022
    1C        C  646   2.523   3.724   3.147
    1C        C  647   2.562   3.859   3.145
    1C        C  648   2.509   3.656   3.270
    1C        C  649   2.531   3.726   3.391
    1C        C  650   2.505   3.517   3.516
    1C        C  651   2.516   3.658   3.515
    1C        C  652   2.506   3.451   3.641
    1C        C  653   2.504   3.522   3.763
    1C        C  654   2.543   3.316   3.889
    1C        C  655   2.509   3.453   3.887
    1C        C  656   2.558   3.248   4.012
    1C        C  657   2.537   3.316   4.134
    1C        C  658   2.609   3.121   4.258
    1C        C  659   2.556   3.252   4.258
    1C        C  660   2.637   3.055   4.380
    1C        C  661   2.600   3.119   4.500
    1C        C  662   2.717   2.944   4.625
    1C        C  663   2.633   3.057   4.623
    1C        C  664   2.753   2.879   4.746
    1C        C  665   2.698   2.932   4.866
    1C        C  666   2.740   2.866   4.981
    1C        C  667   2.679   4.024   2.056
    1C        C  668   2.680   4.107   2.169
    1C        C  669   2.584   3.916   2.292
    1C        C  670   2.637   4.048   2.290
    1C        C  671   2.556   3.850   2.414
    1C        C  672   2.581   3.919   2.535
    1C        C  673   2.512   3.720   2.658
    1C        C  674   2.556   3.854   2.658
    1C        C  675   2.505   3.650   2.781
    1C        C  676   2.524   3.721   2.901
    1C        C  677   2.503   3.513   3.027
    1C        C  678   2.516   3.653   3.025
    1C        C  679   2.506   3.442   3.149
    1C        C  680   2.508   3.514   3.270
    1C        C  681   2.531   3.307   3.398
    1C        C  682   2.505   3.446   3.394
    1C        C  683   2.553   3.242   3.522
    1C        C  684   2.536   3.313   3.642
    1C        C  685   2.606   3.116   3.769
    1C        C  686   2.555   3.247   3.766
    1C        C  687   2.636   3.050   3.891
    1C        C  688   2.606   3.115   4.012
    1C        C  689   2.713   2.935   4.138
    1C        C  690   2.637   3.055   4.136
    1C        C  691   2.759   2.881   4.260
    1C        C  692   2.713   2.936   4.382
    1C        C  693   2.759   2.884   4.504
    1C        C  694   2.616   3.899   2.055
    1C        C  695   2.517   3.710   2.174
    1C        C  696   2.571   3.840   2.174
    1C        C  697   2.504   3.641   2.296
    1C        C  698   2.519   3.714   2.416
    1C        C  699   2.491   3.505   2.543
    1C        C  700   2.500   3.646   2.538
    1C        C  701   2.498   3.435   2.665
    1C        C  702   2.498   3.509   2.785
    1C        C  703   2.520   3.297   2.911
    1C        C  704   2.508   3.438   2.907
    1C        C  705   2.538   3.229   3.034
    1C        C  706   2.529   3.303   3.154
    1C        C  707   2.605   3.106   3.279
    1C        C  708   2.551   3.237   3.278
    1C        C  709   2.633   3.045   3.404
    1C        C  710   2.605   3.110   3.526
    1C        C  711   2.712   2.928   3.649
    1C        C  712   2.637   3.048   3.649
    1C        C  713   2.759   2.875   3.771
    1C        C  714   2.715   2.932   3.892
    1C        C  715   2.754   2.877   4.016
    1C        C  716   2.449   3.500   2.061
    1C        C  717   2.485   3.636   2.060
    1C        C  718   2.476   3.424   2.179
    1C        C  719   2.487   3.499   2.299
    1C        C  720   2.516   3.291   2.423
    1C        C  721   2.490   3.430   2.423
    1C        C  722   2.532   3.225   2.546
    1C        C  723   2.516   3.295   2.668
    1C        C  724   2.589   3.095   2.792
    1C        C  725   2.534   3.225   2.790
    1C        C  726   2.614   3.030   2.915
    1C        C  727   2.576   3.093   3.035
    1C        C  728   2.707   2.924   3.157
    1C        C  729   2.627   3.041   3.156
    1C        C  730   2.753   2.871   3.280
    1C        C  731   2.713   2.929   3.403
    1C        C  732   2.754   2.873   3.526
    1C        C  733   2.489   3.196   2.074
    1C        C  734   2.495   3.282   2.184
    1C        C  735   2.581   3.083   2.304
    1C        C  736   2.530   3.215   2.305
    1C        C  737   2.617   3.025   2.428
    1C        C  738   2.587   3.095   2.547
    1C        C  739   2.700   2.916   2.669
    1C        C  740   2.619   3.032   2.669
    1C        C  741   2.747   2.863   2.791
    1C        C  742   2.701   2.918   2.913
    1C        C  743   2.749   2.867   3.035
    1C        C  744   2.550   3.071   2.071
    1C        C  745   2.684   2.893   2.185
    1C        C  746   2.605   3.011   2.185
    1C        C  747   2.730   2.840   2.308
    1C        C  748   2.692   2.905   2.427
    1C        C  749   2.743   2.855   2.549
    1C        C  750   2.737   2.837   2.068
    1C        C  751   3.660   2.301   1.996
    1C        O  752   3.630   2.180   2.018
    1C        O  753   3.687   2.311   1.859
    1C        C  754   4.624   3.057   1.975
    1C        O  755   4.603   3.052   1.851
    1C        O  756   4.755   3.026   2.014
    1C        C  757   4.439   4.234   1.972
    1C        O  758   4.533   4.302   2.021
    1C        O  759   4.432   4.239   1.832
    1C        C  760   3.577   4.646   1.930
    1C        O  761   3.509   4.751   1.936
    1C        O  762   3.572   4.603   1.796
    1C        C  763   2.879   4.507   1.964
    1C        O  764   2.890   4.488   1.840
    1C        O  765   2.822   4.632   1.990
    1C        C  766   2.352   3.475   1.952
    1C        O  767   2.394   3.436   1.839
    1C        O  768   2.230   3.542   1.939
    1C        C  769   4.705   3.585   5.041
    1C        O  770   4.693   3.595   5.166
    1C        O  771   4.833   3.607   4.989
    1C        C  772   4.258   4.422   5.061
    1C        O  773   4.222   4.380   5.174
    1C        O  774   4.340   4.536   5.068
    1C        C  775   4.119   2.536   5.094
    1C        O  776   4.223   2.466   5.087
    1C        O  777   4.078   2.557   5.226
    1C        C  778   2.890   4.525   5.071
    1C        O  779   2.846   4.639   5.043
    1C        O  780   2.933   4.514   5.204
    1C        C  781   2.455   3.037   5.059
    1C        O  782   2.397   2.938   5.007
    1C        O  783   2.487   3.010   5.191
    1C        C  784   2.422   3.990   5.064
    1C        O  785   2.312   4.047   5.041
    1C        O  786   2.431   3.951   5.198
    1C        C  787   2.949   2.432   1.993
    1C        O  788   2.940   2.465   1.872
    1C        O  789   2.923   2.298   2.023
    1C        C  790   3.203   2.407   5.094
    1C        O  791   3.211   2.282   5.085
    1C        O  792   3.233   2.471   5.215
    1C        H  793   4.251   3.035   5.041
    1C        H  794   4.188   2.796   5.070
    1C        H  795   4.552   3.116   5.013
    1C        H  796   4.557   3.363   5.062
    1C        H  797   4.582   3.817   5.038
    1C        H  798   4.414   3.970   5.055
    1C        H  799   4.253   4.150   5.042
    1C        H  800   4.029   4.542   5.023
    1C        H  801   3.817   4.590   5.043
    1C        H  802   3.591   4.671   5.014
    1C        H  803   3.399   4.502   5.044
    1C        H  804   3.165   4.534   5.050
    1C        H  805   3.898   2.469   5.062
    1C        H  806   3.676   2.472   5.079
    1C        H  807   3.012   2.581   5.072
    1C        H  808   3.446   2.498   5.078
    1C        H  809   2.882   2.747   5.081
    1C        H  810   2.712   2.907   5.076
    1C        H  811   2.573   3.297   5.065
    1C        H  812   2.511   3.497   5.072
    1C        H  813   2.509   3.735   5.072
    1C        H  814   2.574   4.192   5.029
    1C        H  815   2.724   4.345   5.031
    1C        H  816   2.713   2.879   1.973
    1C        H  817   2.858   2.691   1.977
    1C        H  818   3.203   2.408   1.996
    1C        H  819   3.423   2.434   1.980
    1C        H  820   3.841   2.560   1.977
    1C        H  821   4.041   2.656   1.976
    1C        H  822   4.283   2.698   1.984
    1C        H  823   4.315   2.956   1.987
    1C        H  824   4.577   3.305   1.963
    1C        H  825   4.468   3.507   1.972
    1C        H  826   4.558   3.745   1.970
    1C        H  827   3.812   4.531   1.958
    1C        H  828   3.932   4.322   1.961
    1C        H  829   4.146   4.248   1.944
    1C        H  830   4.512   3.973   1.972
    1C        H  831   2.632   3.841   1.967
    1C        H  832   2.729   4.057   1.967
    1C        H  833   2.721   4.288   1.965
    1C        H  834   3.381   4.458   1.950
    1C        H  835   3.143   4.408   1.954
    1C        H  836   2.518   3.011   1.988
    1C        H  837   2.485   3.238   1.976
    1C        H  838   2.484   3.685   1.964
    2V3OU   H29  839   2.807   3.552   2.505
    2V3OU   C27  840   2.791   3.502   2.604
    2V3OU   H27  841   2.728   3.567   2.670
    2V3OU   H28  842   2.736   3.406   2.581
    2V3OU   O11  843   2.914   3.479   2.673
    2V3OU   C15  844   2.928   3.397   2.783
    2V3OU   C13  845   3.053   3.372   2.843
    2V3OU   C14  846   3.083   3.265   2.928
    2V3OU   C16  847   2.979   3.182   2.967
    2V3OU    H6  848   2.995   3.101   3.039
    2V3OU   C12  849   3.217   3.227   2.980
    2V3OU    O2  850   3.240   3.125   3.047
    2V3OU   C10  851   3.331   3.315   2.950
    2V3OU    C8  852   3.461   3.273   2.973
    2V3OU   O10  853   3.495   3.155   3.032
    2V3OU   H26  854   3.411   3.113   3.056
    2V3OU    C6  855   3.567   3.351   2.916
    2V3OU    C5  856   3.539   3.467   2.844
    2V3OU    C4  857   3.703   3.293   2.908
    2V3OU    H4  858   3.725   3.228   2.997
    2V3OU    H5  859   3.710   3.223   2.819
    2V3OU    C2  860   3.816   3.397   2.903
    2V3OU    O6  861   3.807   3.475   3.023
    2V3OU   H21  862   3.763   3.559   2.999
    2V3OU    C3  863   3.783   3.495   2.791
    2V3OU    H2  864   3.866   3.571   2.789
    2V3OU    H3  865   3.780   3.436   2.696
    2V3OU   C25  866   3.950   3.325   2.889
    2V3OU    O7  867   3.995   3.297   2.778
    2V3OU   C26  868   4.030   3.289   3.013
    2V3OU   H22  869   4.066   3.383   3.061
    2V3OU   H23  870   4.121   3.231   2.983
    2V3OU    O8  871   3.958   3.213   3.107
    2V3OU   H24  872   3.921   3.269   3.177
    2V3OU    C1  873   3.648   3.563   2.808
    2V3OU    H1  874   3.628   3.623   2.714
    2V3OU    O3  875   3.661   3.651   2.920
    2V3OU   C19  876   3.621   3.788   2.910
    2V3OU    H9  877   3.523   3.803   2.855
    2V3OU    O4  878   3.713   3.849   2.822
    2V3OU   C20  879   3.844   3.875   2.873
    2V3OU   H10  880   3.903   3.779   2.886
    2V3OU   C24  881   3.610   3.852   3.048
    2V3OU   H16  882   3.544   3.789   3.113
    2V3OU   H17  883   3.563   3.953   3.034
    2V3OU   C23  884   3.749   3.875   3.107
    2V3OU   H15  885   3.797   3.774   3.130
    2V3OU    N1  886   3.735   3.949   3.231
    2V3OU   H19  887   3.808   3.923   3.295
    2V3OU   H20  888   3.644   3.927   3.265
    2V3OU   C21  889   3.846   3.947   3.008
    2V3OU   H11  890   3.950   3.927   3.047
    2V3OU    O5  891   3.823   4.087   3.008
    2V3OU   H18  892   3.779   4.104   3.094
    2V3OU   C22  893   3.908   3.947   2.756
    2V3OU   H12  894   3.866   4.051   2.753
    2V3OU   H13  895   3.902   3.886   2.662
    2V3OU   H14  896   4.017   3.961   2.778
    2V3OU   C11  897   3.161   3.471   2.847
    2V3OU    O1  898   3.139   3.589   2.814
    2V3OU    C9  899   3.302   3.432   2.875
    2V3OU    C7  900   3.404   3.508   2.820
    2V3OU    O9  901   3.383   3.617   2.738
    2V3OU   H25  902   3.287   3.623   2.752
    2V3OU   C17  903   2.826   3.315   2.837
    2V3OU    H7  904   2.730   3.344   2.794
    2V3OU   C18  905   2.849   3.213   2.928
    2V3OU    H8  906   2.781   3.167   3.001
    3SOL     OW  907   2.342   5.502   6.806
    3SOL    HW1  908   2.366   5.583   6.752
    3SOL    HW2  909   2.265   5.455   6.762
    4SOL     OW  910   6.910   0.520   1.917
    4SOL    HW1  911   6.885   0.497   2.011
    4SOL    HW2  912   6.843   0.482   1.854
    5SOL     OW  913   4.284   1.947   2.253
    5SOL    HW1  914   4.298   1.866   2.196
    5SOL    HW2  915   4.304   2.029   2.200
    6SOL     OW  916   4.205   0.895   1.591
    6SOL    HW1  917   4.114   0.934   1.607
    6SOL    HW2  918   4.264   0.964   1.550
    7SOL     OW  919   0.560   3.981   3.405
    7SOL    HW1  920   0.464   3.998   3.384
    7SOL    HW2  921   0.569   3.954   3.501
    8SOL     OW  922   2.885   0.875   5.790
    8SOL    HW1  923   2.963   0.935   5.810
    8SOL    HW2  924   2.880   0.860   5.691
    9SOL     OW  925   4.641   1.229   5.718
    9SOL    HW1  926   4.669   1.171   5.795
    9SOL    HW2  927   4.547   1.206   5.692
   10SOL     OW  928   1.814   4.871   5.121
   10SOL    HW1  929   1.864   4.883   5.207
   10SOL    HW2  930   1.838   4.784   5.080
   11SOL     OW  931   2.738   0.595   5.488
   11SOL    HW1  932   2.836   0.586   5.509
   11SOL    HW2  933   2.684   0.550   5.559
   12SOL     OW  934   3.085   5.746   3.631
   12SOL    HW1  935   3.002   5.690   3.627
   12SOL    HW2  936   3.162   5.695   3.593
   13SOL     OW  937   3.669   6.354   4.090
   13SOL    HW1  938   3.613   6.429   4.054
   13SOL    HW2  939   3.746   6.338   4.029
   14SOL     OW  940   3.748   5.047   6.296
   14SOL    HW1  941   3.765   5.145   6.284
   14SOL    HW2  942   3.833   4.997   6.283
   15SOL     OW  943   0.901   6.667   1.568
   15SOL    HW1  944   0.978   6.633   1.514
   15SOL    HW2  945   0.820   6.612   1.550
   16SOL     OW  946   5.599   2.572   6.132
   16SOL    HW1  947   5.509   2.568   6.088
   16SOL    HW2  948   5.642   2.660   6.112
   17SOL     OW  949   5.796   6.276   6.021
   17SOL    HW1  950   5.708   6.294   5.976
   17SOL    HW2  951   5.852   6.359   6.017
   18SOL     OW  952   3.538   1.108   5.667
   18SOL    HW1  953   3.628   1.106   5.710
   18SOL    HW2  954   3.537   1.178   5.595
   19SOL     OW  955   0.311   1.109   2.682
   19SOL    HW1  956   0.321   1.195   2.632
   19SOL    HW2  957   0.389   1.097   2.743
   20SOL     OW  958   4.662   1.818   4.338
   20SOL    HW1  959   4.610   1.784   4.416
   20SOL    HW2  960   4.644   1.762   4.258
   21SOL     OW  961   3.160   0.534   2.085
   21SOL    HW1  962   3.156   0.509   2.182
   21SOL    HW2  963   3.239   0.594   2.070
   22SOL     OW  964   1.140   6.447   6.885
   22SOL    HW1  965   1.054   6.422   6.930
   22SOL    HW2  966   1.158   6.384   6.809
   23SOL     OW  967   5.934   5.423   2.372
   23SOL    HW1  968   5.879   5.488   2.320
   23SOL    HW2  969   6.007   5.387   2.313
   24SOL     OW  970   3.742   0.225   3.124
   24SOL    HW1  971   3.773   0.275   3.044
   24SOL    HW2  972   3.644   0.239   3.137
   25SOL     OW  973   3.696   0.524   4.268
   25SOL    HW1  974   3.789   0.558   4.256
   25SOL    HW2  975   3.663   0.549   4.359
   26SOL     OW  976   6.876   0.999   0.501
   26SOL    HW1  977   6.949   1.064   0.519
   26SOL    HW2  978   6.792   1.048   0.477
   27SOL     OW  979   1.713   1.001   2.450
   27SOL    HW1  980   1.800   1.049   2.452
   27SOL    HW2  981   1.730   0.902   2.450
   28SOL     OW  982   2.663   1.057   5.596
   28SOL    HW1  983   2.569   1.089   5.585
   28SOL    HW2  984   2.667   0.988   5.668
   29SOL     OW  985   6.200   1.530   1.869
   29SOL    HW1  986   6.161   1.464   1.806
   29SOL    HW2  987   6.249   1.482   1.942
   30SOL     OW  988   3.881   0.894   3.275
   30SOL    HW1  989   3.966   0.939   3.303
   30SOL    HW2  990   3.814   0.964   3.248
   31SOL     OW  991   0.424   2.326   6.255
   31SOL    HW1  992   0.506   2.276   6.228
   31SOL    HW2  993   0.423   2.336   6.355
   32SOL     OW  994   0.234   1.579   3.033
   32SOL    HW1  995   0.246   1.531   2.946
   32SOL    HW2  996   0.322   1.589   3.078
   33SOL     OW  997   0.873   4.539   5.460
   33SOL    HW1  998   0.867   4.500   5.552
   33SOL    HW2  999   0.790   4.516   5.409
   34SOL     OW 1000   2.465   6.574   4.906
   34SOL    HW1 1001   2.540   6.632   4.874
   34SOL    HW2 1002   2.474   6.560   5.005
   35SOL     OW 1003   5.014   2.911   6.155
   35SOL    HW1 1004   4.966   2.824   6.156
   35SOL    HW2 1005   5.112   2.896   6.152
   36SOL     OW 1006   4.884   1.407   4.838
   36SOL    HW1 1007   4.935   1.383   4.755
   36SOL    HW2 1008   4.786   1.410   4.818
   37SOL     OW 1009   1.132   1.960   5.905
   37SOL    HW1 1010   1.224   1.975   5.942
   37SOL    HW2 1011   1.082   1.899   5.967
   38SOL     OW 1012   1.120   5.288   2.741
   38SOL    HW1 1013   1.189   5.230   2.698
   38SOL    HW2 1014   1.077   5.346   2.671
   39SOL     OW 1015   6.526   4.658   6.244
   39SOL    HW1 1016   6.481   4.695   6.326
   39SOL    HW2 1017   6.541   4.731   6.178
   40SOL     OW 1018   4.891   1.737   0.383
   40SOL    HW1 1019   4.900   1.781   0.472
   40SOL    HW2 1020   4.833   1.656   0.390
   41SOL     OW 1021   7.002   4.699   3.409
   41SOL    HW1 1022   6.946   4.751   3.345
   41SOL    HW2 1023   0.053   4.757   3.443
   42SOL     OW 1024   3.330   4.906   4.460
   42SOL    HW1 1025   3.274   4.970   4.514
   42SOL    HW2 1026   3.280   4.880   4.378
   43SOL     OW 1027   5.120   0.070   5.714
   43SOL    HW1 1028   5.137   0.105   5.806
   43SOL    HW2 1029   5.175   0.121   5.648
   44SOL     OW 1030   4.931   2.335   5.637
   44SOL    HW1 1031   4.927   2.427   5.675
   44SOL    HW2 1032   4.903   2.337   5.541
   45SOL     OW 1033   5.021   5.556   1.467
   45SOL    HW1 1034   4.943   5.589   1.521
   45SOL    HW2 1035   5.053   5.629   1.407
   46SOL     OW 1036   0.802   2.765   3.426
   46SOL    HW1 1037   0.851   2.784   3.511
   46SOL    HW2 1038   0.747   2.683   3.436
   47SOL     OW 1039   4.569   4.348   1.013
   47SOL    HW1 1040   4.595   4.271   0.954
   47SOL    HW2 1041   4.535   4.423   0.956
   48SOL     OW 1042   6.436   2.635   5.890
   48SOL    HW1 1043   6.439   2.577   5.971
   48SOL    HW2 1044   6.387   2.588   5.817
   49SOL     OW 1045   5.895   3.728   1.883
   49SOL    HW1 1046   5.903   3.826   1.864
   49SOL    HW2 1047   5.986   3.689   1.894
   50SOL     OW 1048   5.693   1.191   4.689
   50SOL    HW1 1049   5.695   1.287   4.659
   50SOL    HW2 1050   5.746   1.135   4.626
   51SOL     OW 1051   2.446   6.349   3.101
   51SOL    HW1 1052   2.538   6.320   3.073
   51SOL    HW2 1053   2.385   6.269   3.099
   52SOL     OW 1054   5.832   3.491   2.562
   52SOL    HW1 1055   5.818   3.503   2.464
   52SOL    HW2 1056   5.805   3.398   2.589
   53SOL     OW 1057   4.303   0.250   3.785
   53SOL    HW1 1058   4.223   0.215   3.833
   53SOL    HW2 1059   4.375   0.272   3.851
   54SOL     OW 1060   4.900   5.339   0.848
   54SOL    HW1 1061   4.837   5.301   0.781
   54SOL    HW2 1062   4.861   5.421   0.889
   55SOL     OW 1063   1.793   2.910   5.854
   55SOL    HW1 1064   1.700   2.947   5.858
   55SOL    HW2 1065   1.820   2.879   5.945
   56SOL     OW 1066   0.357   0.947   1.319
   56SOL    HW1 1067   0.322   0.883   1.388
   56SOL    HW2 1068   0.386   1.031   1.364
   57SOL     OW 1069   4.430   1.269   1.127
   57SOL    HW1 1070   4.368   1.348   1.129
   57SOL    HW2 1071   4.382   1.190   1.089
   58SOL     OW 1072   1.076   0.021   5.251
   58SOL    HW1 1073   1.022   6.962   5.271
   58SOL    HW2 1074   1.092   0.027   5.152
   59SOL     OW 1075   0.388   2.773   6.078
   59SOL    HW1 1076   0.314   2.831   6.113
   59SOL    HW2 1077   0.468   2.829   6.059
   60SOL     OW 1078   5.273   2.668   4.208
   60SOL    HW1 1079   5.328   2.746   4.179
   60SOL    HW2 1080   5.180   2.699   4.228
   61SOL     OW 1081   6.384   2.073   4.129
   61SOL    HW1 1082   6.464   2.127   4.157
   61SOL    HW2 1083   6.314   2.133   4.091
   62SOL     OW 1084   1.328   0.846   1.872
   62SOL    HW1 1085   1.286   0.758   1.849
   62SOL    HW2 1086   1.366   0.841   1.965
   63SOL     OW 1087   5.188   1.215   3.992
   63SOL    HW1 1088   5.134   1.230   4.075
   63SOL    HW2 1089   5.144   1.261   3.915
   64SOL     OW 1090   0.246   3.012   6.157
   64SOL    HW1 1091   0.235   3.047   6.064
   64SOL    HW2 1092   0.158   3.012   6.204
   65SOL     OW 1093   0.766   4.357   6.554
   65SOL    HW1 1094   0.745   4.328   6.647
   65SOL    HW2 1095   0.750   4.282   6.491
   66SOL     OW 1096   4.151   0.937   4.696
   66SOL    HW1 1097   4.245   0.904   4.687
   66SOL    HW2 1098   4.106   0.935   4.607
   67SOL     OW 1099   6.729   2.818   5.849
   67SOL    HW1 1100   6.764   2.724   5.851
   67SOL    HW2 1101   6.804   2.881   5.826
   68SOL     OW 1102   6.693   1.402   6.948
   68SOL    HW1 1103   6.670   1.355   6.863
   68SOL    HW2 1104   6.753   1.480   6.929
   69SOL     OW 1105   0.826   2.980   6.461
   69SOL    HW1 1106   0.819   3.055   6.396
   69SOL    HW2 1107   0.794   3.010   6.551
   70SOL     OW 1108   5.505   4.706   4.776
   70SOL    HW1 1109   5.525   4.656   4.692
   70SOL    HW2 1110   5.538   4.654   4.854
   71SOL     OW 1111   4.373   1.913   3.187
   71SOL    HW1 1112   4.287   1.932   3.234
   71SOL    HW2 1113   4.412   1.998   3.153
   72SOL     OW 1114   1.722   1.089   3.571
   72SOL    HW1 1115   1.710   1.092   3.671
   72SOL    HW2 1116   1.641   1.128   3.527
   73SOL     OW 1117   3.806   0.526   1.103
   73SOL    HW1 1118   3.882   0.503   1.164
   73SOL    HW2 1119   3.762   0.610   1.134
   74SOL     OW 1120   3.637   0.666   0.103
   74SOL    HW1 1121   3.582   0.749   0.095
   74SOL    HW2 1122   3.712   0.682   0.167
   75SOL     OW 1123   4.660   0.896   1.195
   75SOL    HW1 1124   4.633   0.884   1.291
   75SOL    HW2 1125   4.585   0.866   1.136
   76SOL     OW 1126   2.683   2.891   0.975
   76SOL    HW1 1127   2.709   2.922   1.067
   76SOL    HW2 1128   2.713   2.958   0.908
   77SOL     OW 1129   0.758   0.381   4.019
   77SOL    HW1 1130   0.827   0.309   4.023
   77SOL    HW2 1131   0.687   0.355   3.953
   78SOL     OW 1132   5.389   1.616   0.196
   78SOL    HW1 1133   5.390   1.520   0.166
   78SOL    HW2 1134   5.325   1.626   0.272
   79SOL     OW 1135   3.129   6.174   1.295
   79SOL    HW1 1136   3.178   6.261   1.291
   79SOL    HW2 1137   3.181   6.105   1.244
   80SOL     OW 1138   4.289   1.120   3.710
   80SOL    HW1 1139   4.356   1.049   3.688
   80SOL    HW2 1140   4.336   1.208   3.717
   81SOL     OW 1141   2.492   0.301   2.508
   81SOL    HW1 1142   2.518   0.396   2.521
   81SOL    HW2 1143   2.392   0.295   2.503
   82SOL     OW 1144   5.971   4.939   0.302
   82SOL    HW1 1145   5.943   5.031   0.275
   82SOL    HW2 1146   5.893   4.890   0.340
   83SOL     OW 1147   6.922   0.255   0.345
   83SOL    HW1 1148   7.019   0.236   0.362
   83SOL    HW2 1149   6.909   0.278   0.249
   84SOL     OW 1150   5.750   3.226   2.633
   84SOL    HW1 1151   5.688   3.176   2.572
   84SOL    HW2 1152   5.813   3.162   2.676
   85SOL     OW 1153   1.712   1.452   4.018
   85SOL    HW1 1154   1.656   1.442   3.936
   85SOL    HW2 1155   1.761   1.367   4.036
   86SOL     OW 1156   0.933   1.609   6.377
   86SOL    HW1 1157   0.855   1.608   6.315
   86SOL    HW2 1158   0.991   1.688   6.357
   87SOL     OW 1159   4.956   4.538   1.076
   87SOL    HW1 1160   4.873   4.523   1.129
   87SOL    HW2 1161   4.949   4.491   0.988
   88SOL     OW 1162   3.012   1.951   6.331
   88SOL    HW1 1163   3.091   1.943   6.270
   88SOL    HW2 1164   2.986   2.047   6.339
   89SOL     OW 1165   2.513   2.275   6.950
   89SOL    HW1 1166   2.520   2.358   6.894
   89SOL    HW2 1167   2.437   2.219   6.918
   90SOL     OW 1168   4.265   5.553   1.808
   90SOL    HW1 1169   4.186   5.513   1.854
   90SOL    HW2 1170   4.249   5.651   1.793
   91SOL     OW 1171   6.283   3.905   6.133
   91SOL    HW1 1172   6.283   3.961   6.051
   91SOL    HW2 1173   6.319   3.958   6.210
   92SOL     OW 1174   4.693   4.575   1.203
   92SOL    HW1 1175   4.663   4.621   1.287
   92SOL    HW2 1176   4.648   4.486   1.197
   93SOL     OW 1177   3.373   3.535   0.897
   93SOL    HW1 1178   3.368   3.591   0.980
   93SOL    HW2 1179   3.284   3.534   0.851
   94SOL     OW 1180   2.921   5.449   6.392
   94SOL    HW1 1181   3.008   5.405   6.368
   94SOL    HW2 1182   2.861   5.448   6.312
   95SOL     OW 1183   1.614   0.293   2.888
   95SOL    HW1 1184   1.619   0.361   2.816
   95SOL    HW2 1185   1.548   0.222   2.863
   96SOL     OW 1186   4.159   0.081   5.527
   96SOL    HW1 1187   4.082   0.024   5.497
   96SOL    HW2 1188   4.238   0.023   5.548
   97SOL     OW 1189   2.141   2.871   5.547
   97SOL    HW1 1190   2.140   2.889   5.645
   97SOL    HW2 1191   2.189   2.944   5.500
   98SOL     OW 1192   1.249   2.711   0.885
   98SOL    HW1 1193   1.164   2.709   0.833
   98SOL    HW2 1194   1.302   2.792   0.858
   99SOL     OW 1195   4.343   2.893   1.503
   99SOL    HW1 1196   4.380   2.953   1.574
   99SOL    HW2 1197   4.388   2.914   1.416
  100SOL     OW 1198   0.899   6.735   3.689
  100SOL    HW1 1199   0.990   6.775   3.678
  100SOL    HW2 1200   0.891   6.653   3.632
  101SOL     OW 1201   1.876   4.145   2.119
  101SOL    HW1 1202   1.942   4.071   2.131
  101SOL    HW2 1203   1.871   4.169   2.022
  102SOL     OW 1204   2.769   5.346   1.754
  102SOL    HW1 1205   2.771   5.256   1.709
  102SOL    HW2 1206   2.705   5.343   1.831
  103SOL     OW 1207   2.534   1.597   2.044
  103SOL    HW1 1208   2.612   1.658   2.029
  103SOL    HW2 1209   2.523   1.536   1.966
  104SOL     OW 1210   1.263   5.517   2.627
  104SOL    HW1 1211   1.191   5.503   2.560
  104SOL    HW2 1212   1.239   5.594   2.687
  105SOL     OW 1213   6.079   0.887   6.402
  105SOL    HW1 1214   6.139   0.962   6.374
  105SOL    HW2 1215   5.999   0.924   6.449
  106SOL     OW 1216   3.573   6.072   4.005
  106SOL    HW1 1217   3.523   6.111   3.927
  106SOL    HW2 1218   3.671   6.089   3.994
  107SOL     OW 1219   1.251   1.344   6.994
  107SOL    HW1 1220   1.162   1.363   6.952
  107SOL    HW2 1221   1.271   1.413   0.041
  108SOL     OW 1222   3.772   0.031   5.912
  108SOL    HW1 1223   3.774   0.107   5.976
  108SOL    HW2 1224   3.732   6.973   5.956
  109SOL     OW 1225   2.037   1.006   2.774
  109SOL    HW1 1226   2.111   1.073   2.779
  109SOL    HW2 1227   2.007   0.996   2.679
  110SOL     OW 1228   3.106   5.462   4.055
  110SOL    HW1 1229   3.151   5.376   4.079
  110SOL    HW2 1230   3.013   5.462   4.093
  111SOL     OW 1231   2.138   1.261   4.007
  111SOL    HW1 1232   2.216   1.259   4.070
  111SOL    HW2 1233   2.055   1.283   4.058
  112SOL     OW 1234   3.119   5.741   7.019
  112SOL    HW1 1235   3.123   5.678   0.074
  112SOL    HW2 1236   3.049   5.810   0.013
  113SOL     OW 1237   1.301   5.970   2.538
  113SOL    HW1 1238   1.308   5.963   2.637
  113SOL    HW2 1239   1.210   5.938   2.509
  114SOL     OW 1240   0.676   6.526   1.574
  114SOL    HW1 1241   0.578   6.537   1.593
  114SOL    HW2 1242   0.691   6.440   1.526
  115SOL     OW 1243   4.742   1.431   3.039
  115SOL    HW1 1244   4.805   1.369   3.086
  115SOL    HW2 1245   4.794   1.493   2.980
  116SOL     OW 1246   6.735   6.200   0.999
  116SOL    HW1 1247   6.702   6.197   1.093
  116SOL    HW2 1248   6.726   6.110   0.957
  117SOL     OW 1249   0.672   1.669   1.129
  117SOL    HW1 1250   0.645   1.708   1.216
  117SOL    HW2 1251   0.762   1.627   1.137
  118SOL     OW 1252   1.551   0.918   2.212
  118SOL    HW1 1253   1.518   0.825   2.229
  118SOL    HW2 1254   1.619   0.943   2.281
  119SOL     OW 1255   0.283   0.256   6.896
  119SOL    HW1 1256   0.253   0.202   6.817
  119SOL    HW2 1257   0.273   0.353   6.876
  120SOL     OW 1258   5.055   1.888   6.001
  120SOL    HW1 1259   5.121   1.828   6.047
  120SOL    HW2 1260   4.997   1.834   5.940
  121SOL     OW 1261   1.990   3.052   0.490
  121SOL    HW1 1262   1.994   3.051   0.590
  121SOL    HW2 1263   2.027   2.966   0.455
  122SOL     OW 1264   1.623   3.645   0.124
  122SOL    HW1 1265   1.549   3.708   0.104
  122SOL    HW2 1266   1.622   3.621   0.221
  123SOL     OW 1267   1.005   1.623   3.001
  123SOL    HW1 1268   1.047   1.708   2.969
  123SOL    HW2 1269   1.009   1.619   3.101
  124SOL     OW 1270   3.742   2.378   0.639
  124SOL    HW1 1271   3.675   2.413   0.575
  124SOL    HW2 1272   3.699   2.364   0.729
  125SOL     OW 1273   4.243   2.340   0.555
  125SOL    HW1 1274   4.242   2.427   0.605
  125SOL    HW2 1275   4.151   2.301   0.554
  126SOL     OW 1276   3.573   3.872   1.714
  126SOL    HW1 1277   3.662   3.912   1.736
  126SOL    HW2 1278   3.540   3.912   1.628
  127SOL     OW 1279   0.991   5.225   6.367
  127SOL    HW1 1280   0.968   5.184   6.279
  127SOL    HW2 1281   0.907   5.255   6.412
  128SOL     OW 1282   4.554   3.111   1.176
  128SOL    HW1 1283   4.530   3.131   1.271
  128SOL    HW2 1284   4.487   3.153   1.115
  129SOL     OW 1285   3.364   3.713   6.446
  129SOL    HW1 1286   3.334   3.746   6.536
  129SOL    HW2 1287   3.441   3.768   6.414
  130SOL     OW 1288   1.356   1.425   4.233
  130SOL    HW1 1289   1.362   1.454   4.138
  130SOL    HW2 1290   1.316   1.498   4.288
  131SOL     OW 1291   4.789   0.518   3.084
  131SOL    HW1 1292   4.795   0.439   3.144
  131SOL    HW2 1293   4.694   0.537   3.061
  132SOL     OW 1294   3.014   2.695   1.749
  132SOL    HW1 1295   3.056   2.751   1.821
  132SOL    HW2 1296   3.007   2.601   1.780
  133SOL     OW 1297   5.511   0.819   4.614
  133SOL    HW1 1298   5.468   0.871   4.688
  133SOL    HW2 1299   5.450   0.817   4.535
  134SOL     OW 1300   0.050   1.056   2.692
  134SOL    HW1 1301   0.149   1.065   2.700
  134SOL    HW2 1302   0.027   0.970   2.646
  135SOL     OW 1303   5.102   3.742   3.774
  135SOL    HW1 1304   5.005   3.725   3.753
  135SOL    HW2 1305   5.135   3.669   3.834
  136SOL     OW 1306   1.659   5.318   5.323
  136SOL    HW1 1307   1.646   5.296   5.420
  136SOL    HW2 1308   1.614   5.404   5.302
  137SOL     OW 1309   4.646   1.811   2.890
  137SOL    HW1 1310   4.604   1.901   2.883
  137SOL    HW2 1311   4.603   1.748   2.826
  138SOL     OW 1312   1.326   3.500   2.868
  138SOL    HW1 1313   1.227   3.505   2.857
  138SOL    HW2 1314   1.349   3.417   2.919
  139SOL     OW 1315   1.890   6.597   5.588
  139SOL    HW1 1316   1.958   6.569   5.655
  139SOL    HW2 1317   1.799   6.565   5.617
  140SOL     OW 1318   1.983   7.017   3.859
  140SOL    HW1 1319   1.968   6.921   3.883
  140SOL    HW2 1320   1.898   0.046   3.872
  141SOL     OW 1321   0.463   2.612   4.874
  141SOL    HW1 1322   0.388   2.670   4.906
  141SOL    HW2 1323   0.444   2.517   4.897
  142SOL     OW 1324   2.015   3.905   2.215
  142SOL    HW1 1325   1.917   3.885   2.210
  142SOL    HW2 1326   2.066   3.821   2.195
  143SOL     OW 1327   5.536   4.819   0.530
  143SOL    HW1 1328   5.608   4.791   0.466
  143SOL    HW2 1329   5.567   4.802   0.624
  144SOL     OW 1330   1.624   4.721   5.990
  144SOL    HW1 1331   1.624   4.744   5.893
  144SOL    HW2 1332   1.558   4.779   6.038
  145SOL     OW 1333   1.860   4.519   1.825
  145SOL    HW1 1334   1.805   4.601   1.836
  145SOL    HW2 1335   1.800   4.441   1.809
  146SOL     OW 1336   5.324   0.226   6.255
  146SOL    HW1 1337   5.347   0.140   6.209
  146SOL    HW2 1338   5.404   0.262   6.301
  147SOL     OW 1339   5.421   2.283   6.315
  147SOL    HW1 1340   5.423   2.286   6.215
  147SOL    HW2 1341   5.428   2.376   6.351
  148SOL     OW 1342   6.890   4.938   0.860
  148SOL    HW1 1343   6.985   4.931   0.829
  148SOL    HW2 1344   6.836   4.987   0.792
  149SOL     OW 1345   3.813   2.130   4.612
  149SOL    HW1 1346   3.734   2.190   4.597
  149SOL    HW2 1347   3.882   2.149   4.542
  150SOL     OW 1348   5.572   6.481   6.858
  150SOL    HW1 1349   5.643   6.421   6.897
  150SOL    HW2 1350   5.572   6.472   6.758
  151SOL     OW 1351   3.020   0.740   1.375
  151SOL    HW1 1352   3.003   0.787   1.289
  151SOL    HW2 1353   3.015   0.641   1.360
  152SOL     OW 1354   0.217   0.824   0.985
  152SOL    HW1 1355   0.266   0.907   0.959
  152SOL    HW2 1356   0.165   0.841   1.069
  153SOL     OW 1357   2.755   0.142   3.641
  153SOL    HW1 1358   2.744   0.098   3.551
  153SOL    HW2 1359   2.780   0.072   3.709
  154SOL     OW 1360   1.080   3.280   0.867
  154SOL    HW1 1361   1.028   3.358   0.901
  154SOL    HW2 1362   1.065   3.271   0.768
  155SOL     OW 1363   0.921   1.329   4.887
  155SOL    HW1 1364   0.827   1.328   4.854
  155SOL    HW2 1365   0.965   1.242   4.867
  156SOL     OW 1366   6.894   0.426   0.570
  156SOL    HW1 1367   6.896   0.355   0.500
  156SOL    HW2 1368   6.823   0.494   0.547
  157SOL     OW 1369   5.962   3.717   0.901
  157SOL    HW1 1370   5.896   3.773   0.850
  157SOL    HW2 1371   5.974   3.755   0.992
  158SOL     OW 1372   1.023   3.103   1.867
  158SOL    HW1 1373   1.097   3.113   1.934
  158SOL    HW2 1374   1.038   3.020   1.814
  159SOL     OW 1375   4.626   5.333   1.829
  159SOL    HW1 1376   4.582   5.397   1.767
  159SOL    HW2 1377   4.717   5.310   1.794
  160SOL     OW 1378   5.733   6.495   0.699
  160SOL    HW1 1379   5.643   6.456   0.679
  160SOL    HW2 1380   5.757   6.475   0.794
  161SOL     OW 1381   1.351   6.932   3.528
  161SOL    HW1 1382   1.355   7.014   3.471
  161SOL    HW2 1383   1.332   6.852   3.470
  162SOL     OW 1384   3.585   6.274   0.032
  162SOL    HW1 1385   3.537   6.201   0.080
  162SOL    HW2 1386   3.630   6.237   6.973
  163SOL     OW 1387   6.714   5.964   2.470
  163SOL    HW1 1388   6.777   5.987   2.544
  163SOL    HW2 1389   6.623   5.999   2.492
  164SOL     OW 1390   0.732   4.192   3.320
  164SOL    HW1 1391   0.694   4.110   3.363
  164SOL    HW2 1392   0.830   4.180   3.306
  165SOL     OW 1393   4.548   4.111   0.859
  165SOL    HW1 1394   4.473   4.046   0.870
  165SOL    HW2 1395   4.586   4.104   0.767
  166SOL     OW 1396   0.975   2.883   2.135
  166SOL    HW1 1397   1.067   2.868   2.100
  166SOL    HW2 1398   0.910   2.885   2.059
  167SOL     OW 1399   5.546   2.435   0.404
  167SOL    HW1 1400   5.510   2.343   0.418
  167SOL    HW2 1401   5.612   2.434   0.329
  168SOL     OW 1402   3.808   2.134   0.410
  168SOL    HW1 1403   3.723   2.112   0.458
  168SOL    HW2 1404   3.787   2.163   0.317
  169SOL     OW 1405   6.399   1.929   1.406
  169SOL    HW1 1406   6.379   1.837   1.372
  169SOL    HW2 1407   6.352   1.996   1.348
  170SOL     OW 1408   6.801   6.773   2.482
  170SOL    HW1 1409   6.839   6.862   2.507
  170SOL    HW2 1410   6.721   6.754   2.539
  171SOL     OW 1411   2.755   4.232   6.859
  171SOL    HW1 1412   2.805   4.186   6.786
  171SOL    HW2 1413   2.818   4.288   6.913
  172SOL     OW 1414   6.166   1.482   3.106
  172SOL    HW1 1415   6.214   1.408   3.153
  172SOL    HW2 1416   6.083   1.446   3.064
  173SOL     OW 1417   6.080   1.263   3.524
  173SOL    HW1 1418   6.163   1.207   3.529
  173SOL    HW2 1419   6.012   1.218   3.465
  174SOL     OW 1420   4.377   5.505   3.863
  174SOL    HW1 1421   4.341   5.562   3.789
  174SOL    HW2 1422   4.474   5.527   3.878
  175SOL     OW 1423   3.025   0.204   1.561
  175SOL    HW1 1424   3.005   0.109   1.536
  175SOL    HW2 1425   3.034   0.211   1.660
  176SOL     OW 1426   6.624   4.550   1.877
  176SOL    HW1 1427   6.638   4.616   1.804
  176SOL    HW2 1428   6.657   4.588   1.963
  177SOL     OW 1429   5.269   3.711   4.410
  177SOL    HW1 1430   5.243   3.746   4.320
  177SOL    HW2 1431   5.217   3.759   4.481
  178SOL     OW 1432   3.005   4.155   5.565
  178SOL    HW1 1433   2.999   4.160   5.465
  178SOL    HW2 1434   2.915   4.174   5.605
  179SOL     OW 1435   4.055   1.386   5.821
  179SOL    HW1 1436   4.089   1.317   5.885
  179SOL    HW2 1437   4.093   1.369   5.730
  180SOL     OW 1438   1.726   6.845   1.066
  180SOL    HW1 1439   1.795   6.867   0.997
  180SOL    HW2 1440   1.751   6.887   1.153
  181SOL     OW 1441   3.389   3.461   6.216
  181SOL    HW1 1442   3.434   3.551   6.214
  181SOL    HW2 1443   3.362   3.440   6.310
  182SOL     OW 1444   4.103   1.969   6.149
  182SOL    HW1 1445   4.100   2.010   6.058
  182SOL    HW2 1446   4.148   2.032   6.213
  183SOL     OW 1447   3.293   1.767   3.520
  183SOL    HW1 1448   3.344   1.852   3.517
  183SOL    HW2 1449   3.265   1.747   3.614
  184SOL     OW 1450   0.766   6.059   3.795
  184SOL    HW1 1451   0.678   6.042   3.838
  184SOL    HW2 1452   0.767   6.019   3.703
  185SOL     OW 1453   1.397   1.139   4.580
  185SOL    HW1 1454   1.439   1.228   4.600
  185SOL    HW2 1455   1.465   1.079   4.538
  186SOL     OW 1456   6.013   1.472   4.247
  186SOL    HW1 1457   5.984   1.376   4.241
  186SOL    HW2 1458   6.059   1.497   4.162
  187SOL     OW 1459   4.990   6.530   2.838
  187SOL    HW1 1460   4.969   6.441   2.879
  187SOL    HW2 1461   4.927   6.547   2.762
  188SOL     OW 1462   1.319   3.110   3.202
  188SOL    HW1 1463   1.289   3.029   3.150
  188SOL    HW2 1464   1.273   3.111   3.291
  189SOL     OW 1465   1.927   5.771   0.270
  189SOL    HW1 1466   1.974   5.685   0.251
  189SOL    HW2 1467   1.857   5.757   0.340
  190SOL     OW 1468   6.251   4.050   5.587
  190SOL    HW1 1469   6.200   4.062   5.502
  190SOL    HW2 1470   6.261   4.139   5.632
  191SOL     OW 1471   6.059   0.327   0.021
  191SOL    HW1 1472   6.155   0.353   0.029
  191SOL    HW2 1473   6.036   0.260   0.091
  192SOL     OW 1474   0.738   5.296   1.715
  192SOL    HW1 1475   0.786   5.218   1.675
  192SOL    HW2 1476   0.714   5.276   1.810
  193SOL     OW 1477   4.388   3.602   5.256
  193SOL    HW1 1478   4.409   3.599   5.354
  193SOL    HW2 1479   4.467   3.570   5.204
  194SOL     OW 1480   4.435   6.740   3.449
  194SOL    HW1 1481   4.411   6.687   3.368
  194SOL    HW2 1482   4.385   6.705   3.528
  195SOL     OW 1483   1.399   0.598   4.254
  195SOL    HW1 1484   1.347   0.513   4.244
  195SOL    HW2 1485   1.394   0.629   4.350
  196SOL     OW 1486   2.511   0.195   0.114
  196SOL    HW1 1487   2.554   0.200   0.204
  196SOL    HW2 1488   2.471   0.104   0.101
  197SOL     OW 1489   2.503   0.273   1.311
  197SOL    HW1 1490   2.492   0.289   1.213
  197SOL    HW2 1491   2.414   0.263   1.355
  198SOL     OW 1492   4.882   6.904   1.962
  198SOL    HW1 1493   4.943   6.840   1.916
  198SOL    HW2 1494   4.937   6.974   2.008
  199SOL     OW 1495   6.098   1.529   3.411
  199SOL    HW1 1496   6.126   1.520   3.315
  199SOL    HW2 1497   6.081   1.438   3.449
  200SOL     OW 1498   1.296   4.222   1.822
  200SOL    HW1 1499   1.302   4.213   1.922
  200SOL    HW2 1500   1.378   4.184   1.780
  201SOL     OW 1501   6.345   0.267   6.173
  201SOL    HW1 1502   6.274   0.333   6.197
  201SOL    HW2 1503   6.310   0.205   6.102
  202SOL     OW 1504   5.181   0.470   5.772
  202SOL    HW1 1505   5.172   0.490   5.675
  202SOL    HW2 1506   5.138   0.543   5.825
  203SOL     OW 1507   4.388   2.475   4.215
  203SOL    HW1 1508   4.484   2.447   4.216
  203SOL    HW2 1509   4.334   2.414   4.273
  204SOL     OW 1510   7.019   0.689   6.102
  204SOL    HW1 1511   6.989   0.687   6.007
  204SOL    HW2 1512   6.969   0.760   6.152
  205SOL     OW 1513   0.683   0.646   3.461
  205SOL    HW1 1514   0.686   0.720   3.529
  205SOL    HW2 1515   0.776   0.623   3.432
  206SOL     OW 1516   0.432   5.217   2.093
  206SOL    HW1 1517   0.419   5.206   2.192
  206SOL    HW2 1518   0.375   5.151   2.044
  207SOL     OW 1519   4.877   0.778   4.125
  207SOL    HW1 1520   4.779   0.798   4.117
  207SOL    HW2 1521   4.928   0.836   4.062
  208SOL     OW 1522   5.434   3.527   5.402
  208SOL    HW1 1523   5.492   3.497   5.327
  208SOL    HW2 1524   5.452   3.472   5.483
  209SOL     OW 1525   0.767   4.899   4.634
  209SOL    HW1 1526   0.702   4.831   4.667
  209SOL    HW2 1527   0.762   4.981   4.692
  210SOL     OW 1528   4.282   2.450   1.130
  210SOL    HW1 1529   4.231   2.443   1.044
  210SOL    HW2 1530   4.317   2.360   1.156
  211SOL     OW 1531   2.119   6.196   3.556
  211SOL    HW1 1532   2.158   6.252   3.628
  211SOL    HW2 1533   2.116   6.100   3.586
  212SOL     OW 1534   1.820   4.380   1.302
  212SOL    HW1 1535   1.764   4.363   1.220
  212SOL    HW2 1536   1.777   4.451   1.357
  213SOL     OW 1537   3.431   0.853   5.918
  213SOL    HW1 1538   3.416   0.862   5.820
  213SOL    HW2 1539   3.376   0.778   5.954
  214SOL     OW 1540   4.492   5.529   1.676
  214SOL    HW1 1541   4.502   5.628   1.670
  214SOL    HW2 1542   4.409   5.507   1.727
  215SOL     OW 1543   2.093   3.819   0.929
  215SOL    HW1 1544   2.179   3.772   0.949
  215SOL    HW2 1545   2.080   3.821   0.829
  216SOL     OW 1546   2.181   5.752   4.566
  216SOL    HW1 1547   2.245   5.815   4.610
  216SOL    HW2 1548   2.203   5.658   4.593
  217SOL     OW 1549   2.228   2.956   3.603
  217SOL    HW1 1550   2.216   3.016   3.525
  217SOL    HW2 1551   2.299   2.888   3.583
  218SOL     OW 1552   1.250   2.634   4.542
  218SOL    HW1 1553   1.167   2.683   4.515
  218SOL    HW2 1554   1.268   2.651   4.639
  219SOL     OW 1555   4.195   6.342   6.294
  219SOL    HW1 1556   4.097   6.361   6.289
  219SOL    HW2 1557   4.242   6.420   6.335
  220SOL     OW 1558   3.611   6.526   0.664
  220SOL    HW1 1559   3.693   6.575   0.634
  220SOL    HW2 1560   3.530   6.569   0.625
  221SOL     OW 1561   6.581   3.513   2.625
  221SOL    HW1 1562   6.593   3.415   2.642
  221SOL    HW2 1563   6.566   3.528   2.527
  222SOL     OW 1564   3.028   4.787   5.678
  222SOL    HW1 1565   2.959   4.769   5.747
  222SOL    HW2 1566   2.986   4.832   5.599
  223SOL     OW 1567   5.964   3.447   0.984
  223SOL    HW1 1568   5.915   3.487   1.062
  223SOL    HW2 1569   5.997   3.520   0.925
  224SOL     OW 1570   2.485   2.046   4.254
  224SOL    HW1 1571   2.519   2.050   4.160
  224SOL    HW2 1572   2.560   2.025   4.316
  225SOL     OW 1573   5.662   2.020   6.073
  225SOL    HW1 1574   5.651   2.012   6.172
  225SOL    HW2 1575   5.619   2.105   6.042
  226SOL     OW 1576   1.743   0.324   6.323
  226SOL    HW1 1577   1.693   0.266   6.387
  226SOL    HW2 1578   1.756   0.415   6.363
  227SOL     OW 1579   1.859   3.608   2.915
  227SOL    HW1 1580   1.940   3.582   2.967
  227SOL    HW2 1581   1.830   3.700   2.941
  228SOL     OW 1582   3.466   6.328   3.284
  228SOL    HW1 1583   3.558   6.338   3.321
  228SOL    HW2 1584   3.443   6.231   3.280
  229SOL     OW 1585   4.828   5.934   6.873
  229SOL    HW1 1586   4.854   5.847   6.830
  229SOL    HW2 1587   4.887   5.949   6.953
  230SOL     OW 1588   3.070   4.854   2.822
  230SOL    HW1 1589   3.027   4.936   2.784
  230SOL    HW2 1590   3.033   4.773   2.777
  231SOL     OW 1591   6.255   1.784   6.415
  231SOL    HW1 1592   6.209   1.726   6.482
  231SOL    HW2 1593   6.332   1.734   6.375
  232SOL     OW 1594   1.347   4.039   5.946
  232SOL    HW1 1595   1.318   4.128   5.979
  232SOL    HW2 1596   1.396   4.050   5.859
  233SOL     OW 1597   2.174   2.310   4.066
  233SOL    HW1 1598   2.179   2.409   4.084
  233SOL    HW2 1599   2.166   2.294   3.968
  234SOL     OW 1600   4.379   6.331   5.161
  234SOL    HW1 1601   4.443   6.384   5.217
  234SOL    HW2 1602   4.303   6.299   5.218
  235SOL     OW 1603   3.522   2.997   1.727
  235SOL    HW1 1604   3.600   3.041   1.771
  235SOL    HW2 1605   3.440   3.054   1.740
  236SOL     OW 1606   5.521   2.931   6.879
  236SOL    HW1 1607   5.514   2.978   6.967
  236SOL    HW2 1608   5.531   2.833   6.894
  237SOL     OW 1609   6.109   5.580   2.105
  237SOL    HW1 1610   6.055   5.622   2.032
  237SOL    HW2 1611   6.108   5.481   2.096
  238SOL     OW 1612   5.819   2.167   0.364
  238SOL    HW1 1613   5.891   2.102   0.341
  238SOL    HW2 1614   5.801   2.164   0.462
  239SOL     OW 1615   0.226   5.695   6.343
  239SOL    HW1 1616   0.155   5.630   6.369
  239SOL    HW2 1617   0.231   5.702   6.243
  240SOL     OW 1618   0.657   2.481   5.156
  240SOL    HW1 1619   0.702   2.559   5.111
  240SOL    HW2 1620   0.598   2.515   5.229
  241SOL     OW 1621   1.761   6.881   4.950
  241SOL    HW1 1622   1.789   6.785   4.961
  241SOL    HW2 1623   1.810   6.921   4.873
  242SOL     OW 1624   2.698   3.338   5.936
  242SOL    HW1 1625   2.759   3.411   5.906
  242SOL    HW2 1626   2.607   3.376   5.955
  243SOL     OW 1627   5.352   0.967   5.935
  243SOL    HW1 1628   5.431   1.015   5.973
  243SOL    HW2 1629   5.382   0.907   5.862
  244SOL     OW 1630   5.084   2.765   4.691
  244SOL    HW1 1631   5.080   2.686   4.630
  244SOL    HW2 1632   4.994   2.778   4.734
  245SOL     OW 1633   6.871   3.492   5.467
  245SOL    HW1 1634   6.866   3.518   5.370
  245SOL    HW2 1635   6.959   3.521   5.504
  246SOL     OW 1636   4.964   2.881   3.269
  246SOL    HW1 1637   4.945   2.894   3.367
  246SOL    HW2 1638   5.060   2.901   3.251
  247SOL     OW 1639   3.016   0.788   1.806
  247SOL    HW1 1640   3.007   0.849   1.727
  247SOL    HW2 1641   3.028   0.842   1.889
  248SOL     OW 1642   3.852   2.043   3.360
  248SOL    HW1 1643   3.880   1.954   3.324
  248SOL    HW2 1644   3.759   2.063   3.330
  249SOL     OW 1645   4.738   0.230   6.158
  249SOL    HW1 1646   4.766   0.164   6.089
  249SOL    HW2 1647   4.640   0.246   6.150
  250SOL     OW 1648   5.745   2.648   1.278
  250SOL    HW1 1649   5.798   2.732   1.281
  250SOL    HW2 1650   5.802   2.573   1.247
  251SOL     OW 1651   4.685   4.259   6.066
  251SOL    HW1 1652   4.620   4.266   5.990
  251SOL    HW2 1653   4.647   4.305   6.147
  252SOL     OW 1654   6.178   0.359   6.640
  252SOL    HW1 1655   6.131   0.270   6.640
  252SOL    HW2 1656   6.164   0.403   6.551
  253SOL     OW 1657   1.897   4.356   6.882
  253SOL    HW1 1658   1.978   4.412   6.867
  253SOL    HW2 1659   1.882   4.297   6.803
  254SOL     OW 1660   5.573   3.290   2.915
  254SOL    HW1 1661   5.668   3.308   2.889
  254SOL    HW2 1662   5.562   3.193   2.937
  255SOL     OW 1663   1.820   3.027   4.143
  255SOL    HW1 1664   1.841   3.124   4.136
  255SOL    HW2 1665   1.769   3.010   4.227
  256SOL     OW 1666   6.000   4.789   6.716
  256SOL    HW1 1667   5.958   4.798   6.626
  256SOL    HW2 1668   6.072   4.719   6.712
  257SOL     OW 1669   4.590   0.051   4.219
  257SOL    HW1 1670   4.559   7.010   4.148
  257SOL    HW2 1671   4.539   0.136   4.211
  258SOL     OW 1672   0.152   4.820   4.901
  258SOL    HW1 1673   0.140   4.751   4.973
  258SOL    HW2 1674   0.072   4.879   4.899
  259SOL     OW 1675   1.416   2.076   2.294
  259SOL    HW1 1676   1.376   2.124   2.216
  259SOL    HW2 1677   1.508   2.112   2.310
  260SOL     OW 1678   4.180   0.817   0.729
  260SOL    HW1 1679   4.257   0.757   0.748
  260SOL    HW2 1680   4.104   0.794   0.791
  261SOL     OW 1681   0.007   3.882   1.026
  261SOL    HW1 1682   6.986   3.968   0.997
  261SOL    HW2 1683   6.983   3.805   0.982
  262SOL     OW 1684   0.406   4.045   1.159
  262SOL    HW1 1685   0.349   3.971   1.194
  262SOL    HW2 1686   0.378   4.067   1.066
  263SOL     OW 1687   0.581   1.416   3.943
  263SOL    HW1 1688   0.589   1.514   3.965
  263SOL    HW2 1689   0.598   1.362   4.025
  264SOL     OW 1690   4.980   3.458   5.923
  264SOL    HW1 1691   4.978   3.428   5.828
  264SOL    HW2 1692   4.972   3.378   5.984
  265SOL     OW 1693   4.895   4.699   3.160
  265SOL    HW1 1694   4.845   4.786   3.158
  265SOL    HW2 1695   4.965   4.699   3.089
  266SOL     OW 1696   4.000   3.701   5.625
  266SOL    HW1 1697   3.914   3.661   5.658
  266SOL    HW2 1698   4.071   3.687   5.694
  267SOL     OW 1699   5.973   2.207   5.847
  267SOL    HW1 1700   5.969   2.150   5.929
  267SOL    HW2 1701   6.068   2.233   5.828
  268SOL     OW 1702   4.454   0.154   5.071
  268SOL    HW1 1703   4.389   0.087   5.107
  268SOL    HW2 1704   4.501   0.115   4.992
  269SOL     OW 1705   1.702   3.401   1.150
  269SOL    HW1 1706   1.719   3.352   1.064
  269SOL    HW2 1707   1.653   3.341   1.213
  270SOL     OW 1708   6.691   0.306   1.127
  270SOL    HW1 1709   6.614   0.354   1.084
  270SOL    HW2 1710   6.773   0.363   1.121
  271SOL     OW 1711   3.123   1.628   0.474
  271SOL    HW1 1712   3.138   1.654   0.379
  271SOL    HW2 1713   3.051   1.558   0.478
  272SOL     OW 1714   3.367   5.249   4.146
  272SOL    HW1 1715   3.443   5.305   4.113
  272SOL    HW2 1716   3.355   5.265   4.244
  273SOL     OW 1717   2.311   4.959   5.129
  273SOL    HW1 1718   2.399   4.946   5.175
  273SOL    HW2 1719   2.291   4.878   5.073
  274SOL     OW 1720   4.697   2.782   3.835
  274SOL    HW1 1721   4.650   2.763   3.922
  274SOL    HW2 1722   4.672   2.713   3.768
  275SOL     OW 1723   6.145   5.759   5.829
  275SOL    HW1 1724   6.239   5.727   5.827
  275SOL    HW2 1725   6.102   5.742   5.740
  276SOL     OW 1726   0.530   5.539   3.160
  276SOL    HW1 1727   0.564   5.462   3.107
  276SOL    HW2 1728   0.452   5.510   3.216
  277SOL     OW 1729   2.319   2.921   0.779
  277SOL    HW1 1730   2.298   2.958   0.689
  277SOL    HW2 1731   2.306   2.991   0.848
  278SOL     OW 1732   0.194   5.334   1.834
  278SOL    HW1 1733   0.209   5.433   1.832
  278SOL    HW2 1734   0.279   5.287   1.808
  279SOL     OW 1735   0.357   3.142   4.115
  279SOL    HW1 1736   0.381   3.168   4.022
  279SOL    HW2 1737   0.325   3.223   4.165
  280SOL     OW 1738   1.988   6.778   2.808
  280SOL    HW1 1739   1.942   6.690   2.820
  280SOL    HW2 1740   2.075   6.777   2.857
  281SOL     OW 1741   3.462   4.911   2.148
  281SOL    HW1 1742   3.437   5.005   2.123
  281SOL    HW2 1743   3.455   4.853   2.067
  282SOL     OW 1744   4.114   2.135   5.590
  282SOL    HW1 1745   4.030   2.088   5.618
  282SOL    HW2 1746   4.090   2.226   5.555
  283SOL     OW 1747   6.495   1.332   6.355
  283SOL    HW1 1748   6.418   1.319   6.292
  283SOL    HW2 1749   6.528   1.243   6.387
  284SOL     OW 1750   0.341   4.437   4.945
  284SOL    HW1 1751   0.336   4.429   4.846
  284SOL    HW2 1752   0.249   4.436   4.983
  285SOL     OW 1753   5.325   5.328   6.423
  285SOL    HW1 1754   5.411   5.379   6.429
  285SOL    HW2 1755   5.307   5.283   6.511
  286SOL     OW 1756   3.276   4.847   5.464
  286SOL    HW1 1757   3.207   4.792   5.418
  286SOL    HW2 1758   3.239   4.937   5.486
  287SOL     OW 1759   0.364   4.828   6.701
  287SOL    HW1 1760   0.454   4.799   6.731
  287SOL    HW2 1761   0.342   4.784   6.613
  288SOL     OW 1762   4.094   2.400   0.075
  288SOL    HW1 1763   4.043   2.427   0.157
  288SOL    HW2 1764   4.172   2.461   0.062
  289SOL     OW 1765   0.232   5.251   5.282
  289SOL    HW1 1766   0.279   5.218   5.364
  289SOL    HW2 1767   0.229   5.351   5.284
  290SOL     OW 1768   4.715   1.436   3.820
  290SOL    HW1 1769   4.642   1.383   3.865
  290SOL    HW2 1770   4.780   1.467   3.889
  291SOL     OW 1771   2.888   0.962   5.150
  291SOL    HW1 1772   2.871   0.961   5.249
  291SOL    HW2 1773   2.952   1.037   5.128
  292SOL     OW 1774   3.498   1.825   2.682
  292SOL    HW1 1775   3.433   1.901   2.680
  292SOL    HW2 1776   3.497   1.779   2.593
  293SOL     OW 1777   4.842   5.008   2.065
  293SOL    HW1 1778   4.873   4.935   2.005
  293SOL    HW2 1779   4.885   5.094   2.038
  294SOL     OW 1780   7.001   5.629   6.217
  294SOL    HW1 1781   6.920   5.580   6.184
  294SOL    HW2 1782   6.991   5.649   6.314
  295SOL     OW 1783   3.444   1.338   4.941
  295SOL    HW1 1784   3.377   1.409   4.962
  295SOL    HW2 1785   3.530   1.381   4.913
  296SOL     OW 1786   5.831   1.787   2.191
  296SOL    HW1 1787   5.781   1.704   2.166
  296SOL    HW2 1788   5.929   1.769   2.188
  297SOL     OW 1789   2.728   4.733   2.625
  297SOL    HW1 1790   2.803   4.722   2.560
  297SOL    HW2 1791   2.761   4.718   2.718
  298SOL     OW 1792   3.412   6.370   0.826
  298SOL    HW1 1793   3.502   6.398   0.792
  298SOL    HW2 1794   3.383   6.432   0.898
  299SOL     OW 1795   4.208   2.831   0.022
  299SOL    HW1 1796   4.276   2.900   7.019
  299SOL    HW2 1797   4.117   2.861   7.017
  300SOL     OW 1798   4.869   0.868   1.512
  300SOL    HW1 1799   4.935   0.811   1.561
  300SOL    HW2 1800   4.785   0.877   1.566
  301SOL     OW 1801   5.695   3.158   0.769
  301SOL    HW1 1802   5.692   3.228   0.698
  301SOL    HW2 1803   5.752   3.082   0.738
  302SOL     OW 1804   0.095   0.898   3.819
  302SOL    HW1 1805   0.083   0.997   3.810
  302SOL    HW2 1806   0.143   0.878   3.904
  303SOL     OW 1807   6.775   6.654   2.239
  303SOL    HW1 1808   6.827   6.682   2.159
  303SOL    HW2 1809   6.799   6.713   2.317
  304SOL     OW 1810   2.040   6.568   5.813
  304SOL    HW1 1811   2.056   6.470   5.818
  304SOL    HW2 1812   2.113   6.617   5.862
  305SOL     OW 1813   1.469   2.734   0.470
  305SOL    HW1 1814   1.544   2.756   0.532
  305SOL    HW2 1815   1.505   2.710   0.380
  306SOL     OW 1816   1.708   0.610   3.543
  306SOL    HW1 1817   1.775   0.595   3.617
  306SOL    HW2 1818   1.722   0.701   3.504
  307SOL     OW 1819   5.019   5.450   0.306
  307SOL    HW1 1820   5.077   5.389   0.360
  307SOL    HW2 1821   5.000   5.533   0.360
  308SOL     OW 1822   5.119   3.225   4.326
  308SOL    HW1 1823   5.072   3.305   4.363
  308SOL    HW2 1824   5.076   3.142   4.362
  309SOL     OW 1825   2.189   5.634   0.129
  309SOL    HW1 1826   2.270   5.640   0.188
  309SOL    HW2 1827   2.204   5.691   0.048
  310SOL     OW 1828   5.385   6.752   5.983
  310SOL    HW1 1829   5.361   6.802   5.900
  310SOL    HW2 1830   5.313   6.686   6.005
  311SOL     OW 1831   4.146   5.165   2.309
  311SOL    HW1 1832   4.100   5.094   2.256
  311SOL    HW2 1833   4.233   5.130   2.345
  312SOL     OW 1834   3.980   0.935   4.403
  312SOL    HW1 1835   3.915   0.978   4.340
  312SOL    HW2 1836   3.931   0.875   4.466
  313SOL     OW 1837   2.965   3.816   2.175
  313SOL    HW1 1838   2.956   3.791   2.271
  313SOL    HW2 1839   2.876   3.812   2.130
  314SOL     OW 1840   2.708   4.578   6.422
  314SOL    HW1 1841   2.630   4.639   6.414
  314SOL    HW2 1842   2.717   4.548   6.517
  315SOL     OW 1843   1.224   3.089   3.984
  315SOL    HW1 1844   1.170   3.013   3.946
  315SOL    HW2 1845   1.317   3.058   4.002
  316SOL     OW 1846   3.092   1.297   4.527
  316SOL    HW1 1847   3.164   1.328   4.589
  316SOL    HW2 1848   3.134   1.267   4.441
  317SOL     OW 1849   0.011   1.126   0.939
  317SOL    HW1 1850   6.969   1.050   0.935
  317SOL    HW2 1851   0.092   1.104   0.884
  318SOL     OW 1852   0.730   5.783   6.589
  318SOL    HW1 1853   0.659   5.851   6.573
  318SOL    HW2 1854   0.733   5.718   6.513
  319SOL     OW 1855   6.311   1.253   3.165
  319SOL    HW1 1856   6.387   1.270   3.103
  319SOL    HW2 1857   6.344   1.253   3.259
  320SOL     OW 1858   6.604   2.237   1.145
  320SOL    HW1 1859   6.528   2.250   1.209
  320SOL    HW2 1860   6.606   2.142   1.115
  321SOL     OW 1861   3.617   1.372   0.355
  321SOL    HW1 1862   3.628   1.461   0.311
  321SOL    HW2 1863   3.530   1.369   0.403
  322SOL     OW 1864   3.104   3.117   3.850
  322SOL    HW1 1865   3.040   3.154   3.917
  322SOL    HW2 1866   3.127   3.188   3.783
  323SOL     OW 1867   1.231   3.186   6.435
  323SOL    HW1 1868   1.186   3.113   6.384
  323SOL    HW2 1869   1.186   3.197   6.524
  324SOL     OW 1870   2.707   0.768   4.235
  324SOL    HW1 1871   2.756   0.856   4.235
  324SOL    HW2 1872   2.694   0.738   4.330
  325SOL     OW 1873   0.193   2.629   1.548
  325SOL    HW1 1874   0.206   2.575   1.464
  325SOL    HW2 1875   0.110   2.598   1.594
  326SOL     OW 1876   1.237   5.170   6.462
  326SOL    HW1 1877   1.140   5.184   6.447
  326SOL    HW2 1878   1.282   5.151   6.375
  327SOL     OW 1879   1.410   4.450   3.076
  327SOL    HW1 1880   1.332   4.467   3.135
  327SOL    HW2 1881   1.383   4.391   3.000
  328SOL     OW 1882   1.413   5.530   1.307
  328SOL    HW1 1883   1.458   5.602   1.359
  328SOL    HW2 1884   1.358   5.473   1.368
  329SOL     OW 1885   3.678   2.895   4.148
  329SOL    HW1 1886   3.725   2.808   4.135
  329SOL    HW2 1887   3.723   2.947   4.221
  330SOL     OW 1888   3.633   6.401   1.610
  330SOL    HW1 1889   3.682   6.344   1.676
  330SOL    HW2 1890   3.660   6.497   1.622
  331SOL     OW 1891   3.684   5.698   0.477
  331SOL    HW1 1892   3.608   5.683   0.541
  331SOL    HW2 1893   3.654   5.760   0.405
  332SOL     OW 1894   4.599   2.163   4.920
  332SOL    HW1 1895   4.680   2.144   4.865
  332SOL    HW2 1896   4.519   2.165   4.861
  333SOL     OW 1897   3.199   0.480   6.454
  333SOL    HW1 1898   3.139   0.557   6.475
  333SOL    HW2 1899   3.145   0.396   6.449
  334SOL     OW 1900   3.312   0.888   1.206
  334SOL    HW1 1901   3.286   0.868   1.300
  334SOL    HW2 1902   3.229   0.898   1.150
  335SOL     OW 1903   4.482   7.003   5.351
  335SOL    HW1 1904   4.413   6.982   5.282
  335SOL    HW2 1905   4.570   6.965   5.322
  336SOL     OW 1906   2.341   1.132   3.518
  336SOL    HW1 1907   2.436   1.151   3.541
  336SOL    HW2 1908   2.301   1.073   3.589
  337SOL     OW 1909   0.592   2.836   7.004
  337SOL    HW1 1910   0.672   2.817   0.038
  337SOL    HW2 1911   0.526   2.761   7.013
  338SOL     OW 1912   3.276   2.824   1.600
  338SOL    HW1 1913   3.271   2.733   1.641
  338SOL    HW2 1914   3.334   2.883   1.657
  339SOL     OW 1915   4.062   5.989   4.020
  339SOL    HW1 1916   4.030   6.006   4.113
  339SOL    HW2 1917   4.067   5.890   4.005
  340SOL     OW 1918   4.860   4.390   5.254
  340SOL    HW1 1919   4.816   4.322   5.313
  340SOL    HW2 1920   4.910   4.343   5.182
  341SOL     OW 1921   6.650   0.501   4.647
  341SOL    HW1 1922   6.614   0.493   4.740
  341SOL    HW2 1923   6.708   0.422   4.627
  342SOL     OW 1924   6.112   3.709   6.784
  342SOL    HW1 1925   6.032   3.746   6.831
  342SOL    HW2 1926   6.188   3.775   6.792
  343SOL     OW 1927   1.727   5.779   0.852
  343SOL    HW1 1928   1.647   5.758   0.795
  343SOL    HW2 1929   1.707   5.756   0.948
  344SOL     OW 1930   1.475   3.571   2.208
  344SOL    HW1 1931   1.503   3.476   2.195
  344SOL    HW2 1932   1.555   3.631   2.199
  345SOL     OW 1933   3.973   1.793   3.033
  345SOL    HW1 1934   4.010   1.751   3.115
  345SOL    HW2 1935   4.014   1.750   2.952
  346SOL     OW 1936   2.163   0.647   2.816
  346SOL    HW1 1937   2.207   0.563   2.845
  346SOL    HW2 1938   2.083   0.665   2.874
  347SOL     OW 1939   2.932   5.814   6.673
  347SOL    HW1 1940   2.995   5.739   6.692
  347SOL    HW2 1941   2.893   5.803   6.582
  348SOL     OW 1942   5.448   4.608   2.423
  348SOL    HW1 1943   5.410   4.642   2.337
  348SOL    HW2 1944   5.536   4.564   2.405
  349SOL     OW 1945   6.590   5.347   0.976
  349SOL    HW1 1946   6.681   5.373   1.007
  349SOL    HW2 1947   6.547   5.424   0.928
  350SOL     OW 1948   3.156   3.038   0.373
  350SOL    HW1 1949   3.099   3.079   0.445
  350SOL    HW2 1950   3.192   2.950   0.405
  351SOL     OW 1951   2.037   2.853   1.453
  351SOL    HW1 1952   2.050   2.793   1.532
  351SOL    HW2 1953   2.089   2.938   1.466
  352SOL     OW 1954   2.873   0.570   4.557
  352SOL    HW1 1955   2.896   0.664   4.581
  352SOL    HW2 1956   2.776   0.566   4.530
  353SOL     OW 1957   1.910   0.255   0.714
  353SOL    HW1 1958   1.845   0.179   0.712
  353SOL    HW2 1959   2.003   0.220   0.709
  354SOL     OW 1960   3.946   2.599   0.731
  354SOL    HW1 1961   3.871   2.559   0.678
  354SOL    HW2 1962   4.029   2.599   0.675
  355SOL     OW 1963   0.991   3.533   2.555
  355SOL    HW1 1964   1.081   3.532   2.513
  355SOL    HW2 1965   0.922   3.553   2.486
  356SOL     OW 1966   3.030   0.196   6.058
  356SOL    HW1 1967   3.125   0.210   6.030
  356SOL    HW2 1968   2.995   0.112   6.018
  357SOL     OW 1969   6.791   6.056   6.273
  357SOL    HW1 1970   6.778   6.003   6.357
  357SOL    HW2 1971   6.808   5.994   6.196
  358SOL     OW 1972   4.028   6.869   0.375
  358SOL    HW1 1973   3.963   6.794   0.363
  358SOL    HW2 1974   3.985   6.943   0.426
  359SOL     OW 1975   1.895   2.697   2.205
  359SOL    HW1 1976   1.812   2.738   2.241
  359SOL    HW2 1977   1.974   2.752   2.231
  360SOL     OW 1978   0.675   4.948   6.207
  360SOL    HW1 1979   0.704   4.896   6.287
  360SOL    HW2 1980   0.600   5.010   6.233
  361SOL     OW 1981   5.933   6.231   2.891
  361SOL    HW1 1982   5.986   6.315   2.903
  361SOL    HW2 1983   5.969   6.160   2.952
  362SOL     OW 1984   3.444   3.381   1.191
  362SOL    HW1 1985   3.479   3.461   1.144
  362SOL    HW2 1986   3.517   3.338   1.245
  363SOL     OW 1987   5.191   4.240   3.302
  363SOL    HW1 1988   5.149   4.261   3.390
  363SOL    HW2 1989   5.122   4.246   3.230
  364SOL     OW 1990   6.796   5.109   6.643
  364SOL    HW1 1991   6.848   5.056   6.710
  364SOL    HW2 1992   6.811   5.207   6.660
  365SOL     OW 1993   6.225   6.123   2.033
  365SOL    HW1 1994   6.237   6.220   2.011
  365SOL    HW2 1995   6.312   6.075   2.021
  366SOL     OW 1996   5.804   0.940   6.254
  366SOL    HW1 1997   5.899   0.910   6.246
  366SOL    HW2 1998   5.750   0.867   6.296
  367SOL     OW 1999   5.535   3.519   1.024
  367SOL    HW1 2000   5.634   3.529   1.034
  367SOL    HW2 2001   5.509   3.426   1.051
  368SOL     OW 2002   0.302   3.783   4.854
  368SOL    HW1 2003   0.370   3.755   4.922
  368SOL    HW2 2004   0.254   3.702   4.821
  369SOL     OW 2005   6.435   4.845   2.209
  369SOL    HW1 2006   6.495   4.810   2.137
  369SOL    HW2 2007   6.369   4.775   2.235
  370SOL     OW 2008   2.567   1.342   5.845
  370SOL    HW1 2009   2.503   1.378   5.778
  370SOL    HW2 2010   2.646   1.403   5.852
  371SOL     OW 2011   2.195   3.691   6.114
  371SOL    HW1 2012   2.171   3.608   6.163
  371SOL    HW2 2013   2.175   3.680   6.017
  372SOL     OW 2014   0.824   6.800   6.009
  372SOL    HW1 2015   0.806   6.825   6.104
  372SOL    HW2 2016   0.791   6.874   5.949
  373SOL     OW 2017   6.297   6.317   4.723
  373SOL    HW1 2018   6.208   6.351   4.755
  373SOL    HW2 2019   6.370   6.367   4.770
  374SOL     OW 2020   2.928   1.789   4.038
  374SOL    HW1 2021   3.020   1.826   4.048
  374SOL    HW2 2022   2.916   1.711   4.100
  375SOL     OW 2023   0.810   3.933   3.954
  375SOL    HW1 2024   0.910   3.936   3.961
  375SOL    HW2 2025   0.776   4.022   3.925
  376SOL     OW 2026   2.610   1.404   5.265
  376SOL    HW1 2027   2.692   1.349   5.283
  376SOL    HW2 2028   2.592   1.404   5.167
  377SOL     OW 2029   1.411   1.819   1.541
  377SOL    HW1 2030   1.501   1.831   1.499
  377SOL    HW2 2031   1.345   1.877   1.494
  378SOL     OW 2032   4.237   2.606   6.466
  378SOL    HW1 2033   4.144   2.644   6.470
  378SOL    HW2 2034   4.301   2.678   6.440
  379SOL     OW 2035   6.249   4.095   1.190
  379SOL    HW1 2036   6.188   4.039   1.134
  379SOL    HW2 2037   6.336   4.108   1.143
  380SOL     OW 2038   2.702   1.329   1.053
  380SOL    HW1 2039   2.634   1.259   1.072
  380SOL    HW2 2040   2.694   1.359   0.958
  381SOL     OW 2041   1.397   3.678   2.688
  381SOL    HW1 2042   1.420   3.761   2.739
  381SOL    HW2 2043   1.367   3.607   2.752
  382SOL     OW 2044   5.969   0.044   6.635
  382SOL    HW1 2045   5.915   0.038   6.719
  382SOL    HW2 2046   5.955   6.984   6.580
  383SOL     OW 2047   4.556   3.983   6.011
  383SOL    HW1 2048   4.618   4.060   6.015
  383SOL    HW2 2049   4.464   4.013   6.036
  384SOL     OW 2050   6.922   5.493   4.192
  384SOL    HW1 2051   6.874   5.564   4.242
  384SOL    HW2 2052   6.868   5.466   4.112
  385SOL     OW 2053   4.064   5.472   5.317
  385SOL    HW1 2054   4.149   5.425   5.341
  385SOL    HW2 2055   4.043   5.456   5.221
  386SOL     OW 2056   2.068   6.650   5.391
  386SOL    HW1 2057   2.098   6.743   5.374
  386SOL    HW2 2058   1.998   6.650   5.463
  387SOL     OW 2059   0.898   7.019   3.616
  387SOL    HW1 2060   0.925   7.014   3.520
  387SOL    HW2 2061   0.876   6.927   3.650
  388SOL     OW 2062   1.722   1.879   4.362
  388SOL    HW1 2063   1.674   1.873   4.450
  388SOL    HW2 2064   1.703   1.796   4.308
  389SOL     OW 2065   3.939   4.589   1.176
  389SOL    HW1 2066   3.894   4.506   1.145
  389SOL    HW2 2067   4.017   4.565   1.235
  390SOL     OW 2068   3.395   1.171   6.906
  390SOL    HW1 2069   3.479   1.133   6.946
  390SOL    HW2 2070   3.336   1.205   6.979
  391SOL     OW 2071   2.560   3.902   5.902
  391SOL    HW1 2072   2.582   3.860   5.814
  391SOL    HW2 2073   2.461   3.903   5.915
  392SOL     OW 2074   1.895   4.221   0.409
  392SOL    HW1 2075   1.800   4.246   0.430
  392SOL    HW2 2076   1.915   4.245   0.314
  393SOL     OW 2077   1.490   4.614   6.462
  393SOL    HW1 2078   1.456   4.530   6.419
  393SOL    HW2 2079   1.467   4.613   6.559
  394SOL     OW 2080   6.624   2.494   0.734
  394SOL    HW1 2081   6.657   2.513   0.642
  394SOL    HW2 2082   6.526   2.516   0.740
  395SOL     OW 2083   5.080   4.711   2.958
  395SOL    HW1 2084   5.079   4.808   2.934
  395SOL    HW2 2085   5.152   4.665   2.907
  396SOL     OW 2086   2.952   3.504   1.867
  396SOL    HW1 2087   2.938   3.453   1.782
  396SOL    HW2 2088   2.918   3.449   1.944
  397SOL     OW 2089   5.633   1.658   6.342
  397SOL    HW1 2090   5.724   1.623   6.366
  397SOL    HW2 2091   5.636   1.698   6.250
  398SOL     OW 2092   1.307   0.165   3.417
  398SOL    HW1 2093   1.210   0.158   3.392
  398SOL    HW2 2094   1.336   0.260   3.409
  399SOL     OW 2095   5.296   6.326   3.181
  399SOL    HW1 2096   5.326   6.367   3.267
  399SOL    HW2 2097   5.216   6.376   3.147
  400SOL     OW 2098   6.202   6.878   5.094
  400SOL    HW1 2099   6.234   6.893   5.000
  400SOL    HW2 2100   6.248   6.798   5.132
  401SOL     OW 2101   5.162   7.016   6.851
  401SOL    HW1 2102   5.097   6.941   6.843
  401SOL    HW2 2103   5.121   0.077   6.814
  402SOL     OW 2104   6.734   0.361   3.852
  402SOL    HW1 2105   6.649   0.315   3.826
  402SOL    HW2 2106   6.769   0.322   3.937
  403SOL     OW 2107   4.000   1.379   4.814
  403SOL    HW1 2108   4.053   1.331   4.884
  403SOL    HW2 2109   3.945   1.313   4.762
  404SOL     OW 2110   1.543   4.647   3.783
  404SOL    HW1 2111   1.587   4.560   3.802
  404SOL    HW2 2112   1.446   4.641   3.805
  405SOL     OW 2113   2.189   2.984   2.814
  405SOL    HW1 2114   2.224   3.074   2.841
  405SOL    HW2 2115   2.146   2.991   2.725
  406SOL     OW 2116   0.621   4.375   4.719
  406SOL    HW1 2117   0.613   4.332   4.809
  406SOL    HW2 2118   0.606   4.306   4.647
  407SOL     OW 2119   0.596   1.313   5.142
  407SOL    HW1 2120   0.680   1.365   5.128
  407SOL    HW2 2121   0.593   1.236   5.078
  408SOL     OW 2122   2.630   2.069   2.944
  408SOL    HW1 2123   2.541   2.032   2.917
  408SOL    HW2 2124   2.701   2.000   2.930
  409SOL     OW 2125   6.068   3.798   2.335
  409SOL    HW1 2126   6.125   3.734   2.284
  409SOL    HW2 2127   5.980   3.755   2.356
  410SOL     OW 2128   1.120   1.605   0.933
  410SOL    HW1 2129   1.027   1.618   0.968
  410SOL    HW2 2130   1.176   1.684   0.960
  411SOL     OW 2131   0.077   0.905   1.210
  411SOL    HW1 2132   0.155   0.933   1.266
  411SOL    HW2 2133   0.004   0.973   1.219
  412SOL     OW 2134   3.378   5.755   3.289
  412SOL    HW1 2135   3.335   5.764   3.199
  412SOL    HW2 2136   3.369   5.841   3.339
  413SOL     OW 2137   5.577   4.255   1.994
  413SOL    HW1 2138   5.588   4.176   1.934
  413SOL    HW2 2139   5.660   4.266   2.049
  414SOL     OW 2140   3.840   5.843   3.426
  414SOL    HW1 2141   3.878   5.925   3.384
  414SOL    HW2 2142   3.791   5.789   3.357
  415SOL     OW 2143   0.508   6.835   6.287
  415SOL    HW1 2144   0.507   6.931   6.258
  415SOL    HW2 2145   0.467   6.778   6.216
  416SOL     OW 2146   4.627   6.372   4.961
  416SOL    HW1 2147   4.647   6.467   4.984
  416SOL    HW2 2148   4.643   6.314   5.041
  417SOL     OW 2149   2.287   6.739   5.773
  417SOL    HW1 2150   2.253   6.670   5.709
  417SOL    HW2 2151   2.370   6.781   5.735
  418SOL     OW 2152   3.597   6.611   6.101
  418SOL    HW1 2153   3.580   6.597   6.199
  418SOL    HW2 2154   3.517   6.581   6.049
  419SOL     OW 2155   1.513   6.222   2.637
  419SOL    HW1 2156   1.581   6.190   2.703
  419SOL    HW2 2157   1.550   6.214   2.544
  420SOL     OW 2158   6.077   1.448   0.173
  420SOL    HW1 2159   6.118   1.394   0.246
  420SOL    HW2 2160   6.145   1.511   0.135
  421SOL     OW 2161   6.712   4.173   4.919
  421SOL    HW1 2162   6.637   4.141   4.976
  421SOL    HW2 2163   6.767   4.094   4.890
  422SOL     OW 2164   5.222   3.613   1.475
  422SOL    HW1 2165   5.203   3.573   1.385
  422SOL    HW2 2166   5.310   3.581   1.508
  423SOL     OW 2167   1.143   2.377   6.352
  423SOL    HW1 2168   1.129   2.452   6.417
  423SOL    HW2 2169   1.057   2.357   6.305
  424SOL     OW 2170   1.878   4.815   1.515
  424SOL    HW1 2171   1.836   4.725   1.525
  424SOL    HW2 2172   1.939   4.833   1.593
  425SOL     OW 2173   5.033   1.842   3.504
  425SOL    HW1 2174   4.934   1.852   3.505
  425SOL    HW2 2175   5.058   1.746   3.516
  426SOL     OW 2176   3.094   2.117   4.714
  426SOL    HW1 2177   3.069   2.180   4.787
  426SOL    HW2 2178   3.088   2.023   4.747
  427SOL     OW 2179   6.138   6.931   3.830
  427SOL    HW1 2180   6.122   6.960   3.925
  427SOL    HW2 2181   6.236   6.914   3.817
  428SOL     OW 2182   4.007   0.193   3.233
  428SOL    HW1 2183   3.909   0.209   3.217
  428SOL    HW2 2184   4.054   0.190   3.145
  429SOL     OW 2185   0.613   4.654   3.083
  429SOL    HW1 2186   0.629   4.708   3.000
  429SOL    HW2 2187   0.571   4.713   3.153
  430SOL     OW 2188   1.469   5.965   4.360
  430SOL    HW1 2189   1.551   5.908   4.361
  430SOL    HW2 2190   1.424   5.962   4.449
  431SOL     OW 2191   3.055   0.433   1.349
  431SOL    HW1 2192   3.070   0.335   1.342
  431SOL    HW2 2193   2.971   0.451   1.399
  432SOL     OW 2194   6.959   1.959   1.262
  432SOL    HW1 2195   0.024   1.996   1.230
  432SOL    HW2 2196   6.884   2.011   1.222
  433SOL     OW 2197   2.400   6.820   5.436
  433SOL    HW1 2198   2.322   6.838   5.496
  433SOL    HW2 2199   2.394   6.879   5.356
  434SOL     OW 2200   3.902   5.558   3.094
  434SOL    HW1 2201   3.933   5.643   3.052
  434SOL    HW2 2202   3.820   5.575   3.149
  435SOL     OW 2203   4.250   2.133   6.306
  435SOL    HW1 2204   4.293   2.192   6.374
  435SOL    HW2 2205   4.262   2.172   6.215
  436SOL     OW 2206   2.738   5.072   2.067
  436SOL    HW1 2207   2.722   4.979   2.034
  436SOL    HW2 2208   2.818   5.111   2.021
  437SOL     OW 2209   0.622   1.140   6.142
  437SOL    HW1 2210   0.639   1.215   6.205
  437SOL    HW2 2211   0.690   1.142   6.068
  438SOL     OW 2212   1.911   4.035   4.251
  438SOL    HW1 2213   1.950   4.001   4.166
  438SOL    HW2 2214   1.818   4.068   4.234
  439SOL     OW 2215   5.827   6.360   2.636
  439SOL    HW1 2216   5.808   6.294   2.563
  439SOL    HW2 2217   5.856   6.311   2.718
  440SOL     OW 2218   2.726   2.019   5.745
  440SOL    HW1 2219   2.706   2.117   5.733
  440SOL    HW2 2220   2.696   1.969   5.663
  441SOL     OW 2221   0.211   3.321   3.441
  441SOL    HW1 2222   0.169   3.288   3.357
  441SOL    HW2 2223   0.304   3.353   3.422
  442SOL     OW 2224   3.952   6.078   5.600
  442SOL    HW1 2225   3.924   5.982   5.591
  442SOL    HW2 2226   3.982   6.112   5.511
  443SOL     OW 2227   5.747   4.137   4.906
  443SOL    HW1 2228   5.768   4.082   4.986
  443SOL    HW2 2229   5.681   4.209   4.931
  444SOL     OW 2230   5.151   0.587   6.398
  444SOL    HW1 2231   5.068   0.639   6.417
  444SOL    HW2 2232   5.128   0.504   6.348
  445SOL     OW 2233   1.809   5.614   2.863
  445SOL    HW1 2234   1.905   5.634   2.886
  445SOL    HW2 2235   1.804   5.524   2.820
  446SOL     OW 2236   4.268   4.999   2.713
  446SOL    HW1 2237   4.235   5.085   2.752
  446SOL    HW2 2238   4.332   5.018   2.638
  447SOL     OW 2239   6.997   3.552   5.793
  447SOL    HW1 2240   6.903   3.538   5.823
  447SOL    HW2 2241   0.037   3.536   5.869
  448SOL     OW 2242   2.670   0.582   2.688
  448SOL    HW1 2243   2.634   0.556   2.778
  448SOL    HW2 2244   2.595   0.586   2.623
  449SOL     OW 2245   3.145   1.178   4.222
  449SOL    HW1 2246   3.190   1.256   4.178
  449SOL    HW2 2247   3.068   1.148   4.166
  450SOL     OW 2248   1.610   4.706   3.434
  450SOL    HW1 2249   1.544   4.645   3.478
  450SOL    HW2 2250   1.603   4.798   3.473
  451SOL     OW 2251   1.691   2.140   4.762
  451SOL    HW1 2252   1.654   2.135   4.669
  451SOL    HW2 2253   1.635   2.203   4.816
  452SOL     OW 2254   4.598   6.656   0.661
  452SOL    HW1 2255   4.560   6.748   0.651
  452SOL    HW2 2256   4.525   6.594   0.689
  453SOL     OW 2257   3.298   0.511   6.818
  453SOL    HW1 2258   3.312   0.420   6.859
  453SOL    HW2 2259   3.380   0.537   6.767
  454SOL     OW 2260   6.973   3.665   6.269
  454SOL    HW1 2261   6.896   3.675   6.205
  454SOL    HW2 2262   7.012   3.755   6.288
  455SOL     OW 2263   5.050   2.834   4.984
  455SOL    HW1 2264   5.055   2.772   5.063
  455SOL    HW2 2265   5.109   2.800   4.911
  456SOL     OW 2266   0.987   0.180   4.279
  456SOL    HW1 2267   1.019   0.091   4.309
  456SOL    HW2 2268   0.933   0.222   4.352
  457SOL     OW 2269   2.021   4.396   4.580
  457SOL    HW1 2270   2.010   4.404   4.481
  457SOL    HW2 2271   2.089   4.326   4.601
  458SOL     OW 2272   2.612   6.326   2.765
  458SOL    HW1 2273   2.635   6.312   2.861
  458SOL    HW2 2274   2.524   6.283   2.745
  459SOL     OW 2275   2.073   6.783   6.097
  459SOL    HW1 2276   2.106   6.841   6.023
  459SOL    HW2 2277   2.142   6.714   6.119
  460SOL     OW 2278   1.593   6.977   4.476
  460SOL    HW1 2279   1.650   6.907   4.431
  460SOL    HW2 2280   1.652   0.026   4.513
  461SOL     OW 2281   6.740   5.206   5.806
  461SOL    HW1 2282   6.651   5.205   5.762
  461SOL    HW2 2283   6.734   5.162   5.896
  462SOL     OW 2284   4.126   3.173   6.191
  462SOL    HW1 2285   4.056   3.103   6.172
  462SOL    HW2 2286   4.175   3.149   6.274
  463SOL     OW 2287   6.483   0.188   4.273
  463SOL    HW1 2288   6.493   0.102   4.222
  463SOL    HW2 2289   6.538   0.183   4.356
  464SOL     OW 2290   2.957   0.624   5.870
  464SOL    HW1 2291   2.951   0.715   5.829
  464SOL    HW2 2292   2.923   0.628   5.965
  465SOL     OW 2293   0.155   2.300   0.204
  465SOL    HW1 2294   0.228   2.272   0.141
  465SOL    HW2 2295   0.070   2.255   0.178
  466SOL     OW 2296   2.437   6.747   3.951
  466SOL    HW1 2297   2.356   6.710   3.998
  466SOL    HW2 2298   2.508   6.677   3.949
  467SOL     OW 2299   1.198   1.484   2.366
  467SOL    HW1 2300   1.126   1.454   2.429
  467SOL    HW2 2301   1.286   1.446   2.394
  468SOL     OW 2302   3.395   5.424   5.382
  468SOL    HW1 2303   3.448   5.506   5.362
  468SOL    HW2 2304   3.384   5.369   5.299
  469SOL     OW 2305   2.996   3.650   6.137
  469SOL    HW1 2306   3.057   3.629   6.061
  469SOL    HW2 2307   2.954   3.739   6.122
  470SOL     OW 2308   3.978   6.076   1.184
  470SOL    HW1 2309   4.000   6.061   1.088
  470SOL    HW2 2310   4.030   6.154   1.218
  471SOL     OW 2311   2.408   2.745   3.604
  471SOL    HW1 2312   2.478   2.793   3.656
  471SOL    HW2 2313   2.448   2.667   3.557
  472SOL     OW 2314   5.231   4.405   6.650
  472SOL    HW1 2315   5.324   4.442   6.649
  472SOL    HW2 2316   5.207   4.373   6.559
  473SOL     OW 2317   1.468   1.952   2.548
  473SOL    HW1 2318   1.447   1.984   2.456
  473SOL    HW2 2319   1.421   1.865   2.565
  474SOL     OW 2320   5.367   5.824   4.644
  474SOL    HW1 2321   5.397   5.919   4.647
  474SOL    HW2 2322   5.444   5.763   4.664
  475SOL     OW 2323   6.350   2.760   0.262
  475SOL    HW1 2324   6.317   2.733   0.352
  475SOL    HW2 2325   6.281   2.736   0.193
  476SOL     OW 2326   6.973   3.981   2.139
  476SOL    HW1 2327   0.046   3.958   2.122
  476SOL    HW2 2328   6.967   4.059   2.202
  477SOL     OW 2329   2.623   5.876   3.281
  477SOL    HW1 2330   2.666   5.966   3.272
  477SOL    HW2 2331   2.662   5.813   3.215
  478SOL     OW 2332   4.251   5.938   2.811
  478SOL    HW1 2333   4.217   5.870   2.746
  478SOL    HW2 2334   4.229   6.029   2.778
  479SOL     OW 2335   4.097   3.441   5.049
  479SOL    HW1 2336   4.097   3.411   5.145
  479SOL    HW2 2337   4.096   3.361   4.989
  480SOL     OW 2338   2.429   0.106   0.991
  480SOL    HW1 2339   2.478   0.028   1.030
  480SOL    HW2 2340   2.331   0.096   1.011
  481SOL     OW 2341   0.931   6.741   1.843
  481SOL    HW1 2342   0.932   6.763   1.746
  481SOL    HW2 2343   0.879   6.657   1.857
  482SOL     OW 2344   4.731   4.926   2.323
  482SOL    HW1 2345   4.653   4.971   2.280
  482SOL    HW2 2346   4.739   4.833   2.288
  483SOL     OW 2347   6.562   2.135   2.661
  483SOL    HW1 2348   6.539   2.161   2.754
  483SOL    HW2 2349   6.499   2.179   2.597
  484SOL     OW 2350   1.555   3.885   4.718
  484SOL    HW1 2351   1.557   3.980   4.749
  484SOL    HW2 2352   1.633   3.835   4.756
  485SOL     OW 2353   4.705   4.704   2.612
  485SOL    HW1 2354   4.665   4.780   2.664
  485SOL    HW2 2355   4.742   4.738   2.526
  486SOL     OW 2356   6.176   1.702   0.748
  486SOL    HW1 2357   6.223   1.685   0.662
  486SOL    HW2 2358   6.171   1.800   0.765
  487SOL     OW 2359   0.537   0.419   3.431
  487SOL    HW1 2360   0.599   0.496   3.446
  487SOL    HW2 2361   0.505   0.384   3.519
  488SOL     OW 2362   0.591   0.151   2.246
  488SOL    HW1 2363   0.540   0.175   2.164
  488SOL    HW2 2364   0.532   0.158   2.327
  489SOL     OW 2365   5.204   6.293   5.964
  489SOL    HW1 2366   5.266   6.309   5.888
  489SOL    HW2 2367   5.161   6.380   5.991
  490SOL     OW 2368   2.074   5.992   3.731
  490SOL    HW1 2369   2.001   5.929   3.757
  490SOL    HW2 2370   2.095   6.053   3.808
  491SOL     OW 2371   1.645   3.153   1.564
  491SOL    HW1 2372   1.654   3.216   1.641
  491SOL    HW2 2373   1.613   3.202   1.483
  492SOL     OW 2374   1.546   0.913   5.823
  492SOL    HW1 2375   1.624   0.881   5.770
  492SOL    HW2 2376   1.461   0.884   5.779
  493SOL     OW 2377   2.966   6.865   5.685
  493SOL    HW1 2378   2.965   6.866   5.585
  493SOL    HW2 2379   3.057   6.893   5.717
  494SOL     OW 2380   1.025   6.805   6.568
  494SOL    HW1 2381   0.950   6.870   6.561
  494SOL    HW2 2382   1.082   6.811   6.486
  495SOL     OW 2383   4.009   5.766   3.620
  495SOL    HW1 2384   4.076   5.839   3.633
  495SOL    HW2 2385   3.933   5.800   3.565
  496SOL     OW 2386   5.728   2.959   1.764
  496SOL    HW1 2387   5.681   2.902   1.832
  496SOL    HW2 2388   5.712   2.922   1.672
  497SOL     OW 2389   3.245   1.142   4.910
  497SOL    HW1 2390   3.327   1.200   4.913
  497SOL    HW2 2391   3.224   1.119   4.815
  498SOL     OW 2392   0.623   4.874   2.472
  498SOL    HW1 2393   0.527   4.856   2.449
  498SOL    HW2 2394   0.627   4.934   2.552
  499SOL     OW 2395   1.788   5.442   4.702
  499SOL    HW1 2396   1.872   5.407   4.661
  499SOL    HW2 2397   1.709   5.409   4.651
  500SOL     OW 2398   6.369   2.617   6.702
  500SOL    HW1 2399   6.333   2.595   6.792
  500SOL    HW2 2400   6.466   2.591   6.698
  501SOL     OW 2401   3.914   6.619   0.634
  501SOL    HW1 2402   3.871   6.709   0.628
  501SOL    HW2 2403   3.935   6.599   0.729
  502SOL     OW 2404   0.780   4.303   6.240
  502SOL    HW1 2405   0.735   4.215   6.257
  502SOL    HW2 2406   0.712   4.376   6.235
  503SOL     OW 2407   1.182   4.713   6.415
  503SOL    HW1 2408   1.278   4.691   6.397
  503SOL    HW2 2409   1.131   4.629   6.431
  504SOL     OW 2410   1.179   5.673   2.285
  504SOL    HW1 2411   1.278   5.668   2.303
  504SOL    HW2 2412   1.140   5.749   2.337
  505SOL     OW 2413   3.959   6.037   5.268
  505SOL    HW1 2414   3.884   6.088   5.226
  505SOL    HW2 2415   3.936   5.940   5.270
  506SOL     OW 2416   3.501   5.830   2.448
  506SOL    HW1 2417   3.474   5.734   2.455
  506SOL    HW2 2418   3.549   5.857   2.531
  507SOL     OW 2419   3.090   6.403   2.957
  507SOL    HW1 2420   3.022   6.424   3.028
  507SOL    HW2 2421   3.158   6.339   2.994
  508SOL     OW 2422   0.089   3.227   2.431
  508SOL    HW1 2423   0.074   3.135   2.466
  508SOL    HW2 2424   0.099   3.291   2.507
  509SOL     OW 2425   3.384   1.654   0.937
  509SOL    HW1 2426   3.297   1.696   0.911
  509SOL    HW2 2427   3.421   1.701   1.018
  510SOL     OW 2428   6.395   4.307   6.465
  510SOL    HW1 2429   6.394   4.210   6.441
  510SOL    HW2 2430   6.416   4.317   6.562
  511SOL     OW 2431   0.361   2.859   6.524
  511SOL    HW1 2432   0.409   2.905   6.450
  511SOL    HW2 2433   0.390   2.897   6.612
  512SOL     OW 2434   6.834   2.342   6.635
  512SOL    HW1 2435   6.833   2.346   6.535
  512SOL    HW2 2436   6.909   2.283   6.666
  513SOL     OW 2437   5.409   6.628   3.305
  513SOL    HW1 2438   5.506   6.631   3.278
  513SOL    HW2 2439   5.395   6.551   3.367
  514SOL     OW 2440   6.306   0.678   4.853
  514SOL    HW1 2441   6.387   0.626   4.825
  514SOL    HW2 2442   6.310   0.770   4.812
  515SOL     OW 2443   1.243   1.250   0.508
  515SOL    HW1 2444   1.176   1.308   0.463
  515SOL    HW2 2445   1.317   1.306   0.545
  516SOL     OW 2446   2.742   4.840   1.846
  516SOL    HW1 2447   2.764   4.758   1.898
  516SOL    HW2 2448   2.643   4.853   1.843
  517SOL     OW 2449   3.219   4.772   1.899
  517SOL    HW1 2450   3.319   4.775   1.895
  517SOL    HW2 2451   3.185   4.715   1.824
  518SOL     OW 2452   2.167   2.572   3.593
  518SOL    HW1 2453   2.248   2.630   3.597
  518SOL    HW2 2454   2.134   2.554   3.686
  519SOL     OW 2455   0.580   6.655   3.155
  519SOL    HW1 2456   0.639   6.711   3.213
  519SOL    HW2 2457   0.617   6.653   3.062
  520SOL     OW 2458   6.508   3.757   6.583
  520SOL    HW1 2459   6.478   3.849   6.608
  520SOL    HW2 2460   6.483   3.738   6.488
  521SOL     OW 2461   6.457   6.153   5.434
  521SOL    HW1 2462   6.460   6.162   5.334
  521SOL    HW2 2463   6.550   6.160   5.471
  522SOL     OW 2464   4.080   3.635   3.419
  522SOL    HW1 2465   4.113   3.586   3.500
  522SOL    HW2 2466   4.103   3.732   3.427
  523SOL     OW 2467   0.140   5.977   1.130
  523SOL    HW1 2468   0.208   6.037   1.089
  523SOL    HW2 2469   0.180   5.886   1.145
  524SOL     OW 2470   1.253   2.553   2.850
  524SOL    HW1 2471   1.221   2.556   2.945
  524SOL    HW2 2472   1.347   2.587   2.846
  525SOL     OW 2473   1.725   4.323   5.679
  525SOL    HW1 2474   1.789   4.331   5.755
  525SOL    HW2 2475   1.764   4.262   5.610
  526SOL     OW 2476   3.495   6.858   3.885
  526SOL    HW1 2477   3.556   6.936   3.872
  526SOL    HW2 2478   3.419   6.864   3.821
  527SOL     OW 2479   6.930   3.073   0.708
  527SOL    HW1 2480   6.999   3.026   0.764
  527SOL    HW2 2481   6.925   3.030   0.618
  528SOL     OW 2482   1.606   2.409   3.413
  528SOL    HW1 2483   1.606   2.439   3.318
  528SOL    HW2 2484   1.697   2.374   3.437
  529SOL     OW 2485   1.939   6.264   4.998
  529SOL    HW1 2486   1.946   6.240   5.095
  529SOL    HW2 2487   1.988   6.349   4.981
  530SOL     OW 2488   3.976   3.945   3.392
  530SOL    HW1 2489   3.937   3.988   3.473
  530SOL    HW2 2490   4.015   4.015   3.333
  531SOL     OW 2491   0.895   1.368   2.968
  531SOL    HW1 2492   0.952   1.450   2.979
  531SOL    HW2 2493   0.954   1.289   2.950
  532SOL     OW 2494   1.189   2.239   0.511
  532SOL    HW1 2495   1.097   2.228   0.548
  532SOL    HW2 2496   1.240   2.304   0.567
  533SOL     OW 2497   4.321   0.048   3.208
  533SOL    HW1 2498   4.294   0.082   3.117
  533SOL    HW2 2499   4.244   0.001   3.251
  534SOL     OW 2500   5.550   5.727   2.585
  534SOL    HW1 2501   5.649   5.718   2.602
  534SOL    HW2 2502   5.525   5.824   2.589
  535SOL     OW 2503   6.294   3.928   3.501
  535SOL    HW1 2504   6.249   4.017   3.499
  535SOL    HW2 2505   6.361   3.922   3.428
  536SOL     OW 2506   6.289   4.597   2.747
  536SOL    HW1 2507   6.340   4.520   2.786
  536SOL    HW2 2508   6.338   4.682   2.768
  537SOL     OW 2509   3.103   6.947   4.676
  537SOL    HW1 2510   3.145   6.859   4.654
  537SOL    HW2 2511   3.019   6.933   4.729
  538SOL     OW 2512   0.579   4.773   4.207
  538SOL    HW1 2513   0.499   4.715   4.221
  538SOL    HW2 2514   0.550   4.869   4.205
  539SOL     OW 2515   2.010   4.353   1.636
  539SOL    HW1 2516   1.974   4.445   1.649
  539SOL    HW2 2517   2.058   4.347   1.549
  540SOL     OW 2518   1.793   1.586   2.917
  540SOL    HW1 2519   1.745   1.500   2.905
  540SOL    HW2 2520   1.852   1.604   2.838
  541SOL     OW 2521   5.702   5.304   4.606
  541SOL    HW1 2522   5.624   5.273   4.661
  541SOL    HW2 2523   5.674   5.381   4.549
  542SOL     OW 2524   4.839   6.636   6.901
  542SOL    HW1 2525   4.791   6.549   6.888
  542SOL    HW2 2526   4.777   6.712   6.879
  543SOL     OW 2527   6.447   3.891   4.455
  543SOL    HW1 2528   6.428   3.924   4.548
  543SOL    HW2 2529   6.534   3.841   4.454
  544SOL     OW 2530   1.049   4.743   6.818
  544SOL    HW1 2531   1.037   4.791   6.905
  544SOL    HW2 2532   1.051   4.809   6.743
  545SOL     OW 2533   3.452   1.118   1.190
  545SOL    HW1 2534   3.397   1.035   1.194
  545SOL    HW2 2535   3.396   1.197   1.213
  546SOL     OW 2536   1.523   3.500   0.835
  546SOL    HW1 2537   1.562   3.412   0.862
  546SOL    HW2 2538   1.441   3.485   0.780
  547SOL     OW 2539   3.752   1.915   6.749
  547SOL    HW1 2540   3.682   1.980   6.778
  547SOL    HW2 2541   3.812   1.959   6.682
  548SOL     OW 2542   3.255   3.089   1.751
  548SOL    HW1 2543   3.160   3.062   1.732
  548SOL    HW2 2544   3.258   3.138   1.838
  549SOL     OW 2545   5.231   2.401   1.879
  549SOL    HW1 2546   5.224   2.322   1.818
  549SOL    HW2 2547   5.290   2.469   1.837
  550SOL     OW 2548   1.389   5.275   3.832
  550SOL    HW1 2549   1.454   5.290   3.757
  550SOL    HW2 2550   1.303   5.322   3.811
  551SOL     OW 2551   0.606   0.131   1.738
  551SOL    HW1 2552   0.634   0.094   1.650
  551SOL    HW2 2553   0.646   0.222   1.750
  552SOL     OW 2554   5.770   4.789   6.894
  552SOL    HW1 2555   5.865   4.758   6.895
  552SOL    HW2 2556   5.734   4.781   6.801
  553SOL     OW 2557   2.318   6.762   4.295
  553SOL    HW1 2558   2.363   6.843   4.258
  553SOL    HW2 2559   2.280   6.707   4.221
  554SOL     OW 2560   5.499   6.770   6.632
  554SOL    HW1 2561   5.596   6.745   6.642
  554SOL    HW2 2562   5.449   6.736   6.712
  555SOL     OW 2563   3.405   5.002   4.781
  555SOL    HW1 2564   3.496   4.960   4.784
  555SOL    HW2 2565   3.373   5.004   4.686
  556SOL     OW 2566   5.133   1.584   3.541
  556SOL    HW1 2567   5.186   1.566   3.458
  556SOL    HW2 2568   5.121   1.499   3.593
  557SOL     OW 2569   6.759   5.443   0.602
  557SOL    HW1 2570   6.780   5.453   0.505
  557SOL    HW2 2571   6.663   5.463   0.618
  558SOL     OW 2572   2.895   3.420   3.225
  558SOL    HW1 2573   2.816   3.438   3.284
  558SOL    HW2 2574   2.934   3.506   3.194
  559SOL     OW 2575   0.476   5.739   6.477
  559SOL    HW1 2576   0.378   5.739   6.462
  559SOL    HW2 2577   0.523   5.773   6.396
  560SOL     OW 2578   6.076   3.787   3.743
  560SOL    HW1 2579   6.078   3.793   3.643
  560SOL    HW2 2580   6.123   3.866   3.782
  561SOL     OW 2581   0.293   2.293   1.127
  561SOL    HW1 2582   0.216   2.294   1.063
  561SOL    HW2 2583   0.372   2.249   1.083
  562SOL     OW 2584   4.597   0.223   6.587
  562SOL    HW1 2585   4.523   0.191   6.647
  562SOL    HW2 2586   4.562   0.296   6.527
  563SOL     OW 2587   2.779   0.410   3.640
  563SOL    HW1 2588   2.762   0.428   3.737
  563SOL    HW2 2589   2.781   0.311   3.625
  564SOL     OW 2590   1.179   2.763   0.009
  564SOL    HW1 2591   1.207   2.858   0.016
  564SOL    HW2 2592   1.121   2.751   6.951
  565SOL     OW 2593   3.756   3.475   4.627
  565SOL    HW1 2594   3.717   3.403   4.569
  565SOL    HW2 2595   3.701   3.557   4.620
  566SOL     OW 2596   0.595   4.612   3.969
  566SOL    HW1 2597   0.617   4.651   4.059
  566SOL    HW2 2598   0.510   4.560   3.975
  567SOL     OW 2599   2.762   2.705   1.591
  567SOL    HW1 2600   2.812   2.778   1.636
  567SOL    HW2 2601   2.750   2.629   1.655
  568SOL     OW 2602   4.742   0.266   0.182
  568SOL    HW1 2603   4.796   0.193   0.222
  568SOL    HW2 2604   4.778   0.355   0.211
  569SOL     OW 2605   1.772   2.651   0.121
  569SOL    HW1 2606   1.705   2.722   0.143
  569SOL    HW2 2607   1.778   2.585   0.196
  570SOL     OW 2608   3.951   6.455   6.379
  570SOL    HW1 2609   3.938   6.371   6.433
  570SOL    HW2 2610   3.899   6.529   6.420
  571SOL     OW 2611   3.393   5.539   2.517
  571SOL    HW1 2612   3.408   5.591   2.601
  571SOL    HW2 2613   3.310   5.571   2.472
  572SOL     OW 2614   2.684   4.697   5.524
  572SOL    HW1 2615   2.658   4.789   5.552
  572SOL    HW2 2616   2.673   4.634   5.601
  573SOL     OW 2617   5.225   1.673   6.076
  573SOL    HW1 2618   5.195   1.578   6.080
  573SOL    HW2 2619   5.298   1.682   6.008
  574SOL     OW 2620   3.668   1.435   4.792
  574SOL    HW1 2621   3.630   1.373   4.723
  574SOL    HW2 2622   3.752   1.476   4.757
  575SOL     OW 2623   5.149   3.976   0.952
  575SOL    HW1 2624   5.177   4.071   0.942
  575SOL    HW2 2625   5.061   3.972   0.998
  576SOL     OW 2626   1.490   2.246   2.971
  576SOL    HW1 2627   1.498   2.171   2.906
  576SOL    HW2 2628   1.394   2.269   2.984
  577SOL     OW 2629   1.696   1.335   2.960
  577SOL    HW1 2630   1.744   1.249   2.975
  577SOL    HW2 2631   1.681   1.382   3.047
  578SOL     OW 2632   6.723   5.334   4.487
  578SOL    HW1 2633   6.632   5.298   4.508
  578SOL    HW2 2634   6.762   5.284   4.410
  579SOL     OW 2635   1.730   3.415   3.839
  579SOL    HW1 2636   1.710   3.328   3.795
  579SOL    HW2 2637   1.809   3.405   3.900
  580SOL     OW 2638   4.996   5.442   5.475
  580SOL    HW1 2639   4.932   5.384   5.426
  580SOL    HW2 2640   4.961   5.536   5.477
  581SOL     OW 2641   1.872   2.944   1.690
  581SOL    HW1 2642   1.814   2.914   1.614
  581SOL    HW2 2643   1.849   2.893   1.772
  582SOL     OW 2644   4.778   5.976   2.329
  582SOL    HW1 2645   4.781   6.074   2.311
  582SOL    HW2 2646   4.721   5.931   2.260
  583SOL     OW 2647   2.654   6.733   5.431
  583SOL    HW1 2648   2.562   6.771   5.426
  583SOL    HW2 2649   2.650   6.639   5.465
  584SOL     OW 2650   2.771   5.213   6.861
  584SOL    HW1 2651   2.809   5.305   6.870
  584SOL    HW2 2652   2.846   5.147   6.854
  585SOL     OW 2653   4.739   2.048   6.667
  585SOL    HW1 2654   4.716   1.962   6.621
  585SOL    HW2 2655   4.724   2.038   6.766
  586SOL     OW 2656   3.444   0.579   6.408
  586SOL    HW1 2657   3.431   0.644   6.334
  586SOL    HW2 2658   3.357   0.533   6.428
  587SOL     OW 2659   4.492   2.094   4.110
  587SOL    HW1 2660   4.450   2.153   4.041
  587SOL    HW2 2661   4.455   2.002   4.102
  588SOL     OW 2662   2.504   4.882   1.316
  588SOL    HW1 2663   2.480   4.822   1.239
  588SOL    HW2 2664   2.430   4.946   1.332
  589SOL     OW 2665   3.385   4.526   1.617
  589SOL    HW1 2666   3.300   4.577   1.623
  589SOL    HW2 2667   3.449   4.559   1.685
  590SOL     OW 2668   5.344   2.627   2.218
  590SOL    HW1 2669   5.278   2.681   2.166
  590SOL    HW2 2670   5.436   2.647   2.186
  591SOL     OW 2671   3.238   5.585   3.447
  591SOL    HW1 2672   3.303   5.643   3.397
  591SOL    HW2 2673   3.192   5.524   3.383
  592SOL     OW 2674   3.743   1.326   0.956
  592SOL    HW1 2675   3.811   1.332   0.883
  592SOL    HW2 2676   3.717   1.417   0.986
  593SOL     OW 2677   3.995   2.130   4.384
  593SOL    HW1 2678   4.063   2.203   4.372
  593SOL    HW2 2679   4.043   2.044   4.403
  594SOL     OW 2680   6.561   1.071   6.945
  594SOL    HW1 2681   6.610   1.039   6.864
  594SOL    HW2 2682   6.596   1.161   6.972
  595SOL     OW 2683   5.656   0.690   3.836
  595SOL    HW1 2684   5.620   0.634   3.912
  595SOL    HW2 2685   5.663   0.785   3.866
  596SOL     OW 2686   1.044   5.524   3.597
  596SOL    HW1 2687   0.960   5.574   3.620
  596SOL    HW2 2688   1.029   5.471   3.513
  597SOL     OW 2689   2.270   0.017   0.290
  597SOL    HW1 2690   2.256   6.959   0.349
  597SOL    HW2 2691   2.358   0.008   0.244
  598SOL     OW 2692   4.038   3.868   5.417
  598SOL    HW1 2693   4.022   3.832   5.325
  598SOL    HW2 2694   4.033   3.794   5.484
  599SOL     OW 2695   2.617   6.229   1.766
  599SOL    HW1 2696   2.622   6.209   1.863
  599SOL    HW2 2697   2.535   6.283   1.747
  600SOL     OW 2698   6.469   1.380   0.109
  600SOL    HW1 2699   6.411   1.324   0.049
  600SOL    HW2 2700   6.563   1.378   0.076
  601SOL     OW 2701   1.359   0.455   4.784
  601SOL    HW1 2702   1.344   0.373   4.839
  601SOL    HW2 2703   1.345   0.536   4.841
  602SOL     OW 2704   1.094   1.380   6.287
  602SOL    HW1 2705   1.019   1.430   6.330
  602SOL    HW2 2706   1.105   1.411   6.193
  603SOL     OW 2707   2.756   2.366   5.269
  603SOL    HW1 2708   2.847   2.402   5.285
  603SOL    HW2 2709   2.703   2.430   5.213
  604SOL     OW 2710   0.864   2.158   1.944
  604SOL    HW1 2711   0.840   2.078   1.999
  604SOL    HW2 2712   0.820   2.239   1.983
  605SOL     OW 2713   6.817   5.787   0.484
  605SOL    HW1 2714   6.734   5.790   0.539
  605SOL    HW2 2715   6.802   5.730   0.403
  606SOL     OW 2716   4.927   6.361   6.808
  606SOL    HW1 2717   4.932   6.433   6.739
  606SOL    HW2 2718   4.848   6.302   6.789
  607SOL     OW 2719   6.171   5.606   5.419
  607SOL    HW1 2720   6.222   5.525   5.392
  607SOL    HW2 2721   6.156   5.665   5.340
  608SOL     OW 2722   4.291   6.564   6.879
  608SOL    HW1 2723   4.259   6.494   6.816
  608SOL    HW2 2724   4.312   6.521   6.968
  609SOL     OW 2725   3.623   3.026   2.460
  609SOL    HW1 2726   3.720   3.006   2.476
  609SOL    HW2 2727   3.567   2.962   2.512
  610SOL     OW 2728   5.638   4.543   2.134
  610SOL    HW1 2729   5.652   4.604   2.212
  610SOL    HW2 2730   5.644   4.448   2.164
  611SOL     OW 2731   4.265   6.648   1.724
  611SOL    HW1 2732   4.220   6.611   1.806
  611SOL    HW2 2733   4.288   6.744   1.739
  612SOL     OW 2734   4.018   6.248   4.684
  612SOL    HW1 2735   4.061   6.221   4.770
  612SOL    HW2 2736   3.919   6.242   4.693
  613SOL     OW 2737   4.389   6.471   5.412
  613SOL    HW1 2738   4.342   6.431   5.491
  613SOL    HW2 2739   4.331   6.542   5.371
  614SOL     OW 2740   5.362   5.579   0.330
  614SOL    HW1 2741   5.312   5.518   0.390
  614SOL    HW2 2742   5.317   5.669   0.328
  615SOL     OW 2743   6.494   2.463   2.065
  615SOL    HW1 2744   6.532   2.376   2.035
  615SOL    HW2 2745   6.569   2.523   2.096
  616SOL     OW 2746   0.620   2.549   3.381
  616SOL    HW1 2747   0.574   2.498   3.308
  616SOL    HW2 2748   0.554   2.605   3.430
  617SOL     OW 2749   0.377   4.477   6.095
  617SOL    HW1 2750   0.373   4.575   6.080
  617SOL    HW2 2751   0.467   4.452   6.129
  618SOL     OW 2752   6.658   2.503   0.459
  618SOL    HW1 2753   6.733   2.513   0.394
  618SOL    HW2 2754   6.571   2.499   0.409
  619SOL     OW 2755   4.084   1.176   0.213
  619SOL    HW1 2756   4.100   1.078   0.200
  619SOL    HW2 2757   4.016   1.189   0.285
  620SOL     OW 2758   4.302   2.989   1.235
  620SOL    HW1 2759   4.214   3.035   1.239
  620SOL    HW2 2760   4.311   2.941   1.148
  621SOL     OW 2761   2.571   6.642   7.021
  621SOL    HW1 2762   2.634   6.620   6.946
  621SOL    HW2 2763   2.621   6.643   0.085
  622SOL     OW 2764   1.054   0.045   6.096
  622SOL    HW1 2765   1.051   0.132   6.145
  622SOL    HW2 2766   0.972   7.014   6.118
  623SOL     OW 2767   0.772   5.775   5.134
  623SOL    HW1 2768   0.857   5.828   5.128
  623SOL    HW2 2769   0.766   5.729   5.222
  624SOL     OW 2770   6.665   2.713   1.064
  624SOL    HW1 2771   6.747   2.692   1.011
  624SOL    HW2 2772   6.649   2.641   1.131
  625SOL     OW 2773   1.947   1.722   1.839
  625SOL    HW1 2774   2.033   1.677   1.865
  625SOL    HW2 2775   1.879   1.653   1.815
  626SOL     OW 2776   2.234   5.786   3.665
  626SOL    HW1 2777   2.291   5.830   3.595
  626SOL    HW2 2778   2.175   5.855   3.708
  627SOL     OW 2779   5.533   6.084   0.073
  627SOL    HW1 2780   5.608   6.148   0.060
  627SOL    HW2 2781   5.454   6.113   0.018
  628SOL     OW 2782   5.822   5.668   6.144
  628SOL    HW1 2783   5.920   5.679   6.128
  628SOL    HW2 2784   5.805   5.671   6.243
  629SOL     OW 2785   6.908   6.444   6.999
  629SOL    HW1 2786   6.977   6.489   6.943
  629SOL    HW2 2787   6.917   6.474   0.071
  630SOL     OW 2788   6.610   1.710   2.141
  630SOL    HW1 2789   6.645   1.791   2.093
  630SOL    HW2 2790   6.632   1.717   2.238
  631SOL     OW 2791   3.340   6.808   5.363
  631SOL    HW1 2792   3.344   6.729   5.302
  631SOL    HW2 2793   3.311   6.889   5.311
  632SOL     OW 2794   2.473   1.118   0.901
  632SOL    HW1 2795   2.545   1.129   0.833
  632SOL    HW2 2796   2.413   1.042   0.875
  633SOL     OW 2797   4.355   3.918   0.354
  633SOL    HW1 2798   4.378   3.866   0.273
  633SOL    HW2 2799   4.259   3.947   0.350
  634SOL     OW 2800   4.123   4.327   0.881
  634SOL    HW1 2801   4.094   4.267   0.806
  634SOL    HW2 2802   4.172   4.273   0.950
  635SOL     OW 2803   4.730   5.040   0.849
  635SOL    HW1 2804   4.714   5.131   0.811
  635SOL    HW2 2805   4.656   5.015   0.911
  636SOL     OW 2806   4.132   5.582   6.859
  636SOL    HW1 2807   4.146   5.495   6.905
  636SOL    HW2 2808   4.180   5.655   6.908
  637SOL     OW 2809   6.553   3.768   3.077
  637SOL    HW1 2810   6.515   3.722   2.996
  637SOL    HW2 2811   6.584   3.860   3.051
  638SOL     OW 2812   5.081   2.437   3.355
  638SOL    HW1 2813   5.177   2.438   3.383
  638SOL    HW2 2814   5.044   2.345   3.368
  639SOL     OW 2815   4.877   3.814   2.462
  639SOL    HW1 2816   4.906   3.755   2.386
  639SOL    HW2 2817   4.790   3.781   2.499
  640SOL     OW 2818   0.015   5.170   4.143
  640SOL    HW1 2819   0.066   5.241   4.192
  640SOL    HW2 2820   6.951   5.152   4.191
  641SOL     OW 2821   6.365   5.945   4.769
  641SOL    HW1 2822   6.460   5.926   4.743
  641SOL    HW2 2823   6.308   5.865   4.749
  642SOL     OW 2824   0.138   3.011   4.898
  642SOL    HW1 2825   0.232   3.026   4.867
  642SOL    HW2 2826   0.099   3.097   4.932
  643SOL     OW 2827   5.544   5.948   4.971
  643SOL    HW1 2828   5.454   5.978   4.940
  643SOL    HW2 2829   5.533   5.877   5.041
  644SOL     OW 2830   1.525   5.621   4.522
  644SOL    HW1 2831   1.568   5.530   4.521
  644SOL    HW2 2832   1.581   5.684   4.469
  645SOL     OW 2833   4.182   1.504   3.908
  645SOL    HW1 2834   4.192   1.420   3.962
  645SOL    HW2 2835   4.262   1.516   3.850
  646SOL     OW 2836   2.560   1.519   4.702
  646SOL    HW1 2837   2.523   1.519   4.609
  646SOL    HW2 2838   2.657   1.544   4.700
  647SOL     OW 2839   5.164   2.108   4.559
  647SOL    HW1 2840   5.144   2.012   4.539
  647SOL    HW2 2841   5.206   2.115   4.650
  648SOL     OW 2842   0.152   3.726   3.924
  648SOL    HW1 2843   0.141   3.633   3.960
  648SOL    HW2 2844   0.135   3.726   3.826
  649SOL     OW 2845   2.952   3.482   0.878
  649SOL    HW1 2846   2.908   3.394   0.898
  649SOL    HW2 2847   3.033   3.466   0.821
  650SOL     OW 2848   5.814   4.734   0.810
  650SOL    HW1 2849   5.776   4.813   0.763
  650SOL    HW2 2850   5.885   4.763   0.874
  651SOL     OW 2851   6.175   6.414   6.121
  651SOL    HW1 2852   6.195   6.316   6.123
  651SOL    HW2 2853   6.090   6.429   6.071
  652SOL     OW 2854   4.977   6.244   3.633
  652SOL    HW1 2855   4.886   6.266   3.667
  652SOL    HW2 2856   5.035   6.325   3.637
  653SOL     OW 2857   2.576   5.721   5.191
  653SOL    HW1 2858   2.661   5.749   5.146
  653SOL    HW2 2859   2.508   5.699   5.122
  654SOL     OW 2860   0.005   4.231   6.136
  654SOL    HW1 2861   6.962   4.221   6.061
  654SOL    HW2 2862   0.067   4.152   6.137
  655SOL     OW 2863   0.673   6.015   2.149
  655SOL    HW1 2864   0.648   6.056   2.061
  655SOL    HW2 2865   0.768   5.985   2.145
  656SOL     OW 2866   2.079   5.293   1.582
  656SOL    HW1 2867   2.060   5.294   1.483
  656SOL    HW2 2868   2.122   5.206   1.606
  657SOL     OW 2869   1.601   2.393   1.514
  657SOL    HW1 2870   1.547   2.345   1.583
  657SOL    HW2 2871   1.698   2.385   1.537
  658SOL     OW 2872   3.002   3.979   6.364
  658SOL    HW1 2873   2.983   4.076   6.383
  658SOL    HW2 2874   2.996   3.963   6.266
  659SOL     OW 2875   2.289   6.071   6.248
  659SOL    HW1 2876   2.320   6.015   6.172
  659SOL    HW2 2877   2.350   6.150   6.258
  660SOL     OW 2878   5.606   4.853   2.335
  660SOL    HW1 2879   5.566   4.903   2.411
  660SOL    HW2 2880   5.625   4.916   2.259
  661SOL     OW 2881   4.196   5.232   2.925
  661SOL    HW1 2882   4.171   5.161   2.990
  661SOL    HW2 2883   4.296   5.235   2.916
  662SOL     OW 2884   4.153   0.221   5.767
  662SOL    HW1 2885   4.138   0.180   5.677
  662SOL    HW2 2886   4.190   0.152   5.830
  663SOL     OW 2887   2.405   3.829   6.236
  663SOL    HW1 2888   2.477   3.789   6.178
  663SOL    HW2 2889   2.318   3.825   6.188
  664SOL     OW 2890   0.279   5.345   6.457
  664SOL    HW1 2891   0.293   5.356   6.358
  664SOL    HW2 2892   0.340   5.408   6.505
  665SOL     OW 2893   5.130   4.658   1.296
  665SOL    HW1 2894   5.063   4.657   1.222
  665SOL    HW2 2895   5.200   4.727   1.277
  666SOL     OW 2896   4.805   2.331   2.429
  666SOL    HW1 2897   4.770   2.299   2.341
  666SOL    HW2 2898   4.873   2.266   2.463
  667SOL     OW 2899   0.718   4.824   3.456
  667SOL    HW1 2900   0.623   4.810   3.429
  667SOL    HW2 2901   0.762   4.735   3.470
  668SOL     OW 2902   5.349   6.459   6.308
  668SOL    HW1 2903   5.384   6.367   6.328
  668SOL    HW2 2904   5.413   6.527   6.344
  669SOL     OW 2905   4.307   0.298   2.721
  669SOL    HW1 2906   4.407   0.302   2.721
  669SOL    HW2 2907   4.275   0.257   2.635
  670SOL     OW 2908   3.322   2.494   0.839
  670SOL    HW1 2909   3.279   2.537   0.759
  670SOL    HW2 2910   3.318   2.557   0.917
  671SOL     OW 2911   1.630   6.593   0.239
  671SOL    HW1 2912   1.600   6.592   0.144
  671SOL    HW2 2913   1.599   6.677   0.283
  672SOL     OW 2914   1.144   5.227   2.249
  672SOL    HW1 2915   1.090   5.310   2.261
  672SOL    HW2 2916   1.106   5.172   2.175
  673SOL     OW 2917   6.987   6.861   1.529
  673SOL    HW1 2918   7.010   6.956   1.550
  673SOL    HW2 2919   6.935   6.821   1.605
  674SOL     OW 2920   0.859   1.475   5.110
  674SOL    HW1 2921   0.906   1.562   5.094
  674SOL    HW2 2922   0.877   1.413   5.034
  675SOL     OW 2923   0.809   1.008   3.163
  675SOL    HW1 2924   0.748   1.021   3.241
  675SOL    HW2 2925   0.806   0.913   3.133
  676SOL     OW 2926   3.333   6.083   2.690
  676SOL    HW1 2927   3.240   6.046   2.689
  676SOL    HW2 2928   3.332   6.176   2.654
  677SOL     OW 2929   5.638   2.251   0.624
  677SOL    HW1 2930   5.576   2.272   0.700
  677SOL    HW2 2931   5.671   2.157   0.633
  678SOL     OW 2932   1.925   0.820   5.532
  678SOL    HW1 2933   1.988   0.873   5.590
  678SOL    HW2 2934   1.975   0.745   5.489
  679SOL     OW 2935   4.239   1.890   3.751
  679SOL    HW1 2936   4.291   1.805   3.743
  679SOL    HW2 2937   4.302   1.967   3.756
  680SOL     OW 2938   5.621   6.061   5.583
  680SOL    HW1 2939   5.671   6.132   5.633
  680SOL    HW2 2940   5.651   6.059   5.488
  681SOL     OW 2941   5.434   5.045   1.518
  681SOL    HW1 2942   5.388   4.957   1.526
  681SOL    HW2 2943   5.528   5.037   1.551
  682SOL     OW 2944   0.274   1.081   0.837
  682SOL    HW1 2945   0.340   1.153   0.815
  682SOL    HW2 2946   0.268   1.017   0.760
  683SOL     OW 2947   4.395   3.399   0.308
  683SOL    HW1 2948   4.438   3.429   0.394
  683SOL    HW2 2949   4.420   3.304   0.289
  684SOL     OW 2950   0.367   0.961   0.135
  684SOL    HW1 2951   0.354   0.864   0.155
  684SOL    HW2 2952   0.465   0.983   0.137
  685SOL     OW 2953   3.870   1.292   3.170
  685SOL    HW1 2954   3.932   1.306   3.247
  685SOL    HW2 2955   3.878   1.369   3.106
  686SOL     OW 2956   4.841   3.214   3.445
  686SOL    HW1 2957   4.859   3.212   3.347
  686SOL    HW2 2958   4.808   3.125   3.475
  687SOL     OW 2959   0.634   2.247   4.768
  687SOL    HW1 2960   0.559   2.287   4.821
  687SOL    HW2 2961   0.649   2.153   4.798
  688SOL     OW 2962   1.040   1.665   0.199
  688SOL    HW1 2963   1.047   1.721   0.116
  688SOL    HW2 2964   0.998   1.719   0.272
  689SOL     OW 2965   6.808   4.586   6.336
  689SOL    HW1 2966   6.710   4.603   6.334
  689SOL    HW2 2967   6.853   4.636   6.263
  690SOL     OW 2968   0.336   4.087   2.869
  690SOL    HW1 2969   0.289   4.134   2.943
  690SOL    HW2 2970   0.383   4.006   2.905
  691SOL     OW 2971   2.388   6.740   0.465
  691SOL    HW1 2972   2.483   6.723   0.437
  691SOL    HW2 2973   2.326   6.714   0.391
  692SOL     OW 2974   3.564   0.231   4.018
  692SOL    HW1 2975   3.607   0.178   3.945
  692SOL    HW2 2976   3.465   0.211   4.018
  693SOL     OW 2977   5.806   1.022   3.584
  693SOL    HW1 2978   5.794   0.951   3.515
  693SOL    HW2 2979   5.815   0.980   3.674
  694SOL     OW 2980   4.367   6.130   3.534
  694SOL    HW1 2981   4.430   6.199   3.570
  694SOL    HW2 2982   4.362   6.139   3.434
  695SOL     OW 2983   4.097   0.157   3.885
  695SOL    HW1 2984   4.006   0.199   3.887
  695SOL    HW2 2985   4.092   0.070   3.836
  696SOL     OW 2986   4.032   4.890   2.465
  696SOL    HW1 2987   4.025   4.877   2.366
  696SOL    HW2 2988   4.116   4.847   2.498
  697SOL     OW 2989   2.106   3.513   3.631
  697SOL    HW1 2990   2.172   3.587   3.636
  697SOL    HW2 2991   2.015   3.548   3.651
  698SOL     OW 2992   5.193   6.789   0.665
  698SOL    HW1 2993   5.240   6.806   0.578
  698SOL    HW2 2994   5.165   6.694   0.670
  699SOL     OW 2995   1.997   3.157   6.214
  699SOL    HW1 2996   1.901   3.133   6.229
  699SOL    HW2 2997   2.052   3.122   6.290
  700SOL     OW 2998   2.795   0.175   2.398
  700SOL    HW1 2999   2.704   0.134   2.404
  700SOL    HW2 3000   2.848   0.153   2.480
  701SOL     OW 3001   6.553   3.913   5.848
  701SOL    HW1 3002   6.543   3.845   5.921
  701SOL    HW2 3003   6.474   3.910   5.788
  702SOL     OW 3004   1.756   6.227   4.656
  702SOL    HW1 3005   1.792   6.319   4.671
  702SOL    HW2 3006   1.726   6.188   4.743
  703SOL     OW 3007   3.688   3.829   6.367
  703SOL    HW1 3008   3.783   3.801   6.387
  703SOL    HW2 3009   3.689   3.912   6.312
  704SOL     OW 3010   1.806   2.440   0.301
  704SOL    HW1 3011   1.880   2.377   0.280
  704SOL    HW2 3012   1.788   2.439   0.400
  705SOL     OW 3013   5.776   5.428   3.076
  705SOL    HW1 3014   5.872   5.403   3.066
  705SOL    HW2 3015   5.730   5.424   2.987
  706SOL     OW 3016   4.358   2.110   4.744
  706SOL    HW1 3017   4.268   2.113   4.789
  706SOL    HW2 3018   4.361   2.177   4.670
  707SOL     OW 3019   4.442   5.618   2.364
  707SOL    HW1 3020   4.499   5.611   2.282
  707SOL    HW2 3021   4.345   5.614   2.338
  708SOL     OW 3022   4.519   6.977   1.997
  708SOL    HW1 3023   4.506   6.998   2.094
  708SOL    HW2 3024   4.529   0.040   1.946
  709SOL     OW 3025   0.384   6.107   1.060
  709SOL    HW1 3026   0.367   6.121   1.157
  709SOL    HW2 3027   0.444   6.180   1.026
  710SOL     OW 3028   3.807   2.999   1.248
  710SOL    HW1 3029   3.787   3.067   1.318
  710SOL    HW2 3030   3.730   2.936   1.238
  711SOL     OW 3031   0.140   3.526   5.569
  711SOL    HW1 3032   0.114   3.554   5.662
  711SOL    HW2 3033   0.230   3.565   5.547
  712SOL     OW 3034   4.565   2.979   0.919
  712SOL    HW1 3035   4.499   3.054   0.926
  712SOL    HW2 3036   4.625   2.979   0.999
  713SOL     OW 3037   4.317   2.672   5.801
  713SOL    HW1 3038   4.256   2.648   5.877
  713SOL    HW2 3039   4.411   2.676   5.834
  714SOL     OW 3040   0.099   4.447   3.461
  714SOL    HW1 3041   0.045   4.531   3.452
  714SOL    HW2 3042   0.083   4.407   3.551
  715SOL     OW 3043   5.132   5.978   6.922
  715SOL    HW1 3044   5.108   5.900   6.980
  715SOL    HW2 3045   5.106   6.063   6.967
  716SOL     OW 3046   0.725   0.691   1.888
  716SOL    HW1 3047   0.674   0.649   1.812
  716SOL    HW2 3048   0.758   0.620   1.950
  717SOL     OW 3049   6.545   4.226   4.544
  717SOL    HW1 3050   6.503   4.165   4.611
  717SOL    HW2 3051   6.629   4.184   4.508
  718SOL     OW 3052   4.681   2.748   6.098
  718SOL    HW1 3053   4.590   2.776   6.070
  718SOL    HW2 3054   4.688   2.648   6.095
  719SOL     OW 3055   6.485   1.052   2.605
  719SOL    HW1 3056   6.412   0.990   2.574
  719SOL    HW2 3057   6.463   1.086   2.696
  720SOL     OW 3058   2.503   0.448   6.290
  720SOL    HW1 3059   2.567   0.518   6.257
  720SOL    HW2 3060   2.438   0.490   6.354
  721SOL     OW 3061   2.627   1.779   3.267
  721SOL    HW1 3062   2.599   1.777   3.171
  721SOL    HW2 3063   2.562   1.726   3.322
  722SOL     OW 3064   3.360   0.284   5.516
  722SOL    HW1 3065   3.275   0.233   5.498
  722SOL    HW2 3066   3.337   0.379   5.539
  723SOL     OW 3067   1.398   4.516   3.510
  723SOL    HW1 3068   1.303   4.516   3.541
  723SOL    HW2 3069   1.448   4.442   3.555
  724SOL     OW 3070   1.156   2.694   4.147
  724SOL    HW1 3071   1.255   2.685   4.134
  724SOL    HW2 3072   1.112   2.605   4.135
  725SOL     OW 3073   2.185   5.658   1.081
  725SOL    HW1 3074   2.229   5.743   1.111
  725SOL    HW2 3075   2.233   5.580   1.121
  726SOL     OW 3076   3.426   5.021   1.250
  726SOL    HW1 3077   3.372   5.085   1.196
  726SOL    HW2 3078   3.374   4.995   1.332
  727SOL     OW 3079   5.932   5.128   5.643
  727SOL    HW1 3080   5.963   5.049   5.590
  727SOL    HW2 3081   5.964   5.212   5.599
  728SOL     OW 3082   6.199   2.940   4.680
  728SOL    HW1 3083   6.157   2.919   4.769
  728SOL    HW2 3084   6.131   2.983   4.621
  729SOL     OW 3085   0.488   1.997   1.688
  729SOL    HW1 3086   0.513   1.923   1.750
  729SOL    HW2 3087   0.556   2.070   1.694
  730SOL     OW 3088   5.869   0.137   4.706
  730SOL    HW1 3089   5.870   0.066   4.635
  730SOL    HW2 3090   5.783   0.134   4.755
  731SOL     OW 3091   4.720   4.603   6.643
  731SOL    HW1 3092   4.774   4.639   6.720
  731SOL    HW2 3093   4.655   4.673   6.612
  732SOL     OW 3094   6.108   3.629   1.488
  732SOL    HW1 3095   6.205   3.610   1.502
  732SOL    HW2 3096   6.097   3.693   1.412
  733SOL     OW 3097   5.317   6.800   4.981
  733SOL    HW1 3098   5.380   6.876   5.000
  733SOL    HW2 3099   5.370   6.720   4.952
  734SOL     OW 3100   6.532   4.774   2.706
  734SOL    HW1 3101   6.540   4.675   2.692
  734SOL    HW2 3102   6.601   4.821   2.651
  735SOL     OW 3103   4.701   1.547   0.049
  735SOL    HW1 3104   4.798   1.534   0.067
  735SOL    HW2 3105   4.667   1.624   0.104
  736SOL     OW 3106   6.691   1.695   3.857
  736SOL    HW1 3107   6.647   1.753   3.925
  736SOL    HW2 3108   6.789   1.691   3.876
  737SOL     OW 3109   5.182   1.836   4.649
  737SOL    HW1 3110   5.224   1.865   4.735
  737SOL    HW2 3111   5.083   1.833   4.660
  738SOL     OW 3112   2.102   4.051   1.123
  738SOL    HW1 3113   2.085   3.965   1.075
  738SOL    HW2 3114   2.131   4.032   1.217
  739SOL     OW 3115   4.934   0.922   3.569
  739SOL    HW1 3116   5.020   0.915   3.519
  739SOL    HW2 3117   4.895   0.830   3.582
  740SOL     OW 3118   6.432   0.949   1.363
  740SOL    HW1 3119   6.427   1.034   1.310
  740SOL    HW2 3120   6.473   0.877   1.307
  741SOL     OW 3121   1.638   0.268   3.450
  741SOL    HW1 3122   1.618   0.334   3.378
  741SOL    HW2 3123   1.737   0.267   3.467
  742SOL     OW 3124   2.752   6.638   1.772
  742SOL    HW1 3125   2.702   6.589   1.843
  742SOL    HW2 3126   2.795   6.720   1.811
  743SOL     OW 3127   0.410   4.832   3.590
  743SOL    HW1 3128   0.339   4.764   3.613
  743SOL    HW2 3129   0.468   4.847   3.670
  744SOL     OW 3130   5.328   0.360   0.619
  744SOL    HW1 3131   5.295   0.439   0.671
  744SOL    HW2 3132   5.416   0.384   0.576
  745SOL     OW 3133   1.602   5.304   4.567
  745SOL    HW1 3134   1.608   5.213   4.608
  745SOL    HW2 3135   1.533   5.304   4.495
  746SOL     OW 3136   6.715   3.979   6.943
  746SOL    HW1 3137   6.639   3.915   6.931
  746SOL    HW2 3138   6.680   4.072   6.944
  747SOL     OW 3139   3.537   6.709   4.345
  747SOL    HW1 3140   3.487   6.794   4.365
  747SOL    HW2 3141   3.486   6.631   4.380
  748SOL     OW 3142   3.936   4.867   1.835
  748SOL    HW1 3143   4.016   4.844   1.891
  748SOL    HW2 3144   3.966   4.915   1.752
  749SOL     OW 3145   6.227   3.714   4.799
  749SOL    HW1 3146   6.180   3.746   4.717
  749SOL    HW2 3147   6.207   3.776   4.875
  750SOL     OW 3148   2.996   1.831   1.712
  750SOL    HW1 3149   2.992   1.908   1.649
  750SOL    HW2 3150   2.930   1.845   1.786
  751SOL     OW 3151   3.879   2.028   7.007
  751SOL    HW1 3152   3.861   2.058   6.914
  751SOL    HW2 3153   3.963   2.071   0.018
  752SOL     OW 3154   3.618   1.081   2.222
  752SOL    HW1 3155   3.551   1.011   2.199
  752SOL    HW2 3156   3.690   1.083   2.151
  753SOL     OW 3157   1.480   3.415   5.448
  753SOL    HW1 3158   1.417   3.472   5.395
  753SOL    HW2 3159   1.553   3.473   5.486
  754SOL     OW 3160   4.775   2.256   5.122
  754SOL    HW1 3161   4.720   2.203   5.058
  754SOL    HW2 3162   4.766   2.354   5.102
  755SOL     OW 3163   1.262   4.324   5.148
  755SOL    HW1 3164   1.192   4.389   5.174
  755SOL    HW2 3165   1.260   4.309   5.050
  756SOL     OW 3166   3.098   6.690   6.558
  756SOL    HW1 3167   3.009   6.733   6.576
  756SOL    HW2 3168   3.168   6.760   6.549
  757SOL     OW 3169   0.400   0.271   4.212
  757SOL    HW1 3170   0.326   0.320   4.165
  757SOL    HW2 3171   0.422   0.318   4.297
  758SOL     OW 3172   3.245   0.090   2.848
  758SOL    HW1 3173   3.265   0.076   2.751
  758SOL    HW2 3174   3.149   0.071   2.865
  759SOL     OW 3175   0.310   1.820   2.201
  759SOL    HW1 3176   0.375   1.748   2.177
  759SOL    HW2 3177   0.269   1.857   2.118
  760SOL     OW 3178   6.201   0.162   4.320
  760SOL    HW1 3179   6.300   0.174   4.313
  760SOL    HW2 3180   6.159   0.247   4.349
  761SOL     OW 3181   5.370   4.041   6.224
  761SOL    HW1 3182   5.469   4.030   6.228
  761SOL    HW2 3183   5.332   3.979   6.155
  762SOL     OW 3184   2.060   6.455   4.803
  762SOL    HW1 3185   2.132   6.401   4.759
  762SOL    HW2 3186   2.094   6.547   4.822
  763SOL     OW 3187   4.295   5.200   6.070
  763SOL    HW1 3188   4.234   5.274   6.097
  763SOL    HW2 3189   4.253   5.112   6.091
  764SOL     OW 3190   5.566   0.993   5.256
  764SOL    HW1 3191   5.483   0.999   5.311
  764SOL    HW2 3192   5.646   1.006   5.314
  765SOL     OW 3193   1.798   5.093   1.611
  765SOL    HW1 3194   1.883   5.064   1.567
  765SOL    HW2 3195   1.814   5.103   1.709
  766SOL     OW 3196   2.319   2.312   6.149
  766SOL    HW1 3197   2.291   2.240   6.086
  766SOL    HW2 3198   2.419   2.310   6.160
  767SOL     OW 3199   6.420   6.071   2.586
  767SOL    HW1 3200   6.372   6.090   2.501
  767SOL    HW2 3201   6.375   6.120   2.661
  768SOL     OW 3202   2.586   6.078   2.372
  768SOL    HW1 3203   2.597   6.089   2.470
  768SOL    HW2 3204   2.624   5.990   2.343
  769SOL     OW 3205   2.229   0.716   5.769
  769SOL    HW1 3206   2.230   0.812   5.797
  769SOL    HW2 3207   2.241   0.710   5.670
  770SOL     OW 3208   1.647   4.514   3.192
  770SOL    HW1 3209   1.571   4.495   3.130
  770SOL    HW2 3210   1.620   4.587   3.256
  771SOL     OW 3211   1.085   4.913   2.623
  771SOL    HW1 3212   1.107   4.946   2.532
  771SOL    HW2 3213   1.107   4.984   2.691
  772SOL     OW 3214   5.461   5.041   6.897
  772SOL    HW1 3215   5.376   5.094   6.891
  772SOL    HW2 3216   5.489   5.013   6.805
  773SOL     OW 3217   0.359   4.416   3.964
  773SOL    HW1 3218   0.385   4.336   3.909
  773SOL    HW2 3219   0.267   4.402   4.001
  774SOL     OW 3220   2.068   1.491   1.690
  774SOL    HW1 3221   2.127   1.571   1.683
  774SOL    HW2 3222   2.114   1.411   1.651
  775SOL     OW 3223   1.752   2.710   3.780
  775SOL    HW1 3224   1.771   2.747   3.870
  775SOL    HW2 3225   1.718   2.782   3.720
  776SOL     OW 3226   1.435   0.055   5.650
  776SOL    HW1 3227   1.381   0.019   5.574
  776SOL    HW2 3228   1.518   0.097   5.615
  777SOL     OW 3229   2.092   4.293   1.903
  777SOL    HW1 3230   2.114   4.333   1.814
  777SOL    HW2 3231   2.116   4.195   1.903
  778SOL     OW 3232   2.550   1.139   2.161
  778SOL    HW1 3233   2.576   1.115   2.067
  778SOL    HW2 3234   2.603   1.218   2.191
  779SOL     OW 3235   6.376   2.295   2.479
  779SOL    HW1 3236   6.357   2.353   2.558
  779SOL    HW2 3237   6.310   2.315   2.406
  780SOL     OW 3238   0.457   3.548   3.981
  780SOL    HW1 3239   0.443   3.555   4.080
  780SOL    HW2 3240   0.379   3.500   3.940
  781SOL     OW 3241   6.221   0.062   0.090
  781SOL    HW1 3242   6.129   0.040   0.123
  781SOL    HW2 3243   6.256   0.141   0.141
  782SOL     OW 3244   1.557   3.751   6.686
  782SOL    HW1 3245   1.547   3.828   6.622
  782SOL    HW2 3246   1.653   3.725   6.691
  783SOL     OW 3247   5.064   4.867   2.202
  783SOL    HW1 3248   5.017   4.785   2.169
  783SOL    HW2 3249   5.161   4.847   2.216
  784SOL     OW 3250   4.554   4.935   0.359
  784SOL    HW1 3251   4.634   4.989   0.331
  784SOL    HW2 3252   4.552   4.928   0.459
  785SOL     OW 3253   0.066   1.895   3.557
  785SOL    HW1 3254   0.070   1.935   3.465
  785SOL    HW2 3255   0.141   1.932   3.612
  786SOL     OW 3256   0.855   0.427   3.084
  786SOL    HW1 3257   0.877   0.482   3.165
  786SOL    HW2 3258   0.842   0.488   3.006
  787SOL     OW 3259   1.767   0.313   6.839
  787SOL    HW1 3260   1.794   0.217   6.837
  787SOL    HW2 3261   1.846   0.370   6.861
  788SOL     OW 3262   4.005   1.471   0.340
  788SOL    HW1 3263   3.998   1.491   0.243
  788SOL    HW2 3264   3.958   1.385   0.360
  789SOL     OW 3265   4.513   4.264   1.250
  789SOL    HW1 3266   4.557   4.179   1.277
  789SOL    HW2 3267   4.536   4.285   1.156
  790SOL     OW 3268   2.213   1.202   2.836
  790SOL    HW1 3269   2.285   1.272   2.837
  790SOL    HW2 3270   2.206   1.161   2.927
  791SOL     OW 3271   1.705   5.746   4.355
  791SOL    HW1 3272   1.674   5.679   4.287
  791SOL    HW2 3273   1.804   5.739   4.366
  792SOL     OW 3274   0.810   1.009   1.050
  792SOL    HW1 3275   0.836   0.915   1.074
  792SOL    HW2 3276   0.710   1.017   1.051
  793SOL     OW 3277   5.201   4.953   3.735
  793SOL    HW1 3278   5.202   4.859   3.767
  793SOL    HW2 3279   5.167   5.013   3.808
  794SOL     OW 3280   3.250   3.919   5.925
  794SOL    HW1 3281   3.222   3.957   5.837
  794SOL    HW2 3282   3.222   3.823   5.929
  795SOL     OW 3283   3.468   6.720   4.718
  795SOL    HW1 3284   3.526   6.652   4.675
  795SOL    HW2 3285   3.479   6.716   4.817
  796SOL     OW 3286   6.843   2.550   5.827
  796SOL    HW1 3287   6.753   2.511   5.806
  796SOL    HW2 3288   6.908   2.523   5.756
  797SOL     OW 3289   5.899   2.431   1.206
  797SOL    HW1 3290   5.962   2.429   1.283
  797SOL    HW2 3291   5.888   2.339   1.169
  798SOL     OW 3292   3.099   6.302   2.145
  798SOL    HW1 3293   3.176   6.364   2.132
  798SOL    HW2 3294   3.041   6.302   2.063
  799SOL     OW 3295   7.021   0.154   6.110
  799SOL    HW1 3296   0.074   0.182   6.049
  799SOL    HW2 3297   7.017   0.216   6.188
  800SOL     OW 3298   5.305   1.643   2.822
  800SOL    HW1 3299   5.339   1.556   2.857
  800SOL    HW2 3300   5.353   1.718   2.867
  801SOL     OW 3301   2.121   4.589   4.732
  801SOL    HW1 3302   2.131   4.675   4.681
  801SOL    HW2 3303   2.069   4.524   4.678
  802SOL     OW 3304   3.003   1.782   1.089
  802SOL    HW1 3305   2.910   1.788   1.124
  802SOL    HW2 3306   3.057   1.720   1.146
  803SOL     OW 3307   1.000   0.034   5.767
  803SOL    HW1 3308   1.017   0.032   5.866
  803SOL    HW2 3309   0.918   7.003   5.747
  804SOL     OW 3310   5.756   6.241   0.112
  804SOL    HW1 3311   5.823   6.226   0.040
  804SOL    HW2 3312   5.798   6.227   0.202
  805SOL     OW 3313   3.090   0.860   3.635
  805SOL    HW1 3314   3.011   0.869   3.575
  805SOL    HW2 3315   3.171   0.898   3.589
  806SOL     OW 3316   5.054   1.265   4.238
  806SOL    HW1 3317   5.120   1.231   4.306
  806SOL    HW2 3318   5.004   1.342   4.276
  807SOL     OW 3319   1.530   0.897   5.390
  807SOL    HW1 3320   1.502   0.820   5.333
  807SOL    HW2 3321   1.472   0.976   5.372
  808SOL     OW 3322   4.155   3.993   6.178
  808SOL    HW1 3323   4.204   4.051   6.112
  808SOL    HW2 3324   4.221   3.938   6.229
  809SOL     OW 3325   0.746   4.534   1.629
  809SOL    HW1 3326   0.699   4.574   1.551
  809SOL    HW2 3327   0.702   4.564   1.714
  810SOL     OW 3328   3.281   4.063   1.345
  810SOL    HW1 3329   3.305   4.065   1.442
  810SOL    HW2 3330   3.256   3.969   1.319
  811SOL     OW 3331   5.212   5.712   5.287
  811SOL    HW1 3332   5.261   5.767   5.355
  811SOL    HW2 3333   5.117   5.742   5.281
  812SOL     OW 3334   0.327   0.605   2.559
  812SOL    HW1 3335   0.300   0.509   2.570
  812SOL    HW2 3336   0.248   0.659   2.531
  813SOL     OW 3337   4.173   0.308   4.117
  813SOL    HW1 3338   4.133   0.273   4.202
  813SOL    HW2 3339   4.129   0.262   4.039
  814SOL     OW 3340   5.564   6.389   2.715
  814SOL    HW1 3341   5.651   6.409   2.668
  814SOL    HW2 3342   5.488   6.402   2.651
  815SOL     OW 3343   0.112   3.513   3.615
  815SOL    HW1 3344   0.014   3.501   3.635
  815SOL    HW2 3345   0.141   3.445   3.548
  816SOL     OW 3346   6.176   5.906   0.520
  816SOL    HW1 3347   6.243   5.981   0.514
  816SOL    HW2 3348   6.165   5.863   0.431
  817SOL     OW 3349   1.974   5.253   1.314
  817SOL    HW1 3350   1.900   5.303   1.269
  817SOL    HW2 3351   1.997   5.172   1.259
  818SOL     OW 3352   5.728   2.545   2.974
  818SOL    HW1 3353   5.668   2.568   2.897
  818SOL    HW2 3354   5.723   2.447   2.992
  819SOL     OW 3355   5.950   2.820   2.519
  819SOL    HW1 3356   5.958   2.720   2.523
  819SOL    HW2 3357   5.880   2.846   2.453
  820SOL     OW 3358   3.930   2.104   5.097
  820SOL    HW1 3359   3.865   2.144   5.162
  820SOL    HW2 3360   3.884   2.033   5.044
  821SOL     OW 3361   0.168   3.574   0.832
  821SOL    HW1 3362   0.138   3.650   0.775
  821SOL    HW2 3363   0.266   3.582   0.851
  822SOL     OW 3364   0.725   3.623   3.604
  822SOL    HW1 3365   0.714   3.525   3.591
  822SOL    HW2 3366   0.679   3.651   3.689
  823SOL     OW 3367   5.518   3.814   6.483
  823SOL    HW1 3368   5.505   3.777   6.391
  823SOL    HW2 3369   5.430   3.819   6.530
  824SOL     OW 3370   4.671   1.467   6.330
  824SOL    HW1 3371   4.620   1.509   6.405
  824SOL    HW2 3372   4.716   1.539   6.277
  825SOL     OW 3373   6.966   5.074   1.608
  825SOL    HW1 3374   6.867   5.072   1.620
  825SOL    HW2 3375   6.998   5.168   1.615
  826SOL     OW 3376   3.814   2.506   5.995
  826SOL    HW1 3377   3.845   2.545   6.081
  826SOL    HW2 3378   3.867   2.423   5.974
  827SOL     OW 3379   2.834   4.380   5.379
  827SOL    HW1 3380   2.866   4.444   5.310
  827SOL    HW2 3381   2.883   4.396   5.465
  828SOL     OW 3382   5.072   6.243   7.018
  828SOL    HW1 3383   5.017   6.248   0.078
  828SOL    HW2 3384   5.026   6.291   6.944
  829SOL     OW 3385   3.967   3.604   2.262
  829SOL    HW1 3386   4.042   3.545   2.292
  829SOL    HW2 3387   3.909   3.624   2.341
  830SOL     OW 3388   5.699   5.137   6.715
  830SOL    HW1 3389   5.743   5.193   6.645
  830SOL    HW2 3390   5.627   5.082   6.673
  831SOL     OW 3391   6.329   0.357   6.981
  831SOL    HW1 3392   6.345   0.426   6.911
  831SOL    HW2 3393   6.337   0.266   6.941
  832SOL     OW 3394   4.617   1.225   2.647
  832SOL    HW1 3395   4.549   1.201   2.578
  832SOL    HW2 3396   4.572   1.260   2.729
  833SOL     OW 3397   0.873   3.516   6.747
  833SOL    HW1 3398   0.802   3.547   6.685
  833SOL    HW2 3399   0.963   3.527   6.704
  834SOL     OW 3400   3.927   4.081   1.052
  834SOL    HW1 3401   3.929   4.147   1.127
  834SOL    HW2 3402   3.836   4.080   1.011
  835SOL     OW 3403   3.606   0.060   5.653
  835SOL    HW1 3404   3.575   6.989   5.635
  835SOL    HW2 3405   3.638   0.067   5.747
  836SOL     OW 3406   4.006   6.558   5.435
  836SOL    HW1 3407   3.922   6.612   5.422
  836SOL    HW2 3408   3.991   6.490   5.507
  837SOL     OW 3409   5.493   0.188   1.076
  837SOL    HW1 3410   5.466   0.282   1.099
  837SOL    HW2 3411   5.453   0.125   1.144
  838SOL     OW 3412   1.995   1.063   4.344
  838SOL    HW1 3413   2.074   1.023   4.297
  838SOL    HW2 3414   2.026   1.111   4.426
  839SOL     OW 3415   1.309   1.826   2.291
  839SOL    HW1 3416   1.298   1.739   2.338
  839SOL    HW2 3417   1.220   1.861   2.264
  840SOL     OW 3418   6.757   5.655   0.256
  840SOL    HW1 3419   6.693   5.683   0.185
  840SOL    HW2 3420   6.821   5.587   0.220
  841SOL     OW 3421   3.283   5.226   6.639
  841SOL    HW1 3422   3.337   5.267   6.565
  841SOL    HW2 3423   3.220   5.159   6.601
  842SOL     OW 3424   3.808   0.318   4.726
  842SOL    HW1 3425   3.715   0.334   4.691
  842SOL    HW2 3426   3.827   0.220   4.724
  843SOL     OW 3427   1.225   1.176   1.130
  843SOL    HW1 3428   1.128   1.183   1.152
  843SOL    HW2 3429   1.267   1.106   1.188
  844SOL     OW 3430   5.759   0.244   0.726
  844SOL    HW1 3431   5.671   0.248   0.774
  844SOL    HW2 3432   5.765   0.158   0.675
  845SOL     OW 3433   4.968   4.150   4.199
  845SOL    HW1 3434   4.899   4.085   4.232
  845SOL    HW2 3435   4.972   4.228   4.262
  846SOL     OW 3436   2.060   1.510   6.036
  846SOL    HW1 3437   2.143   1.460   6.011
  846SOL    HW2 3438   2.056   1.595   5.985
  847SOL     OW 3439   1.536   3.262   1.338
  847SOL    HW1 3440   1.535   3.183   1.277
  847SOL    HW2 3441   1.447   3.308   1.334
  848SOL     OW 3442   6.585   0.347   5.614
  848SOL    HW1 3443   6.639   0.412   5.668
  848SOL    HW2 3444   6.593   0.256   5.654
  849SOL     OW 3445   6.637   4.048   5.535
  849SOL    HW1 3446   6.631   4.117   5.607
  849SOL    HW2 3447   6.646   4.093   5.446
  850SOL     OW 3448   5.035   1.323   3.775
  850SOL    HW1 3449   4.967   1.273   3.828
  850SOL    HW2 3450   5.047   1.279   3.685
  851SOL     OW 3451   6.664   2.690   2.152
  851SOL    HW1 3452   6.577   2.725   2.185
  851SOL    HW2 3453   6.704   2.756   2.087
  852SOL     OW 3454   1.197   3.579   0.249
  852SOL    HW1 3455   1.259   3.617   0.318
  852SOL    HW2 3456   1.232   3.491   0.217
  853SOL     OW 3457   0.982   4.468   0.869
  853SOL    HW1 3458   0.937   4.381   0.849
  853SOL    HW2 3459   1.080   4.459   0.850
  854SOL     OW 3460   5.706   4.962   0.723
  854SOL    HW1 3461   5.686   5.010   0.637
  854SOL    HW2 3462   5.641   4.992   0.793
  855SOL     OW 3463   6.817   0.112   1.467
  855SOL    HW1 3464   6.812   0.193   1.410
  855SOL    HW2 3465   6.912   0.098   1.497
  856SOL     OW 3466   1.425   2.417   5.743
  856SOL    HW1 3467   1.344   2.362   5.760
  856SOL    HW2 3468   1.424   2.497   5.803
  857SOL     OW 3469   6.303   4.722   1.954
  857SOL    HW1 3470   6.244   4.764   2.023
  857SOL    HW2 3471   6.345   4.639   1.991
  858SOL     OW 3472   2.827   3.517   1.326
  858SOL    HW1 3473   2.846   3.593   1.388
  858SOL    HW2 3474   2.732   3.521   1.297
  859SOL     OW 3475   5.538   6.554   4.945
  859SOL    HW1 3476   5.633   6.569   4.974
  859SOL    HW2 3477   5.537   6.509   4.856
  860SOL     OW 3478   6.006   2.869   0.576
  860SOL    HW1 3479   6.074   2.943   0.580
  860SOL    HW2 3480   5.957   2.865   0.663
  861SOL     OW 3481   2.736   5.439   3.614
  861SOL    HW1 3482   2.809   5.494   3.654
  861SOL    HW2 3483   2.662   5.499   3.582
  862SOL     OW 3484   1.519   3.697   4.530
  862SOL    HW1 3485   1.510   3.770   4.597
  862SOL    HW2 3486   1.607   3.706   4.482
  863SOL     OW 3487   5.900   1.717   0.747
  863SOL    HW1 3488   5.999   1.701   0.739
  863SOL    HW2 3489   5.852   1.662   0.679
  864SOL     OW 3490   4.437   5.813   4.202
  864SOL    HW1 3491   4.352   5.761   4.189
  864SOL    HW2 3492   4.513   5.750   4.217
  865SOL     OW 3493   1.944   6.248   5.676
  865SOL    HW1 3494   1.953   6.149   5.683
  865SOL    HW2 3495   1.900   6.284   5.759
  866SOL     OW 3496   2.283   1.707   1.666
  866SOL    HW1 3497   2.302   1.752   1.579
  866SOL    HW2 3498   2.301   1.771   1.741
  867SOL     OW 3499   4.906   3.672   0.378
  867SOL    HW1 3500   4.952   3.761   0.384
  867SOL    HW2 3501   4.949   3.608   0.441
  868SOL     OW 3502   5.979   1.357   0.622
  868SOL    HW1 3503   6.031   1.378   0.705
  868SOL    HW2 3504   5.904   1.422   0.611
  869SOL     OW 3505   0.611   4.195   2.639
  869SOL    HW1 3506   0.615   4.211   2.737
  869SOL    HW2 3507   0.532   4.243   2.600
  870SOL     OW 3508   3.882   3.420   0.178
  870SOL    HW1 3509   3.832   3.480   0.115
  870SOL    HW2 3510   3.842   3.328   0.174
  871SOL     OW 3511   4.684   2.265   2.691
  871SOL    HW1 3512   4.699   2.290   2.595
  871SOL    HW2 3513   4.771   2.244   2.734
  872SOL     OW 3514   5.143   3.522   3.935
  872SOL    HW1 3515   5.165   3.529   4.033
  872SOL    HW2 3516   5.213   3.467   3.889
  873SOL     OW 3517   5.756   6.539   4.523
  873SOL    HW1 3518   5.674   6.552   4.467
  873SOL    HW2 3519   5.815   6.619   4.515
  874SOL     OW 3520   0.921   3.986   5.894
  874SOL    HW1 3521   0.914   4.086   5.886
  874SOL    HW2 3522   0.837   3.944   5.859
  875SOL     OW 3523   4.818   3.584   0.781
  875SOL    HW1 3524   4.791   3.680   0.770
  875SOL    HW2 3525   4.850   3.548   0.693
  876SOL     OW 3526   0.879   4.255   2.081
  876SOL    HW1 3527   0.947   4.290   2.016
  876SOL    HW2 3528   0.874   4.156   2.072
  877SOL     OW 3529   3.725   4.311   5.726
  877SOL    HW1 3530   3.783   4.275   5.800
  877SOL    HW2 3531   3.671   4.388   5.760
  878SOL     OW 3532   3.407   5.682   5.094
  878SOL    HW1 3533   3.465   5.640   5.164
  878SOL    HW2 3534   3.351   5.754   5.137
  879SOL     OW 3535   3.697   1.700   0.599
  879SOL    HW1 3536   3.789   1.661   0.607
  879SOL    HW2 3537   3.694   1.763   0.522
  880SOL     OW 3538   2.935   3.574   4.173
  880SOL    HW1 3539   2.931   3.559   4.271
  880SOL    HW2 3540   3.012   3.634   4.151
  881SOL     OW 3541   5.537   3.779   5.518
  881SOL    HW1 3542   5.541   3.833   5.434
  881SOL    HW2 3543   5.485   3.696   5.502
  882SOL     OW 3544   0.779   2.611   4.544
  882SOL    HW1 3545   0.779   2.538   4.476
  882SOL    HW2 3546   0.716   2.683   4.516
  883SOL     OW 3547   3.471   0.303   0.546
  883SOL    HW1 3548   3.407   0.291   0.623
  883SOL    HW2 3549   3.429   0.269   0.462
  884SOL     OW 3550   0.074   4.097   0.271
  884SOL    HW1 3551   0.075   3.997   0.279
  884SOL    HW2 3552   0.108   4.136   0.357
  885SOL     OW 3553   4.681   6.612   5.869
  885SOL    HW1 3554   4.664   6.702   5.829
  885SOL    HW2 3555   4.688   6.621   5.968
  886SOL     OW 3556   4.282   1.084   0.977
  886SOL    HW1 3557   4.316   1.084   0.883
  886SOL    HW2 3558   4.199   1.138   0.983
  887SOL     OW 3559   3.961   5.516   3.681
  887SOL    HW1 3560   4.012   5.475   3.606
  887SOL    HW2 3561   3.946   5.613   3.663
  888SOL     OW 3562   6.820   6.800   2.826
  888SOL    HW1 3563   6.909   6.754   2.827
  888SOL    HW2 3564   6.748   6.731   2.832
  889SOL     OW 3565   0.387   1.030   6.180
  889SOL    HW1 3566   0.475   1.062   6.146
  889SOL    HW2 3567   0.362   0.946   6.133
  890SOL     OW 3568   2.137   4.873   2.179
  890SOL    HW1 3569   2.065   4.826   2.128
  890SOL    HW2 3570   2.226   4.838   2.150
  891SOL     OW 3571   6.645   3.892   0.679
  891SOL    HW1 3572   6.562   3.948   0.683
  891SOL    HW2 3573   6.626   3.802   0.718
  892SOL     OW 3574   3.709   3.739   5.234
  892SOL    HW1 3575   3.780   3.681   5.272
  892SOL    HW2 3576   3.695   3.819   5.293
  893SOL     OW 3577   1.333   0.229   3.070
  893SOL    HW1 3578   1.398   0.302   3.053
  893SOL    HW2 3579   1.251   0.266   3.114
  894SOL     OW 3580   1.101   2.887   3.267
  894SOL    HW1 3581   1.064   2.805   3.223
  894SOL    HW2 3582   1.030   2.957   3.274
  895SOL     OW 3583   1.565   5.269   3.602
  895SOL    HW1 3584   1.662   5.292   3.601
  895SOL    HW2 3585   1.521   5.308   3.520
  896SOL     OW 3586   6.324   5.748   1.823
  896SOL    HW1 3587   6.343   5.781   1.731
  896SOL    HW2 3588   6.379   5.799   1.889
  897SOL     OW 3589   4.442   0.251   6.857
  897SOL    HW1 3590   4.373   0.245   6.785
  897SOL    HW2 3591   4.482   0.343   6.858
  898SOL     OW 3592   3.508   5.922   2.035
  898SOL    HW1 3593   3.469   5.836   2.002
  898SOL    HW2 3594   3.435   5.988   2.052
  899SOL     OW 3595   0.614   5.786   0.353
  899SOL    HW1 3596   0.661   5.773   0.265
  899SOL    HW2 3597   0.515   5.779   0.339
  900SOL     OW 3598   4.721   6.164   6.733
  900SOL    HW1 3599   4.677   6.141   6.646
  900SOL    HW2 3600   4.770   6.084   6.768
  901SOL     OW 3601   1.098   1.027   4.236
  901SOL    HW1 3602   1.185   0.982   4.256
  901SOL    HW2 3603   1.109   1.126   4.244
  902SOL     OW 3604   1.191   2.453   1.206
  902SOL    HW1 3605   1.284   2.461   1.240
  902SOL    HW2 3606   1.193   2.446   1.106
  903SOL     OW 3607   0.140   2.984   6.852
  903SOL    HW1 3608   0.176   2.913   6.913
  903SOL    HW2 3609   0.216   3.031   6.808
  904SOL     OW 3610   2.101   2.936   2.543
  904SOL    HW1 3611   2.186   2.933   2.489
  904SOL    HW2 3612   2.066   2.843   2.554
  905SOL     OW 3613   5.113   4.838   6.197
  905SOL    HW1 3614   5.045   4.906   6.224
  905SOL    HW2 3615   5.152   4.863   6.108
  906SOL     OW 3616   0.638   2.492   6.550
  906SOL    HW1 3617   0.688   2.436   6.485
  906SOL    HW2 3618   0.692   2.501   6.634
  907SOL     OW 3619   4.947   2.549   1.968
  907SOL    HW1 3620   4.898   2.601   2.038
  907SOL    HW2 3621   5.005   2.611   1.915
  908SOL     OW 3622   2.533   4.988   3.078
  908SOL    HW1 3623   2.602   5.060   3.071
  908SOL    HW2 3624   2.527   4.938   2.992
  909SOL     OW 3625   3.532   5.661   2.201
  909SOL    HW1 3626   3.630   5.651   2.220
  909SOL    HW2 3627   3.493   5.729   2.263
  910SOL     OW 3628   2.968   0.790   0.831
  910SOL    HW1 3629   3.005   0.787   0.738
  910SOL    HW2 3630   3.030   0.841   0.891
  911SOL     OW 3631   0.619   5.698   6.891
  911SOL    HW1 3632   0.713   5.710   6.858
  911SOL    HW2 3633   0.559   5.764   6.846
  912SOL     OW 3634   5.045   0.508   3.723
  912SOL    HW1 3635   5.029   0.460   3.810
  912SOL    HW2 3636   5.076   0.443   3.654
  913SOL     OW 3637   2.305   1.195   4.209
  913SOL    HW1 3638   2.357   1.116   4.177
  913SOL    HW2 3639   2.327   1.213   4.305
  914SOL     OW 3640   3.004   5.806   5.221
  914SOL    HW1 3641   2.966   5.713   5.212
  914SOL    HW2 3642   2.975   5.861   5.143
  915SOL     OW 3643   0.782   3.079   0.718
  915SOL    HW1 3644   0.878   3.088   0.692
  915SOL    HW2 3645   0.765   2.986   0.752
  916SOL     OW 3646   2.057   3.209   2.502
  916SOL    HW1 3647   2.056   3.229   2.404
  916SOL    HW2 3648   2.060   3.110   2.516
  917SOL     OW 3649   6.302   1.217   2.343
  917SOL    HW1 3650   6.400   1.224   2.324
  917SOL    HW2 3651   6.269   1.303   2.381
  918SOL     OW 3652   3.364   0.240   1.056
  918SOL    HW1 3653   3.445   0.262   1.109
  918SOL    HW2 3654   3.284   0.238   1.116
  919SOL     OW 3655   6.776   6.355   3.600
  919SOL    HW1 3656   6.788   6.445   3.558
  919SOL    HW2 3657   6.679   6.339   3.616
  920SOL     OW 3658   2.163   4.639   2.395
  920SOL    HW1 3659   2.092   4.647   2.324
  920SOL    HW2 3660   2.241   4.589   2.357
  921SOL     OW 3661   4.389   4.958   2.954
  921SOL    HW1 3662   4.484   4.951   2.922
  921SOL    HW2 3663   4.328   4.964   2.876
  922SOL     OW 3664   2.928   3.435   5.279
  922SOL    HW1 3665   2.953   3.455   5.184
  922SOL    HW2 3666   2.943   3.517   5.335
  923SOL     OW 3667   2.932   4.264   5.878
  923SOL    HW1 3668   2.931   4.359   5.846
  923SOL    HW2 3669   2.867   4.210   5.824
  924SOL     OW 3670   5.631   2.713   3.203
  924SOL    HW1 3671   5.531   2.712   3.203
  924SOL    HW2 3672   5.666   2.638   3.146
  925SOL     OW 3673   0.129   1.744   6.855
  925SOL    HW1 3674   0.075   1.752   6.771
  925SOL    HW2 3675   0.071   1.710   6.928
  926SOL     OW 3676   5.969   1.585   1.252
  926SOL    HW1 3677   6.041   1.515   1.262
  926SOL    HW2 3678   5.949   1.598   1.155
  927SOL     OW 3679   5.905   3.889   3.238
  927SOL    HW1 3680   5.910   3.805   3.184
  927SOL    HW2 3681   5.813   3.928   3.230
  928SOL     OW 3682   0.976   6.400   0.551
  928SOL    HW1 3683   0.957   6.457   0.630
  928SOL    HW2 3684   0.890   6.367   0.512
  929SOL     OW 3685   0.342   0.496   0.778
  929SOL    HW1 3686   0.243   0.509   0.773
  929SOL    HW2 3687   0.369   0.477   0.872
  930SOL     OW 3688   5.531   6.028   3.940
  930SOL    HW1 3689   5.437   5.998   3.953
  930SOL    HW2 3690   5.594   5.960   3.979
  931SOL     OW 3691   5.988   2.055   3.840
  931SOL    HW1 3692   5.952   2.086   3.928
  931SOL    HW2 3693   5.917   2.005   3.791
  932SOL     OW 3694   2.879   6.722   3.910
  932SOL    HW1 3695   2.876   6.660   3.831
  932SOL    HW2 3696   2.845   6.812   3.883
  933SOL     OW 3697   2.209   5.461   3.730
  933SOL    HW1 3698   2.143   5.426   3.797
  933SOL    HW2 3699   2.256   5.541   3.768
  934SOL     OW 3700   1.393   0.140   6.355
  934SOL    HW1 3701   1.312   0.188   6.389
  934SOL    HW2 3702   1.374   0.100   6.266
  935SOL     OW 3703   4.570   4.437   4.036
  935SOL    HW1 3704   4.608   4.344   4.034
  935SOL    HW2 3705   4.474   4.433   4.008
  936SOL     OW 3706   1.067   0.250   6.308
  936SOL    HW1 3707   1.093   0.188   6.382
  936SOL    HW2 3708   0.970   0.273   6.316
  937SOL     OW 3709   5.383   1.562   5.146
  937SOL    HW1 3710   5.480   1.542   5.164
  937SOL    HW2 3711   5.343   1.605   5.226
  938SOL     OW 3712   6.613   5.453   6.375
  938SOL    HW1 3713   6.568   5.529   6.329
  938SOL    HW2 3714   6.621   5.472   6.473
  939SOL     OW 3715   6.774   6.675   5.199
  939SOL    HW1 3716   6.735   6.595   5.153
  939SOL    HW2 3717   6.725   6.691   5.285
  940SOL     OW 3718   0.891   3.323   1.755
  940SOL    HW1 3719   0.868   3.357   1.846
  940SOL    HW2 3720   0.942   3.237   1.764
  941SOL     OW 3721   5.339   1.229   6.217
  941SOL    HW1 3722   5.385   1.141   6.203
  941SOL    HW2 3723   5.406   1.297   6.248
  942SOL     OW 3724   4.872   6.972   2.930
  942SOL    HW1 3725   4.861   6.935   3.022
  942SOL    HW2 3726   4.970   6.978   2.909
  943SOL     OW 3727   2.153   3.650   3.985
  943SOL    HW1 3728   2.242   3.658   3.941
  943SOL    HW2 3729   2.085   3.703   3.934
  944SOL     OW 3730   0.750   4.828   6.476
  944SOL    HW1 3731   0.823   4.763   6.452
  944SOL    HW2 3732   0.676   4.779   6.522
  945SOL     OW 3733   6.666   4.605   5.483
  945SOL    HW1 3734   6.704   4.585   5.393
  945SOL    HW2 3735   6.592   4.672   5.474
  946SOL     OW 3736   4.720   2.915   5.792
  946SOL    HW1 3737   4.653   2.943   5.724
  946SOL    HW2 3738   4.677   2.853   5.857
  947SOL     OW 3739   3.626   2.930   3.378
  947SOL    HW1 3740   3.619   2.919   3.477
  947SOL    HW2 3741   3.723   2.936   3.352
  948SOL     OW 3742   3.790   0.353   2.648
  948SOL    HW1 3743   3.826   0.395   2.564
  948SOL    HW2 3744   3.768   0.258   2.629
  949SOL     OW 3745   1.158   5.821   6.084
  949SOL    HW1 3746   1.241   5.854   6.041
  949SOL    HW2 3747   1.156   5.848   6.181
  950SOL     OW 3748   4.994   5.208   1.983
  950SOL    HW1 3749   4.973   5.176   1.890
  950SOL    HW2 3750   5.054   5.288   1.977
  951SOL     OW 3751   2.186   0.643   4.000
  951SOL    HW1 3752   2.146   0.603   3.917
  951SOL    HW2 3753   2.114   0.688   4.053
  952SOL     OW 3754   4.436   1.634   3.109
  952SOL    HW1 3755   4.493   1.628   3.027
  952SOL    HW2 3756   4.451   1.723   3.153
  953SOL     OW 3757   5.422   4.454   3.913
  953SOL    HW1 3758   5.486   4.516   3.958
  953SOL    HW2 3759   5.447   4.359   3.932
  954SOL     OW 3760   3.766   5.344   1.441
  954SOL    HW1 3761   3.765   5.412   1.515
  954SOL    HW2 3762   3.677   5.343   1.396
  955SOL     OW 3763   0.300   3.611   2.623
  955SOL    HW1 3764   0.237   3.598   2.547
  955SOL    HW2 3765   0.281   3.699   2.667
  956SOL     OW 3766   6.592   1.366   2.795
  956SOL    HW1 3767   6.595   1.387   2.893
  956SOL    HW2 3768   6.682   1.336   2.765
  957SOL     OW 3769   6.164   4.065   5.332
  957SOL    HW1 3770   6.091   4.121   5.291
  957SOL    HW2 3771   6.251   4.085   5.287
  958SOL     OW 3772   4.314   1.942   1.587
  958SOL    HW1 3773   4.238   1.947   1.522
  958SOL    HW2 3774   4.287   1.885   1.665
  959SOL     OW 3775   4.580   5.937   2.786
  959SOL    HW1 3776   4.629   5.885   2.856
  959SOL    HW2 3777   4.502   5.884   2.754
  960SOL     OW 3778   1.039   6.357   1.908
  960SOL    HW1 3779   1.111   6.406   1.859
  960SOL    HW2 3780   0.957   6.415   1.914
  961SOL     OW 3781   4.873   7.006   3.740
  961SOL    HW1 3782   4.880   0.065   3.683
  961SOL    HW2 3783   4.796   6.950   3.709
  962SOL     OW 3784   0.132   1.381   5.218
  962SOL    HW1 3785   0.102   1.476   5.213
  962SOL    HW2 3786   0.225   1.376   5.254
  963SOL     OW 3787   6.107   1.659   6.614
  963SOL    HW1 3788   6.173   1.615   6.676
  963SOL    HW2 3789   6.075   1.745   6.655
  964SOL     OW 3790   5.278   4.278   0.299
  964SOL    HW1 3791   5.303   4.245   0.390
  964SOL    HW2 3792   5.201   4.225   0.264
  965SOL     OW 3793   5.245   2.167   1.722
  965SOL    HW1 3794   5.173   2.101   1.740
  965SOL    HW2 3795   5.273   2.161   1.626
  966SOL     OW 3796   5.814   2.564   2.389
  966SOL    HW1 3797   5.792   2.527   2.480
  966SOL    HW2 3798   5.909   2.542   2.366
  967SOL     OW 3799   2.724   4.335   0.281
  967SOL    HW1 3800   2.818   4.335   0.249
  967SOL    HW2 3801   2.699   4.243   0.312
  968SOL     OW 3802   3.471   0.884   1.618
  968SOL    HW1 3803   3.407   0.850   1.549
  968SOL    HW2 3804   3.424   0.888   1.707
  969SOL     OW 3805   2.769   6.155   6.276
  969SOL    HW1 3806   2.860   6.121   6.254
  969SOL    HW2 3807   2.714   6.081   6.316
  970SOL     OW 3808   5.329   0.997   6.479
  970SOL    HW1 3809   5.362   1.034   6.392
  970SOL    HW2 3810   5.279   1.068   6.529
  971SOL     OW 3811   6.924   2.500   2.923
  971SOL    HW1 3812   7.004   2.556   2.905
  971SOL    HW2 3813   6.953   2.407   2.947
  972SOL     OW 3814   5.631   3.357   2.345
  972SOL    HW1 3815   5.536   3.334   2.323
  972SOL    HW2 3816   5.665   3.294   2.415
  973SOL     OW 3817   0.237   5.087   6.586
  973SOL    HW1 3818   0.257   5.180   6.553
  973SOL    HW2 3819   0.294   5.067   6.665
  974SOL     OW 3820   5.211   6.092   2.086
  974SOL    HW1 3821   5.177   5.999   2.098
  974SOL    HW2 3822   5.200   6.143   2.172
  975SOL     OW 3823   1.614   0.162   6.502
  975SOL    HW1 3824   1.595   0.185   6.598
  975SOL    HW2 3825   1.527   0.150   6.454
  976SOL     OW 3826   6.427   3.251   2.689
  976SOL    HW1 3827   6.395   3.216   2.777
  976SOL    HW2 3828   6.458   3.174   2.632
  977SOL     OW 3829   0.796   0.081   2.428
  977SOL    HW1 3830   0.824   0.175   2.445
  977SOL    HW2 3831   0.718   0.079   2.366
  978SOL     OW 3832   5.125   3.157   5.811
  978SOL    HW1 3833   5.069   3.192   5.736
  978SOL    HW2 3834   5.113   3.058   5.819
  979SOL     OW 3835   0.027   2.125   0.690
  979SOL    HW1 3836   6.980   2.117   0.618
  979SOL    HW2 3837   0.026   2.042   0.746
  980SOL     OW 3838   4.379   2.424   3.624
  980SOL    HW1 3839   4.372   2.473   3.537
  980SOL    HW2 3840   4.445   2.470   3.683
  981SOL     OW 3841   0.188   1.328   4.495
  981SOL    HW1 3842   0.213   1.424   4.480
  981SOL    HW2 3843   0.194   1.308   4.593
  982SOL     OW 3844   1.985   1.905   4.955
  982SOL    HW1 3845   1.915   1.843   4.920
  982SOL    HW2 3846   1.976   1.993   4.908
  983SOL     OW 3847   6.438   3.270   4.288
  983SOL    HW1 3848   6.343   3.266   4.256
  983SOL    HW2 3849   6.481   3.181   4.275
  984SOL     OW 3850   2.982   1.870   5.106
  984SOL    HW1 3851   2.981   1.832   5.013
  984SOL    HW2 3852   2.965   1.969   5.101
  985SOL     OW 3853   5.656   3.695   5.010
  985SOL    HW1 3854   5.739   3.642   5.030
  985SOL    HW2 3855   5.675   3.759   4.936
  986SOL     OW 3856   6.026   4.915   1.122
  986SOL    HW1 3857   6.057   4.884   1.032
  986SOL    HW2 3858   5.950   4.859   1.153
  987SOL     OW 3859   4.605   6.722   2.487
  987SOL    HW1 3860   4.600   6.817   2.455
  987SOL    HW2 3861   4.639   6.721   2.581
  988SOL     OW 3862   3.549   3.289   1.742
  988SOL    HW1 3863   3.623   3.235   1.704
  988SOL    HW2 3864   3.554   3.287   1.842
  989SOL     OW 3865   6.062   1.335   6.253
  989SOL    HW1 3866   6.066   1.335   6.353
  989SOL    HW2 3867   6.131   1.399   6.217
  990SOL     OW 3868   4.634   1.270   2.009
  990SOL    HW1 3869   4.674   1.240   1.922
  990SOL    HW2 3870   4.663   1.364   2.029
  991SOL     OW 3871   0.618   3.534   4.871
  991SOL    HW1 3872   0.665   3.579   4.795
  991SOL    HW2 3873   0.579   3.603   4.932
  992SOL     OW 3874   6.962   2.846   1.551
  992SOL    HW1 3875   7.021   2.788   1.608
  992SOL    HW2 3876   6.899   2.789   1.499
  993SOL     OW 3877   0.520   4.887   0.978
  993SOL    HW1 3878   0.513   4.791   1.005
  993SOL    HW2 3879   0.546   4.894   0.882
  994SOL     OW 3880   4.207   4.978   0.998
  994SOL    HW1 3881   4.200   4.925   1.083
  994SOL    HW2 3882   4.269   4.931   0.935
  995SOL     OW 3883   3.744   2.881   5.184
  995SOL    HW1 3884   3.831   2.931   5.174
  995SOL    HW2 3885   3.699   2.875   5.095
  996SOL     OW 3886   3.755   5.037   4.699
  996SOL    HW1 3887   3.817   4.995   4.765
  996SOL    HW2 3888   3.802   5.048   4.611
  997SOL     OW 3889   1.110   0.204   3.694
  997SOL    HW1 3890   1.062   0.121   3.668
  997SOL    HW2 3891   1.198   0.209   3.646
  998SOL     OW 3892   5.303   0.730   5.039
  998SOL    HW1 3893   5.266   0.657   4.982
  998SOL    HW2 3894   5.397   0.749   5.012
  999SOL     OW 3895   5.051   4.252   2.829
  999SOL    HW1 3896   4.973   4.314   2.828
  999SOL    HW2 3897   5.135   4.303   2.812
 1000SOL     OW 3898   2.587   1.121   1.261
 1000SOL    HW1 3899   2.636   1.173   1.332
 1000SOL    HW2 3900   2.502   1.085   1.299
 1001SOL     OW 3901   4.834   5.642   0.657
 1001SOL    HW1 3902   4.753   5.605   0.612
 1001SOL    HW2 3903   4.809   5.725   0.708
 1002SOL     OW 3904   5.972   1.545   1.578
 1002SOL    HW1 3905   5.994   1.608   1.503
 1002SOL    HW2 3906   5.990   1.451   1.549
 1003SOL     OW 3907   1.968   6.431   2.217
 1003SOL    HW1 3908   1.872   6.432   2.246
 1003SOL    HW2 3909   1.973   6.449   2.119
 1004SOL     OW 3910   0.141   0.394   1.974
 1004SOL    HW1 3911   0.063   0.446   1.940
 1004SOL    HW2 3912   0.117   0.297   1.977
 1005SOL     OW 3913   2.281   2.994   4.126
 1005SOL    HW1 3914   2.275   3.042   4.214
 1005SOL    HW2 3915   2.212   3.031   4.063
 1006SOL     OW 3916   1.051   4.396   1.155
 1006SOL    HW1 3917   0.993   4.432   1.082
 1006SOL    HW2 3918   0.995   4.370   1.233
 1007SOL     OW 3919   4.889   0.340   5.218
 1007SOL    HW1 3920   4.814   0.332   5.153
 1007SOL    HW2 3921   4.872   0.417   5.280
 1008SOL     OW 3922   0.845   3.059   5.828
 1008SOL    HW1 3923   0.746   3.056   5.847
 1008SOL    HW2 3924   0.860   3.088   5.734
 1009SOL     OW 3925   0.443   5.256   4.780
 1009SOL    HW1 3926   0.408   5.207   4.860
 1009SOL    HW2 3927   0.486   5.341   4.809
 1010SOL     OW 3928   3.541   2.128   6.566
 1010SOL    HW1 3929   3.594   2.050   6.532
 1010SOL    HW2 3930   3.451   2.095   6.596
 1011SOL     OW 3931   1.750   4.755   2.435
 1011SOL    HW1 3932   1.777   4.828   2.498
 1011SOL    HW2 3933   1.652   4.737   2.445
 1012SOL     OW 3934   6.523   6.816   2.260
 1012SOL    HW1 3935   6.478   6.744   2.208
 1012SOL    HW2 3936   6.619   6.793   2.273
 1013SOL     OW 3937   1.384   1.137   5.896
 1013SOL    HW1 3938   1.449   1.211   5.877
 1013SOL    HW2 3939   1.433   1.050   5.898
 1014SOL     OW 3940   6.362   5.375   5.859
 1014SOL    HW1 3941   6.345   5.305   5.928
 1014SOL    HW2 3942   6.439   5.348   5.801
 1015SOL     OW 3943   2.495   6.920   6.129
 1015SOL    HW1 3944   2.528   6.945   6.220
 1015SOL    HW2 3945   2.521   6.826   6.108
 1016SOL     OW 3946   4.295   3.548   6.782
 1016SOL    HW1 3947   4.369   3.488   6.811
 1016SOL    HW2 3948   4.333   3.637   6.754
 1017SOL     OW 3949   4.050   3.125   1.266
 1017SOL    HW1 3950   4.053   3.186   1.345
 1017SOL    HW2 3951   3.965   3.073   1.267
 1018SOL     OW 3952   0.542   4.465   4.264
 1018SOL    HW1 3953   0.489   4.432   4.343
 1018SOL    HW2 3954   0.481   4.485   4.188
 1019SOL     OW 3955   6.758   6.914   1.011
 1019SOL    HW1 3956   6.683   6.980   1.013
 1019SOL    HW2 3957   6.772   6.875   1.102
 1020SOL     OW 3958   6.542   1.082   0.846
 1020SOL    HW1 3959   6.457   1.066   0.797
 1020SOL    HW2 3960   6.538   1.171   0.893
 1021SOL     OW 3961   5.808   6.929   1.599
 1021SOL    HW1 3962   5.738   6.992   1.566
 1021SOL    HW2 3963   5.831   6.863   1.527
 1022SOL     OW 3964   3.318   4.463   5.306
 1022SOL    HW1 3965   3.301   4.386   5.244
 1022SOL    HW2 3966   3.415   4.486   5.305
 1023SOL     OW 3967   0.645   0.190   3.318
 1023SOL    HW1 3968   0.618   0.279   3.356
 1023SOL    HW2 3969   0.585   0.167   3.242
 1024SOL     OW 3970   0.599   2.839   3.967
 1024SOL    HW1 3971   0.563   2.751   3.998
 1024SOL    HW2 3972   0.697   2.831   3.950
 1025SOL     OW 3973   3.659   3.695   1.536
 1025SOL    HW1 3974   3.645   3.763   1.608
 1025SOL    HW2 3975   3.580   3.635   1.532
 1026SOL     OW 3976   2.392   2.233   1.267
 1026SOL    HW1 3977   2.355   2.275   1.350
 1026SOL    HW2 3978   2.480   2.274   1.244
 1027SOL     OW 3979   3.342   6.257   1.888
 1027SOL    HW1 3980   3.329   6.355   1.901
 1027SOL    HW2 3981   3.265   6.219   1.837
 1028SOL     OW 3982   2.557   6.187   1.226
 1028SOL    HW1 3983   2.506   6.270   1.202
 1028SOL    HW2 3984   2.593   6.195   1.319
 1029SOL     OW 3985   1.728   6.957   6.428
 1029SOL    HW1 3986   1.687   6.882   6.481
 1029SOL    HW2 3987   1.684   0.021   6.453
 1030SOL     OW 3988   3.104   2.922   1.949
 1030SOL    HW1 3989   3.201   2.896   1.941
 1030SOL    HW2 3990   3.084   2.947   2.043
 1031SOL     OW 3991   4.702   4.021   1.433
 1031SOL    HW1 3992   4.698   4.090   1.505
 1031SOL    HW2 3993   4.788   4.031   1.382
 1032SOL     OW 3994   2.417   2.135   5.545
 1032SOL    HW1 3995   2.359   2.112   5.467
 1032SOL    HW2 3996   2.482   2.061   5.562
 1033SOL     OW 3997   1.508   6.540   2.184
 1033SOL    HW1 3998   1.565   6.594   2.123
 1033SOL    HW2 3999   1.412   6.552   2.159
 1034SOL     OW 4000   0.392   5.226   4.505
 1034SOL    HW1 4001   0.421   5.267   4.591
 1034SOL    HW2 4002   0.328   5.152   4.523
 1035SOL     OW 4003   0.175   1.226   4.987
 1035SOL    HW1 4004   0.157   1.305   5.046
 1035SOL    HW2 4005   0.186   1.144   5.043
 1036SOL     OW 4006   3.628   0.574   1.356
 1036SOL    HW1 4007   3.701   0.599   1.420
 1036SOL    HW2 4008   3.632   0.476   1.337
 1037SOL     OW 4009   1.691   1.404   2.193
 1037SOL    HW1 4010   1.668   1.469   2.120
 1037SOL    HW2 4011   1.620   1.408   2.264
 1038SOL     OW 4012   1.792   0.950   5.281
 1038SOL    HW1 4013   1.704   0.917   5.314
 1038SOL    HW2 4014   1.849   0.978   5.359
 1039SOL     OW 4015   3.563   3.848   4.269
 1039SOL    HW1 4016   3.662   3.860   4.277
 1039SOL    HW2 4017   3.522   3.930   4.229
 1040SOL     OW 4018   4.834   1.039   2.528
 1040SOL    HW1 4019   4.810   0.958   2.475
 1040SOL    HW2 4020   4.757   1.065   2.586
 1041SOL     OW 4021   0.120   6.354   3.939
 1041SOL    HW1 4022   0.033   6.342   3.892
 1041SOL    HW2 4023   0.157   6.264   3.964
 1042SOL     OW 4024   4.229   5.324   2.083
 1042SOL    HW1 4025   4.189   5.262   2.152
 1042SOL    HW2 4026   4.156   5.363   2.027
 1043SOL     OW 4027   3.109   1.873   4.832
 1043SOL    HW1 4028   3.159   1.789   4.813
 1043SOL    HW2 4029   3.162   1.930   4.895
 1044SOL     OW 4030   5.705   5.395   2.807
 1044SOL    HW1 4031   5.623   5.372   2.756
 1044SOL    HW2 4032   5.783   5.402   2.745
 1045SOL     OW 4033   4.041   6.845   2.345
 1045SOL    HW1 4034   4.088   6.876   2.428
 1045SOL    HW2 4035   3.962   6.904   2.327
 1046SOL     OW 4036   1.599   0.541   0.439
 1046SOL    HW1 4037   1.659   0.461   0.430
 1046SOL    HW2 4038   1.656   0.623   0.450
 1047SOL     OW 4039   1.890   0.563   3.737
 1047SOL    HW1 4040   1.988   0.567   3.723
 1047SOL    HW2 4041   1.864   0.473   3.772
 1048SOL     OW 4042   4.122   6.366   3.651
 1048SOL    HW1 4043   4.173   6.319   3.723
 1048SOL    HW2 4044   4.029   6.330   3.647
 1049SOL     OW 4045   6.559   6.335   3.980
 1049SOL    HW1 4046   6.532   6.394   4.057
 1049SOL    HW2 4047   6.626   6.268   4.011
 1050SOL     OW 4048   4.188   4.823   1.257
 1050SOL    HW1 4049   4.184   4.728   1.287
 1050SOL    HW2 4050   4.106   4.871   1.290
 1051SOL     OW 4051   1.331   5.739   0.853
 1051SOL    HW1 4052   1.411   5.758   0.797
 1051SOL    HW2 4053   1.310   5.642   0.850
 1052SOL     OW 4054   4.184   0.833   4.999
 1052SOL    HW1 4055   4.144   0.741   4.998
 1052SOL    HW2 4056   4.174   0.875   4.909
 1053SOL     OW 4057   6.272   5.218   2.781
 1053SOL    HW1 4058   6.303   5.124   2.790
 1053SOL    HW2 4059   6.348   5.275   2.749
 1054SOL     OW 4060   3.338   3.376   6.832
 1054SOL    HW1 4061   3.275   3.325   6.773
 1054SOL    HW2 4062   3.289   3.409   6.912
 1055SOL     OW 4063   3.634   5.968   4.459
 1055SOL    HW1 4064   3.559   5.910   4.492
 1055SOL    HW2 4065   3.660   5.941   4.367
 1056SOL     OW 4066   2.482   4.386   6.321
 1056SOL    HW1 4067   2.568   4.436   6.330
 1056SOL    HW2 4068   2.406   4.451   6.322
 1057SOL     OW 4069   2.842   3.314   2.020
 1057SOL    HW1 4070   2.827   3.305   2.119
 1057SOL    HW2 4071   2.855   3.223   1.980
 1058SOL     OW 4072   4.725   1.905   3.450
 1058SOL    HW1 4073   4.637   1.951   3.456
 1058SOL    HW2 4074   4.762   1.915   3.357
 1059SOL     OW 4075   2.901   0.492   1.995
 1059SOL    HW1 4076   2.995   0.527   2.000
 1059SOL    HW2 4077   2.886   0.425   2.067
 1060SOL     OW 4078   0.104   4.839   4.224
 1060SOL    HW1 4079   0.037   4.827   4.297
 1060SOL    HW2 4080   0.057   4.867   4.140
 1061SOL     OW 4081   6.682   2.947   0.379
 1061SOL    HW1 4082   6.692   2.878   0.451
 1061SOL    HW2 4083   6.725   3.032   0.409
 1062SOL     OW 4084   5.209   4.889   5.923
 1062SOL    HW1 4085   5.192   4.982   5.891
 1062SOL    HW2 4086   5.291   4.853   5.879
 1063SOL     OW 4087   1.474   4.827   1.308
 1063SOL    HW1 4088   1.450   4.923   1.293
 1063SOL    HW2 4089   1.493   4.812   1.405
 1064SOL     OW 4090   1.328   3.896   2.478
 1064SOL    HW1 4091   1.331   3.802   2.512
 1064SOL    HW2 4092   1.355   3.897   2.381
 1065SOL     OW 4093   3.948   0.442   3.577
 1065SOL    HW1 4094   3.918   0.522   3.526
 1065SOL    HW2 4095   4.048   0.437   3.575
 1066SOL     OW 4096   4.726   6.636   3.464
 1066SOL    HW1 4097   4.806   6.617   3.407
 1066SOL    HW2 4098   4.664   6.558   3.460
 1067SOL     OW 4099   0.809   3.176   1.068
 1067SOL    HW1 4100   0.736   3.112   1.043
 1067SOL    HW2 4101   0.883   3.171   1.001
 1068SOL     OW 4102   6.369   4.969   2.856
 1068SOL    HW1 4103   6.431   4.910   2.806
 1068SOL    HW2 4104   6.301   4.914   2.905
 1069SOL     OW 4105   4.415   5.165   0.740
 1069SOL    HW1 4106   4.355   5.204   0.809
 1069SOL    HW2 4107   4.371   5.083   0.701
 1070SOL     OW 4108   0.109   0.726   2.452
 1070SOL    HW1 4109   0.145   0.787   2.382
 1070SOL    HW2 4110   0.032   0.769   2.498
 1071SOL     OW 4111   0.965   0.680   4.279
 1071SOL    HW1 4112   1.012   0.701   4.193
 1071SOL    HW2 4113   0.932   0.765   4.320
 1072SOL     OW 4114   1.813   1.018   1.075
 1072SOL    HW1 4115   1.912   1.022   1.086
 1072SOL    HW2 4116   1.791   0.990   0.982
 1073SOL     OW 4117   4.863   7.016   2.346
 1073SOL    HW1 4118   4.830   6.943   2.287
 1073SOL    HW2 4119   4.928   0.050   2.295
 1074SOL     OW 4120   2.362   5.140   1.040
 1074SOL    HW1 4121   2.438   5.187   0.994
 1074SOL    HW2 4122   2.375   5.145   1.139
 1075SOL     OW 4123   4.908   0.342   4.023
 1075SOL    HW1 4124   4.959   0.266   3.982
 1075SOL    HW2 4125   4.960   0.427   4.012
 1076SOL     OW 4126   7.020   1.934   5.663
 1076SOL    HW1 4127   0.028   1.959   5.755
 1076SOL    HW2 4128   6.947   1.866   5.669
 1077SOL     OW 4129   5.815   0.571   1.196
 1077SOL    HW1 4130   5.843   0.662   1.226
 1077SOL    HW2 4131   5.746   0.579   1.124
 1078SOL     OW 4132   1.146   0.739   2.838
 1078SOL    HW1 4133   1.224   0.739   2.775
 1078SOL    HW2 4134   1.129   0.646   2.870
 1079SOL     OW 4135   1.727   6.432   2.321
 1079SOL    HW1 4136   1.714   6.338   2.353
 1079SOL    HW2 4137   1.639   6.468   2.289
 1080SOL     OW 4138   2.257   4.782   3.276
 1080SOL    HW1 4139   2.235   4.829   3.362
 1080SOL    HW2 4140   2.340   4.727   3.288
 1081SOL     OW 4141   0.469   5.741   5.547
 1081SOL    HW1 4142   0.470   5.661   5.606
 1081SOL    HW2 4143   0.553   5.744   5.493
 1082SOL     OW 4144   4.891   1.845   4.661
 1082SOL    HW1 4145   4.847   1.756   4.673
 1082SOL    HW2 4146   4.911   1.860   4.564
 1083SOL     OW 4147   4.225   4.079   0.603
 1083SOL    HW1 4148   4.142   4.132   0.614
 1083SOL    HW2 4149   4.283   4.120   0.533
 1084SOL     OW 4150   6.140   6.275   6.988
 1084SOL    HW1 4151   6.131   6.324   0.053
 1084SOL    HW2 4152   6.074   6.200   6.986
 1085SOL     OW 4153   1.855   3.278   4.203
 1085SOL    HW1 4154   1.843   3.310   4.297
 1085SOL    HW2 4155   1.868   3.357   4.142
 1086SOL     OW 4156   0.568   5.519   0.450
 1086SOL    HW1 4157   0.554   5.531   0.548
 1086SOL    HW2 4158   0.573   5.609   0.406
 1087SOL     OW 4159   5.956   1.873   5.036
 1087SOL    HW1 4160   5.920   1.960   5.069
 1087SOL    HW2 4161   6.041   1.852   5.085
 1088SOL     OW 4162   0.635   3.909   2.918
 1088SOL    HW1 4163   0.724   3.900   2.873
 1088SOL    HW2 4164   0.636   3.990   2.978
 1089SOL     OW 4165   0.945   6.504   4.284
 1089SOL    HW1 4166   1.034   6.530   4.322
 1089SOL    HW2 4167   0.900   6.438   4.345
 1090SOL     OW 4168   2.706   2.365   3.486
 1090SOL    HW1 4169   2.758   2.330   3.564
 1090SOL    HW2 4170   2.757   2.350   3.402
 1091SOL     OW 4171   3.242   2.010   5.024
 1091SOL    HW1 4172   3.181   2.021   5.102
 1091SOL    HW2 4173   3.293   2.094   5.009
 1092SOL     OW 4174   1.447   3.948   1.072
 1092SOL    HW1 4175   1.464   4.038   1.033
 1092SOL    HW2 4176   1.492   3.878   1.016
 1093SOL     OW 4177   1.984   1.466   2.264
 1093SOL    HW1 4178   1.902   1.416   2.237
 1093SOL    HW2 4179   2.063   1.405   2.259
 1094SOL     OW 4180   0.012   6.657   2.902
 1094SOL    HW1 4181   0.011   6.572   2.955
 1094SOL    HW2 4182   0.011   6.735   2.963
 1095SOL     OW 4183   0.852   2.672   6.300
 1095SOL    HW1 4184   0.770   2.713   6.339
 1095SOL    HW2 4185   0.883   2.727   6.221
 1096SOL     OW 4186   3.665   4.368   1.714
 1096SOL    HW1 4187   3.670   4.466   1.732
 1096SOL    HW2 4188   3.613   4.323   1.786
 1097SOL     OW 4189   2.255   4.559   4.348
 1097SOL    HW1 4190   2.186   4.504   4.301
 1097SOL    HW2 4191   2.284   4.633   4.289
 1098SOL     OW 4192   4.539   3.668   6.646
 1098SOL    HW1 4193   4.626   3.681   6.693
 1098SOL    HW2 4194   4.510   3.572   6.655
 1099SOL     OW 4195   3.827   1.180   5.787
 1099SOL    HW1 4196   3.868   1.241   5.720
 1099SOL    HW2 4197   3.889   1.105   5.807
 1100SOL     OW 4198   3.531   1.931   4.662
 1100SOL    HW1 4199   3.449   1.931   4.719
 1100SOL    HW2 4200   3.539   2.019   4.615
 1101SOL     OW 4201   5.958   2.931   6.184
 1101SOL    HW1 4202   6.019   2.965   6.112
 1101SOL    HW2 4203   5.985   2.839   6.210
 1102SOL     OW 4204   0.439   7.016   4.403
 1102SOL    HW1 4205   0.479   0.084   4.385
 1102SOL    HW2 4206   0.455   6.957   4.324
 1103SOL     OW 4207   4.362   1.887   0.168
 1103SOL    HW1 4208   4.329   1.793   0.172
 1103SOL    HW2 4209   4.448   1.895   0.219
 1104SOL     OW 4210   2.112   3.183   5.987
 1104SOL    HW1 4211   2.067   3.268   5.957
 1104SOL    HW2 4212   2.076   3.156   6.076
 1105SOL     OW 4213   6.463   3.402   5.071
 1105SOL    HW1 4214   6.527   3.373   4.999
 1105SOL    HW2 4215   6.380   3.347   5.065
 1106SOL     OW 4216   6.976   2.568   1.675
 1106SOL    HW1 4217   6.960   2.523   1.763
 1106SOL    HW2 4218   6.934   2.514   1.602
 1107SOL     OW 4219   0.701   0.759   6.633
 1107SOL    HW1 4220   0.718   0.857   6.631
 1107SOL    HW2 4221   0.715   0.725   6.726
 1108SOL     OW 4222   3.575   0.218   5.071
 1108SOL    HW1 4223   3.598   0.139   5.013
 1108SOL    HW2 4224   3.478   0.216   5.094
 1109SOL     OW 4225   4.512   1.259   4.177
 1109SOL    HW1 4226   4.526   1.357   4.186
 1109SOL    HW2 4227   4.425   1.242   4.130
 1110SOL     OW 4228   3.457   1.976   3.572
 1110SOL    HW1 4229   3.511   2.040   3.517
 1110SOL    HW2 4230   3.470   1.997   3.669
 1111SOL     OW 4231   4.974   5.487   6.152
 1111SOL    HW1 4232   4.961   5.496   6.054
 1111SOL    HW2 4233   5.065   5.521   6.177
 1112SOL     OW 4234   5.041   1.347   2.053
 1112SOL    HW1 4235   4.962   1.404   2.074
 1112SOL    HW2 4236   5.124   1.402   2.057
 1113SOL     OW 4237   6.040   4.814   1.608
 1113SOL    HW1 4238   5.960   4.779   1.657
 1113SOL    HW2 4239   6.052   4.764   1.523
 1114SOL     OW 4240   3.705   1.645   6.185
 1114SOL    HW1 4241   3.753   1.621   6.269
 1114SOL    HW2 4242   3.607   1.654   6.204
 1115SOL     OW 4243   4.286   3.134   5.937
 1115SOL    HW1 4244   4.227   3.167   6.011
 1115SOL    HW2 4245   4.261   3.040   5.913
 1116SOL     OW 4246   5.094   0.068   6.120
 1116SOL    HW1 4247   5.039   0.006   6.177
 1116SOL    HW2 4248   5.191   0.048   6.134
 1117SOL     OW 4249   2.657   1.965   2.617
 1117SOL    HW1 4250   2.734   1.960   2.681
 1117SOL    HW2 4251   2.616   2.056   2.622
 1118SOL     OW 4252   2.797   4.006   0.453
 1118SOL    HW1 4253   2.824   3.941   0.525
 1118SOL    HW2 4254   2.769   3.955   0.372
 1119SOL     OW 4255   4.120   4.947   1.592
 1119SOL    HW1 4256   4.056   4.985   1.525
 1119SOL    HW2 4257   4.138   4.851   1.572
 1120SOL     OW 4258   6.159   6.329   0.232
 1120SOL    HW1 4259   6.239   6.334   0.292
 1120SOL    HW2 4260   6.112   6.417   0.233
 1121SOL     OW 4261   6.000   4.476   4.810
 1121SOL    HW1 4262   6.068   4.464   4.738
 1121SOL    HW2 4263   5.934   4.401   4.806
 1122SOL     OW 4264   5.875   2.656   0.419
 1122SOL    HW1 4265   5.851   2.576   0.474
 1122SOL    HW2 4266   5.905   2.730   0.479
 1123SOL     OW 4267   5.011   1.712   3.188
 1123SOL    HW1 4268   4.919   1.750   3.180
 1123SOL    HW2 4269   5.004   1.613   3.203
 1124SOL     OW 4270   0.159   3.239   5.209
 1124SOL    HW1 4271   0.105   3.169   5.255
 1124SOL    HW2 4272   0.139   3.329   5.249
 1125SOL     OW 4273   2.563   2.038   3.995
 1125SOL    HW1 4274   2.536   1.953   3.949
 1125SOL    HW2 4275   2.602   2.101   3.927
 1126SOL     OW 4276   5.289   4.701   0.424
 1126SOL    HW1 4277   5.370   4.751   0.454
 1126SOL    HW2 4278   5.235   4.759   0.363
 1127SOL     OW 4279   5.411   5.397   4.737
 1127SOL    HW1 4280   5.415   5.389   4.637
 1127SOL    HW2 4281   5.341   5.335   4.773
 1128SOL     OW 4282   5.819   1.925   5.383
 1128SOL    HW1 4283   5.815   1.972   5.295
 1128SOL    HW2 4284   5.755   1.848   5.384
 1129SOL     OW 4285   1.505   0.501   0.677
 1129SOL    HW1 4286   1.554   0.526   0.593
 1129SOL    HW2 4287   1.510   0.402   0.690
 1130SOL     OW 4288   3.001   5.256   0.874
 1130SOL    HW1 4289   2.943   5.180   0.902
 1130SOL    HW2 4290   3.097   5.226   0.873
 1131SOL     OW 4291   0.885   5.692   5.599
 1131SOL    HW1 4292   0.985   5.686   5.594
 1131SOL    HW2 4293   0.858   5.729   5.688
 1132SOL     OW 4294   5.238   6.799   2.367
 1132SOL    HW1 4295   5.312   6.735   2.385
 1132SOL    HW2 4296   5.150   6.755   2.383
 1133SOL     OW 4297   1.168   0.867   1.108
 1133SOL    HW1 4298   1.192   0.900   1.199
 1133SOL    HW2 4299   1.181   0.940   1.041
 1134SOL     OW 4300   5.468   0.566   2.057
 1134SOL    HW1 4301   5.493   0.594   2.150
 1134SOL    HW2 4302   5.369   0.568   2.046
 1135SOL     OW 4303   2.711   0.196   2.932
 1135SOL    HW1 4304   2.649   0.188   2.854
 1135SOL    HW2 4305   2.697   0.285   2.976
 1136SOL     OW 4306   4.244   4.643   2.878
 1136SOL    HW1 4307   4.182   4.687   2.813
 1136SOL    HW2 4308   4.200   4.639   2.968
 1137SOL     OW 4309   0.915   0.161   6.809
 1137SOL    HW1 4310   0.964   0.123   6.888
 1137SOL    HW2 4311   0.868   0.245   6.836
 1138SOL     OW 4312   6.985   0.661   5.838
 1138SOL    HW1 4313   6.936   0.733   5.789
 1138SOL    HW2 4314   0.037   0.627   5.782
 1139SOL     OW 4315   3.236   5.035   2.436
 1139SOL    HW1 4316   3.304   4.999   2.500
 1139SOL    HW2 4317   3.280   5.099   2.373
 1140SOL     OW 4318   3.298   0.869   1.840
 1140SOL    HW1 4319   3.243   0.786   1.849
 1140SOL    HW2 4320   3.253   0.932   1.777
 1141SOL     OW 4321   0.624   6.497   6.840
 1141SOL    HW1 4322   0.532   6.457   6.836
 1141SOL    HW2 4323   0.673   6.458   6.919
 1142SOL     OW 4324   3.215   6.695   4.592
 1142SOL    HW1 4325   3.237   6.620   4.529
 1142SOL    HW2 4326   3.299   6.726   4.637
 1143SOL     OW 4327   1.574   3.039   3.117
 1143SOL    HW1 4328   1.479   3.051   3.148
 1143SOL    HW2 4329   1.575   2.990   3.030
 1144SOL     OW 4330   6.321   4.754   4.498
 1144SOL    HW1 4331   6.247   4.806   4.541
 1144SOL    HW2 4332   6.295   4.731   4.404
 1145SOL     OW 4333   6.499   3.625   2.010
 1145SOL    HW1 4334   6.598   3.615   2.005
 1145SOL    HW2 4335   6.474   3.717   1.981
 1146SOL     OW 4336   6.931   0.483   2.650
 1146SOL    HW1 4337   6.882   0.570   2.641
 1146SOL    HW2 4338   6.884   0.425   2.716
 1147SOL     OW 4339   3.000   5.439   1.337
 1147SOL    HW1 4340   3.023   5.378   1.412
 1147SOL    HW2 4341   3.015   5.534   1.365
 1148SOL     OW 4342   4.451   5.989   0.541
 1148SOL    HW1 4343   4.450   6.049   0.461
 1148SOL    HW2 4344   4.360   5.988   0.583
 1149SOL     OW 4345   6.492   3.670   2.818
 1149SOL    HW1 4346   6.394   3.685   2.804
 1149SOL    HW2 4347   6.529   3.619   2.740
 1150SOL     OW 4348   2.035   3.514   0.312
 1150SOL    HW1 4349   1.968   3.574   0.355
 1150SOL    HW2 4350   1.987   3.440   0.265
 1151SOL     OW 4351   4.665   4.429   0.100
 1151SOL    HW1 4352   4.710   4.497   0.041
 1151SOL    HW2 4353   4.701   4.338   0.079
 1152SOL     OW 4354   5.522   4.965   6.638
 1152SOL    HW1 4355   5.588   4.903   6.596
 1152SOL    HW2 4356   5.429   4.938   6.611
 1153SOL     OW 4357   1.289   0.320   2.007
 1153SOL    HW1 4358   1.387   0.341   2.019
 1153SOL    HW2 4359   1.279   0.240   1.949
 1154SOL     OW 4360   6.771   4.729   1.338
 1154SOL    HW1 4361   6.687   4.721   1.391
 1154SOL    HW2 4362   6.822   4.809   1.368
 1155SOL     OW 4363   2.424   4.864   6.133
 1155SOL    HW1 4364   2.388   4.884   6.224
 1155SOL    HW2 4365   2.385   4.927   6.066
 1156SOL     OW 4366   4.303   1.440   4.816
 1156SOL    HW1 4367   4.257   1.417   4.902
 1156SOL    HW2 4368   4.347   1.529   4.825
 1157SOL     OW 4369   5.270   2.046   5.979
 1157SOL    HW1 4370   5.197   1.979   5.965
 1157SOL    HW2 4371   5.273   2.110   5.902
 1158SOL     OW 4372   0.352   5.155   5.503
 1158SOL    HW1 4373   0.308   5.082   5.555
 1158SOL    HW2 4374   0.433   5.187   5.552
 1159SOL     OW 4375   6.571   6.622   3.641
 1159SOL    HW1 4376   6.481   6.632   3.683
 1159SOL    HW2 4377   6.630   6.568   3.701
 1160SOL     OW 4378   5.197   4.730   1.009
 1160SOL    HW1 4379   5.224   4.659   0.943
 1160SOL    HW2 4380   5.259   4.807   1.002
 1161SOL     OW 4381   5.921   0.159   5.783
 1161SOL    HW1 4382   5.941   0.257   5.792
 1161SOL    HW2 4383   5.973   0.122   5.705
 1162SOL     OW 4384   3.388   2.314   6.774
 1162SOL    HW1 4385   3.322   2.365   6.719
 1162SOL    HW2 4386   3.396   2.356   6.864
 1163SOL     OW 4387   6.781   4.044   1.614
 1163SOL    HW1 4388   6.830   4.032   1.700
 1163SOL    HW2 4389   6.745   3.955   1.584
 1164SOL     OW 4390   6.064   3.495   4.700
 1164SOL    HW1 4391   6.131   3.425   4.676
 1164SOL    HW2 4392   6.106   3.563   4.760
 1165SOL     OW 4393   3.768   4.896   3.608
 1165SOL    HW1 4394   3.840   4.829   3.625
 1165SOL    HW2 4395   3.712   4.907   3.690
 1166SOL     OW 4396   3.973   0.391   0.124
 1166SOL    HW1 4397   3.892   0.413   0.070
 1166SOL    HW2 4398   4.033   0.331   0.072
 1167SOL     OW 4399   4.634   6.431   6.867
 1167SOL    HW1 4400   4.628   6.332   6.852
 1167SOL    HW2 4401   4.625   6.478   6.780
 1168SOL     OW 4402   4.833   2.640   2.873
 1168SOL    HW1 4403   4.924   2.600   2.861
 1168SOL    HW2 4404   4.793   2.658   2.783
 1169SOL     OW 4405   4.675   2.483   6.132
 1169SOL    HW1 4406   4.636   2.475   6.224
 1169SOL    HW2 4407   4.657   2.399   6.081
 1170SOL     OW 4408   5.131   0.508   3.294
 1170SOL    HW1 4409   5.167   0.434   3.237
 1170SOL    HW2 4410   5.054   0.552   3.247
 1171SOL     OW 4411   2.474   6.165   0.061
 1171SOL    HW1 4412   2.375   6.160   0.072
 1171SOL    HW2 4413   2.509   6.076   0.031
 1172SOL     OW 4414   3.243   4.274   1.696
 1172SOL    HW1 4415   3.147   4.268   1.669
 1172SOL    HW2 4416   3.272   4.370   1.695
 1173SOL     OW 4417   2.782   0.650   0.145
 1173SOL    HW1 4418   2.737   0.707   0.214
 1173SOL    HW2 4419   2.879   0.643   0.167
 1174SOL     OW 4420   2.919   4.857   1.337
 1174SOL    HW1 4421   2.903   4.955   1.325
 1174SOL    HW2 4422   2.912   4.833   1.434
 1175SOL     OW 4423   4.150   4.289   6.897
 1175SOL    HW1 4424   4.200   4.223   6.842
 1175SOL    HW2 4425   4.196   4.377   6.894
 1176SOL     OW 4426   6.051   4.037   6.439
 1176SOL    HW1 4427   6.010   4.086   6.516
 1176SOL    HW2 4428   5.988   3.966   6.408
 1177SOL     OW 4429   0.459   3.310   5.145
 1177SOL    HW1 4430   0.362   3.306   5.170
 1177SOL    HW2 4431   0.500   3.220   5.154
 1178SOL     OW 4432   3.339   4.354   0.948
 1178SOL    HW1 4433   3.271   4.320   0.884
 1178SOL    HW2 4434   3.394   4.425   0.904
 1179SOL     OW 4435   2.297   6.035   0.765
 1179SOL    HW1 4436   2.253   5.954   0.726
 1179SOL    HW2 4437   2.230   6.089   0.814
 1180SOL     OW 4438   2.607   6.155   4.547
 1180SOL    HW1 4439   2.701   6.121   4.556
 1180SOL    HW2 4440   2.546   6.102   4.605
 1181SOL     OW 4441   6.918   4.308   6.360
 1181SOL    HW1 4442   6.902   4.405   6.377
 1181SOL    HW2 4443   6.980   4.298   6.282
 1182SOL     OW 4444   3.545   5.222   2.952
 1182SOL    HW1 4445   3.577   5.131   2.925
 1182SOL    HW2 4446   3.607   5.291   2.915
 1183SOL     OW 4447   3.130   5.174   1.521
 1183SOL    HW1 4448   3.034   5.154   1.501
 1183SOL    HW2 4449   3.189   5.117   1.463
 1184SOL     OW 4450   6.732   1.208   5.246
 1184SOL    HW1 4451   6.780   1.187   5.331
 1184SOL    HW2 4452   6.785   1.275   5.194
 1185SOL     OW 4453   1.334   0.732   0.106
 1185SOL    HW1 4454   1.386   0.723   0.022
 1185SOL    HW2 4455   1.291   0.823   0.110
 1186SOL     OW 4456   5.325   6.132   4.959
 1186SOL    HW1 4457   5.248   6.075   4.989
 1186SOL    HW2 4458   5.318   6.146   4.860
 1187SOL     OW 4459   5.515   6.991   5.268
 1187SOL    HW1 4460   5.538   6.899   5.301
 1187SOL    HW2 4461   5.482   0.024   5.345
 1188SOL     OW 4462   2.702   5.468   6.575
 1188SOL    HW1 4463   2.781   5.440   6.520
 1188SOL    HW2 4464   2.733   5.525   6.650
 1189SOL     OW 4465   6.309   1.133   1.682
 1189SOL    HW1 4466   6.405   1.143   1.709
 1189SOL    HW2 4467   6.290   1.038   1.658
 1190SOL     OW 4468   2.657   5.468   2.661
 1190SOL    HW1 4469   2.618   5.400   2.598
 1190SOL    HW2 4470   2.642   5.438   2.755
 1191SOL     OW 4471   3.392   6.286   4.114
 1191SOL    HW1 4472   3.485   6.320   4.129
 1191SOL    HW2 4473   3.384   6.247   4.023
 1192SOL     OW 4474   5.482   5.611   3.752
 1192SOL    HW1 4475   5.508   5.658   3.837
 1192SOL    HW2 4476   5.469   5.678   3.680
 1193SOL     OW 4477   6.883   1.647   5.496
 1193SOL    HW1 4478   6.953   1.577   5.509
 1193SOL    HW2 4479   6.810   1.635   5.564
 1194SOL     OW 4480   6.893   0.952   1.736
 1194SOL    HW1 4481   6.843   1.036   1.758
 1194SOL    HW2 4482   6.929   0.911   1.820
 1195SOL     OW 4483   0.466   3.410   0.444
 1195SOL    HW1 4484   0.480   3.485   0.509
 1195SOL    HW2 4485   0.447   3.326   0.494
 1196SOL     OW 4486   6.569   4.580   3.555
 1196SOL    HW1 4487   6.565   4.680   3.563
 1196SOL    HW2 4488   6.630   4.556   3.479
 1197SOL     OW 4489   4.536   6.253   3.970
 1197SOL    HW1 4490   4.539   6.274   3.873
 1197SOL    HW2 4491   4.449   6.208   3.992
 1198SOL     OW 4492   1.527   3.687   1.851
 1198SOL    HW1 4493   1.437   3.697   1.895
 1198SOL    HW2 4494   1.514   3.655   1.757
 1199SOL     OW 4495   3.279   4.091   3.092
 1199SOL    HW1 4496   3.355   4.135   3.043
 1199SOL    HW2 4497   3.205   4.072   3.028
 1200SOL     OW 4498   3.316   4.119   4.575
 1200SOL    HW1 4499   3.347   4.120   4.669
 1200SOL    HW2 4500   3.218   4.098   4.573
 1201SOL     OW 4501   6.973   1.205   4.399
 1201SOL    HW1 4502   0.033   1.241   4.444
 1201SOL    HW2 4503   6.993   1.189   4.302
 1202SOL     OW 4504   0.742   6.000   5.353
 1202SOL    HW1 4505   0.781   6.036   5.438
 1202SOL    HW2 4506   0.793   6.035   5.275
 1203SOL     OW 4507   0.845   5.565   0.725
 1203SOL    HW1 4508   0.931   5.531   0.689
 1203SOL    HW2 4509   0.815   5.644   0.672
 1204SOL     OW 4510   4.377   1.595   1.440
 1204SOL    HW1 4511   4.364   1.534   1.518
 1204SOL    HW2 4512   4.314   1.570   1.367
 1205SOL     OW 4513   3.602   3.605   0.506
 1205SOL    HW1 4514   3.599   3.610   0.606
 1205SOL    HW2 4515   3.671   3.539   0.477
 1206SOL     OW 4516   1.795   2.845   5.180
 1206SOL    HW1 4517   1.713   2.797   5.213
 1206SOL    HW2 4518   1.809   2.824   5.084
 1207SOL     OW 4519   0.898   0.288   1.007
 1207SOL    HW1 4520   0.920   0.255   0.915
 1207SOL    HW2 4521   0.801   0.271   1.025
 1208SOL     OW 4522   3.226   3.301   1.591
 1208SOL    HW1 4523   3.234   3.228   1.660
 1208SOL    HW2 4524   3.267   3.385   1.627
 1209SOL     OW 4525   5.507   0.690   4.182
 1209SOL    HW1 4526   5.599   0.719   4.155
 1209SOL    HW2 4527   5.513   0.638   4.267
 1210SOL     OW 4528   3.835   6.513   3.586
 1210SOL    HW1 4529   3.806   6.514   3.682
 1210SOL    HW2 4530   3.898   6.588   3.570
 1211SOL     OW 4531   1.338   2.870   3.055
 1211SOL    HW1 4532   1.254   2.883   3.003
 1211SOL    HW2 4533   1.413   2.849   2.993
 1212SOL     OW 4534   6.444   0.484   5.867
 1212SOL    HW1 4535   6.492   0.475   5.954
 1212SOL    HW2 4536   6.361   0.537   5.879
 1213SOL     OW 4537   5.925   2.632   1.591
 1213SOL    HW1 4538   5.873   2.587   1.663
 1213SOL    HW2 4539   5.967   2.715   1.627
 1214SOL     OW 4540   1.061   2.658   0.271
 1214SOL    HW1 4541   1.098   2.667   0.179
 1214SOL    HW2 4542   1.071   2.563   0.302
 1215SOL     OW 4543   1.148   4.795   3.118
 1215SOL    HW1 4544   1.191   4.800   3.208
 1215SOL    HW2 4545   1.061   4.747   3.124
 1216SOL     OW 4546   5.258   1.567   0.437
 1216SOL    HW1 4547   5.190   1.494   0.445
 1216SOL    HW2 4548   5.224   1.650   0.482
 1217SOL     OW 4549   3.009   4.900   0.763
 1217SOL    HW1 4550   2.961   4.985   0.785
 1217SOL    HW2 4551   2.951   4.822   0.786
 1218SOL     OW 4552   1.601   3.204   5.021
 1218SOL    HW1 4553   1.566   3.113   5.042
 1218SOL    HW2 4554   1.634   3.247   5.105
 1219SOL     OW 4555   6.050   5.773   1.903
 1219SOL    HW1 4556   6.049   5.868   1.933
 1219SOL    HW2 4557   6.140   5.750   1.867
 1220SOL     OW 4558   0.730   4.412   2.375
 1220SOL    HW1 4559   0.732   4.337   2.441
 1220SOL    HW2 4560   0.661   4.392   2.305
 1221SOL     OW 4561   4.357   3.119   6.381
 1221SOL    HW1 4562   4.366   3.203   6.433
 1221SOL    HW2 4563   4.441   3.104   6.328
 1222SOL     OW 4564   7.012   1.005   6.639
 1222SOL    HW1 4565   6.935   1.010   6.576
 1222SOL    HW2 4566   0.070   0.970   6.591
 1223SOL     OW 4567   3.966   1.609   0.567
 1223SOL    HW1 4568   4.003   1.571   0.482
 1223SOL    HW2 4569   3.963   1.709   0.560
 1224SOL     OW 4570   3.146   6.541   6.981
 1224SOL    HW1 4571   3.117   6.530   6.886
 1224SOL    HW2 4572   3.188   6.456   7.013
 1225SOL     OW 4573   3.252   2.711   6.694
 1225SOL    HW1 4574   3.239   2.649   6.616
 1225SOL    HW2 4575   3.208   2.799   6.674
 1226SOL     OW 4576   3.214   6.739   1.358
 1226SOL    HW1 4577   3.247   6.709   1.447
 1226SOL    HW2 4578   3.130   6.690   1.335
 1227SOL     OW 4579   4.861   4.574   5.916
 1227SOL    HW1 4580   4.920   4.493   5.909
 1227SOL    HW2 4581   4.866   4.611   6.008
 1228SOL     OW 4582   2.592   2.309   6.124
 1228SOL    HW1 4583   2.633   2.285   6.212
 1228SOL    HW2 4584   2.658   2.363   6.070
 1229SOL     OW 4585   3.038   5.556   6.631
 1229SOL    HW1 4586   2.985   5.509   6.560
 1229SOL    HW2 4587   3.129   5.578   6.597
 1230SOL     OW 4588   5.002   6.459   2.164
 1230SOL    HW1 4589   5.058   6.378   2.147
 1230SOL    HW2 4590   4.916   6.451   2.113
 1231SOL     OW 4591   1.588   2.027   5.488
 1231SOL    HW1 4592   1.618   2.112   5.530
 1231SOL    HW2 4593   1.646   1.952   5.520
 1232SOL     OW 4594   7.022   1.759   5.294
 1232SOL    HW1 4595   6.958   1.751   5.370
 1232SOL    HW2 4596   0.084   1.709   5.316
 1233SOL     OW 4597   0.833   5.394   4.932
 1233SOL    HW1 4598   0.898   5.320   4.947
 1233SOL    HW2 4599   0.767   5.397   5.007
 1234SOL     OW 4600   5.891   2.902   5.776
 1234SOL    HW1 4601   5.903   2.807   5.749
 1234SOL    HW2 4602   5.980   2.949   5.774
 1235SOL     OW 4603   5.898   6.122   2.533
 1235SOL    HW1 4604   5.976   6.132   2.596
 1235SOL    HW2 4605   5.907   6.037   2.482
 1236SOL     OW 4606   4.648   0.702   0.671
 1236SOL    HW1 4607   4.701   0.648   0.605
 1236SOL    HW2 4608   4.551   0.699   0.646
 1237SOL     OW 4609   1.837   4.607   6.116
 1237SOL    HW1 4610   1.763   4.670   6.091
 1237SOL    HW2 4611   1.832   4.525   6.059
 1238SOL     OW 4612   1.099   0.917   6.682
 1238SOL    HW1 4613   1.025   0.899   6.617
 1238SOL    HW2 4614   1.151   0.834   6.698
 1239SOL     OW 4615   6.387   6.549   6.673
 1239SOL    HW1 4616   6.466   6.558   6.734
 1239SOL    HW2 4617   6.307   6.521   6.726
 1240SOL     OW 4618   5.472   6.094   0.766
 1240SOL    HW1 4619   5.404   6.168   0.762
 1240SOL    HW2 4620   5.475   6.057   0.858
 1241SOL     OW 4621   5.202   4.065   4.408
 1241SOL    HW1 4622   5.129   4.050   4.476
 1241SOL    HW2 4623   5.289   4.075   4.455
 1242SOL     OW 4624   0.710   3.863   1.393
 1242SOL    HW1 4625   0.750   3.872   1.301
 1242SOL    HW2 4626   0.715   3.767   1.422
 1243SOL     OW 4627   0.669   0.574   5.205
 1243SOL    HW1 4628   0.683   0.498   5.141
 1243SOL    HW2 4629   0.638   0.538   5.293
 1244SOL     OW 4630   6.161   6.667   4.150
 1244SOL    HW1 4631   6.131   6.573   4.134
 1244SOL    HW2 4632   6.090   6.730   4.118
 1245SOL     OW 4633   6.046   4.296   0.873
 1245SOL    HW1 4634   6.114   4.317   0.803
 1245SOL    HW2 4635   6.028   4.378   0.928
 1246SOL     OW 4636   2.499   0.358   1.060
 1246SOL    HW1 4637   2.559   0.397   0.991
 1246SOL    HW2 4638   2.466   0.269   1.029
 1247SOL     OW 4639   0.221   6.550   6.530
 1247SOL    HW1 4640   0.143   6.610   6.513
 1247SOL    HW2 4641   0.281   6.549   6.450
 1248SOL     OW 4642   2.262   0.360   5.145
 1248SOL    HW1 4643   2.345   0.307   5.129
 1248SOL    HW2 4644   2.185   0.299   5.162
 1249SOL     OW 4645   6.605   2.271   2.263
 1249SOL    HW1 4646   6.529   2.331   2.286
 1249SOL    HW2 4647   6.604   2.191   2.324
 1250SOL     OW 4648   6.090   5.595   3.689
 1250SOL    HW1 4649   6.083   5.676   3.747
 1250SOL    HW2 4650   6.057   5.617   3.597
 1251SOL     OW 4651   2.700   0.699   3.549
 1251SOL    HW1 4652   2.722   0.602   3.551
 1251SOL    HW2 4653   2.762   0.748   3.611
 1252SOL     OW 4654   4.692   3.386   5.912
 1252SOL    HW1 4655   4.667   3.299   5.956
 1252SOL    HW2 4656   4.792   3.397   5.916
 1253SOL     OW 4657   3.074   5.909   2.069
 1253SOL    HW1 4658   3.000   5.971   2.093
 1253SOL    HW2 4659   3.037   5.825   2.030
 1254SOL     OW 4660   1.001   2.823   2.617
 1254SOL    HW1 4661   0.937   2.878   2.669
 1254SOL    HW2 4662   0.984   2.834   2.519
 1255SOL     OW 4663   5.684   1.291   6.499
 1255SOL    HW1 4664   5.626   1.327   6.425
 1255SOL    HW2 4665   5.724   1.367   6.550
 1256SOL     OW 4666   6.675   6.251   3.219
 1256SOL    HW1 4667   6.721   6.314   3.156
 1256SOL    HW2 4668   6.739   6.180   3.248
 1257SOL     OW 4669   6.718   5.945   4.975
 1257SOL    HW1 4670   6.701   5.916   4.880
 1257SOL    HW2 4671   6.639   5.919   5.031
 1258SOL     OW 4672   1.445   4.960   3.292
 1258SOL    HW1 4673   1.520   5.025   3.293
 1258SOL    HW2 4674   1.358   5.009   3.304
 1259SOL     OW 4675   3.727   0.851   4.047
 1259SOL    HW1 4676   3.718   0.783   3.974
 1259SOL    HW2 4677   3.661   0.831   4.119
 1260SOL     OW 4678   2.393   2.262   0.165
 1260SOL    HW1 4679   2.452   2.259   0.084
 1260SOL    HW2 4680   2.416   2.186   0.226
 1261SOL     OW 4681   0.251   5.994   6.639
 1261SOL    HW1 4682   0.266   6.086   6.604
 1261SOL    HW2 4683   0.302   5.981   6.724
 1262SOL     OW 4684   5.564   4.339   1.276
 1262SOL    HW1 4685   5.499   4.304   1.344
 1262SOL    HW2 4686   5.569   4.275   1.199
 1263SOL     OW 4687   6.877   2.438   1.917
 1263SOL    HW1 4688   6.874   2.442   2.017
 1263SOL    HW2 4689   6.791   2.475   1.880
 1264SOL     OW 4690   0.278   4.130   1.526
 1264SOL    HW1 4691   0.234   4.103   1.612
 1264SOL    HW2 4692   0.354   4.068   1.506
 1265SOL     OW 4693   5.332   5.021   4.198
 1265SOL    HW1 4694   5.239   5.051   4.178
 1265SOL    HW2 4695   5.330   4.933   4.245
 1266SOL     OW 4696   0.220   1.575   4.184
 1266SOL    HW1 4697   0.295   1.631   4.149
 1266SOL    HW2 4698   0.238   1.550   4.279
 1267SOL     OW 4699   4.653   6.913   1.106
 1267SOL    HW1 4700   4.590   6.839   1.085
 1267SOL    HW2 4701   4.719   6.922   1.031
 1268SOL     OW 4702   2.668   2.520   0.228
 1268SOL    HW1 4703   2.708   2.459   0.159
 1268SOL    HW2 4704   2.572   2.537   0.205
 1269SOL     OW 4705   5.847   4.902   5.199
 1269SOL    HW1 4706   5.810   4.891   5.106
 1269SOL    HW2 4707   5.812   4.988   5.238
 1270SOL     OW 4708   1.157   3.143   3.431
 1270SOL    HW1 4709   1.128   3.143   3.526
 1270SOL    HW2 4710   1.085   3.182   3.373
 1271SOL     OW 4711   2.660   2.242   3.829
 1271SOL    HW1 4712   2.738   2.231   3.766
 1271SOL    HW2 4713   2.616   2.330   3.812
 1272SOL     OW 4714   5.612   4.750   0.087
 1272SOL    HW1 4715   5.660   4.766   0.001
 1272SOL    HW2 4716   5.544   4.677   0.074
 1273SOL     OW 4717   0.417   3.028   0.124
 1273SOL    HW1 4718   0.495   2.975   0.091
 1273SOL    HW2 4719   0.363   2.972   0.187
 1274SOL     OW 4720   6.747   4.755   1.723
 1274SOL    HW1 4721   6.842   4.753   1.691
 1274SOL    HW2 4722   6.728   4.845   1.762
 1275SOL     OW 4723   3.678   1.691   4.315
 1275SOL    HW1 4724   3.586   1.728   4.323
 1275SOL    HW2 4725   3.693   1.622   4.386
 1276SOL     OW 4726   6.723   6.070   5.274
 1276SOL    HW1 4727   6.797   6.116   5.226
 1276SOL    HW2 4728   6.635   6.099   5.235
 1277SOL     OW 4729   0.938   5.625   6.059
 1277SOL    HW1 4730   0.990   5.706   6.083
 1277SOL    HW2 4731   0.985   5.543   6.093
 1278SOL     OW 4732   0.814   6.936   4.920
 1278SOL    HW1 4733   0.766   6.919   4.834
 1278SOL    HW2 4734   0.891   6.873   4.928
 1279SOL     OW 4735   1.770   5.167   0.560
 1279SOL    HW1 4736   1.724   5.091   0.514
 1279SOL    HW2 4737   1.850   5.195   0.507
 1280SOL     OW 4738   3.848   6.261   4.287
 1280SOL    HW1 4739   3.779   6.306   4.231
 1280SOL    HW2 4740   3.870   6.319   4.366
 1281SOL     OW 4741   1.992   6.045   3.349
 1281SOL    HW1 4742   2.035   6.096   3.424
 1281SOL    HW2 4743   1.900   6.016   3.377
 1282SOL     OW 4744   6.584   2.578   7.001
 1282SOL    HW1 4745   6.594   2.669   0.018
 1282SOL    HW2 4746   6.674   2.538   6.986
 1283SOL     OW 4747   0.398   3.435   5.855
 1283SOL    HW1 4748   0.445   3.511   5.900
 1283SOL    HW2 4749   0.420   3.435   5.757
 1284SOL     OW 4750   4.969   2.627   1.270
 1284SOL    HW1 4751   4.986   2.725   1.266
 1284SOL    HW2 4752   4.996   2.592   1.359
 1285SOL     OW 4753   4.290   2.249   6.071
 1285SOL    HW1 4754   4.260   2.253   5.976
 1285SOL    HW2 4755   4.388   2.233   6.074
 1286SOL     OW 4756   4.459   3.674   1.550
 1286SOL    HW1 4757   4.434   3.598   1.611
 1286SOL    HW2 4758   4.537   3.723   1.589
 1287SOL     OW 4759   6.019   5.417   5.255
 1287SOL    HW1 4760   6.066   5.417   5.343
 1287SOL    HW2 4761   6.083   5.391   5.183
 1288SOL     OW 4762   3.864   3.235   6.431
 1288SOL    HW1 4763   3.773   3.210   6.464
 1288SOL    HW2 4764   3.861   3.250   6.332
 1289SOL     OW 4765   6.448   6.920   1.324
 1289SOL    HW1 4766   6.376   6.855   1.301
 1289SOL    HW2 4767   6.521   6.873   1.374
 1290SOL     OW 4768   0.956   6.766   0.023
 1290SOL    HW1 4769   0.937   6.712   6.963
 1290SOL    HW2 4770   0.875   6.818   0.049
 1291SOL     OW 4771   0.188   4.023   4.563
 1291SOL    HW1 4772   0.156   4.091   4.498
 1291SOL    HW2 4773   0.212   3.939   4.514
 1292SOL     OW 4774   0.691   6.007   2.548
 1292SOL    HW1 4775   0.776   6.053   2.520
 1292SOL    HW2 4776   0.626   6.009   2.473
 1293SOL     OW 4777   0.985   1.956   6.744
 1293SOL    HW1 4778   1.025   1.893   6.678
 1293SOL    HW2 4779   1.055   1.987   6.808
 1294SOL     OW 4780   0.788   3.701   6.349
 1294SOL    HW1 4781   0.799   3.616   6.402
 1294SOL    HW2 4782   0.734   3.766   6.402
 1295SOL     OW 4783   0.453   3.408   1.812
 1295SOL    HW1 4784   0.492   3.351   1.739
 1295SOL    HW2 4785   0.418   3.349   1.885
 1296SOL     OW 4786   4.235   6.496   5.851
 1296SOL    HW1 4787   4.233   6.590   5.817
 1296SOL    HW2 4788   4.142   6.466   5.872
 1297SOL     OW 4789   0.124   0.501   1.281
 1297SOL    HW1 4790   0.185   0.545   1.214
 1297SOL    HW2 4791   0.146   0.404   1.287
 1298SOL     OW 4792   5.596   5.129   3.300
 1298SOL    HW1 4793   5.662   5.118   3.374
 1298SOL    HW2 4794   5.530   5.054   3.304
 1299SOL     OW 4795   1.769   3.387   3.159
 1299SOL    HW1 4796   1.703   3.454   3.193
 1299SOL    HW2 4797   1.729   3.338   3.080
 1300SOL     OW 4798   2.253   3.191   0.990
 1300SOL    HW1 4799   2.187   3.125   1.024
 1300SOL    HW2 4800   2.204   3.269   0.951
 1301SOL     OW 4801   0.129   0.248   0.969
 1301SOL    HW1 4802   0.075   0.284   0.893
 1301SOL    HW2 4803   0.179   0.167   0.939
 1302SOL     OW 4804   4.174   0.673   5.845
 1302SOL    HW1 4805   4.207   0.671   5.939
 1302SOL    HW2 4806   4.137   0.583   5.820
 1303SOL     OW 4807   3.900   2.278   1.491
 1303SOL    HW1 4808   3.890   2.353   1.556
 1303SOL    HW2 4809   3.810   2.246   1.462
 1304SOL     OW 4810   2.231   0.649   6.950
 1304SOL    HW1 4811   2.297   0.583   6.986
 1304SOL    HW2 4812   2.217   0.632   6.852
 1305SOL     OW 4813   5.545   3.788   0.950
 1305SOL    HW1 4814   5.534   3.694   0.983
 1305SOL    HW2 4815   5.558   3.786   0.851
 1306SOL     OW 4816   1.183   5.468   3.848
 1306SOL    HW1 4817   1.196   5.564   3.873
 1306SOL    HW2 4818   1.119   5.462   3.771
 1307SOL     OW 4819   1.712   4.144   4.095
 1307SOL    HW1 4820   1.762   4.215   4.046
 1307SOL    HW2 4821   1.620   4.177   4.116
 1308SOL     OW 4822   6.534   6.981   5.425
 1308SOL    HW1 4823   6.456   7.016   5.478
 1308SOL    HW2 4824   6.600   0.033   5.411
 1309SOL     OW 4825   5.465   4.625   5.429
 1309SOL    HW1 4826   5.388   4.572   5.393
 1309SOL    HW2 4827   5.445   4.722   5.420
 1310SOL     OW 4828   6.387   4.334   4.115
 1310SOL    HW1 4829   6.442   4.285   4.048
 1310SOL    HW2 4830   6.382   4.430   4.090
 1311SOL     OW 4831   0.439   5.947   5.329
 1311SOL    HW1 4832   0.539   5.950   5.332
 1311SOL    HW2 4833   0.402   5.997   5.407
 1312SOL     OW 4834   0.859   6.619   6.822
 1312SOL    HW1 4835   0.905   6.586   6.740
 1312SOL    HW2 4836   0.763   6.590   6.821
 1313SOL     OW 4837   0.665   4.797   2.882
 1313SOL    HW1 4838   0.627   4.857   2.811
 1313SOL    HW2 4839   0.764   4.807   2.884
 1314SOL     OW 4840   4.347   1.261   5.691
 1314SOL    HW1 4841   4.339   1.339   5.752
 1314SOL    HW2 4842   4.321   1.288   5.598
 1315SOL     OW 4843   0.611   1.478   2.380
 1315SOL    HW1 4844   0.569   1.422   2.308
 1315SOL    HW2 4845   0.691   1.525   2.342
 1316SOL     OW 4846   2.908   6.415   5.715
 1316SOL    HW1 4847   2.976   6.348   5.745
 1316SOL    HW2 4848   2.925   6.502   5.761
 1317SOL     OW 4849   1.913   4.317   5.872
 1317SOL    HW1 4850   1.868   4.272   5.950
 1317SOL    HW2 4851   2.008   4.287   5.867
 1318SOL     OW 4852   0.889   1.790   0.796
 1318SOL    HW1 4853   0.954   1.865   0.790
 1318SOL    HW2 4854   0.797   1.825   0.814
 1319SOL     OW 4855   6.440   6.519   0.105
 1319SOL    HW1 4856   6.419   6.454   0.032
 1319SOL    HW2 4857   6.518   6.576   0.077
 1320SOL     OW 4858   4.000   4.589   6.889
 1320SOL    HW1 4859   3.961   4.516   6.945
 1320SOL    HW2 4860   3.956   4.589   6.799
 1321SOL     OW 4861   5.697   2.013   6.345
 1321SOL    HW1 4862   5.643   1.974   6.419
 1321SOL    HW2 4863   5.794   2.004   6.367
 1322SOL     OW 4864   3.697   1.092   3.293
 1322SOL    HW1 4865   3.760   1.151   3.241
 1322SOL    HW2 4866   3.677   1.135   3.381
 1323SOL     OW 4867   4.376   0.338   6.199
 1323SOL    HW1 4868   4.403   0.294   6.113
 1323SOL    HW2 4869   4.420   0.427   6.206
 1324SOL     OW 4870   0.572   3.854   6.770
 1324SOL    HW1 4871   0.476   3.884   6.770
 1324SOL    HW2 4872   0.618   3.892   6.851
 1325SOL     OW 4873   2.434   0.118   3.449
 1325SOL    HW1 4874   2.369   0.101   3.523
 1325SOL    HW2 4875   2.524   0.082   3.474
 1326SOL     OW 4876   4.761   3.823   5.516
 1326SOL    HW1 4877   4.675   3.844   5.563
 1326SOL    HW2 4878   4.756   3.856   5.422
 1327SOL     OW 4879   0.772   5.976   1.613
 1327SOL    HW1 4880   0.835   6.039   1.660
 1327SOL    HW2 4881   0.821   5.930   1.539
 1328SOL     OW 4882   2.135   3.113   1.559
 1328SOL    HW1 4883   2.052   3.123   1.615
 1328SOL    HW2 4884   2.137   3.184   1.489
 1329SOL     OW 4885   0.823   2.771   1.917
 1329SOL    HW1 4886   0.771   2.749   1.835
 1329SOL    HW2 4887   0.771   2.745   1.998
 1330SOL     OW 4888   0.763   0.931   2.176
 1330SOL    HW1 4889   0.825   0.936   2.098
 1330SOL    HW2 4890   0.710   1.016   2.181
 1331SOL     OW 4891   4.892   3.151   2.673
 1331SOL    HW1 4892   4.828   3.089   2.719
 1331SOL    HW2 4893   4.944   3.100   2.605
 1332SOL     OW 4894   2.750   0.145   6.977
 1332SOL    HW1 4895   2.663   0.182   7.011
 1332SOL    HW2 4896   2.785   0.206   6.906
 1333SOL     OW 4897   2.990   3.256   4.078
 1333SOL    HW1 4898   2.921   3.308   4.027
 1333SOL    HW2 4899   2.992   3.288   4.173
 1334SOL     OW 4900   6.032   1.774   3.952
 1334SOL    HW1 4901   6.114   1.779   3.895
 1334SOL    HW2 4902   5.977   1.856   3.937
 1335SOL     OW 4903   2.189   1.818   2.360
 1335SOL    HW1 4904   2.123   1.816   2.435
 1335SOL    HW2 4905   2.142   1.836   2.274
 1336SOL     OW 4906   2.243   2.539   5.152
 1336SOL    HW1 4907   2.169   2.575   5.209
 1336SOL    HW2 4908   2.316   2.607   5.146
 1337SOL     OW 4909   1.545   2.171   4.495
 1337SOL    HW1 4910   1.510   2.078   4.482
 1337SOL    HW2 4911   1.533   2.223   4.411
 1338SOL     OW 4912   5.534   2.142   4.767
 1338SOL    HW1 4913   5.579   2.074   4.710
 1338SOL    HW2 4914   5.600   2.213   4.794
 1339SOL     OW 4915   6.378   2.285   6.548
 1339SOL    HW1 4916   6.332   2.197   6.536
 1339SOL    HW2 4917   6.337   2.352   6.487
 1340SOL     OW 4918   6.221   1.906   2.759
 1340SOL    HW1 4919   6.166   1.825   2.743
 1340SOL    HW2 4920   6.253   1.943   2.671
 1341SOL     OW 4921   5.219   6.652   6.569
 1341SOL    HW1 4922   5.223   6.669   6.668
 1341SOL    HW2 4923   5.197   6.738   6.522
 1342SOL     OW 4924   3.121   6.001   5.907
 1342SOL    HW1 4925   3.103   6.053   5.990
 1342SOL    HW2 4926   3.180   5.922   5.928
 1343SOL     OW 4927   5.318   5.377   2.336
 1343SOL    HW1 4928   5.310   5.377   2.236
 1343SOL    HW2 4929   5.290   5.466   2.372
 1344SOL     OW 4930   6.916   5.855   4.659
 1344SOL    HW1 4931   6.975   5.936   4.655
 1344SOL    HW2 4932   6.946   5.789   4.590
 1345SOL     OW 4933   1.222   6.889   3.191
 1345SOL    HW1 4934   1.251   6.797   3.219
 1345SOL    HW2 4935   1.301   6.942   3.163
 1346SOL     OW 4936   0.996   5.417   4.575
 1346SOL    HW1 4937   0.909   5.428   4.528
 1346SOL    HW2 4938   1.014   5.320   4.591
 1347SOL     OW 4939   0.158   6.307   5.407
 1347SOL    HW1 4940   0.105   6.296   5.323
 1347SOL    HW2 4941   0.180   6.403   5.420
 1348SOL     OW 4942   5.479   5.874   3.471
 1348SOL    HW1 4943   5.405   5.909   3.414
 1348SOL    HW2 4944   5.479   5.774   3.468
 1349SOL     OW 4945   4.659   2.588   5.412
 1349SOL    HW1 4946   4.728   2.656   5.436
 1349SOL    HW2 4947   4.697   2.496   5.420
 1350SOL     OW 4948   5.615   5.197   5.323
 1350SOL    HW1 4949   5.578   5.121   5.377
 1350SOL    HW2 4950   5.542   5.239   5.270
 1351SOL     OW 4951   5.638   2.078   2.695
 1351SOL    HW1 4952   5.624   2.091   2.597
 1351SOL    HW2 4953   5.657   1.982   2.714
 1352SOL     OW 4954   0.031   6.274   2.432
 1352SOL    HW1 4955   6.983   6.331   2.389
 1352SOL    HW2 4956   7.010   6.213   2.498
 1353SOL     OW 4957   6.835   2.079   0.482
 1353SOL    HW1 4958   6.736   2.086   0.475
 1353SOL    HW2 4959   6.860   1.991   0.522
 1354SOL     OW 4960   1.098   4.373   1.929
 1354SOL    HW1 4961   1.167   4.327   1.874
 1354SOL    HW2 4962   1.033   4.420   1.869
 1355SOL     OW 4963   6.044   2.818   4.125
 1355SOL    HW1 4964   6.086   2.752   4.063
 1355SOL    HW2 4965   5.991   2.769   4.195
 1356SOL     OW 4966   3.424   3.191   2.400
 1356SOL    HW1 4967   3.432   3.280   2.445
 1356SOL    HW2 4968   3.501   3.133   2.428
 1357SOL     OW 4969   0.587   3.553   6.036
 1357SOL    HW1 4970   0.625   3.638   6.073
 1357SOL    HW2 4971   0.661   3.486   6.026
 1358SOL     OW 4972   4.149   6.943   6.354
 1358SOL    HW1 4973   4.114   6.966   6.263
 1358SOL    HW2 4974   4.239   6.984   6.367
 1359SOL     OW 4975   6.114   5.307   2.165
 1359SOL    HW1 4976   6.041   5.247   2.132
 1359SOL    HW2 4977   6.200   5.256   2.169
 1360SOL     OW 4978   3.041   3.070   6.917
 1360SOL    HW1 4979   2.974   3.132   6.957
 1360SOL    HW2 4980   3.120   3.061   6.978
 1361SOL     OW 4981   6.984   5.472   5.595
 1361SOL    HW1 4982   6.925   5.552   5.586
 1361SOL    HW2 4983   0.048   5.498   5.637
 1362SOL     OW 4984   3.345   4.179   3.535
 1362SOL    HW1 4985   3.324   4.276   3.532
 1362SOL    HW2 4986   3.303   4.132   3.457
 1363SOL     OW 4987   0.277   5.456   2.978
 1363SOL    HW1 4988   0.357   5.459   2.918
 1363SOL    HW2 4989   0.207   5.398   2.936
 1364SOL     OW 4990   6.531   3.553   1.142
 1364SOL    HW1 4991   6.534   3.647   1.175
 1364SOL    HW2 4992   6.488   3.495   1.211
 1365SOL     OW 4993   0.359   3.558   6.491
 1365SOL    HW1 4994   0.293   3.501   6.440
 1365SOL    HW2 4995   0.314   3.643   6.519
 1366SOL     OW 4996   0.863   4.991   6.963
 1366SOL    HW1 4997   0.893   5.009   6.869
 1366SOL    HW2 4998   0.795   4.918   6.962
 1367SOL     OW 4999   1.923   0.311   3.443
 1367SOL    HW1 5000   1.952   0.263   3.360
 1367SOL    HW2 5001   1.921   0.409   3.427
 1368SOL     OW 5002   5.565   0.501   3.112
 1368SOL    HW1 5003   5.505   0.581   3.122
 1368SOL    HW2 5004   5.514   0.428   3.066
 1369SOL     OW 5005   2.528   6.741   1.299
 1369SOL    HW1 5006   2.568   6.651   1.282
 1369SOL    HW2 5007   2.598   6.811   1.293
 1370SOL     OW 5008   3.754   1.023   0.931
 1370SOL    HW1 5009   3.687   0.996   0.862
 1370SOL    HW2 5010   3.742   1.119   0.954
 1371SOL     OW 5011   5.889   1.948   4.508
 1371SOL    HW1 5012   5.927   2.020   4.450
 1371SOL    HW2 5013   5.856   1.873   4.450
 1372SOL     OW 5014   1.414   2.989   0.246
 1372SOL    HW1 5015   1.349   3.029   0.180
 1372SOL    HW2 5016   1.364   2.952   0.324
 1373SOL     OW 5017   5.383   3.066   0.562
 1373SOL    HW1 5018   5.426   3.152   0.534
 1373SOL    HW2 5019   5.430   2.990   0.518
 1374SOL     OW 5020   5.295   1.749   6.966
 1374SOL    HW1 5021   5.280   1.674   0.009
 1374SOL    HW2 5022   5.211   1.764   6.913
 1375SOL     OW 5023   0.444   4.070   6.201
 1375SOL    HW1 5024   0.493   4.111   6.123
 1375SOL    HW2 5025   0.475   3.976   6.213
 1376SOL     OW 5026   4.595   4.498   4.473
 1376SOL    HW1 5027   4.625   4.499   4.377
 1376SOL    HW2 5028   4.665   4.544   4.529
 1377SOL     OW 5029   6.537   4.076   6.068
 1377SOL    HW1 5030   6.565   4.028   5.985
 1377SOL    HW2 5031   6.480   4.155   6.044
 1378SOL     OW 5032   6.086   1.208   4.575
 1378SOL    HW1 5033   6.176   1.241   4.548
 1378SOL    HW2 5034   6.020   1.283   4.568
 1379SOL     OW 5035   3.155   6.555   2.500
 1379SOL    HW1 5036   3.111   6.636   2.539
 1379SOL    HW2 5037   3.254   6.563   2.509
 1380SOL     OW 5038   0.273   0.287   2.791
 1380SOL    HW1 5039   0.322   0.352   2.849
 1380SOL    HW2 5040   0.291   0.308   2.695
 1381SOL     OW 5041   6.075   2.406   0.392
 1381SOL    HW1 5042   5.981   2.382   0.415
 1381SOL    HW2 5043   6.138   2.359   0.454
 1382SOL     OW 5044   4.169   4.697   0.659
 1382SOL    HW1 5045   4.170   4.627   0.589
 1382SOL    HW2 5046   4.161   4.654   0.749
 1383SOL     OW 5047   1.244   0.241   1.581
 1383SOL    HW1 5048   1.333   0.230   1.626
 1383SOL    HW2 5049   1.184   0.297   1.638
 1384SOL     OW 5050   4.048   0.347   2.090
 1384SOL    HW1 5051   4.137   0.327   2.049
 1384SOL    HW2 5052   4.026   0.275   2.156
 1385SOL     OW 5053   1.007   3.633   3.657
 1385SOL    HW1 5054   1.025   3.591   3.746
 1385SOL    HW2 5055   0.910   3.620   3.634
 1386SOL     OW 5056   2.616   1.237   4.618
 1386SOL    HW1 5057   2.695   1.249   4.557
 1386SOL    HW2 5058   2.532   1.253   4.566
 1387SOL     OW 5059   3.879   6.296   2.620
 1387SOL    HW1 5060   3.927   6.288   2.533
 1387SOL    HW2 5061   3.795   6.349   2.607
 1388SOL     OW 5062   0.137   6.619   3.451
 1388SOL    HW1 5063   0.132   6.524   3.482
 1388SOL    HW2 5064   0.182   6.623   3.362
 1389SOL     OW 5065   0.531   0.984   3.861
 1389SOL    HW1 5066   0.625   0.995   3.894
 1389SOL    HW2 5067   0.481   1.070   3.871
 1390SOL     OW 5068   5.223   2.407   6.125
 1390SOL    HW1 5069   5.169   2.325   6.143
 1390SOL    HW2 5070   5.222   2.466   6.206
 1391SOL     OW 5071   6.263   0.641   5.136
 1391SOL    HW1 5072   6.277   0.625   5.039
 1391SOL    HW2 5073   6.190   0.582   5.170
 1392SOL     OW 5074   5.185   6.069   6.465
 1392SOL    HW1 5075   5.271   6.108   6.497
 1392SOL    HW2 5076   5.124   6.142   6.435
 1393SOL     OW 5077   6.224   3.469   6.134
 1393SOL    HW1 5078   6.178   3.380   6.131
 1393SOL    HW2 5079   6.255   3.493   6.042
 1394SOL     OW 5080   4.002   6.482   3.880
 1394SOL    HW1 5081   4.090   6.444   3.907
 1394SOL    HW2 5082   3.931   6.412   3.890
 1395SOL     OW 5083   1.285   4.152   3.887
 1395SOL    HW1 5084   1.294   4.155   3.787
 1395SOL    HW2 5085   1.244   4.238   3.919
 1396SOL     OW 5086   1.584   0.364   3.927
 1396SOL    HW1 5087   1.549   0.390   3.836
 1396SOL    HW2 5088   1.509   0.324   3.981
 1397SOL     OW 5089   0.676   6.158   4.436
 1397SOL    HW1 5090   0.694   6.119   4.526
 1397SOL    HW2 5091   0.578   6.154   4.417
 1398SOL     OW 5092   1.260   1.688   6.387
 1398SOL    HW1 5093   1.229   1.649   6.300
 1398SOL    HW2 5094   1.332   1.631   6.425
 1399SOL     OW 5095   4.100   0.657   0.060
 1399SOL    HW1 5096   4.028   0.701   0.007
 1399SOL    HW2 5097   4.078   0.560   0.071
 1400SOL     OW 5098   6.845   2.261   4.355
 1400SOL    HW1 5099   6.939   2.237   4.330
 1400SOL    HW2 5100   6.844   2.350   4.400
 1401SOL     OW 5101   6.208   6.629   4.432
 1401SOL    HW1 5102   6.135   6.644   4.500
 1401SOL    HW2 5103   6.173   6.652   4.341
 1402SOL     OW 5104   5.945   4.179   6.645
 1402SOL    HW1 5105   5.852   4.214   6.637
 1402SOL    HW2 5106   5.958   4.136   6.734
 1403SOL     OW 5107   2.075   2.128   1.353
 1403SOL    HW1 5108   2.021   2.188   1.412
 1403SOL    HW2 5109   2.156   2.097   1.402
 1404SOL     OW 5110   5.847   6.756   0.115
 1404SOL    HW1 5111   5.757   6.742   0.073
 1404SOL    HW2 5112   5.835   6.788   0.209
 1405SOL     OW 5113   2.774   3.278   0.463
 1405SOL    HW1 5114   2.709   3.254   0.390
 1405SOL    HW2 5115   2.725   3.322   0.538
 1406SOL     OW 5116   2.717   4.448   0.756
 1406SOL    HW1 5117   2.758   4.395   0.830
 1406SOL    HW2 5118   2.775   4.442   0.674
 1407SOL     OW 5119   1.834   3.925   3.244
 1407SOL    HW1 5120   1.798   3.876   3.164
 1407SOL    HW2 5121   1.759   3.945   3.306
 1408SOL     OW 5122   5.312   6.712   6.834
 1408SOL    HW1 5123   5.302   6.800   6.881
 1408SOL    HW2 5124   5.291   6.637   6.897
 1409SOL     OW 5125   6.931   0.626   4.866
 1409SOL    HW1 5126   6.875   0.638   4.783
 1409SOL    HW2 5127   7.013   0.682   4.859
 1410SOL     OW 5128   3.344   4.170   0.400
 1410SOL    HW1 5129   3.440   4.179   0.374
 1410SOL    HW2 5130   3.297   4.256   0.382
 1411SOL     OW 5131   3.656   5.709   6.092
 1411SOL    HW1 5132   3.695   5.693   6.002
 1411SOL    HW2 5133   3.728   5.703   6.161
 1412SOL     OW 5134   0.724   4.252   1.558
 1412SOL    HW1 5135   0.700   4.347   1.576
 1412SOL    HW2 5136   0.795   4.223   1.622
 1413SOL     OW 5137   1.310   1.650   4.386
 1413SOL    HW1 5138   1.266   1.591   4.454
 1413SOL    HW2 5139   1.362   1.721   4.434
 1414SOL     OW 5140   1.702   1.997   2.129
 1414SOL    HW1 5141   1.684   2.074   2.190
 1414SOL    HW2 5142   1.722   1.915   2.182
 1415SOL     OW 5143   3.305   1.380   4.659
 1415SOL    HW1 5144   3.381   1.403   4.599
 1415SOL    HW2 5145   3.336   1.318   4.731
 1416SOL     OW 5146   3.494   0.789   4.244
 1416SOL    HW1 5147   3.513   0.797   4.342
 1416SOL    HW2 5148   3.418   0.849   4.220
 1417SOL     OW 5149   3.150   2.870   6.023
 1417SOL    HW1 5150   3.176   2.926   5.944
 1417SOL    HW2 5151   3.076   2.808   5.997
 1418SOL     OW 5152   2.892   3.520   6.879
 1418SOL    HW1 5153   2.902   3.619   6.887
 1418SOL    HW2 5154   2.926   3.490   6.790
 1419SOL     OW 5155   2.398   5.224   4.118
 1419SOL    HW1 5156   2.433   5.263   4.033
 1419SOL    HW2 5157   2.446   5.264   4.196
 1420SOL     OW 5158   3.477   5.679   2.734
 1420SOL    HW1 5159   3.463   5.616   2.811
 1420SOL    HW2 5160   3.538   5.753   2.762
 1421SOL     OW 5161   1.076   4.007   4.016
 1421SOL    HW1 5162   1.152   4.040   3.959
 1421SOL    HW2 5163   1.053   4.077   4.084
 1422SOL     OW 5164   3.471   4.146   5.689
 1422SOL    HW1 5165   3.391   4.180   5.738
 1422SOL    HW2 5166   3.550   4.204   5.708
 1423SOL     OW 5167   3.247   0.890   5.443
 1423SOL    HW1 5168   3.225   0.808   5.391
 1423SOL    HW2 5169   3.325   0.873   5.503
 1424SOL     OW 5170   6.668   3.578   6.739
 1424SOL    HW1 5171   6.615   3.628   6.670
 1424SOL    HW2 5172   6.606   3.533   6.803
 1425SOL     OW 5173   2.210   5.496   5.515
 1425SOL    HW1 5174   2.290   5.446   5.547
 1425SOL    HW2 5175   2.168   5.446   5.439
 1426SOL     OW 5176   1.647   1.662   6.356
 1426SOL    HW1 5177   1.728   1.610   6.328
 1426SOL    HW2 5178   1.675   1.753   6.387
 1427SOL     OW 5179   0.100   0.233   3.903
 1427SOL    HW1 5180   0.124   0.141   3.872
 1427SOL    HW2 5181   0.097   0.295   3.824
 1428SOL     OW 5182   0.183   2.169   1.949
 1428SOL    HW1 5183   0.278   2.174   1.916
 1428SOL    HW2 5184   0.134   2.097   1.899
 1429SOL     OW 5185   6.332   1.237   6.937
 1429SOL    HW1 5186   6.259   1.182   6.978
 1429SOL    HW2 5187   6.357   1.198   6.849
 1430SOL     OW 5188   2.403   4.400   3.855
 1430SOL    HW1 5189   2.372   4.348   3.934
 1430SOL    HW2 5190   2.378   4.352   3.771
 1431SOL     OW 5191   2.262   2.416   6.474
 1431SOL    HW1 5192   2.220   2.388   6.388
 1431SOL    HW2 5193   2.313   2.340   6.513
 1432SOL     OW 5194   2.130   0.991   1.685
 1432SOL    HW1 5195   2.195   1.067   1.691
 1432SOL    HW2 5196   2.112   0.955   1.777
 1433SOL     OW 5197   4.299   6.862   4.520
 1433SOL    HW1 5198   4.254   6.929   4.462
 1433SOL    HW2 5199   4.398   6.876   4.517
 1434SOL     OW 5200   6.919   0.728   6.563
 1434SOL    HW1 5201   6.977   0.654   6.530
 1434SOL    HW2 5202   6.896   0.711   6.659
 1435SOL     OW 5203   6.828   0.753   3.225
 1435SOL    HW1 5204   6.902   0.705   3.273
 1435SOL    HW2 5205   6.847   0.754   3.127
 1436SOL     OW 5206   5.978   4.109   6.915
 1436SOL    HW1 5207   6.070   4.078   6.939
 1436SOL    HW2 5208   5.931   4.140   6.997
 1437SOL     OW 5209   3.304   0.529   5.626
 1437SOL    HW1 5210   3.313   0.621   5.589
 1437SOL    HW2 5211   3.337   0.528   5.721
 1438SOL     OW 5212   2.852   0.434   1.536
 1438SOL    HW1 5213   2.851   0.483   1.623
 1438SOL    HW2 5214   2.920   0.360   1.540
 1439SOL     OW 5215   0.451   5.200   0.780
 1439SOL    HW1 5216   0.470   5.188   0.877
 1439SOL    HW2 5217   0.392   5.280   0.767
 1440SOL     OW 5218   3.729   3.339   4.980
 1440SOL    HW1 5219   3.767   3.429   5.004
 1440SOL    HW2 5220   3.723   3.283   5.062
 1441SOL     OW 5221   6.649   3.701   4.445
 1441SOL    HW1 5222   6.733   3.724   4.395
 1441SOL    HW2 5223   6.613   3.614   4.411
 1442SOL     OW 5224   6.983   4.652   0.249
 1442SOL    HW1 5225   6.911   4.634   0.181
 1442SOL    HW2 5226   0.030   4.580   0.244
 1443SOL     OW 5227   0.796   2.495   4.791
 1443SOL    HW1 5228   0.792   2.550   4.707
 1443SOL    HW2 5229   0.727   2.422   4.786
 1444SOL     OW 5230   4.670   6.187   1.551
 1444SOL    HW1 5231   4.570   6.186   1.550
 1444SOL    HW2 5232   4.704   6.195   1.458
 1445SOL     OW 5233   0.379   2.716   2.556
 1445SOL    HW1 5234   0.386   2.616   2.554
 1445SOL    HW2 5235   0.448   2.754   2.617
 1446SOL     OW 5236   4.887   2.642   6.853
 1446SOL    HW1 5237   4.848   2.551   6.835
 1446SOL    HW2 5238   4.975   2.632   6.899
 1447SOL     OW 5239   6.624   6.806   4.724
 1447SOL    HW1 5240   6.681   6.863   4.782
 1447SOL    HW2 5241   6.528   6.836   4.731
 1448SOL     OW 5242   6.414   2.431   0.318
 1448SOL    HW1 5243   6.488   2.425   0.252
 1448SOL    HW2 5244   6.327   2.448   0.271
 1449SOL     OW 5245   5.932   0.574   6.889
 1449SOL    HW1 5246   5.999   0.510   6.927
 1449SOL    HW2 5247   5.843   0.560   6.932
 1450SOL     OW 5248   0.770   2.431   2.297
 1450SOL    HW1 5249   0.724   2.416   2.384
 1450SOL    HW2 5250   0.867   2.450   2.314
 1451SOL     OW 5251   3.381   0.686   2.075
 1451SOL    HW1 5252   3.381   0.773   2.123
 1451SOL    HW2 5253   3.463   0.679   2.018
 1452SOL     OW 5254   4.533   1.891   4.760
 1452SOL    HW1 5255   4.584   1.886   4.846
 1452SOL    HW2 5256   4.470   1.969   4.764
 1453SOL     OW 5257   6.891   3.370   5.176
 1453SOL    HW1 5258   6.873   3.272   5.172
 1453SOL    HW2 5259   6.988   3.387   5.155
 1454SOL     OW 5260   6.323   2.538   2.603
 1454SOL    HW1 5261   6.341   2.556   2.699
 1454SOL    HW2 5262   6.238   2.584   2.576
 1455SOL     OW 5263   2.053   0.310   2.267
 1455SOL    HW1 5264   2.112   0.286   2.190
 1455SOL    HW2 5265   1.992   0.384   2.240
 1456SOL     OW 5266   6.418   0.173   5.228
 1456SOL    HW1 5267   6.335   0.123   5.254
 1456SOL    HW2 5268   6.498   0.118   5.249
 1457SOL     OW 5269   1.447   6.909   1.716
 1457SOL    HW1 5270   1.487   6.954   1.636
 1457SOL    HW2 5271   1.401   6.978   1.773
 1458SOL     OW 5272   5.260   6.340   3.875
 1458SOL    HW1 5273   5.306   6.419   3.916
 1458SOL    HW2 5274   5.303   6.318   3.787
 1459SOL     OW 5275   3.196   4.554   6.238
 1459SOL    HW1 5276   3.219   4.492   6.164
 1459SOL    HW2 5277   3.175   4.645   6.201
 1460SOL     OW 5278   0.517   5.420   6.043
 1460SOL    HW1 5279   0.573   5.337   6.037
 1460SOL    HW2 5280   0.466   5.432   5.958
 1461SOL     OW 5281   0.176   4.872   3.437
 1461SOL    HW1 5282   0.241   4.919   3.496
 1461SOL    HW2 5283   0.220   4.852   3.349
 1462SOL     OW 5284   6.844   0.914   6.201
 1462SOL    HW1 5285   6.884   0.965   6.125
 1462SOL    HW2 5286   6.766   0.861   6.168
 1463SOL     OW 5287   0.579   5.883   6.266
 1463SOL    HW1 5288   0.583   5.796   6.217
 1463SOL    HW2 5289   0.624   5.954   6.212
 1464SOL     OW 5290   6.427   6.926   0.945
 1464SOL    HW1 5291   6.360   6.874   0.997
 1464SOL    HW2 5292   6.484   6.979   1.008
 1465SOL     OW 5293   1.816   1.977   3.261
 1465SOL    HW1 5294   1.777   1.950   3.350
 1465SOL    HW2 5295   1.881   1.907   3.231
 1466SOL     OW 5296   1.569   0.483   2.683
 1466SOL    HW1 5297   1.562   0.552   2.755
 1466SOL    HW2 5298   1.477   0.460   2.651
 1467SOL     OW 5299   2.657   1.044   1.930
 1467SOL    HW1 5300   2.728   1.042   1.859
 1467SOL    HW2 5301   2.645   0.953   1.968
 1468SOL     OW 5302   5.123   5.811   3.086
 1468SOL    HW1 5303   5.077   5.724   3.068
 1468SOL    HW2 5304   5.217   5.792   3.117
 1469SOL     OW 5305   1.025   0.442   2.261
 1469SOL    HW1 5306   1.081   0.461   2.342
 1469SOL    HW2 5307   0.939   0.400   2.289
 1470SOL     OW 5308   1.699   0.790   2.759
 1470SOL    HW1 5309   1.719   0.887   2.773
 1470SOL    HW2 5310   1.620   0.764   2.814
 1471SOL     OW 5311   0.584   0.746   0.902
 1471SOL    HW1 5312   0.673   0.733   0.860
 1471SOL    HW2 5313   0.513   0.749   0.832
 1472SOL     OW 5314   4.362   6.082   4.740
 1472SOL    HW1 5315   4.295   6.065   4.813
 1472SOL    HW2 5316   4.313   6.110   4.657
 1473SOL     OW 5317   5.823   5.666   3.879
 1473SOL    HW1 5318   5.805   5.578   3.835
 1473SOL    HW2 5319   5.921   5.683   3.881
 1474SOL     OW 5320   6.328   5.955   3.627
 1474SOL    HW1 5321   6.273   6.012   3.566
 1474SOL    HW2 5322   6.339   5.864   3.587
 1475SOL     OW 5323   6.340   0.131   1.442
 1475SOL    HW1 5324   6.361   0.211   1.386
 1475SOL    HW2 5325   6.372   0.049   1.395
 1476SOL     OW 5326   1.928   1.519   1.426
 1476SOL    HW1 5327   1.957   1.570   1.345
 1476SOL    HW2 5328   1.951   1.572   1.508
 1477SOL     OW 5329   2.155   0.187   6.665
 1477SOL    HW1 5330   2.081   0.242   6.703
 1477SOL    HW2 5331   2.206   0.143   6.740
 1478SOL     OW 5332   5.043   4.312   0.683
 1478SOL    HW1 5333   5.127   4.349   0.641
 1478SOL    HW2 5334   4.963   4.355   0.640
 1479SOL     OW 5335   1.594   3.358   6.829
 1479SOL    HW1 5336   1.689   3.388   6.830
 1479SOL    HW2 5337   1.562   3.350   6.735
 1480SOL     OW 5338   2.613   0.029   6.340
 1480SOL    HW1 5339   2.523   0.054   6.375
 1480SOL    HW2 5340   2.675   0.106   6.351
 1481SOL     OW 5341   0.251   1.981   5.569
 1481SOL    HW1 5342   0.248   2.009   5.473
 1481SOL    HW2 5343   0.160   1.954   5.599
 1482SOL     OW 5344   5.312   2.555   1.210
 1482SOL    HW1 5345   5.333   2.638   1.158
 1482SOL    HW2 5346   5.236   2.573   1.272
 1483SOL     OW 5347   6.454   2.397   6.067
 1483SOL    HW1 5348   6.552   2.396   6.085
 1483SOL    HW2 5349   6.432   2.321   6.005
 1484SOL     OW 5350   5.936   4.460   4.231
 1484SOL    HW1 5351   5.999   4.414   4.168
 1484SOL    HW2 5352   5.981   4.538   4.273
 1485SOL     OW 5353   3.650   2.091   2.755
 1485SOL    HW1 5354   3.644   2.011   2.816
 1485SOL    HW2 5355   3.732   2.083   2.699
 1486SOL     OW 5356   4.452   2.470   2.667
 1486SOL    HW1 5357   4.510   2.389   2.681
 1486SOL    HW2 5358   4.394   2.455   2.587
 1487SOL     OW 5359   6.964   2.796   6.787
 1487SOL    HW1 5360   0.018   2.860   6.785
 1487SOL    HW2 5361   6.923   2.795   6.878
 1488SOL     OW 5362   5.654   2.236   3.106
 1488SOL    HW1 5363   5.728   2.171   3.087
 1488SOL    HW2 5364   5.677   2.289   3.188
 1489SOL     OW 5365   4.171   5.351   3.971
 1489SOL    HW1 5366   4.084   5.370   3.924
 1489SOL    HW2 5367   4.246   5.396   3.922
 1490SOL     OW 5368   1.693   2.886   1.487
 1490SOL    HW1 5369   1.610   2.832   1.495
 1490SOL    HW2 5370   1.674   2.981   1.512
 1491SOL     OW 5371   6.092   3.415   4.035
 1491SOL    HW1 5372   6.061   3.428   4.129
 1491SOL    HW2 5373   6.053   3.486   3.977
 1492SOL     OW 5374   5.418   1.980   2.430
 1492SOL    HW1 5375   5.438   1.923   2.350
 1492SOL    HW2 5376   5.407   2.075   2.402
 1493SOL     OW 5377   5.008   0.093   3.958
 1493SOL    HW1 5378   5.091   0.049   3.992
 1493SOL    HW2 5379   4.967   0.037   3.887
 1494SOL     OW 5380   4.942   2.505   5.998
 1494SOL    HW1 5381   5.022   2.470   6.046
 1494SOL    HW2 5382   4.865   2.514   6.062
 1495SOL     OW 5383   0.117   2.840   4.461
 1495SOL    HW1 5384   0.082   2.850   4.368
 1495SOL    HW2 5385   0.041   2.829   4.525
 1496SOL     OW 5386   1.139   1.409   2.732
 1496SOL    HW1 5387   1.186   1.466   2.799
 1496SOL    HW2 5388   1.065   1.462   2.690
 1497SOL     OW 5389   0.468   3.489   2.811
 1497SOL    HW1 5390   0.426   3.540   2.736
 1497SOL    HW2 5391   0.449   3.392   2.800
 1498SOL     OW 5392   1.830   4.320   6.493
 1498SOL    HW1 5393   1.908   4.341   6.552
 1498SOL    HW2 5394   1.799   4.404   6.448
 1499SOL     OW 5395   1.297   3.671   5.419
 1499SOL    HW1 5396   1.264   3.743   5.357
 1499SOL    HW2 5397   1.333   3.713   5.502
 1500SOL     OW 5398   6.300   6.664   0.268
 1500SOL    HW1 5399   6.204   6.638   0.251
 1500SOL    HW2 5400   6.360   6.606   0.213
 1501SOL     OW 5401   4.923   1.299   6.385
 1501SOL    HW1 5402   4.954   1.381   6.337
 1501SOL    HW2 5403   4.850   1.324   6.450
 1502SOL     OW 5404   5.849   6.838   1.167
 1502SOL    HW1 5405   5.880   6.767   1.104
 1502SOL    HW2 5406   5.796   6.906   1.117
 1503SOL     OW 5407   2.854   1.025   2.270
 1503SOL    HW1 5408   2.765   1.069   2.265
 1503SOL    HW2 5409   2.925   1.087   2.236
 1504SOL     OW 5410   1.194   1.478   4.590
 1504SOL    HW1 5411   1.143   1.409   4.539
 1504SOL    HW2 5412   1.130   1.546   4.627
 1505SOL     OW 5413   5.665   0.734   6.385
 1505SOL    HW1 5414   5.616   0.728   6.472
 1505SOL    HW2 5415   5.705   0.645   6.364
 1506SOL     OW 5416   1.883   5.051   1.869
 1506SOL    HW1 5417   1.941   5.131   1.881
 1506SOL    HW2 5418   1.796   5.065   1.917
 1507SOL     OW 5419   0.889   2.439   5.780
 1507SOL    HW1 5420   0.858   2.490   5.861
 1507SOL    HW2 5421   0.930   2.352   5.809
 1508SOL     OW 5422   6.255   0.555   1.751
 1508SOL    HW1 5423   6.341   0.587   1.789
 1508SOL    HW2 5424   6.268   0.465   1.709
 1509SOL     OW 5425   4.601   2.613   6.666
 1509SOL    HW1 5426   4.546   2.693   6.690
 1509SOL    HW2 5427   4.624   2.563   6.749
 1510SOL     OW 5428   5.786   2.411   3.901
 1510SOL    HW1 5429   5.866   2.400   3.959
 1510SOL    HW2 5430   5.808   2.471   3.824
 1511SOL     OW 5431   3.321   2.687   1.014
 1511SOL    HW1 5432   3.238   2.742   1.005
 1511SOL    HW2 5433   3.344   2.676   1.110
 1512SOL     OW 5434   0.282   6.691   1.925
 1512SOL    HW1 5435   0.373   6.730   1.913
 1512SOL    HW2 5436   0.287   6.608   1.980
 1513SOL     OW 5437   3.917   0.610   3.865
 1513SOL    HW1 5438   3.822   0.638   3.848
 1513SOL    HW2 5439   3.931   0.517   3.833
 1514SOL     OW 5440   5.114   2.805   5.573
 1514SOL    HW1 5441   5.164   2.881   5.532
 1514SOL    HW2 5442   5.164   2.719   5.555
 1515SOL     OW 5443   6.636   3.452   5.266
 1515SOL    HW1 5444   6.569   3.451   5.192
 1515SOL    HW2 5445   6.721   3.410   5.235
 1516SOL     OW 5446   0.661   0.414   1.303
 1516SOL    HW1 5447   0.744   0.402   1.247
 1516SOL    HW2 5448   0.589   0.455   1.248
 1517SOL     OW 5449   3.931   6.063   3.310
 1517SOL    HW1 5450   4.016   6.050   3.259
 1517SOL    HW2 5451   3.856   6.082   3.247
 1518SOL     OW 5452   0.807   3.057   0.237
 1518SOL    HW1 5453   0.771   3.087   0.325
 1518SOL    HW2 5454   0.751   3.093   0.163
 1519SOL     OW 5455   0.049   4.566   2.540
 1519SOL    HW1 5456   0.014   4.588   2.631
 1519SOL    HW2 5457   0.009   4.479   2.510
 1520SOL     OW 5458   1.223   3.083   2.358
 1520SOL    HW1 5459   1.267   3.093   2.448
 1520SOL    HW2 5460   1.124   3.083   2.369
 1521SOL     OW 5461   3.019   3.711   0.031
 1521SOL    HW1 5462   3.040   3.806   0.050
 1521SOL    HW2 5463   3.104   3.657   0.031
 1522SOL     OW 5464   6.370   1.183   4.909
 1522SOL    HW1 5465   6.425   1.131   4.975
 1522SOL    HW2 5466   6.412   1.177   4.819
 1523SOL     OW 5467   5.077   4.044   0.650
 1523SOL    HW1 5468   5.172   4.030   0.678
 1523SOL    HW2 5469   5.055   4.141   0.653
 1524SOL     OW 5470   1.058   1.963   2.160
 1524SOL    HW1 5471   1.121   2.025   2.113
 1524SOL    HW2 5472   1.018   2.009   2.239
 1525SOL     OW 5473   6.077   2.155   6.982
 1525SOL    HW1 5474   5.988   2.116   6.960
 1525SOL    HW2 5475   6.142   2.136   6.908
 1526SOL     OW 5476   1.568   0.575   0.023
 1526SOL    HW1 5477   1.471   0.556   0.036
 1526SOL    HW2 5478   1.591   0.569   6.948
 1527SOL     OW 5479   3.689   0.672   5.870
 1527SOL    HW1 5480   3.691   0.761   5.916
 1527SOL    HW2 5481   3.682   0.685   5.771
 1528SOL     OW 5482   5.153   5.856   1.838
 1528SOL    HW1 5483   5.131   5.953   1.829
 1528SOL    HW2 5484   5.078   5.809   1.885
 1529SOL     OW 5485   3.621   1.019   6.997
 1529SOL    HW1 5486   3.701   1.014   6.938
 1529SOL    HW2 5487   3.633   1.093   0.040
 1530SOL     OW 5488   2.621   0.814   1.740
 1530SOL    HW1 5489   2.628   0.846   1.646
 1530SOL    HW2 5490   2.672   0.728   1.750
 1531SOL     OW 5491   5.697   1.731   4.443
 1531SOL    HW1 5492   5.610   1.727   4.492
 1531SOL    HW2 5493   5.730   1.638   4.427
 1532SOL     OW 5494   2.554   2.962   5.894
 1532SOL    HW1 5495   2.483   3.004   5.950
 1532SOL    HW2 5496   2.515   2.932   5.808
 1533SOL     OW 5497   0.180   3.439   6.729
 1533SOL    HW1 5498   0.091   3.468   6.766
 1533SOL    HW2 5499   0.183   3.339   6.724
 1534SOL     OW 5500   1.128   4.899   6.608
 1534SOL    HW1 5501   1.127   4.835   6.531
 1534SOL    HW2 5502   1.203   4.965   6.595
 1535SOL     OW 5503   5.036   6.042   4.249
 1535SOL    HW1 5504   4.974   6.024   4.325
 1535SOL    HW2 5505   5.019   5.976   4.176
 1536SOL     OW 5506   3.994   4.465   5.571
 1536SOL    HW1 5507   3.976   4.473   5.473
 1536SOL    HW2 5508   3.956   4.543   5.619
 1537SOL     OW 5509   3.789   5.783   2.738
 1537SOL    HW1 5510   3.771   5.687   2.715
 1537SOL    HW2 5511   3.719   5.841   2.696
 1538SOL     OW 5512   3.233   5.513   6.078
 1538SOL    HW1 5513   3.323   5.529   6.119
 1538SOL    HW2 5514   3.176   5.460   6.142
 1539SOL     OW 5515   4.401   4.457   1.403
 1539SOL    HW1 5516   4.478   4.517   1.427
 1539SOL    HW2 5517   4.434   4.383   1.346
 1540SOL     OW 5518   1.115   0.295   5.270
 1540SOL    HW1 5519   1.121   0.195   5.267
 1540SOL    HW2 5520   1.205   0.333   5.293
 1541SOL     OW 5521   3.526   3.241   2.053
 1541SOL    HW1 5522   3.428   3.220   2.063
 1541SOL    HW2 5523   3.574   3.210   2.135
 1542SOL     OW 5524   0.402   5.422   1.494
 1542SOL    HW1 5525   0.446   5.417   1.404
 1542SOL    HW2 5526   0.436   5.503   1.543
 1543SOL     OW 5527   2.960   3.385   3.786
 1543SOL    HW1 5528   2.903   3.458   3.824
 1543SOL    HW2 5529   3.055   3.397   3.817
 1544SOL     OW 5530   3.103   3.725   1.931
 1544SOL    HW1 5531   3.088   3.725   2.030
 1544SOL    HW2 5532   3.053   3.648   1.891
 1545SOL     OW 5533   5.403   0.921   4.837
 1545SOL    HW1 5534   5.485   0.908   4.893
 1545SOL    HW2 5535   5.321   0.914   4.895
 1546SOL     OW 5536   5.588   0.741   6.072
 1546SOL    HW1 5537   5.490   0.754   6.060
 1546SOL    HW2 5538   5.605   0.702   6.163
 1547SOL     OW 5539   2.554   4.522   2.565
 1547SOL    HW1 5540   2.597   4.609   2.590
 1547SOL    HW2 5541   2.510   4.483   2.646
 1548SOL     OW 5542   5.098   3.724   5.976
 1548SOL    HW1 5543   5.021   3.733   6.039
 1548SOL    HW2 5544   5.064   3.698   5.886
 1549SOL     OW 5545   5.154   1.921   2.483
 1549SOL    HW1 5546   5.109   1.870   2.410
 1549SOL    HW2 5547   5.252   1.929   2.463
 1550SOL     OW 5548   3.211   5.760   5.967
 1550SOL    HW1 5549   3.285   5.716   5.915
 1550SOL    HW2 5550   3.174   5.694   6.033
 1551SOL     OW 5551   2.425   3.384   0.437
 1551SOL    HW1 5552   2.328   3.367   0.455
 1551SOL    HW2 5553   2.437   3.413   0.342
 1552SOL     OW 5554   0.033   0.082   1.617
 1552SOL    HW1 5555   0.069   0.175   1.615
 1552SOL    HW2 5556   0.074   0.032   1.693
 1553SOL     OW 5557   6.281   1.494   6.196
 1553SOL    HW1 5558   6.327   1.567   6.246
 1553SOL    HW2 5559   6.348   1.425   6.169
 1554SOL     OW 5560   3.327   2.117   2.458
 1554SOL    HW1 5561   3.407   2.153   2.409
 1554SOL    HW2 5562   3.355   2.083   2.547
 1555SOL     OW 5563   5.200   2.269   5.824
 1555SOL    HW1 5564   5.207   2.341   5.894
 1555SOL    HW2 5565   5.110   2.275   5.779
 1556SOL     OW 5566   3.721   0.906   0.466
 1556SOL    HW1 5567   3.751   0.856   0.385
 1556SOL    HW2 5568   3.800   0.944   0.513
 1557SOL     OW 5569   2.516   1.345   0.245
 1557SOL    HW1 5570   2.499   1.284   0.168
 1557SOL    HW2 5571   2.611   1.378   0.242
 1558SOL     OW 5572   5.427   1.784   4.167
 1558SOL    HW1 5573   5.486   1.710   4.133
 1558SOL    HW2 5574   5.428   1.860   4.102
 1559SOL     OW 5575   6.942   2.740   0.713
 1559SOL    HW1 5576   7.005   2.805   0.755
 1559SOL    HW2 5577   6.980   2.709   0.626
 1560SOL     OW 5578   3.106   1.265   6.458
 1560SOL    HW1 5579   3.045   1.233   6.385
 1560SOL    HW2 5580   3.059   1.335   6.512
 1561SOL     OW 5581   5.881   5.992   3.169
 1561SOL    HW1 5582   5.844   5.911   3.123
 1561SOL    HW2 5583   5.820   6.018   3.244
 1562SOL     OW 5584   3.553   6.317   1.363
 1562SOL    HW1 5585   3.577   6.359   1.450
 1562SOL    HW2 5586   3.625   6.254   1.335
 1563SOL     OW 5587   2.135   1.873   5.845
 1563SOL    HW1 5588   2.042   1.849   5.873
 1563SOL    HW2 5589   2.137   1.969   5.815
 1564SOL     OW 5590   1.243   2.320   2.735
 1564SOL    HW1 5591   1.232   2.408   2.781
 1564SOL    HW2 5592   1.252   2.335   2.637
 1565SOL     OW 5593   4.103   5.494   4.371
 1565SOL    HW1 5594   4.155   5.489   4.456
 1565SOL    HW2 5595   4.092   5.401   4.333
 1566SOL     OW 5596   6.594   5.538   5.031
 1566SOL    HW1 5597   6.682   5.573   5.065
 1566SOL    HW2 5598   6.574   5.579   4.943
 1567SOL     OW 5599   6.393   5.855   0.283
 1567SOL    HW1 5600   6.469   5.915   0.256
 1567SOL    HW2 5601   6.306   5.902   0.263
 1568SOL     OW 5602   2.111   6.358   2.494
 1568SOL    HW1 5603   2.190   6.338   2.437
 1568SOL    HW2 5604   2.029   6.360   2.437
 1569SOL     OW 5605   3.798   6.786   3.779
 1569SOL    HW1 5606   3.699   6.799   3.791
 1569SOL    HW2 5607   3.832   6.855   3.715
 1570SOL     OW 5608   1.955   6.394   0.486
 1570SOL    HW1 5609   1.868   6.419   0.529
 1570SOL    HW2 5610   1.973   6.297   0.501
 1571SOL     OW 5611   6.871   1.764   3.249
 1571SOL    HW1 5612   6.835   1.847   3.292
 1571SOL    HW2 5613   6.943   1.788   3.185
 1572SOL     OW 5614   2.061   5.569   0.817
 1572SOL    HW1 5615   1.987   5.503   0.824
 1572SOL    HW2 5616   2.102   5.584   0.906
 1573SOL     OW 5617   6.416   5.202   1.919
 1573SOL    HW1 5618   6.442   5.298   1.918
 1573SOL    HW2 5619   6.356   5.183   1.841
 1574SOL     OW 5620   6.557   2.214   3.190
 1574SOL    HW1 5621   6.579   2.311   3.182
 1574SOL    HW2 5622   6.466   2.204   3.230
 1575SOL     OW 5623   2.562   1.208   1.668
 1575SOL    HW1 5624   2.465   1.183   1.672
 1575SOL    HW2 5625   2.617   1.131   1.701
 1576SOL     OW 5626   0.726   0.149   3.746
 1576SOL    HW1 5627   0.792   0.094   3.694
 1576SOL    HW2 5628   0.675   0.089   3.808
 1577SOL     OW 5629   2.538   0.633   5.908
 1577SOL    HW1 5630   2.621   0.612   5.960
 1577SOL    HW2 5631   2.460   0.588   5.951
 1578SOL     OW 5632   5.135   1.938   5.358
 1578SOL    HW1 5633   5.125   1.845   5.392
 1578SOL    HW2 5634   5.105   2.003   5.428
 1579SOL     OW 5635   0.132   1.703   1.959
 1579SOL    HW1 5636   0.200   1.651   1.907
 1579SOL    HW2 5637   0.112   1.789   1.912
 1580SOL     OW 5638   3.279   4.105   4.020
 1580SOL    HW1 5639   3.215   4.070   4.088
 1580SOL    HW2 5640   3.229   4.132   3.938
 1581SOL     OW 5641   6.564   4.942   5.331
 1581SOL    HW1 5642   6.604   4.911   5.245
 1581SOL    HW2 5643   6.632   4.937   5.403
 1582SOL     OW 5644   2.675   6.392   4.692
 1582SOL    HW1 5645   2.607   6.396   4.766
 1582SOL    HW2 5646   2.660   6.311   4.637
 1583SOL     OW 5647   0.339   5.826   3.507
 1583SOL    HW1 5648   0.325   5.900   3.573
 1583SOL    HW2 5649   0.304   5.854   3.418
 1584SOL     OW 5650   0.544   5.273   5.674
 1584SOL    HW1 5651   0.618   5.339   5.666
 1584SOL    HW2 5652   0.467   5.314   5.724
 1585SOL     OW 5653   4.254   2.134   2.917
 1585SOL    HW1 5654   4.159   2.126   2.944
 1585SOL    HW2 5655   4.284   2.230   2.926
 1586SOL     OW 5656   2.978   4.970   2.543
 1586SOL    HW1 5657   2.943   4.889   2.498
 1586SOL    HW2 5658   3.066   4.996   2.503
 1587SOL     OW 5659   2.720   5.513   5.866
 1587SOL    HW1 5660   2.671   5.577   5.808
 1587SOL    HW2 5661   2.787   5.463   5.811
 1588SOL     OW 5662   4.583   0.995   1.674
 1588SOL    HW1 5663   4.632   1.077   1.703
 1588SOL    HW2 5664   4.509   0.976   1.739
 1589SOL     OW 5665   6.750   3.218   2.633
 1589SOL    HW1 5666   6.761   3.221   2.732
 1589SOL    HW2 5667   6.751   3.123   2.602
 1590SOL     OW 5668   5.055   0.579   4.052
 1590SOL    HW1 5669   5.147   0.611   4.028
 1590SOL    HW2 5670   4.993   0.658   4.057
 1591SOL     OW 5671   0.265   5.751   1.212
 1591SOL    HW1 5672   0.250   5.677   1.146
 1591SOL    HW2 5673   0.362   5.774   1.215
 1592SOL     OW 5674   2.348   3.868   6.510
 1592SOL    HW1 5675   2.396   3.956   6.512
 1592SOL    HW2 5676   2.353   3.830   6.417
 1593SOL     OW 5677   1.124   0.056   4.965
 1593SOL    HW1 5678   1.100   0.081   4.872
 1593SOL    HW2 5679   1.108   6.980   4.979
 1594SOL     OW 5680   0.341   6.086   1.843
 1594SOL    HW1 5681   0.273   6.039   1.786
 1594SOL    HW2 5682   0.294   6.140   1.912
 1595SOL     OW 5683   0.790   5.068   0.685
 1595SOL    HW1 5684   0.800   5.166   0.701
 1595SOL    HW2 5685   0.759   5.052   0.592
 1596SOL     OW 5686   6.834   3.604   3.655
 1596SOL    HW1 5687   6.834   3.504   3.665
 1596SOL    HW2 5688   6.780   3.645   3.727
 1597SOL     OW 5689   1.240   5.881   1.216
 1597SOL    HW1 5690   1.156   5.826   1.222
 1597SOL    HW2 5691   1.269   5.886   1.121
 1598SOL     OW 5692   0.482   4.433   6.507
 1598SOL    HW1 5693   0.455   4.338   6.492
 1598SOL    HW2 5694   0.567   4.435   6.560
 1599SOL     OW 5695   5.459   5.542   4.978
 1599SOL    HW1 5696   5.521   5.476   5.020
 1599SOL    HW2 5697   5.418   5.502   4.896
 1600SOL     OW 5698   3.024   1.676   3.796
 1600SOL    HW1 5699   2.959   1.747   3.825
 1600SOL    HW2 5700   3.117   1.708   3.813
 1601SOL     OW 5701   6.499   6.988   4.140
 1601SOL    HW1 5702   6.560   6.929   4.087
 1601SOL    HW2 5703   6.448   6.934   4.206
 1602SOL     OW 5704   4.432   4.503   3.746
 1602SOL    HW1 5705   4.532   4.504   3.742
 1602SOL    HW2 5706   4.395   4.499   3.653
 1603SOL     OW 5707   2.163   5.864   3.227
 1603SOL    HW1 5708   2.193   5.883   3.134
 1603SOL    HW2 5709   2.090   5.929   3.252
 1604SOL     OW 5710   4.944   4.354   1.885
 1604SOL    HW1 5711   4.911   4.401   1.803
 1604SOL    HW2 5712   4.879   4.283   1.911
 1605SOL     OW 5713   6.307   5.627   2.338
 1605SOL    HW1 5714   6.229   5.608   2.279
 1605SOL    HW2 5715   6.358   5.543   2.355
 1606SOL     OW 5716   4.035   6.104   5.899
 1606SOL    HW1 5717   4.080   6.099   5.988
 1606SOL    HW2 5718   4.036   6.014   5.856
 1607SOL     OW 5719   3.713   6.801   0.707
 1607SOL    HW1 5720   3.785   6.869   0.722
 1607SOL    HW2 5721   3.629   6.847   0.680
 1608SOL     OW 5722   0.314   0.886   3.681
 1608SOL    HW1 5723   0.372   0.902   3.761
 1608SOL    HW2 5724   0.218   0.899   3.706
 1609SOL     OW 5725   3.842   0.061   0.445
 1609SOL    HW1 5726   3.751   0.048   0.406
 1609SOL    HW2 5727   3.864   0.159   0.446
 1610SOL     OW 5728   5.734   5.490   0.510
 1610SOL    HW1 5729   5.676   5.565   0.542
 1610SOL    HW2 5730   5.830   5.514   0.527
 1611SOL     OW 5731   2.660   2.894   0.275
 1611SOL    HW1 5732   2.681   2.834   0.352
 1611SOL    HW2 5733   2.572   2.869   0.236
 1612SOL     OW 5734   3.005   0.387   0.535
 1612SOL    HW1 5735   3.080   0.451   0.524
 1612SOL    HW2 5736   3.041   0.296   0.558
 1613SOL     OW 5737   1.644   5.124   1.949
 1613SOL    HW1 5738   1.556   5.153   1.912
 1613SOL    HW2 5739   1.672   5.186   2.022
 1614SOL     OW 5740   5.528   1.829   6.560
 1614SOL    HW1 5741   5.434   1.861   6.566
 1614SOL    HW2 5742   5.537   1.767   6.482
 1615SOL     OW 5743   6.533   5.691   0.049
 1615SOL    HW1 5744   6.606   5.738   7.022
 1615SOL    HW2 5745   6.445   5.733   0.026
 1616SOL     OW 5746   3.593   0.703   4.813
 1616SOL    HW1 5747   3.623   0.645   4.889
 1616SOL    HW2 5748   3.621   0.797   4.831
 1617SOL     OW 5749   5.642   6.113   2.991
 1617SOL    HW1 5750   5.655   6.132   2.894
 1617SOL    HW2 5751   5.730   6.119   3.038
 1618SOL     OW 5752   1.873   6.381   3.263
 1618SOL    HW1 5753   1.923   6.329   3.194
 1618SOL    HW2 5754   1.789   6.332   3.288
 1619SOL     OW 5755   0.438   4.447   1.542
 1619SOL    HW1 5756   0.416   4.366   1.489
 1619SOL    HW2 5757   0.378   4.453   1.622
 1620SOL     OW 5758   3.065   4.674   1.166
 1620SOL    HW1 5759   3.043   4.763   1.205
 1620SOL    HW2 5760   3.012   4.603   1.213
 1621SOL     OW 5761   6.338   1.027   0.695
 1621SOL    HW1 5762   6.318   0.935   0.662
 1621SOL    HW2 5763   6.289   1.094   0.639
 1622SOL     OW 5764   0.697   3.334   5.538
 1622SOL    HW1 5765   0.768   3.400   5.513
 1622SOL    HW2 5766   0.735   3.241   5.534
 1623SOL     OW 5767   0.642   2.895   5.007
 1623SOL    HW1 5768   0.683   2.806   4.987
 1623SOL    HW2 5769   0.570   2.915   4.940
 1624SOL     OW 5770   3.867   1.160   5.233
 1624SOL    HW1 5771   3.839   1.170   5.137
 1624SOL    HW2 5772   3.909   1.246   5.263
 1625SOL     OW 5773   1.160   4.870   0.189
 1625SOL    HW1 5774   1.212   4.935   0.133
 1625SOL    HW2 5775   1.222   4.804   0.231
 1626SOL     OW 5776   3.391   1.070   0.921
 1626SOL    HW1 5777   3.406   1.099   1.015
 1626SOL    HW2 5778   3.465   1.009   0.892
 1627SOL     OW 5779   5.816   3.389   3.813
 1627SOL    HW1 5780   5.895   3.449   3.799
 1627SOL    HW2 5781   5.779   3.403   3.904
 1628SOL     OW 5782   4.457   5.333   7.005
 1628SOL    HW1 5783   4.369   5.351   0.025
 1628SOL    HW2 5784   4.467   5.391   6.923
 1629SOL     OW 5785   2.855   1.065   3.809
 1629SOL    HW1 5786   2.909   1.134   3.762
 1629SOL    HW2 5787   2.874   0.975   3.771
 1630SOL     OW 5788   0.384   4.941   6.365
 1630SOL    HW1 5789   0.425   4.855   6.396
 1630SOL    HW2 5790   0.348   4.991   6.444
 1631SOL     OW 5791   0.965   2.467   0.574
 1631SOL    HW1 5792   0.954   2.370   0.597
 1631SOL    HW2 5793   0.895   2.493   0.506
 1632SOL     OW 5794   5.812   2.609   1.862
 1632SOL    HW1 5795   5.768   2.527   1.898
 1632SOL    HW2 5796   5.760   2.690   1.891
 1633SOL     OW 5797   4.815   3.952   4.278
 1633SOL    HW1 5798   4.860   3.868   4.250
 1633SOL    HW2 5799   4.730   3.964   4.227
 1634SOL     OW 5800   4.901   5.946   4.695
 1634SOL    HW1 5801   4.952   5.877   4.747
 1634SOL    HW2 5802   4.813   5.963   4.740
 1635SOL     OW 5803   0.759   5.453   6.824
 1635SOL    HW1 5804   0.768   5.507   6.740
 1635SOL    HW2 5805   0.689   5.493   6.882
 1636SOL     OW 5806   3.171   4.882   1.009
 1636SOL    HW1 5807   3.132   4.805   1.059
 1636SOL    HW2 5808   3.158   4.869   0.911
 1637SOL     OW 5809   6.868   0.462   3.645
 1637SOL    HW1 5810   6.852   0.559   3.663
 1637SOL    HW2 5811   6.822   0.407   3.715
 1638SOL     OW 5812   0.108   3.389   2.662
 1638SOL    HW1 5813   0.039   3.376   2.733
 1638SOL    HW2 5814   0.136   3.485   2.658
 1639SOL     OW 5815   5.409   5.268   1.365
 1639SOL    HW1 5816   5.444   5.200   1.428
 1639SOL    HW2 5817   5.345   5.328   1.412
 1640SOL     OW 5818   5.613   6.995   6.906
 1640SOL    HW1 5819   5.696   6.953   6.870
 1640SOL    HW2 5820   5.636   0.062   6.944
 1641SOL     OW 5821   4.957   2.155   2.543
 1641SOL    HW1 5822   5.007   2.073   2.515
 1641SOL    HW2 5823   4.940   2.152   2.642
 1642SOL     OW 5824   6.894   3.613   0.169
 1642SOL    HW1 5825   6.947   3.547   0.116
 1642SOL    HW2 5826   6.901   3.704   0.127
 1643SOL     OW 5827   2.791   4.775   4.393
 1643SOL    HW1 5828   2.719   4.707   4.406
 1643SOL    HW2 5829   2.822   4.808   4.482
 1644SOL     OW 5830   5.822   4.088   0.143
 1644SOL    HW1 5831   5.779   4.063   0.230
 1644SOL    HW2 5832   5.787   4.029   0.071
 1645SOL     OW 5833   2.785   5.467   6.168
 1645SOL    HW1 5834   2.691   5.446   6.143
 1645SOL    HW2 5835   2.840   5.477   6.085
 1646SOL     OW 5836   1.935   6.888   0.864
 1646SOL    HW1 5837   1.974   6.815   0.809
 1646SOL    HW2 5838   1.996   6.909   0.940
 1647SOL     OW 5839   5.853   2.911   4.550
 1647SOL    HW1 5840   5.944   2.948   4.530
 1647SOL    HW2 5841   5.786   2.985   4.550
 1648SOL     OW 5842   5.222   5.805   0.367
 1648SOL    HW1 5843   5.139   5.765   0.407
 1648SOL    HW2 5844   5.232   5.900   0.399
 1649SOL     OW 5845   3.568   1.248   4.614
 1649SOL    HW1 5846   3.607   1.158   4.591
 1649SOL    HW2 5847   3.612   1.318   4.557
 1650SOL     OW 5848   0.665   5.678   4.901
 1650SOL    HW1 5849   0.738   5.665   4.835
 1650SOL    HW2 5850   0.705   5.696   4.991
 1651SOL     OW 5851   0.406   2.246   1.820
 1651SOL    HW1 5852   0.446   2.337   1.812
 1651SOL    HW2 5853   0.342   2.232   1.744
 1652SOL     OW 5854   1.632   2.693   2.503
 1652SOL    HW1 5855   1.643   2.629   2.427
 1652SOL    HW2 5856   1.695   2.770   2.491
 1653SOL     OW 5857   0.737   6.437   0.081
 1653SOL    HW1 5858   0.824   6.466   0.121
 1653SOL    HW2 5859   0.683   6.389   0.150
 1654SOL     OW 5860   0.032   3.711   1.641
 1654SOL    HW1 5861   0.110   3.655   1.669
 1654SOL    HW2 5862   0.016   3.701   1.543
 1655SOL     OW 5863   0.532   2.415   4.588
 1655SOL    HW1 5864   0.592   2.355   4.642
 1655SOL    HW2 5865   0.584   2.453   4.512
 1656SOL     OW 5866   2.336   5.117   3.295
 1656SOL    HW1 5867   2.333   5.217   3.293
 1656SOL    HW2 5868   2.376   5.083   3.209
 1657SOL     OW 5869   5.754   1.373   4.052
 1657SOL    HW1 5870   5.823   1.384   3.981
 1657SOL    HW2 5871   5.671   1.334   4.012
 1658SOL     OW 5872   5.686   0.917   1.353
 1658SOL    HW1 5873   5.587   0.923   1.343
 1658SOL    HW2 5874   5.709   0.845   1.419
 1659SOL     OW 5875   3.015   0.359   6.906
 1659SOL    HW1 5876   2.968   0.323   6.825
 1659SOL    HW2 5877   2.968   0.442   6.938
 1660SOL     OW 5878   1.935   5.915   2.941
 1660SOL    HW1 5879   1.995   5.838   2.962
 1660SOL    HW2 5880   1.930   5.927   2.842
 1661SOL     OW 5881   2.308   6.422   1.142
 1661SOL    HW1 5882   2.246   6.486   1.096
 1661SOL    HW2 5883   2.274   6.329   1.130
 1662SOL     OW 5884   0.265   1.189   4.101
 1662SOL    HW1 5885   0.322   1.152   4.175
 1662SOL    HW2 5886   0.324   1.225   4.029
 1663SOL     OW 5887   4.276   5.694   2.949
 1663SOL    HW1 5888   4.181   5.667   2.940
 1663SOL    HW2 5889   4.288   5.788   2.915
 1664SOL     OW 5890   2.816   6.434   5.429
 1664SOL    HW1 5891   2.743   6.372   5.402
 1664SOL    HW2 5892   2.840   6.416   5.525
 1665SOL     OW 5893   6.248   2.870   2.562
 1665SOL    HW1 5894   6.150   2.859   2.550
 1665SOL    HW2 5895   6.274   2.851   2.656
 1666SOL     OW 5896   4.999   1.572   6.609
 1666SOL    HW1 5897   4.921   1.516   6.637
 1666SOL    HW2 5898   4.994   1.589   6.511
 1667SOL     OW 5899   0.189   6.991   1.069
 1667SOL    HW1 5900   0.109   6.972   1.013
 1667SOL    HW2 5901   0.160   7.014   1.162
 1668SOL     OW 5902   5.110   5.638   3.917
 1668SOL    HW1 5903   5.125   5.630   3.819
 1668SOL    HW2 5904   5.198   5.644   3.964
 1669SOL     OW 5905   6.843   4.718   5.691
 1669SOL    HW1 5906   6.788   4.652   5.639
 1669SOL    HW2 5907   6.902   4.669   5.755
 1670SOL     OW 5908   6.977   4.246   5.456
 1670SOL    HW1 5909   6.935   4.156   5.444
 1670SOL    HW2 5910   6.977   4.270   5.553
 1671SOL     OW 5911   5.298   1.714   3.208
 1671SOL    HW1 5912   5.210   1.749   3.176
 1671SOL    HW2 5913   5.365   1.720   3.134
 1672SOL     OW 5914   1.688   3.722   1.476
 1672SOL    HW1 5915   1.756   3.791   1.452
 1672SOL    HW2 5916   1.631   3.703   1.396
 1673SOL     OW 5917   1.240   1.554   5.124
 1673SOL    HW1 5918   1.204   1.542   5.216
 1673SOL    HW2 5919   1.262   1.650   5.108
 1674SOL     OW 5920   0.777   2.936   2.430
 1674SOL    HW1 5921   0.694   2.964   2.381
 1674SOL    HW2 5922   0.822   2.862   2.380
 1675SOL     OW 5923   4.855   0.015   0.261
 1675SOL    HW1 5924   4.827   7.000   0.350
 1675SOL    HW2 5925   4.865   6.962   0.196
 1676SOL     OW 5926   2.683   2.042   1.432
 1676SOL    HW1 5927   2.712   2.077   1.521
 1676SOL    HW2 5928   2.597   2.085   1.406
 1677SOL     OW 5929   3.121   3.013   4.124
 1677SOL    HW1 5930   3.169   3.013   4.037
 1677SOL    HW2 5931   3.075   3.101   4.137
 1678SOL     OW 5932   6.434   4.384   2.844
 1678SOL    HW1 5933   6.512   4.416   2.790
 1678SOL    HW2 5934   6.465   4.316   2.911
 1679SOL     OW 5935   2.538   2.112   4.521
 1679SOL    HW1 5936   2.451   2.069   4.499
 1679SOL    HW2 5937   2.602   2.042   4.554
 1680SOL     OW 5938   0.346   2.991   5.553
 1680SOL    HW1 5939   0.321   3.086   5.573
 1680SOL    HW2 5940   0.291   2.958   5.476
 1681SOL     OW 5941   0.400   5.004   0.044
 1681SOL    HW1 5942   0.426   5.076   7.003
 1681SOL    HW2 5943   0.397   4.916   7.019
 1682SOL     OW 5944   1.898   0.858   5.852
 1682SOL    HW1 5945   1.946   0.932   5.805
 1682SOL    HW2 5946   1.919   0.771   5.808
 1683SOL     OW 5947   5.962   5.501   2.635
 1683SOL    HW1 5948   6.010   5.441   2.700
 1683SOL    HW2 5949   5.971   5.464   2.543
 1684SOL     OW 5950   0.788   6.322   2.136
 1684SOL    HW1 5951   0.715   6.365   2.188
 1684SOL    HW2 5952   0.827   6.246   2.188
 1685SOL     OW 5953   1.588   1.153   5.588
 1685SOL    HW1 5954   1.607   1.060   5.621
 1685SOL    HW2 5955   1.592   1.217   5.665
 1686SOL     OW 5956   2.536   6.258   4.301
 1686SOL    HW1 5957   2.602   6.309   4.245
 1686SOL    HW2 5958   2.573   6.246   4.393
 1687SOL     OW 5959   1.513   2.885   1.813
 1687SOL    HW1 5960   1.548   2.913   1.903
 1687SOL    HW2 5961   1.540   2.790   1.795
 1688SOL     OW 5962   2.497   2.116   3.639
 1688SOL    HW1 5963   2.534   2.097   3.548
 1688SOL    HW2 5964   2.570   2.151   3.698
 1689SOL     OW 5965   6.194   0.545   3.170
 1689SOL    HW1 5966   6.281   0.504   3.142
 1689SOL    HW2 5967   6.203   0.580   3.264
 1690SOL     OW 5968   1.468   2.691   4.384
 1690SOL    HW1 5969   1.529   2.613   4.390
 1690SOL    HW2 5970   1.380   2.669   4.427
 1691SOL     OW 5971   5.147   3.055   3.461
 1691SOL    HW1 5972   5.071   3.119   3.472
 1691SOL    HW2 5973   5.115   2.962   3.479
 1692SOL     OW 5974   5.017   6.288   1.041
 1692SOL    HW1 5975   5.045   6.201   1.082
 1692SOL    HW2 5976   5.086   6.358   1.061
 1693SOL     OW 5977   6.159   2.029   2.986
 1693SOL    HW1 5978   6.176   1.980   2.901
 1693SOL    HW2 5979   6.130   1.964   3.057
 1694SOL     OW 5980   5.908   1.803   3.261
 1694SOL    HW1 5981   5.963   1.756   3.192
 1694SOL    HW2 5982   5.826   1.840   3.218
 1695SOL     OW 5983   4.194   0.611   6.181
 1695SOL    HW1 5984   4.294   0.606   6.181
 1695SOL    HW2 5985   4.165   0.704   6.202
 1696SOL     OW 5986   4.097   6.328   1.313
 1696SOL    HW1 5987   4.160   6.367   1.245
 1696SOL    HW2 5988   4.117   6.366   1.403
 1697SOL     OW 5989   6.278   1.405   0.706
 1697SOL    HW1 5990   6.237   1.362   0.786
 1697SOL    HW2 5991   6.211   1.467   0.663
 1698SOL     OW 5992   3.455   6.899   0.624
 1698SOL    HW1 5993   3.492   6.946   0.544
 1698SOL    HW2 5994   3.390   6.958   0.671
 1699SOL     OW 5995   2.413   1.287   6.715
 1699SOL    HW1 5996   2.512   1.273   6.715
 1699SOL    HW2 5997   2.367   1.201   6.697
 1700SOL     OW 5998   6.252   4.659   3.703
 1700SOL    HW1 5999   6.230   4.718   3.780
 1700SOL    HW2 6000   6.283   4.715   3.626
 1701SOL     OW 6001   5.678   5.127   6.088
 1701SOL    HW1 6002   5.683   5.087   5.997
 1701SOL    HW2 6003   5.679   5.226   6.082
 1702SOL     OW 6004   6.335   1.138   1.183
 1702SOL    HW1 6005   6.414   1.161   1.127
 1702SOL    HW2 6006   6.278   1.072   1.134
 1703SOL     OW 6007   3.585   1.586   0.213
 1703SOL    HW1 6008   3.679   1.618   0.204
 1703SOL    HW2 6009   3.531   1.654   0.263
 1704SOL     OW 6010   0.574   1.858   0.336
 1704SOL    HW1 6011   0.627   1.884   0.417
 1704SOL    HW2 6012   0.490   1.912   0.331
 1705SOL     OW 6013   3.085   2.092   2.003
 1705SOL    HW1 6014   3.100   2.055   2.094
 1705SOL    HW2 6015   3.022   2.169   2.008
 1706SOL     OW 6016   5.331   1.299   1.732
 1706SOL    HW1 6017   5.270   1.221   1.743
 1706SOL    HW2 6018   5.342   1.318   1.634
 1707SOL     OW 6019   4.291   1.911   2.721
 1707SOL    HW1 6020   4.255   1.995   2.762
 1707SOL    HW2 6021   4.324   1.850   2.793
 1708SOL     OW 6022   4.877   5.790   1.933
 1708SOL    HW1 6023   4.882   5.860   1.862
 1708SOL    HW2 6024   4.799   5.808   1.993
 1709SOL     OW 6025   3.273   6.578   2.838
 1709SOL    HW1 6026   3.207   6.512   2.871
 1709SOL    HW2 6027   3.364   6.553   2.870
 1710SOL     OW 6028   4.576   4.902   3.273
 1710SOL    HW1 6029   4.529   4.989   3.261
 1710SOL    HW2 6030   4.616   4.898   3.365
 1711SOL     OW 6031   1.955   4.785   4.527
 1711SOL    HW1 6032   1.932   4.735   4.443
 1711SOL    HW2 6033   1.885   4.854   4.545
 1712SOL     OW 6034   6.623   3.037   4.252
 1712SOL    HW1 6035   6.659   3.046   4.345
 1712SOL    HW2 6036   6.608   2.941   4.231
 1713SOL     OW 6037   4.653   2.581   2.020
 1713SOL    HW1 6038   4.749   2.566   1.994
 1713SOL    HW2 6039   4.598   2.504   1.987
 1714SOL     OW 6040   3.624   1.222   6.333
 1714SOL    HW1 6041   3.538   1.189   6.293
 1714SOL    HW2 6042   3.655   1.302   6.282
 1715SOL     OW 6043   2.324   5.374   3.314
 1715SOL    HW1 6044   2.263   5.438   3.268
 1715SOL    HW2 6045   2.387   5.425   3.373
 1716SOL     OW 6046   3.891   6.971   2.991
 1716SOL    HW1 6047   3.985   6.947   3.014
 1716SOL    HW2 6048   3.864   0.030   3.043
 1717SOL     OW 6049   3.204   5.817   4.850
 1717SOL    HW1 6050   3.263   5.768   4.914
 1717SOL    HW2 6051   3.158   5.752   4.790
 1718SOL     OW 6052   3.402   0.949   2.071
 1718SOL    HW1 6053   3.377   0.909   1.983
 1718SOL    HW2 6054   3.338   1.022   2.094
 1719SOL     OW 6055   2.132   2.718   0.940
 1719SOL    HW1 6056   2.131   2.658   0.860
 1719SOL    HW2 6057   2.166   2.668   1.019
 1720SOL     OW 6058   0.047   3.444   0.056
 1720SOL    HW1 6059   0.101   3.366   0.086
 1720SOL    HW2 6060   7.009   3.416   7.004
 1721SOL     OW 6061   1.786   6.517   1.385
 1721SOL    HW1 6062   1.719   6.444   1.395
 1721SOL    HW2 6063   1.846   6.497   1.307
 1722SOL     OW 6064   2.918   1.650   4.395
 1722SOL    HW1 6065   2.904   1.586   4.320
 1722SOL    HW2 6066   3.013   1.682   4.393
 1723SOL     OW 6067   6.186   2.339   0.133
 1723SOL    HW1 6068   6.133   2.354   0.216
 1723SOL    HW2 6069   6.156   2.254   0.089
 1724SOL     OW 6070   0.425   3.085   2.414
 1724SOL    HW1 6071   0.342   3.043   2.449
 1724SOL    HW2 6072   0.448   3.044   2.326
 1725SOL     OW 6073   2.030   4.987   6.224
 1725SOL    HW1 6074   1.952   5.046   6.204
 1725SOL    HW2 6075   2.112   5.023   6.179
 1726SOL     OW 6076   5.609   4.504   5.236
 1726SOL    HW1 6077   5.601   4.405   5.242
 1726SOL    HW2 6078   5.547   4.547   5.301
 1727SOL     OW 6079   3.599   3.090   3.622
 1727SOL    HW1 6080   3.645   3.107   3.709
 1727SOL    HW2 6081   3.520   3.030   3.637
 1728SOL     OW 6082   5.860   5.598   5.125
 1728SOL    HW1 6083   5.927   5.551   5.182
 1728SOL    HW2 6084   5.798   5.651   5.183
 1729SOL     OW 6085   2.112   3.850   3.095
 1729SOL    HW1 6086   2.105   3.891   3.186
 1729SOL    HW2 6087   2.116   3.922   3.026
 1730SOL     OW 6088   2.218   0.228   5.487
 1730SOL    HW1 6089   2.228   0.326   5.504
 1730SOL    HW2 6090   2.284   0.200   5.417
 1731SOL     OW 6091   0.771   4.219   3.885
 1731SOL    HW1 6092   0.704   4.215   3.811
 1731SOL    HW2 6093   0.800   4.313   3.899
 1732SOL     OW 6094   2.422   4.884   5.747
 1732SOL    HW1 6095   2.391   4.808   5.805
 1732SOL    HW2 6096   2.421   4.969   5.799
 1733SOL     OW 6097   1.671   4.095   1.502
 1733SOL    HW1 6098   1.609   4.134   1.434
 1733SOL    HW2 6099   1.744   4.046   1.457
 1734SOL     OW 6100   4.585   2.777   1.364
 1734SOL    HW1 6101   4.504   2.728   1.331
 1734SOL    HW2 6102   4.591   2.866   1.320
 1735SOL     OW 6103   4.342   5.449   6.404
 1735SOL    HW1 6104   4.368   5.544   6.417
 1735SOL    HW2 6105   4.291   5.416   6.483
 1736SOL     OW 6106   3.477   3.661   1.139
 1736SOL    HW1 6107   3.555   3.704   1.184
 1736SOL    HW2 6108   3.393   3.688   1.185
 1737SOL     OW 6109   4.624   0.814   4.797
 1737SOL    HW1 6110   4.608   0.739   4.860
 1737SOL    HW2 6111   4.686   0.785   4.724
 1738SOL     OW 6112   2.100   2.694   4.617
 1738SOL    HW1 6113   2.091   2.599   4.587
 1738SOL    HW2 6114   2.122   2.696   4.714
 1739SOL     OW 6115   0.160   2.019   5.280
 1739SOL    HW1 6116   0.095   1.944   5.268
 1739SOL    HW2 6117   0.206   2.037   5.193
 1740SOL     OW 6118   0.150   2.211   5.009
 1740SOL    HW1 6119   0.181   2.142   4.943
 1740SOL    HW2 6120   0.222   2.229   5.076
 1741SOL     OW 6121   2.522   0.314   4.510
 1741SOL    HW1 6122   2.469   0.310   4.595
 1741SOL    HW2 6123   2.486   0.388   4.453
 1742SOL     OW 6124   6.158   0.790   5.588
 1742SOL    HW1 6125   6.194   0.852   5.518
 1742SOL    HW2 6126   6.131   0.704   5.545
 1743SOL     OW 6127   0.751   2.060   2.224
 1743SOL    HW1 6128   0.740   2.064   2.323
 1743SOL    HW2 6129   0.719   2.145   2.184
 1744SOL     OW 6130   6.305   3.408   3.334
 1744SOL    HW1 6131   6.266   3.441   3.247
 1744SOL    HW2 6132   6.239   3.424   3.407
 1745SOL     OW 6133   5.293   5.625   2.445
 1745SOL    HW1 6134   5.235   5.639   2.525
 1745SOL    HW2 6135   5.388   5.613   2.473
 1746SOL     OW 6136   1.419   4.163   4.125
 1746SOL    HW1 6137   1.349   4.143   4.193
 1746SOL    HW2 6138   1.384   4.142   4.033
 1747SOL     OW 6139   4.574   1.582   2.443
 1747SOL    HW1 6140   4.611   1.540   2.526
 1747SOL    HW2 6141   4.506   1.651   2.469
 1748SOL     OW 6142   0.237   2.029   4.842
 1748SOL    HW1 6143   0.290   2.037   4.757
 1748SOL    HW2 6144   0.149   1.986   4.823
 1749SOL     OW 6145   2.532   6.828   5.689
 1749SOL    HW1 6146   2.554   6.846   5.593
 1749SOL    HW2 6147   2.499   6.912   5.732
 1750SOL     OW 6148   5.034   5.942   3.693
 1750SOL    HW1 6149   5.027   6.039   3.672
 1750SOL    HW2 6150   4.991   5.889   3.619
 1751SOL     OW 6151   4.120   1.792   4.196
 1751SOL    HW1 6152   4.024   1.787   4.168
 1751SOL    HW2 6153   4.126   1.830   4.288
 1752SOL     OW 6154   6.211   0.985   2.217
 1752SOL    HW1 6155   6.242   1.068   2.263
 1752SOL    HW2 6156   6.205   0.910   2.284
 1753SOL     OW 6157   6.976   0.723   1.360
 1753SOL    HW1 6158   7.016   0.644   1.313
 1753SOL    HW2 6159   6.989   0.805   1.303
 1754SOL     OW 6160   1.600   4.814   6.910
 1754SOL    HW1 6161   1.654   4.874   6.851
 1754SOL    HW2 6162   1.522   4.778   6.858
 1755SOL     OW 6163   0.140   5.669   0.379
 1755SOL    HW1 6164   0.222   5.696   0.328
 1755SOL    HW2 6165   0.063   5.656   0.317
 1756SOL     OW 6166   4.042   5.187   5.253
 1756SOL    HW1 6167   4.142   5.184   5.260
 1756SOL    HW2 6168   4.004   5.099   5.280
 1757SOL     OW 6169   2.789   5.170   4.947
 1757SOL    HW1 6170   2.750   5.107   4.880
 1757SOL    HW2 6171   2.720   5.236   4.975
 1758SOL     OW 6172   2.072   1.191   4.559
 1758SOL    HW1 6173   2.069   1.291   4.550
 1758SOL    HW2 6174   2.132   1.167   4.635
 1759SOL     OW 6175   2.876   5.959   5.750
 1759SOL    HW1 6176   2.886   5.887   5.681
 1759SOL    HW2 6177   2.947   5.949   5.820
 1760SOL     OW 6178   5.729   0.842   3.397
 1760SOL    HW1 6179   5.691   0.885   3.315
 1760SOL    HW2 6180   5.656   0.796   3.447
 1761SOL     OW 6181   0.589   0.921   1.618
 1761SOL    HW1 6182   0.539   1.001   1.585
 1761SOL    HW2 6183   0.665   0.901   1.556
 1762SOL     OW 6184   0.185   0.971   4.506
 1762SOL    HW1 6185   0.187   1.020   4.419
 1762SOL    HW2 6186   0.148   0.879   4.492
 1763SOL     OW 6187   0.851   4.530   4.632
 1763SOL    HW1 6188   0.768   4.479   4.651
 1763SOL    HW2 6189   0.923   4.467   4.601
 1764SOL     OW 6190   2.046   3.296   2.231
 1764SOL    HW1 6191   2.035   3.379   2.285
 1764SOL    HW2 6192   2.059   3.319   2.135
 1765SOL     OW 6193   3.846   0.756   1.519
 1765SOL    HW1 6194   3.801   0.845   1.519
 1765SOL    HW2 6195   3.943   0.768   1.497
 1766SOL     OW 6196   5.933   4.994   3.704
 1766SOL    HW1 6197   6.028   4.965   3.690
 1766SOL    HW2 6198   5.926   5.046   3.790
 1767SOL     OW 6199   0.898   4.114   2.983
 1767SOL    HW1 6200   0.843   4.195   2.964
 1767SOL    HW2 6201   0.928   4.116   3.078
 1768SOL     OW 6202   3.304   0.805   6.646
 1768SOL    HW1 6203   3.220   0.771   6.605
 1768SOL    HW2 6204   3.367   0.728   6.661
 1769SOL     OW 6205   5.463   1.275   6.835
 1769SOL    HW1 6206   5.450   1.374   6.828
 1769SOL    HW2 6207   5.558   1.252   6.814
 1770SOL     OW 6208   6.733   4.846   5.131
 1770SOL    HW1 6209   6.730   4.836   5.032
 1770SOL    HW2 6210   6.806   4.909   5.157
 1771SOL     OW 6211   1.303   4.903   0.555
 1771SOL    HW1 6212   1.204   4.899   0.570
 1771SOL    HW2 6213   1.350   4.876   0.639
 1772SOL     OW 6214   3.667   6.003   3.547
 1772SOL    HW1 6215   3.725   5.938   3.499
 1772SOL    HW2 6216   3.621   5.957   3.623
 1773SOL     OW 6217   2.536   2.665   5.916
 1773SOL    HW1 6218   2.479   2.631   5.841
 1773SOL    HW2 6219   2.514   2.761   5.933
 1774SOL     OW 6220   5.371   6.296   1.734
 1774SOL    HW1 6221   5.326   6.384   1.723
 1774SOL    HW2 6222   5.308   6.223   1.709
 1775SOL     OW 6223   1.833   5.046   5.903
 1775SOL    HW1 6224   1.805   5.065   5.809
 1775SOL    HW2 6225   1.911   4.983   5.902
 1776SOL     OW 6226   4.956   0.772   6.461
 1776SOL    HW1 6227   4.868   0.748   6.422
 1776SOL    HW2 6228   4.966   0.872   6.463
 1777SOL     OW 6229   3.229   6.908   6.472
 1777SOL    HW1 6230   3.171   6.944   6.399
 1777SOL    HW2 6231   3.283   6.982   6.511
 1778SOL     OW 6232   4.803   1.737   4.072
 1778SOL    HW1 6233   4.847   1.660   4.026
 1778SOL    HW2 6234   4.872   1.792   4.119
 1779SOL     OW 6235   5.252   1.279   5.318
 1779SOL    HW1 6236   5.297   1.261   5.231
 1779SOL    HW2 6237   5.179   1.346   5.305
 1780SOL     OW 6238   2.038   4.007   5.700
 1780SOL    HW1 6239   2.114   3.946   5.678
 1780SOL    HW2 6240   2.074   4.090   5.742
 1781SOL     OW 6241   5.732   6.027   4.565
 1781SOL    HW1 6242   5.706   6.027   4.469
 1781SOL    HW2 6243   5.651   6.035   4.622
 1782SOL     OW 6244   2.736   0.772   2.302
 1782SOL    HW1 6245   2.711   0.753   2.207
 1782SOL    HW2 6246   2.784   0.859   2.308
 1783SOL     OW 6247   2.937   3.138   6.241
 1783SOL    HW1 6248   2.870   3.146   6.315
 1783SOL    HW2 6249   2.890   3.108   6.157
 1784SOL     OW 6250   2.341   1.588   1.198
 1784SOL    HW1 6251   2.395   1.644   1.135
 1784SOL    HW2 6252   2.301   1.511   1.149
 1785SOL     OW 6253   5.957   6.232   3.705
 1785SOL    HW1 6254   5.868   6.188   3.689
 1785SOL    HW2 6255   5.976   6.297   3.631
 1786SOL     OW 6256   1.918   4.272   0.159
 1786SOL    HW1 6257   1.971   4.189   0.143
 1786SOL    HW2 6258   1.904   4.319   0.072
 1787SOL     OW 6259   2.586   2.033   5.986
 1787SOL    HW1 6260   2.626   2.034   5.894
 1787SOL    HW2 6261   2.611   2.117   6.034
 1788SOL     OW 6262   4.421   4.086   0.011
 1788SOL    HW1 6263   4.435   4.132   6.946
 1788SOL    HW2 6264   4.334   4.116   0.050
 1789SOL     OW 6265   5.798   3.251   2.144
 1789SOL    HW1 6266   5.840   3.325   2.196
 1789SOL    HW2 6267   5.699   3.267   2.138
 1790SOL     OW 6268   2.533   0.846   4.648
 1790SOL    HW1 6269   2.463   0.897   4.598
 1790SOL    HW2 6270   2.515   0.853   4.747
 1791SOL     OW 6271   6.305   1.742   3.857
 1791SOL    HW1 6272   6.372   1.789   3.915
 1791SOL    HW2 6273   6.307   1.644   3.877
 1792SOL     OW 6274   6.839   0.954   4.501
 1792SOL    HW1 6275   6.909   0.883   4.492
 1792SOL    HW2 6276   6.882   1.044   4.488
 1793SOL     OW 6277   6.113   1.639   4.447
 1793SOL    HW1 6278   6.118   1.736   4.422
 1793SOL    HW2 6279   6.070   1.587   4.373
 1794SOL     OW 6280   5.190   6.444   5.222
 1794SOL    HW1 6281   5.198   6.487   5.312
 1794SOL    HW2 6282   5.093   6.437   5.197
 1795SOL     OW 6283   6.757   5.535   2.251
 1795SOL    HW1 6284   6.839   5.477   2.247
 1795SOL    HW2 6285   6.755   5.584   2.338
 1796SOL     OW 6286   2.621   1.721   5.401
 1796SOL    HW1 6287   2.540   1.664   5.413
 1796SOL    HW2 6288   2.701   1.662   5.388
 1797SOL     OW 6289   1.280   7.002   5.446
 1797SOL    HW1 6290   1.209   0.030   5.398
 1797SOL    HW2 6291   1.342   6.959   5.380
 1798SOL     OW 6292   3.592   2.914   4.963
 1798SOL    HW1 6293   3.546   2.842   4.911
 1798SOL    HW2 6294   3.598   2.997   4.907
 1799SOL     OW 6295   5.237   2.768   6.479
 1799SOL    HW1 6296   5.203   2.785   6.572
 1799SOL    HW2 6297   5.324   2.816   6.466
 1800SOL     OW 6298   5.023   5.331   3.422
 1800SOL    HW1 6299   4.978   5.381   3.496
 1800SOL    HW2 6300   5.120   5.319   3.445
 1801SOL     OW 6301   1.507   1.498   2.638
 1801SOL    HW1 6302   1.593   1.511   2.590
 1801SOL    HW2 6303   1.515   1.421   2.702
 1802SOL     OW 6304   6.808   5.920   3.513
 1802SOL    HW1 6305   6.794   5.825   3.485
 1802SOL    HW2 6306   6.739   5.945   3.581
 1803SOL     OW 6307   0.056   0.131   2.015
 1803SOL    HW1 6308   0.019   0.105   2.105
 1803SOL    HW2 6309   0.094   0.050   1.970
 1804SOL     OW 6310   4.291   3.924   5.380
 1804SOL    HW1 6311   4.353   3.847   5.365
 1804SOL    HW2 6312   4.197   3.891   5.386
 1805SOL     OW 6313   0.675   5.183   5.891
 1805SOL    HW1 6314   0.756   5.241   5.883
 1805SOL    HW2 6315   0.612   5.203   5.816
 1806SOL     OW 6316   0.683   2.697   1.672
 1806SOL    HW1 6317   0.721   2.736   1.589
 1806SOL    HW2 6318   0.585   2.715   1.676
 1807SOL     OW 6319   6.247   2.479   6.421
 1807SOL    HW1 6320   6.157   2.489   6.464
 1807SOL    HW2 6321   6.294   2.567   6.421
 1808SOL     OW 6322   6.030   4.039   4.843
 1808SOL    HW1 6323   6.049   4.039   4.941
 1808SOL    HW2 6324   6.075   4.118   4.800
 1809SOL     OW 6325   2.576   2.154   5.230
 1809SOL    HW1 6326   2.513   2.214   5.181
 1809SOL    HW2 6327   2.663   2.200   5.244
 1810SOL     OW 6328   0.795   0.730   4.833
 1810SOL    HW1 6329   0.863   0.754   4.902
 1810SOL    HW2 6330   0.811   0.637   4.800
 1811SOL     OW 6331   5.316   4.626   2.841
 1811SOL    HW1 6332   5.281   4.542   2.799
 1811SOL    HW2 6333   5.385   4.667   2.781
 1812SOL     OW 6334   4.647   6.859   6.881
 1812SOL    HW1 6335   4.567   6.873   6.822
 1812SOL    HW2 6336   4.648   6.929   6.952
 1813SOL     OW 6337   5.270   5.476   2.033
 1813SOL    HW1 6338   5.179   5.517   2.029
 1813SOL    HW2 6339   5.287   5.425   1.948
 1814SOL     OW 6340   6.134   0.550   0.541
 1814SOL    HW1 6341   6.179   0.604   0.612
 1814SOL    HW2 6342   6.035   0.554   0.555
 1815SOL     OW 6343   6.221   0.190   3.279
 1815SOL    HW1 6344   6.306   0.242   3.279
 1815SOL    HW2 6345   6.145   0.251   3.255
 1816SOL     OW 6346   3.300   4.885   6.646
 1816SOL    HW1 6347   3.345   4.805   6.605
 1816SOL    HW2 6348   3.293   4.958   6.579
 1817SOL     OW 6349   3.864   0.347   2.920
 1817SOL    HW1 6350   3.961   0.362   2.897
 1817SOL    HW2 6351   3.807   0.374   2.842
 1818SOL     OW 6352   1.556   6.698   0.673
 1818SOL    HW1 6353   1.522   6.629   0.737
 1818SOL    HW2 6354   1.596   6.774   0.725
 1819SOL     OW 6355   1.259   5.987   1.892
 1819SOL    HW1 6356   1.340   5.930   1.911
 1819SOL    HW2 6357   1.177   5.932   1.905
 1820SOL     OW 6358   3.418   0.372   2.069
 1820SOL    HW1 6359   3.363   0.453   2.051
 1820SOL    HW2 6360   3.429   0.361   2.168
 1821SOL     OW 6361   2.827   0.591   1.754
 1821SOL    HW1 6362   2.884   0.672   1.765
 1821SOL    HW2 6363   2.837   0.532   1.835
 1822SOL     OW 6364   1.285   3.033   1.337
 1822SOL    HW1 6365   1.263   3.098   1.264
 1822SOL    HW2 6366   1.276   3.078   1.426
 1823SOL     OW 6367   2.720   6.250   3.018
 1823SOL    HW1 6368   2.797   6.302   3.056
 1823SOL    HW2 6369   2.741   6.152   3.021
 1824SOL     OW 6370   3.876   4.281   0.275
 1824SOL    HW1 6371   3.893   4.305   0.180
 1824SOL    HW2 6372   3.915   4.352   0.334
 1825SOL     OW 6373   0.542   2.777   4.445
 1825SOL    HW1 6374   0.457   2.745   4.404
 1825SOL    HW2 6375   0.584   2.846   4.384
 1826SOL     OW 6376   2.636   0.704   1.186
 1826SOL    HW1 6377   2.571   0.703   1.110
 1826SOL    HW2 6378   2.635   0.615   1.232
 1827SOL     OW 6379   6.076   5.171   1.019
 1827SOL    HW1 6380   6.050   5.088   1.068
 1827SOL    HW2 6381   6.173   5.189   1.031
 1828SOL     OW 6382   1.457   2.654   6.872
 1828SOL    HW1 6383   1.512   2.570   6.869
 1828SOL    HW2 6384   1.510   2.730   6.834
 1829SOL     OW 6385   3.556   6.769   3.264
 1829SOL    HW1 6386   3.549   6.853   3.317
 1829SOL    HW2 6387   3.464   6.741   3.234
 1830SOL     OW 6388   5.723   6.213   4.311
 1830SOL    HW1 6389   5.652   6.218   4.242
 1830SOL    HW2 6390   5.808   6.251   4.275
 1831SOL     OW 6391   5.373   6.437   2.963
 1831SOL    HW1 6392   5.356   6.528   3.002
 1831SOL    HW2 6393   5.385   6.371   3.037
 1832SOL     OW 6394   3.828   1.843   0.385
 1832SOL    HW1 6395   3.856   1.833   0.289
 1832SOL    HW2 6396   3.788   1.933   0.399
 1833SOL     OW 6397   5.636   0.701   1.871
 1833SOL    HW1 6398   5.648   0.616   1.820
 1833SOL    HW2 6399   5.569   0.688   1.944
 1834SOL     OW 6400   1.862   4.190   1.087
 1834SOL    HW1 6401   1.955   4.154   1.080
 1834SOL    HW2 6402   1.828   4.176   1.179
 1835SOL     OW 6403   1.002   4.501   1.706
 1835SOL    HW1 6404   0.911   4.526   1.675
 1835SOL    HW2 6405   1.071   4.556   1.658
 1836SOL     OW 6406   5.665   2.412   1.984
 1836SOL    HW1 6407   5.598   2.345   1.952
 1836SOL    HW2 6408   5.734   2.365   2.039
 1837SOL     OW 6409   1.472   6.869   6.027
 1837SOL    HW1 6410   1.506   6.862   5.933
 1837SOL    HW2 6411   1.549   6.863   6.090
 1838SOL     OW 6412   5.750   1.139   6.035
 1838SOL    HW1 6413   5.754   1.072   6.109
 1838SOL    HW2 6414   5.665   1.127   5.983
 1839SOL     OW 6415   6.984   1.190   5.698
 1839SOL    HW1 6416   0.048   1.201   5.650
 1839SOL    HW2 6417   6.912   1.237   5.648
 1840SOL     OW 6418   4.013   0.168   2.299
 1840SOL    HW1 6419   3.940   0.102   2.279
 1840SOL    HW2 6420   3.978   0.239   2.361
 1841SOL     OW 6421   2.362   0.038   2.879
 1841SOL    HW1 6422   2.401   0.057   2.969
 1841SOL    HW2 6423   2.435   0.028   2.812
 1842SOL     OW 6424   0.878   5.618   1.196
 1842SOL    HW1 6425   0.828   5.532   1.192
 1842SOL    HW2 6426   0.974   5.600   1.220
 1843SOL     OW 6427   5.687   0.440   4.252
 1843SOL    HW1 6428   5.618   0.480   4.313
 1843SOL    HW2 6429   5.769   0.497   4.252
 1844SOL     OW 6430   3.945   0.329   5.235
 1844SOL    HW1 6431   3.903   0.419   5.246
 1844SOL    HW2 6432   3.897   0.278   5.164
 1845SOL     OW 6433   2.856   6.659   4.166
 1845SOL    HW1 6434   2.884   6.651   4.070
 1845SOL    HW2 6435   2.809   6.745   4.180
 1846SOL     OW 6436   4.170   0.718   3.401
 1846SOL    HW1 6437   4.265   0.745   3.385
 1846SOL    HW2 6438   4.114   0.800   3.411
 1847SOL     OW 6439   1.653   6.963   5.326
 1847SOL    HW1 6440   1.665   6.912   5.411
 1847SOL    HW2 6441   1.566   6.937   5.283
 1848SOL     OW 6442   1.969   6.247   4.050
 1848SOL    HW1 6443   2.043   6.190   4.016
 1848SOL    HW2 6444   1.899   6.257   3.979
 1849SOL     OW 6445   4.324   2.716   1.175
 1849SOL    HW1 6446   4.324   2.621   1.145
 1849SOL    HW2 6447   4.253   2.729   1.244
 1850SOL     OW 6448   6.256   2.333   2.216
 1850SOL    HW1 6449   6.330   2.389   2.179
 1850SOL    HW2 6450   6.213   2.282   2.142
 1851SOL     OW 6451   1.321   3.344   0.176
 1851SOL    HW1 6452   1.308   3.284   0.255
 1851SOL    HW2 6453   1.416   3.341   0.147
 1852SOL     OW 6454   0.456   4.592   2.804
 1852SOL    HW1 6455   0.515   4.573   2.725
 1852SOL    HW2 6456   0.501   4.658   2.864
 1853SOL     OW 6457   7.021   2.744   3.045
 1853SOL    HW1 6458   6.948   2.762   2.979
 1853SOL    HW2 6459   0.082   2.719   2.997
 1854SOL     OW 6460   1.773   4.985   2.631
 1854SOL    HW1 6461   1.713   4.979   2.710
 1854SOL    HW2 6462   1.747   5.064   2.575
 1855SOL     OW 6463   4.916   3.338   5.646
 1855SOL    HW1 6464   4.970   3.284   5.581
 1855SOL    HW2 6465   4.888   3.423   5.603
 1856SOL     OW 6466   4.565   3.120   6.212
 1856SOL    HW1 6467   4.650   3.160   6.246
 1856SOL    HW2 6468   4.571   3.107   6.113
 1857SOL     OW 6469   4.310   1.593   0.121
 1857SOL    HW1 6470   4.340   1.510   0.168
 1857SOL    HW2 6471   4.237   1.570   0.056
 1858SOL     OW 6472   5.127   2.670   3.203
 1858SOL    HW1 6473   5.049   2.732   3.215
 1858SOL    HW2 6474   5.107   2.583   3.248
 1859SOL     OW 6475   4.573   1.694   3.694
 1859SOL    HW1 6476   4.647   1.628   3.709
 1859SOL    HW2 6477   4.589   1.775   3.749
 1860SOL     OW 6478   0.108   1.476   5.668
 1860SOL    HW1 6479   0.176   1.407   5.643
 1860SOL    HW2 6480   0.138   1.523   5.751
 1861SOL     OW 6481   5.030   0.831   2.726
 1861SOL    HW1 6482   5.106   0.806   2.786
 1861SOL    HW2 6483   5.042   0.925   2.694
 1862SOL     OW 6484   1.932   6.470   6.737
 1862SOL    HW1 6485   1.854   6.533   6.739
 1862SOL    HW2 6486   1.929   6.411   6.818
 1863SOL     OW 6487   6.815   2.435   2.193
 1863SOL    HW1 6488   6.768   2.350   2.217
 1863SOL    HW2 6489   6.760   2.513   2.222
 1864SOL     OW 6490   3.584   5.732   4.685
 1864SOL    HW1 6491   3.510   5.696   4.742
 1864SOL    HW2 6492   3.546   5.768   4.600
 1865SOL     OW 6493   3.154   0.969   0.934
 1865SOL    HW1 6494   3.248   0.999   0.921
 1865SOL    HW2 6495   3.091   1.043   0.907
 1866SOL     OW 6496   6.556   4.868   3.639
 1866SOL    HW1 6497   6.580   4.936   3.570
 1866SOL    HW2 6498   6.470   4.893   3.683
 1867SOL     OW 6499   2.122   3.562   1.667
 1867SOL    HW1 6500   2.190   3.535   1.598
 1867SOL    HW2 6501   2.164   3.557   1.758
 1868SOL     OW 6502   5.173   3.470   6.468
 1868SOL    HW1 6503   5.203   3.377   6.448
 1868SOL    HW2 6504   5.223   3.504   6.548
 1869SOL     OW 6505   6.265   3.231   4.669
 1869SOL    HW1 6506   6.269   3.138   4.706
 1869SOL    HW2 6507   6.255   3.227   4.570
 1870SOL     OW 6508   1.233   2.971   5.093
 1870SOL    HW1 6509   1.134   2.979   5.083
 1870SOL    HW2 6510   1.266   3.048   5.149
 1871SOL     OW 6511   6.081   0.101   0.470
 1871SOL    HW1 6512   6.177   0.082   0.450
 1871SOL    HW2 6513   6.073   0.138   0.562
 1872SOL     OW 6514   4.428   2.220   0.020
 1872SOL    HW1 6515   4.362   2.155   0.057
 1872SOL    HW2 6516   4.500   2.170   6.994
 1873SOL     OW 6517   6.898   0.336   5.559
 1873SOL    HW1 6518   6.929   0.389   5.480
 1873SOL    HW2 6519   6.871   0.398   5.632
 1874SOL     OW 6520   0.879   0.940   6.494
 1874SOL    HW1 6521   0.807   0.944   6.425
 1874SOL    HW2 6522   0.968   0.948   6.449
 1875SOL     OW 6523   6.355   0.039   0.493
 1875SOL    HW1 6524   6.429   0.095   0.456
 1875SOL    HW2 6525   6.356   0.045   0.593
 1876SOL     OW 6526   4.286   6.162   6.478
 1876SOL    HW1 6527   4.306   6.230   6.548
 1876SOL    HW2 6528   4.259   6.209   6.393
 1877SOL     OW 6529   0.755   1.832   3.187
 1877SOL    HW1 6530   0.843   1.867   3.219
 1877SOL    HW2 6531   0.746   1.735   3.210
 1878SOL     OW 6532   0.145   4.383   4.105
 1878SOL    HW1 6533   0.056   4.419   4.134
 1878SOL    HW2 6534   0.145   4.283   4.115
 1879SOL     OW 6535   2.783   5.710   3.961
 1879SOL    HW1 6536   2.868   5.725   4.011
 1879SOL    HW2 6537   2.714   5.671   4.023
 1880SOL     OW 6538   0.378   2.065   2.832
 1880SOL    HW1 6539   0.433   1.992   2.873
 1880SOL    HW2 6540   0.326   2.029   2.755
 1881SOL     OW 6541   1.195   1.720   3.594
 1881SOL    HW1 6542   1.169   1.787   3.525
 1881SOL    HW2 6543   1.294   1.724   3.610
 1882SOL     OW 6544   0.661   5.146   6.697
 1882SOL    HW1 6545   0.732   5.080   6.673
 1882SOL    HW2 6546   0.699   5.217   6.756
 1883SOL     OW 6547   0.974   3.464   4.086
 1883SOL    HW1 6548   0.905   3.491   4.152
 1883SOL    HW2 6549   1.004   3.544   4.034
 1884SOL     OW 6550   5.898   2.184   1.094
 1884SOL    HW1 6551   5.844   2.102   1.114
 1884SOL    HW2 6552   5.912   2.190   0.995
 1885SOL     OW 6553   0.160   2.031   1.098
 1885SOL    HW1 6554   0.246   2.044   1.148
 1885SOL    HW2 6555   0.150   2.103   1.029
 1886SOL     OW 6556   1.846   1.954   0.417
 1886SOL    HW1 6557   1.932   1.910   0.439
 1886SOL    HW2 6558   1.817   1.928   0.325
 1887SOL     OW 6559   0.319   4.536   5.749
 1887SOL    HW1 6560   0.336   4.439   5.766
 1887SOL    HW2 6561   0.265   4.547   5.666
 1888SOL     OW 6562   1.944   1.876   6.232
 1888SOL    HW1 6563   2.036   1.882   6.194
 1888SOL    HW2 6564   1.947   1.904   6.329
 1889SOL     OW 6565   4.808   3.162   6.333
 1889SOL    HW1 6566   4.855   3.086   6.378
 1889SOL    HW2 6567   4.781   3.230   6.400
 1890SOL     OW 6568   1.637   5.900   5.643
 1890SOL    HW1 6569   1.591   5.982   5.611
 1890SOL    HW2 6570   1.576   5.849   5.703
 1891SOL     OW 6571   5.174   3.534   4.210
 1891SOL    HW1 6572   5.233   3.522   4.291
 1891SOL    HW2 6573   5.102   3.465   4.211
 1892SOL     OW 6574   3.596   6.677   0.917
 1892SOL    HW1 6575   3.631   6.712   0.830
 1892SOL    HW2 6576   3.634   6.586   0.934
 1893SOL     OW 6577   3.496   1.822   5.582
 1893SOL    HW1 6578   3.411   1.784   5.546
 1893SOL    HW2 6579   3.571   1.799   5.520
 1894SOL     OW 6580   4.233   3.673   1.387
 1894SOL    HW1 6581   4.333   3.672   1.388
 1894SOL    HW2 6582   4.199   3.582   1.363
 1895SOL     OW 6583   5.743   0.739   2.739
 1895SOL    HW1 6584   5.672   0.806   2.713
 1895SOL    HW2 6585   5.744   0.729   2.838
 1896SOL     OW 6586   0.290   0.601   3.581
 1896SOL    HW1 6587   0.284   0.689   3.629
 1896SOL    HW2 6588   0.342   0.613   3.497
 1897SOL     OW 6589   6.967   5.054   2.992
 1897SOL    HW1 6590   6.987   5.015   3.082
 1897SOL    HW2 6591   0.025   5.047   2.933
 1898SOL     OW 6592   3.009   5.462   1.843
 1898SOL    HW1 6593   3.004   5.429   1.938
 1898SOL    HW2 6594   2.937   5.420   1.789
 1899SOL     OW 6595   1.092   2.851   2.899
 1899SOL    HW1 6596   0.999   2.819   2.914
 1899SOL    HW2 6597   1.123   2.824   2.808
 1900SOL     OW 6598   0.825   0.339   5.644
 1900SOL    HW1 6599   0.854   0.358   5.550
 1900SOL    HW2 6600   0.820   0.240   5.657
 1901SOL     OW 6601   2.516   1.533   1.411
 1901SOL    HW1 6602   2.563   1.617   1.437
 1901SOL    HW2 6603   2.466   1.548   1.325
 1902SOL     OW 6604   2.716   2.395   4.712
 1902SOL    HW1 6605   2.758   2.392   4.621
 1902SOL    HW2 6606   2.616   2.400   4.703
 1903SOL     OW 6607   0.010   4.369   3.719
 1903SOL    HW1 6608   6.976   4.288   3.731
 1903SOL    HW2 6609   7.009   4.437   3.789
 1904SOL     OW 6610   6.441   0.011   3.685
 1904SOL    HW1 6611   6.392   6.967   3.630
 1904SOL    HW2 6612   6.539   7.013   3.685
 1905SOL     OW 6613   0.946   2.237   4.088
 1905SOL    HW1 6614   1.027   2.202   4.135
 1905SOL    HW2 6615   0.881   2.163   4.073
 1906SOL     OW 6616   2.875   7.015   5.267
 1906SOL    HW1 6617   2.798   0.003   5.330
 1906SOL    HW2 6618   2.872   0.066   5.199
 1907SOL     OW 6619   2.995   6.397   3.407
 1907SOL    HW1 6620   2.947   6.378   3.493
 1907SOL    HW2 6621   3.083   6.440   3.427
 1908SOL     OW 6622   4.944   0.852   5.153
 1908SOL    HW1 6623   5.006   0.781   5.120
 1908SOL    HW2 6624   4.970   0.940   5.113
 1909SOL     OW 6625   1.652   4.253   3.008
 1909SOL    HW1 6626   1.699   4.301   3.082
 1909SOL    HW2 6627   1.586   4.188   3.047
 1910SOL     OW 6628   6.446   2.209   0.031
 1910SOL    HW1 6629   6.483   2.238   6.965
 1910SOL    HW2 6630   6.360   2.257   0.048
 1911SOL     OW 6631   6.134   1.967   5.611
 1911SOL    HW1 6632   6.074   2.030   5.562
 1911SOL    HW2 6633   6.079   1.895   5.653
 1912SOL     OW 6634   4.180   6.424   1.553
 1912SOL    HW1 6635   4.205   6.498   1.614
 1912SOL    HW2 6636   4.163   6.341   1.606
 1913SOL     OW 6637   2.161   6.230   5.514
 1913SOL    HW1 6638   2.130   6.240   5.420
 1913SOL    HW2 6639   2.083   6.237   5.576
 1914SOL     OW 6640   2.840   2.885   6.859
 1914SOL    HW1 6641   2.918   2.945   6.844
 1914SOL    HW2 6642   2.859   2.823   6.935
 1915SOL     OW 6643   4.163   1.087   5.347
 1915SOL    HW1 6644   4.089   1.151   5.324
 1915SOL    HW2 6645   4.247   1.137   5.362
 1916SOL     OW 6646   3.241   5.827   0.868
 1916SOL    HW1 6647   3.324   5.817   0.922
 1916SOL    HW2 6648   3.213   5.739   0.832
 1917SOL     OW 6649   4.051   3.238   4.891
 1917SOL    HW1 6650   4.013   3.150   4.863
 1917SOL    HW2 6651   4.026   3.308   4.825
 1918SOL     OW 6652   6.944   0.027   6.394
 1918SOL    HW1 6653   6.847   0.052   6.395
 1918SOL    HW2 6654   6.982   0.042   6.303
 1919SOL     OW 6655   2.148   6.593   1.667
 1919SOL    HW1 6656   2.137   6.528   1.591
 1919SOL    HW2 6657   2.246   6.612   1.680
 1920SOL     OW 6658   0.411   5.044   3.300
 1920SOL    HW1 6659   0.443   5.090   3.382
 1920SOL    HW2 6660   0.435   4.947   3.304
 1921SOL     OW 6661   0.947   4.121   6.746
 1921SOL    HW1 6662   0.939   4.102   6.648
 1921SOL    HW2 6663   0.995   4.208   6.759
 1922SOL     OW 6664   3.671   4.050   0.930
 1922SOL    HW1 6665   3.609   4.080   1.002
 1922SOL    HW2 6666   3.657   3.952   0.912
 1923SOL     OW 6667   3.564   0.937   6.414
 1923SOL    HW1 6668   3.600   0.912   6.504
 1923SOL    HW2 6669   3.572   1.035   6.400
 1924SOL     OW 6670   5.779   5.624   1.881
 1924SOL    HW1 6671   5.819   5.705   1.837
 1924SOL    HW2 6672   5.808   5.621   1.977
 1925SOL     OW 6673   3.094   4.049   2.160
 1925SOL    HW1 6674   3.046   3.962   2.152
 1925SOL    HW2 6675   3.040   4.121   2.115
 1926SOL     OW 6676   0.744   7.001   3.980
 1926SOL    HW1 6677   0.773   6.909   4.009
 1926SOL    HW2 6678   0.825   0.031   3.955
 1927SOL     OW 6679   3.490   4.978   6.338
 1927SOL    HW1 6680   3.585   5.006   6.351
 1927SOL    HW2 6681   3.487   4.896   6.282
 1928SOL     OW 6682   6.772   3.780   6.118
 1928SOL    HW1 6683   6.675   3.757   6.109
 1928SOL    HW2 6684   6.798   3.843   6.044
 1929SOL     OW 6685   0.858   5.892   1.117
 1929SOL    HW1 6686   0.859   5.794   1.137
 1929SOL    HW2 6687   0.945   5.918   1.073
 1930SOL     OW 6688   4.129   3.591   6.986
 1930SOL    HW1 6689   4.033   3.567   6.968
 1930SOL    HW2 6690   4.186   3.554   6.913
 1931SOL     OW 6691   0.301   2.655   3.227
 1931SOL    HW1 6692   0.251   2.701   3.300
 1931SOL    HW2 6693   0.365   2.719   3.184
 1932SOL     OW 6694   5.102   3.842   2.620
 1932SOL    HW1 6695   5.082   3.769   2.685
 1932SOL    HW2 6696   5.043   3.833   2.539
 1933SOL     OW 6697   3.012   4.165   0.427
 1933SOL    HW1 6698   3.082   4.098   0.455
 1933SOL    HW2 6699   2.922   4.129   0.448
 1934SOL     OW 6700   0.353   0.475   4.712
 1934SOL    HW1 6701   0.368   0.541   4.638
 1934SOL    HW2 6702   0.416   0.494   4.787
 1935SOL     OW 6703   3.350   0.313   4.666
 1935SOL    HW1 6704   3.256   0.319   4.634
 1935SOL    HW2 6705   3.412   0.333   4.590
 1936SOL     OW 6706   6.353   4.292   4.373
 1936SOL    HW1 6707   6.389   4.308   4.281
 1936SOL    HW2 6708   6.427   4.262   4.433
 1937SOL     OW 6709   5.042   6.558   0.716
 1937SOL    HW1 6710   4.969   6.559   0.784
 1937SOL    HW2 6711   5.030   6.480   0.655
 1938SOL     OW 6712   3.763   1.280   2.449
 1938SOL    HW1 6713   3.747   1.238   2.539
 1938SOL    HW2 6714   3.725   1.222   2.378
 1939SOL     OW 6715   0.571   6.885   5.057
 1939SOL    HW1 6716   0.665   6.889   5.023
 1939SOL    HW2 6717   0.562   6.808   5.121
 1940SOL     OW 6718   4.532   4.775   6.739
 1940SOL    HW1 6719   4.458   4.744   6.798
 1940SOL    HW2 6720   4.607   4.809   6.796
 1941SOL     OW 6721   0.150   3.950   3.118
 1941SOL    HW1 6722   0.149   3.867   3.062
 1941SOL    HW2 6723   0.191   3.930   3.207
 1942SOL     OW 6724   5.806   0.413   2.409
 1942SOL    HW1 6725   5.852   0.449   2.491
 1942SOL    HW2 6726   5.726   0.469   2.388
 1943SOL     OW 6727   2.579   6.165   2.024
 1943SOL    HW1 6728   2.602   6.196   2.116
 1943SOL    HW2 6729   2.482   6.140   2.021
 1944SOL     OW 6730   5.666   2.018   0.139
 1944SOL    HW1 6731   5.567   2.019   0.120
 1944SOL    HW2 6732   5.682   2.053   0.231
 1945SOL     OW 6733   3.717   6.053   2.449
 1945SOL    HW1 6734   3.621   6.058   2.422
 1945SOL    HW2 6735   3.765   6.135   2.416
 1946SOL     OW 6736   6.082   0.524   0.913
 1946SOL    HW1 6737   6.067   0.462   0.990
 1946SOL    HW2 6738   6.033   0.491   0.833
 1947SOL     OW 6739   4.890   6.387   4.154
 1947SOL    HW1 6740   4.943   6.314   4.112
 1947SOL    HW2 6741   4.939   6.474   4.146
 1948SOL     OW 6742   5.590   6.026   3.637
 1948SOL    HW1 6743   5.551   5.961   3.571
 1948SOL    HW2 6744   5.544   6.016   3.725
 1949SOL     OW 6745   4.344   4.149   6.049
 1949SOL    HW1 6746   4.342   4.219   6.120
 1949SOL    HW2 6747   4.384   4.187   5.966
 1950SOL     OW 6748   3.711   4.988   1.332
 1950SOL    HW1 6749   3.716   4.923   1.256
 1950SOL    HW2 6750   3.623   5.035   1.330
 1951SOL     OW 6751   6.193   3.999   0.003
 1951SOL    HW1 6752   6.132   3.931   0.044
 1951SOL    HW2 6753   6.242   4.048   0.075
 1952SOL     OW 6754   3.866   2.098   6.530
 1952SOL    HW1 6755   3.901   2.186   6.499
 1952SOL    HW2 6756   3.843   2.041   6.451
 1953SOL     OW 6757   5.889   3.309   6.830
 1953SOL    HW1 6758   5.846   3.329   6.741
 1953SOL    HW2 6759   5.840   3.233   6.873
 1954SOL     OW 6760   5.384   1.201   4.195
 1954SOL    HW1 6761   5.329   1.233   4.118
 1954SOL    HW2 6762   5.336   1.222   4.280
 1955SOL     OW 6763   1.444   0.648   2.480
 1955SOL    HW1 6764   1.410   0.734   2.520
 1955SOL    HW2 6765   1.539   0.634   2.509
 1956SOL     OW 6766   5.224   0.117   2.048
 1956SOL    HW1 6767   5.317   0.151   2.032
 1956SOL    HW2 6768   5.226   0.018   2.060
 1957SOL     OW 6769   6.259   5.981   5.022
 1957SOL    HW1 6770   6.177   6.039   5.025
 1957SOL    HW2 6771   6.275   5.951   4.928
 1958SOL     OW 6772   5.754   2.852   2.311
 1958SOL    HW1 6773   5.680   2.882   2.251
 1958SOL    HW2 6774   5.778   2.757   2.290
 1959SOL     OW 6775   0.876   1.266   5.335
 1959SOL    HW1 6776   0.822   1.292   5.416
 1959SOL    HW2 6777   0.854   1.327   5.259
 1960SOL     OW 6778   6.781   4.406   1.678
 1960SOL    HW1 6779   6.681   4.402   1.671
 1960SOL    HW2 6780   6.821   4.340   1.614
 1961SOL     OW 6781   5.990   4.677   4.432
 1961SOL    HW1 6782   5.908   4.672   4.489
 1961SOL    HW2 6783   6.041   4.760   4.455
 1962SOL     OW 6784   2.308   6.610   3.705
 1962SOL    HW1 6785   2.374   6.667   3.656
 1962SOL    HW2 6786   2.305   6.638   3.801
 1963SOL     OW 6787   1.163   1.167   1.570
 1963SOL    HW1 6788   1.219   1.121   1.501
 1963SOL    HW2 6789   1.134   1.100   1.639
 1964SOL     OW 6790   4.611   3.677   1.275
 1964SOL    HW1 6791   4.672   3.726   1.212
 1964SOL    HW2 6792   4.557   3.743   1.326
 1965SOL     OW 6793   1.149   3.390   4.369
 1965SOL    HW1 6794   1.096   3.469   4.401
 1965SOL    HW2 6795   1.089   3.328   4.317
 1966SOL     OW 6796   0.017   6.131   6.878
 1966SOL    HW1 6797   6.969   6.131   6.949
 1966SOL    HW2 6798   7.013   6.192   6.804
 1967SOL     OW 6799   4.394   2.337   4.594
 1967SOL    HW1 6800   4.363   2.364   4.685
 1967SOL    HW2 6801   4.494   2.337   4.591
 1968SOL     OW 6802   3.383   6.631   0.578
 1968SOL    HW1 6803   3.406   6.724   0.606
 1968SOL    HW2 6804   3.309   6.633   0.511
 1969SOL     OW 6805   0.939   1.821   1.975
 1969SOL    HW1 6806   0.993   1.834   1.893
 1969SOL    HW2 6807   0.989   1.857   2.054
 1970SOL     OW 6808   2.110   0.359   6.101
 1970SOL    HW1 6809   2.031   0.303   6.125
 1970SOL    HW2 6810   2.192   0.322   6.144
 1971SOL     OW 6811   0.089   0.294   5.752
 1971SOL    HW1 6812   0.018   0.335   5.695
 1971SOL    HW2 6813   0.087   0.195   5.741
 1972SOL     OW 6814   5.660   3.007   2.929
 1972SOL    HW1 6815   5.679   2.955   2.846
 1972SOL    HW2 6816   5.579   2.970   2.974
 1973SOL     OW 6817   2.498   2.689   0.585
 1973SOL    HW1 6818   2.443   2.770   0.602
 1973SOL    HW2 6819   2.438   2.610   0.571
 1974SOL     OW 6820   5.976   6.072   4.207
 1974SOL    HW1 6821   5.998   6.139   4.277
 1974SOL    HW2 6822   6.034   6.086   4.127
 1975SOL     OW 6823   2.488   1.626   3.426
 1975SOL    HW1 6824   2.481   1.656   3.521
 1975SOL    HW2 6825   2.435   1.543   3.412
 1976SOL     OW 6826   0.725   6.240   0.716
 1976SOL    HW1 6827   0.707   6.274   0.623
 1976SOL    HW2 6828   0.731   6.140   0.714
 1977SOL     OW 6829   0.985   3.220   3.964
 1977SOL    HW1 6830   1.063   3.162   3.986
 1977SOL    HW2 6831   0.997   3.310   4.006
 1978SOL     OW 6832   0.803   0.749   3.080
 1978SOL    HW1 6833   0.832   0.722   2.988
 1978SOL    HW2 6834   0.703   0.745   3.087
 1979SOL     OW 6835   6.232   4.755   5.743
 1979SOL    HW1 6836   6.148   4.704   5.725
 1979SOL    HW2 6837   6.275   4.720   5.825
 1980SOL     OW 6838   2.615   0.890   5.831
 1980SOL    HW1 6839   2.712   0.891   5.854
 1980SOL    HW2 6840   2.579   0.797   5.840
 1981SOL     OW 6841   6.154   2.078   2.298
 1981SOL    HW1 6842   6.193   2.170   2.298
 1981SOL    HW2 6843   6.143   2.046   2.204
 1982SOL     OW 6844   0.595   3.776   5.397
 1982SOL    HW1 6845   0.662   3.792   5.325
 1982SOL    HW2 6846   0.547   3.861   5.418
 1983SOL     OW 6847   0.946   0.868   2.718
 1983SOL    HW1 6848   1.024   0.837   2.772
 1983SOL    HW2 6849   0.978   0.920   2.639
 1984SOL     OW 6850   6.455   2.207   5.052
 1984SOL    HW1 6851   6.459   2.214   5.152
 1984SOL    HW2 6852   6.394   2.132   5.026
 1985SOL     OW 6853   0.911   6.645   2.715
 1985SOL    HW1 6854   1.008   6.667   2.718
 1985SOL    HW2 6855   0.865   6.702   2.647
 1986SOL     OW 6856   1.368   0.547   0.320
 1986SOL    HW1 6857   1.361   0.627   0.261
 1986SOL    HW2 6858   1.453   0.551   0.373
 1987SOL     OW 6859   1.656   2.722   1.217
 1987SOL    HW1 6860   1.625   2.730   1.312
 1987SOL    HW2 6861   1.612   2.643   1.175
 1988SOL     OW 6862   5.605   4.555   1.103
 1988SOL    HW1 6863   5.604   4.497   1.184
 1988SOL    HW2 6864   5.658   4.510   1.031
 1989SOL     OW 6865   2.718   6.615   4.501
 1989SOL    HW1 6866   2.678   6.549   4.565
 1989SOL    HW2 6867   2.802   6.577   4.461
 1990SOL     OW 6868   3.033   6.485   0.261
 1990SOL    HW1 6869   3.054   6.392   0.290
 1990SOL    HW2 6870   3.018   6.487   0.162
 1991SOL     OW 6871   4.219   4.692   6.280
 1991SOL    HW1 6872   4.148   4.636   6.238
 1991SOL    HW2 6873   4.184   4.733   6.364
 1992SOL     OW 6874   0.506   0.538   6.569
 1992SOL    HW1 6875   0.563   0.620   6.581
 1992SOL    HW2 6876   0.562   0.457   6.582
 1993SOL     OW 6877   3.859   3.142   4.575
 1993SOL    HW1 6878   3.894   3.236   4.579
 1993SOL    HW2 6879   3.761   3.143   4.596
 1994SOL     OW 6880   1.198   0.958   0.131
 1994SOL    HW1 6881   1.123   1.020   0.106
 1994SOL    HW2 6882   1.257   1.002   0.198
 1995SOL     OW 6883   5.535   2.582   2.782
 1995SOL    HW1 6884   5.478   2.660   2.754
 1995SOL    HW2 6885   5.477   2.514   2.827
 1996SOL     OW 6886   2.476   3.659   0.453
 1996SOL    HW1 6887   2.395   3.708   0.420
 1996SOL    HW2 6888   2.469   3.563   0.427
 1997SOL     OW 6889   4.458   0.875   5.053
 1997SOL    HW1 6890   4.489   0.867   4.958
 1997SOL    HW2 6891   4.359   0.860   5.057
 1998SOL     OW 6892   3.366   4.023   6.344
 1998SOL    HW1 6893   3.446   3.998   6.289
 1998SOL    HW2 6894   3.306   3.943   6.353
 1999SOL     OW 6895   3.274   6.680   1.657
 1999SOL    HW1 6896   3.374   6.670   1.653
 1999SOL    HW2 6897   3.248   6.712   1.748
 2000SOL     OW 6898   4.438   2.252   5.247
 2000SOL    HW1 6899   4.439   2.189   5.169
 2000SOL    HW2 6900   4.478   2.339   5.220
 2001SOL     OW 6901   3.207   1.065   1.632
 2001SOL    HW1 6902   3.264   1.142   1.661
 2001SOL    HW2 6903   3.158   1.089   1.548
 2002SOL     OW 6904   1.013   4.434   6.413
 2002SOL    HW1 6905   1.056   4.344   6.403
 2002SOL    HW2 6906   0.918   4.422   6.441
 2003SOL     OW 6907   6.088   6.206   3.226
 2003SOL    HW1 6908   6.092   6.282   3.160
 2003SOL    HW2 6909   6.002   6.156   3.213
 2004SOL     OW 6910   4.756   1.231   5.432
 2004SOL    HW1 6911   4.723   1.224   5.527
 2004SOL    HW2 6912   4.777   1.139   5.398
 2005SOL     OW 6913   0.732   4.692   7.022
 2005SOL    HW1 6914   0.693   4.679   0.091
 2005SOL    HW2 6915   0.687   4.631   6.958
 2006SOL     OW 6916   5.098   5.152   4.144
 2006SOL    HW1 6917   5.067   5.232   4.093
 2006SOL    HW2 6918   5.036   5.075   4.128
 2007SOL     OW 6919   4.535   4.955   1.008
 2007SOL    HW1 6920   4.468   4.983   0.940
 2007SOL    HW2 6921   4.489   4.938   1.095
 2008SOL     OW 6922   1.706   5.287   3.227
 2008SOL    HW1 6923   1.695   5.193   3.258
 2008SOL    HW2 6924   1.792   5.324   3.262
 2009SOL     OW 6925   6.199   0.230   2.243
 2009SOL    HW1 6926   6.102   0.208   2.237
 2009SOL    HW2 6927   6.253   0.146   2.240
 2010SOL     OW 6928   2.064   1.654   0.927
 2010SOL    HW1 6929   2.121   1.584   0.884
 2010SOL    HW2 6930   2.105   1.744   0.911
 2011SOL     OW 6931   6.758   1.660   4.582
 2011SOL    HW1 6932   6.803   1.598   4.646
 2011SOL    HW2 6933   6.666   1.627   4.562
 2012SOL     OW 6934   1.822   2.715   1.900
 2012SOL    HW1 6935   1.854   2.628   1.863
 2012SOL    HW2 6936   1.773   2.699   1.986
 2013SOL     OW 6937   6.389   1.648   3.466
 2013SOL    HW1 6938   6.316   1.599   3.513
 2013SOL    HW2 6939   6.471   1.650   3.523
 2014SOL     OW 6940   1.959   5.098   2.802
 2014SOL    HW1 6941   2.006   5.023   2.849
 2014SOL    HW2 6942   1.884   5.061   2.747
 2015SOL     OW 6943   1.902   1.335   0.243
 2015SOL    HW1 6944   1.830   1.276   0.281
 2015SOL    HW2 6945   1.929   1.402   0.311
 2016SOL     OW 6946   0.871   5.685   4.731
 2016SOL    HW1 6947   0.906   5.745   4.660
 2016SOL    HW2 6948   0.891   5.590   4.707
 2017SOL     OW 6949   2.410   6.967   4.694
 2017SOL    HW1 6950   2.452   6.944   4.782
 2017SOL    HW2 6951   2.444   6.906   4.623
 2018SOL     OW 6952   5.486   0.004   5.551
 2018SOL    HW1 6953   5.570   6.994   5.594
 2018SOL    HW2 6954   5.482   0.104   5.557
 2019SOL     OW 6955   4.928   2.097   1.987
 2019SOL    HW1 6956   4.954   2.170   2.049
 2019SOL    HW2 6957   4.956   2.120   1.894
 2020SOL     OW 6958   0.569   5.974   5.034
 2020SOL    HW1 6959   0.493   5.980   5.097
 2020SOL    HW2 6960   0.635   5.906   5.067
 2021SOL     OW 6961   2.119   5.601   3.209
 2021SOL    HW1 6962   2.061   5.558   3.278
 2021SOL    HW2 6963   2.138   5.695   3.235
 2022SOL     OW 6964   1.832   3.607   3.389
 2022SOL    HW1 6965   1.774   3.621   3.309
 2022SOL    HW2 6966   1.922   3.576   3.360
 2023SOL     OW 6967   6.278   0.983   6.058
 2023SOL    HW1 6968   6.182   1.014   6.060
 2023SOL    HW2 6969   6.300   0.948   5.967
 2024SOL     OW 6970   0.004   6.962   2.935
 2024SOL    HW1 6971   0.006   0.013   3.003
 2024SOL    HW2 6972   6.933   6.949   2.902
 2025SOL     OW 6973   2.832   2.298   2.754
 2025SOL    HW1 6974   2.793   2.342   2.835
 2025SOL    HW2 6975   2.758   2.272   2.692
 2026SOL     OW 6976   0.461   3.122   6.274
 2026SOL    HW1 6977   0.376   3.074   6.251
 2026SOL    HW2 6978   0.460   3.214   6.235
 2027SOL     OW 6979   0.578   0.507   0.279
 2027SOL    HW1 6980   0.656   0.519   0.339
 2027SOL    HW2 6981   0.535   0.419   0.296
 2028SOL     OW 6982   2.836   1.014   5.410
 2028SOL    HW1 6983   2.877   0.932   5.449
 2028SOL    HW2 6984   2.769   1.051   5.475
 2029SOL     OW 6985   6.421   0.346   1.306
 2029SOL    HW1 6986   6.442   0.356   1.209
 2029SOL    HW2 6987   6.362   0.422   1.335
 2030SOL     OW 6988   2.534   0.425   2.902
 2030SOL    HW1 6989   2.505   0.450   2.995
 2030SOL    HW2 6990   2.465   0.365   2.861
 2031SOL     OW 6991   6.481   6.117   1.902
 2031SOL    HW1 6992   6.481   6.027   1.947
 2031SOL    HW2 6993   6.575   6.148   1.889
 2032SOL     OW 6994   5.174   6.486   1.748
 2032SOL    HW1 6995   5.143   6.559   1.808
 2032SOL    HW2 6996   5.097   6.426   1.726
 2033SOL     OW 6997   3.841   4.014   0.084
 2033SOL    HW1 6998   3.796   4.048   0.001
 2033SOL    HW2 6999   3.939   4.030   0.078
 2034SOL     OW 7000   3.213   6.546   4.900
 2034SOL    HW1 7001   3.114   6.548   4.891
 2034SOL    HW2 7002   3.251   6.476   4.839
 2035SOL     OW 7003   7.009   0.655   1.617
 2035SOL    HW1 7004   6.978   0.656   1.522
 2035SOL    HW2 7005   6.979   0.739   1.663
 2036SOL     OW 7006   1.117   5.372   3.003
 2036SOL    HW1 7007   1.113   5.346   2.906
 2036SOL    HW2 7008   1.212   5.375   3.032
 2037SOL     OW 7009   6.811   3.235   5.828
 2037SOL    HW1 7010   6.872   3.250   5.906
 2037SOL    HW2 7011   6.841   3.155   5.777
 2038SOL     OW 7012   1.246   2.157   6.439
 2038SOL    HW1 7013   1.260   2.166   6.538
 2038SOL    HW2 7014   1.194   2.236   6.406
 2039SOL     OW 7015   0.987   5.720   3.152
 2039SOL    HW1 7016   0.962   5.776   3.073
 2039SOL    HW2 7017   0.905   5.695   3.203
 2040SOL     OW 7018   3.953   3.012   4.782
 2040SOL    HW1 7019   4.043   2.972   4.764
 2040SOL    HW2 7020   3.919   3.056   4.699
 2041SOL     OW 7021   0.370   5.764   5.923
 2041SOL    HW1 7022   0.388   5.855   5.959
 2041SOL    HW2 7023   0.275   5.739   5.943
 2042SOL     OW 7024   5.071   4.751   6.826
 2042SOL    HW1 7025   4.996   4.711   6.773
 2042SOL    HW2 7026   5.155   4.748   6.773
 2043SOL     OW 7027   6.082   3.760   3.444
 2043SOL    HW1 7028   6.159   3.823   3.451
 2043SOL    HW2 7029   6.013   3.799   3.383
 2044SOL     OW 7030   5.358   6.539   1.522
 2044SOL    HW1 7031   5.451   6.562   1.553
 2044SOL    HW2 7032   5.301   6.518   1.601
 2045SOL     OW 7033   3.359   5.051   3.964
 2045SOL    HW1 7034   3.384   4.968   4.015
 2045SOL    HW2 7035   3.353   5.128   4.027
 2046SOL     OW 7036   6.515   1.867   4.017
 2046SOL    HW1 7037   6.459   1.946   4.042
 2046SOL    HW2 7038   6.608   1.880   4.051
 2047SOL     OW 7039   5.773   2.428   6.953
 2047SOL    HW1 7040   5.787   2.527   6.960
 2047SOL    HW2 7041   5.761   2.390   0.022
 2048SOL     OW 7042   1.433   6.136   0.292
 2048SOL    HW1 7043   1.448   6.223   0.340
 2048SOL    HW2 7044   1.340   6.134   0.255
 2049SOL     OW 7045   5.076   1.998   6.361
 2049SOL    HW1 7046   4.981   1.972   6.372
 2049SOL    HW2 7047   5.135   1.917   6.369
 2050SOL     OW 7048   0.766   2.868   3.011
 2050SOL    HW1 7049   0.791   2.910   2.924
 2050SOL    HW2 7050   0.803   2.776   3.016
 2051SOL     OW 7051   0.963   6.073   0.812
 2051SOL    HW1 7052   0.933   6.163   0.842
 2051SOL    HW2 7053   0.892   6.030   0.756
 2052SOL     OW 7054   1.139   3.980   1.045
 2052SOL    HW1 7055   1.231   3.942   1.057
 2052SOL    HW2 7056   1.146   4.075   1.014
 2053SOL     OW 7057   5.843   6.742   4.849
 2053SOL    HW1 7058   5.832   6.813   4.918
 2053SOL    HW2 7059   5.825   6.652   4.890
 2054SOL     OW 7060   3.675   3.537   2.286
 2054SOL    HW1 7061   3.758   3.588   2.307
 2054SOL    HW2 7062   3.634   3.574   2.202
 2055SOL     OW 7063   5.966   3.514   3.395
 2055SOL    HW1 7064   6.033   3.580   3.427
 2055SOL    HW2 7065   5.911   3.554   3.322
 2056SOL     OW 7066   2.366   6.753   2.372
 2056SOL    HW1 7067   2.400   6.722   2.460
 2056SOL    HW2 7068   2.290   6.695   2.343
 2057SOL     OW 7069   5.529   3.477   4.569
 2057SOL    HW1 7070   5.517   3.535   4.650
 2057SOL    HW2 7071   5.620   3.437   4.569
 2058SOL     OW 7072   0.459   1.607   3.187
 2058SOL    HW1 7073   0.556   1.598   3.211
 2058SOL    HW2 7074   0.404   1.551   3.249
 2059SOL     OW 7075   2.331   5.985   6.622
 2059SOL    HW1 7076   2.322   6.070   6.675
 2059SOL    HW2 7077   2.240   5.948   6.602
 2060SOL     OW 7078   6.866   4.107   0.635
 2060SOL    HW1 7079   6.907   4.115   0.726
 2060SOL    HW2 7080   6.816   4.020   0.628
 2061SOL     OW 7081   6.977   1.495   3.717
 2061SOL    HW1 7082   0.025   1.530   3.779
 2061SOL    HW2 7083   6.976   1.550   3.633
 2062SOL     OW 7084   6.490   0.297   3.749
 2062SOL    HW1 7085   6.434   0.286   3.831
 2062SOL    HW2 7086   6.499   0.209   3.703
 2063SOL     OW 7087   2.017   6.949   6.305
 2063SOL    HW1 7088   1.925   6.926   6.338
 2063SOL    HW2 7089   2.039   6.891   6.226
 2064SOL     OW 7090   0.846   2.420   5.390
 2064SOL    HW1 7091   0.787   2.429   5.310
 2064SOL    HW2 7092   0.797   2.369   5.461
 2065SOL     OW 7093   0.215   2.745   4.875
 2065SOL    HW1 7094   0.149   2.821   4.869
 2065SOL    HW2 7095   0.232   2.710   4.783
 2066SOL     OW 7096   0.836   4.982   3.657
 2066SOL    HW1 7097   0.860   5.062   3.602
 2066SOL    HW2 7098   0.786   4.916   3.600
 2067SOL     OW 7099   6.423   5.535   0.839
 2067SOL    HW1 7100   6.336   5.487   0.828
 2067SOL    HW2 7101   6.454   5.569   0.750
 2068SOL     OW 7102   1.714   1.319   4.827
 2068SOL    HW1 7103   1.715   1.233   4.878
 2068SOL    HW2 7104   1.728   1.300   4.730
 2069SOL     OW 7105   0.827   2.995   3.271
 2069SOL    HW1 7106   0.817   2.913   3.326
 2069SOL    HW2 7107   0.802   2.975   3.176
 2070SOL     OW 7108   1.152   1.008   2.209
 2070SOL    HW1 7109   1.145   0.913   2.177
 2070SOL    HW2 7110   1.134   1.012   2.307
 2071SOL     OW 7111   6.396   5.900   5.551
 2071SOL    HW1 7112   6.412   5.982   5.496
 2071SOL    HW2 7113   6.347   5.925   5.634
 2072SOL     OW 7114   4.233   6.629   3.660
 2072SOL    HW1 7115   4.205   6.533   3.662
 2072SOL    HW2 7116   4.160   6.684   3.618
 2073SOL     OW 7117   4.323   0.398   4.844
 2073SOL    HW1 7118   4.284   0.377   4.755
 2073SOL    HW2 7119   4.367   0.316   4.881
 2074SOL     OW 7120   1.543   2.370   0.348
 2074SOL    HW1 7121   1.642   2.365   0.334
 2074SOL    HW2 7122   1.524   2.386   0.445
 2075SOL     OW 7123   5.559   3.268   1.771
 2075SOL    HW1 7124   5.590   3.195   1.710
 2075SOL    HW2 7125   5.622   3.346   1.763
 2076SOL     OW 7126   5.877   0.169   6.888
 2076SOL    HW1 7127   5.958   0.218   6.921
 2076SOL    HW2 7128   5.872   0.079   6.933
 2077SOL     OW 7129   5.048   2.847   2.773
 2077SOL    HW1 7130   5.092   2.917   2.830
 2077SOL    HW2 7131   4.952   2.839   2.799
 2078SOL     OW 7132   1.176   5.738   5.532
 2078SOL    HW1 7133   1.168   5.796   5.451
 2078SOL    HW2 7134   1.227   5.655   5.509
 2079SOL     OW 7135   5.160   1.974   3.978
 2079SOL    HW1 7136   5.199   1.903   3.919
 2079SOL    HW2 7137   5.230   2.043   3.997
 2080SOL     OW 7138   1.677   0.450   5.197
 2080SOL    HW1 7139   1.769   0.477   5.226
 2080SOL    HW2 7140   1.650   0.367   5.245
 2081SOL     OW 7141   1.425   5.299   4.356
 2081SOL    HW1 7142   1.346   5.359   4.374
 2081SOL    HW2 7143   1.399   5.230   4.289
 2082SOL     OW 7144   0.535   0.146   3.051
 2082SOL    HW1 7145   0.519   0.240   3.021
 2082SOL    HW2 7146   0.604   0.104   2.992
 2083SOL     OW 7147   6.471   5.228   6.402
 2083SOL    HW1 7148   6.540   5.157   6.387
 2083SOL    HW2 7149   6.516   5.317   6.405
 2084SOL     OW 7150   1.365   3.616   3.335
 2084SOL    HW1 7151   1.315   3.594   3.419
 2084SOL    HW2 7152   1.347   3.711   3.310
 2085SOL     OW 7153   4.273   0.719   6.868
 2085SOL    HW1 7154   4.371   0.710   6.886
 2085SOL    HW2 7155   4.222   0.689   6.949
 2086SOL     OW 7156   4.455   6.818   5.772
 2086SOL    HW1 7157   4.449   6.839   5.674
 2086SOL    HW2 7158   4.370   6.775   5.802
 2087SOL     OW 7159   5.127   0.097   1.077
 2087SOL    HW1 7160   5.116   0.034   1.001
 2087SOL    HW2 7161   5.156   0.187   1.043
 2088SOL     OW 7162   1.872   5.829   0.008
 2088SOL    HW1 7163   1.783   5.784   7.020
 2088SOL    HW2 7164   1.902   5.822   0.103
 2089SOL     OW 7165   5.293   2.212   6.565
 2089SOL    HW1 7166   5.292   2.113   6.574
 2089SOL    HW2 7167   5.353   2.239   6.490
 2090SOL     OW 7168   3.920   2.755   5.848
 2090SOL    HW1 7169   3.883   2.679   5.900
 2090SOL    HW2 7170   3.845   2.815   5.818
 2091SOL     OW 7171   6.992   5.475   0.261
 2091SOL    HW1 7172   7.014   5.382   0.292
 2091SOL    HW2 7173   0.031   5.500   0.186
 2092SOL     OW 7174   5.554   3.831   7.000
 2092SOL    HW1 7175   5.529   3.838   0.074
 2092SOL    HW2 7176   5.502   3.756   6.957
 2093SOL     OW 7177   2.857   2.168   1.240
 2093SOL    HW1 7178   2.811   2.102   1.300
 2093SOL    HW2 7179   2.795   2.245   1.223
 2094SOL     OW 7180   5.938   1.661   1.801
 2094SOL    HW1 7181   5.939   1.609   1.716
 2094SOL    HW2 7182   5.891   1.608   1.872
 2095SOL     OW 7183   5.561   0.300   5.283
 2095SOL    HW1 7184   5.587   0.266   5.374
 2095SOL    HW2 7185   5.461   0.296   5.274
 2096SOL     OW 7186   4.860   3.827   2.984
 2096SOL    HW1 7187   4.899   3.855   2.896
 2096SOL    HW2 7188   4.859   3.727   2.990
 2097SOL     OW 7189   3.021   3.107   6.644
 2097SOL    HW1 7190   2.980   3.025   6.604
 2097SOL    HW2 7191   3.045   3.089   6.739
 2098SOL     OW 7192   3.788   5.951   2.002
 2098SOL    HW1 7193   3.825   5.872   1.954
 2098SOL    HW2 7194   3.696   5.930   2.035
 2099SOL     OW 7195   3.112   2.877   6.288
 2099SOL    HW1 7196   3.121   2.866   6.189
 2099SOL    HW2 7197   3.171   2.953   6.318
 2100SOL     OW 7198   4.841   2.707   6.573
 2100SOL    HW1 7199   4.905   2.666   6.639
 2100SOL    HW2 7200   4.747   2.695   6.605
 2101SOL     OW 7201   1.035   6.270   2.359
 2101SOL    HW1 7202   1.070   6.209   2.287
 2101SOL    HW2 7203   1.085   6.253   2.444
 2102SOL     OW 7204   6.183   4.208   2.790
 2102SOL    HW1 7205   6.260   4.260   2.827
 2102SOL    HW2 7206   6.109   4.206   2.857
 2103SOL     OW 7207   4.132   4.231   5.612
 2103SOL    HW1 7208   4.051   4.289   5.626
 2103SOL    HW2 7209   4.161   4.237   5.517
 2104SOL     OW 7210   2.499   4.705   1.101
 2104SOL    HW1 7211   2.599   4.706   1.095
 2104SOL    HW2 7212   2.468   4.610   1.112
 2105SOL     OW 7213   4.923   6.417   5.120
 2105SOL    HW1 7214   4.867   6.372   5.188
 2105SOL    HW2 7215   4.885   6.507   5.100
 2106SOL     OW 7216   5.032   4.281   1.485
 2106SOL    HW1 7217   5.012   4.267   1.388
 2106SOL    HW2 7218   5.009   4.198   1.536
 2107SOL     OW 7219   4.833   2.797   5.460
 2107SOL    HW1 7220   4.760   2.864   5.473
 2107SOL    HW2 7221   4.903   2.809   5.530
 2108SOL     OW 7222   6.197   5.632   4.990
 2108SOL    HW1 7223   6.258   5.569   5.037
 2108SOL    HW2 7224   6.150   5.690   5.057
 2109SOL     OW 7225   4.165   6.191   2.664
 2109SOL    HW1 7226   4.070   6.219   2.650
 2109SOL    HW2 7227   4.193   6.215   2.757
 2110SOL     OW 7228   2.153   1.524   0.435
 2110SOL    HW1 7229   2.070   1.467   0.431
 2110SOL    HW2 7230   2.201   1.518   0.347
 2111SOL     OW 7231   1.662   2.296   6.599
 2111SOL    HW1 7232   1.643   2.340   6.687
 2111SOL    HW2 7233   1.760   2.299   6.581
 2112SOL     OW 7234   5.815   3.471   0.608
 2112SOL    HW1 7235   5.815   3.534   0.685
 2112SOL    HW2 7236   5.904   3.475   0.562
 2113SOL     OW 7237   2.327   2.015   5.311
 2113SOL    HW1 7238   2.412   2.017   5.259
 2113SOL    HW2 7239   2.251   2.040   5.252
 2114SOL     OW 7240   1.355   1.964   6.644
 2114SOL    HW1 7241   1.360   1.864   6.637
 2114SOL    HW2 7242   1.443   2.003   6.617
 2115SOL     OW 7243   2.158   3.639   2.744
 2115SOL    HW1 7244   2.200   3.614   2.832
 2115SOL    HW2 7245   2.083   3.576   2.725
 2116SOL     OW 7246   0.855   5.516   2.947
 2116SOL    HW1 7247   0.950   5.504   2.978
 2116SOL    HW2 7248   0.849   5.596   2.888
 2117SOL     OW 7249   6.978   5.377   1.733
 2117SOL    HW1 7250   0.047   5.359   1.769
 2117SOL    HW2 7251   6.916   5.396   1.809
 2118SOL     OW 7252   6.222   3.315   2.537
 2118SOL    HW1 7253   6.309   3.300   2.585
 2118SOL    HW2 7254   6.148   3.271   2.587
 2119SOL     OW 7255   1.427   0.016   1.178
 2119SOL    HW1 7256   1.447   0.101   1.129
 2119SOL    HW2 7257   1.404   0.038   1.273
 2120SOL     OW 7258   6.680   5.117   3.542
 2120SOL    HW1 7259   6.675   5.198   3.483
 2120SOL    HW2 7260   6.773   5.080   3.539
 2121SOL     OW 7261   1.526   4.411   5.910
 2121SOL    HW1 7262   1.541   4.473   5.833
 2121SOL    HW2 7263   1.610   4.360   5.930
 2122SOL     OW 7264   5.922   3.908   5.792
 2122SOL    HW1 7265   5.913   4.002   5.825
 2122SOL    HW2 7266   5.886   3.845   5.860
 2123SOL     OW 7267   0.091   5.883   2.467
 2123SOL    HW1 7268   0.122   5.893   2.372
 2123SOL    HW2 7269   0.168   5.899   2.529
 2124SOL     OW 7270   3.404   2.033   1.189
 2124SOL    HW1 7271   3.504   2.038   1.188
 2124SOL    HW2 7272   3.367   2.114   1.234
 2125SOL     OW 7273   2.068   0.701   2.156
 2125SOL    HW1 7274   2.005   0.623   2.153
 2125SOL    HW2 7275   2.038   0.770   2.090
 2126SOL     OW 7276   4.010   1.722   6.118
 2126SOL    HW1 7277   3.944   1.716   6.044
 2126SOL    HW2 7278   4.050   1.814   6.120
 2127SOL     OW 7279   0.648   3.057   5.198
 2127SOL    HW1 7280   0.723   3.111   5.161
 2127SOL    HW2 7281   0.633   2.977   5.139
 2128SOL     OW 7282   6.340   3.429   3.846
 2128SOL    HW1 7283   6.274   3.415   3.920
 2128SOL    HW2 7284   6.331   3.357   3.778
 2129SOL     OW 7285   4.466   3.337   5.369
 2129SOL    HW1 7286   4.493   3.322   5.464
 2129SOL    HW2 7287   4.410   3.261   5.338
 2130SOL     OW 7288   3.445   0.414   2.343
 2130SOL    HW1 7289   3.506   0.439   2.418
 2130SOL    HW2 7290   3.351   0.441   2.366
 2131SOL     OW 7291   5.358   1.102   0.734
 2131SOL    HW1 7292   5.278   1.090   0.675
 2131SOL    HW2 7293   5.348   1.186   0.787
 2132SOL     OW 7294   3.557   0.335   1.241
 2132SOL    HW1 7295   3.480   0.379   1.287
 2132SOL    HW2 7296   3.587   0.255   1.294
 2133SOL     OW 7297   3.201   2.760   0.155
 2133SOL    HW1 7298   3.103   2.752   0.176
 2133SOL    HW2 7299   3.249   2.798   0.234
 2134SOL     OW 7300   0.123   1.161   6.137
 2134SOL    HW1 7301   0.206   1.116   6.170
 2134SOL    HW2 7302   0.087   1.222   6.209
 2135SOL     OW 7303   1.391   3.367   4.992
 2135SOL    HW1 7304   1.330   3.314   5.052
 2135SOL    HW2 7305   1.469   3.310   4.965
 2136SOL     OW 7306   1.260   4.118   3.623
 2136SOL    HW1 7307   1.202   4.037   3.626
 2136SOL    HW2 7308   1.232   4.176   3.547
 2137SOL     OW 7309   3.034   5.336   4.892
 2137SOL    HW1 7310   3.035   5.339   4.792
 2137SOL    HW2 7311   2.956   5.281   4.923
 2138SOL     OW 7312   6.482   0.540   2.763
 2138SOL    HW1 7313   6.493   0.480   2.842
 2138SOL    HW2 7314   6.525   0.498   2.683
 2139SOL     OW 7315   3.788   0.643   3.348
 2139SOL    HW1 7316   3.806   0.559   3.298
 2139SOL    HW2 7317   3.822   0.721   3.296
 2140SOL     OW 7318   3.986   6.847   4.395
 2140SOL    HW1 7319   3.994   6.931   4.450
 2140SOL    HW2 7320   3.911   6.792   4.431
 2141SOL     OW 7321   6.408   3.796   2.278
 2141SOL    HW1 7322   6.426   3.762   2.185
 2141SOL    HW2 7323   6.400   3.896   2.275
 2142SOL     OW 7324   1.934   2.414   3.104
 2142SOL    HW1 7325   1.855   2.363   3.139
 2142SOL    HW2 7326   1.904   2.502   3.068
 2143SOL     OW 7327   2.709   4.579   1.674
 2143SOL    HW1 7328   2.727   4.517   1.598
 2143SOL    HW2 7329   2.760   4.548   1.755
 2144SOL     OW 7330   1.150   5.212   4.307
 2144SOL    HW1 7331   1.124   5.306   4.330
 2144SOL    HW2 7332   1.131   5.195   4.211
 2145SOL     OW 7333   4.651   6.332   4.230
 2145SOL    HW1 7334   4.745   6.359   4.210
 2145SOL    HW2 7335   4.600   6.319   4.145
 2146SOL     OW 7336   2.637   3.359   1.785
 2146SOL    HW1 7337   2.682   3.360   1.874
 2146SOL    HW2 7338   2.541   3.387   1.796
 2147SOL     OW 7339   6.394   1.838   6.082
 2147SOL    HW1 7340   6.319   1.808   6.023
 2147SOL    HW2 7341   6.479   1.796   6.050
 2148SOL     OW 7342   5.709   2.362   5.445
 2148SOL    HW1 7343   5.662   2.359   5.534
 2148SOL    HW2 7344   5.796   2.312   5.452
 2149SOL     OW 7345   3.671   2.207   1.325
 2149SOL    HW1 7346   3.683   2.128   1.266
 2149SOL    HW2 7347   3.603   2.186   1.395
 2150SOL     OW 7348   2.684   1.775   2.399
 2150SOL    HW1 7349   2.614   1.723   2.349
 2150SOL    HW2 7350   2.641   1.830   2.470
 2151SOL     OW 7351   1.360   0.190   4.898
 2151SOL    HW1 7352   1.275   0.159   4.940
 2151SOL    HW2 7353   1.383   0.129   4.821
 2152SOL     OW 7354   3.339   5.879   1.534
 2152SOL    HW1 7355   3.358   5.947   1.463
 2152SOL    HW2 7356   3.264   5.912   1.592
 2153SOL     OW 7357   4.003   1.203   2.786
 2153SOL    HW1 7358   3.947   1.283   2.764
 2153SOL    HW2 7359   3.945   1.124   2.802
 2154SOL     OW 7360   5.068   0.210   5.081
 2154SOL    HW1 7361   4.995   0.261   5.126
 2154SOL    HW2 7362   5.086   0.125   5.131
 2155SOL     OW 7363   2.537   5.491   0.191
 2155SOL    HW1 7364   2.473   5.568   0.186
 2155SOL    HW2 7365   2.520   5.439   0.274
 2156SOL     OW 7366   2.005   1.502   5.011
 2156SOL    HW1 7367   1.943   1.488   4.934
 2156SOL    HW2 7368   1.957   1.551   5.083
 2157SOL     OW 7369   5.983   0.925   3.260
 2157SOL    HW1 7370   5.988   0.912   3.161
 2157SOL    HW2 7371   5.969   0.837   3.304
 2158SOL     OW 7372   3.716   6.105   1.297
 2158SOL    HW1 7373   3.812   6.087   1.273
 2158SOL    HW2 7374   3.656   6.067   1.227
 2159SOL     OW 7375   1.523   6.493   4.715
 2159SOL    HW1 7376   1.622   6.478   4.719
 2159SOL    HW2 7377   1.497   6.521   4.622
 2160SOL     OW 7378   3.852   3.850   0.473
 2160SOL    HW1 7379   3.919   3.911   0.432
 2160SOL    HW2 7380   3.900   3.776   0.520
 2161SOL     OW 7381   5.660   5.020   3.044
 2161SOL    HW1 7382   5.727   5.058   2.980
 2161SOL    HW2 7383   5.675   5.058   3.135
 2162SOL     OW 7384   2.125   1.190   2.007
 2162SOL    HW1 7385   2.213   1.237   2.002
 2162SOL    HW2 7386   2.058   1.239   1.951
 2163SOL     OW 7387   1.347   4.545   6.070
 2163SOL    HW1 7388   1.365   4.642   6.085
 2163SOL    HW2 7389   1.424   4.505   6.020
 2164SOL     OW 7390   1.512   2.733   0.131
 2164SOL    HW1 7391   1.464   2.808   0.177
 2164SOL    HW2 7392   1.465   2.712   0.045
 2165SOL     OW 7393   0.691   1.942   2.692
 2165SOL    HW1 7394   0.701   1.860   2.747
 2165SOL    HW2 7395   0.682   2.022   2.751
 2166SOL     OW 7396   1.693   2.307   5.359
 2166SOL    HW1 7397   1.655   2.388   5.404
 2166SOL    HW2 7398   1.650   2.296   5.269
 2167SOL     OW 7399   2.001   1.816   3.598
 2167SOL    HW1 7400   2.098   1.838   3.588
 2167SOL    HW2 7401   1.966   1.779   3.512
 2168SOL     OW 7402   0.452   2.276   3.950
 2168SOL    HW1 7403   0.416   2.186   3.923
 2168SOL    HW2 7404   0.377   2.332   3.984
 2169SOL     OW 7405   5.400   1.007   6.932
 2169SOL    HW1 7406   5.394   1.083   6.867
 2169SOL    HW2 7407   5.410   1.043   0.002
 2170SOL     OW 7408   6.481   4.922   5.693
 2170SOL    HW1 7409   6.574   4.959   5.694
 2170SOL    HW2 7410   6.476   4.840   5.750
 2171SOL     OW 7411   0.381   4.718   1.731
 2171SOL    HW1 7412   0.337   4.629   1.735
 2171SOL    HW2 7413   0.407   4.738   1.636
 2172SOL     OW 7414   2.200   2.263   0.393
 2172SOL    HW1 7415   2.102   2.255   0.380
 2172SOL    HW2 7416   2.234   2.183   0.442
 2173SOL     OW 7417   3.628   0.746   5.524
 2173SOL    HW1 7418   3.679   0.674   5.477
 2173SOL    HW2 7419   3.675   0.833   5.512
 2174SOL     OW 7420   5.453   6.483   5.190
 2174SOL    HW1 7421   5.357   6.457   5.191
 2174SOL    HW2 7422   5.479   6.516   5.100
 2175SOL     OW 7423   2.390   2.738   4.203
 2175SOL    HW1 7424   2.347   2.823   4.173
 2175SOL    HW2 7425   2.379   2.727   4.302
 2176SOL     OW 7426   6.601   1.762   0.589
 2176SOL    HW1 7427   6.648   1.700   0.526
 2176SOL    HW2 7428   6.516   1.795   0.547
 2177SOL     OW 7429   6.306   2.160   3.259
 2177SOL    HW1 7430   6.307   2.087   3.327
 2177SOL    HW2 7431   6.225   2.152   3.201
 2178SOL     OW 7432   1.911   2.070   1.128
 2178SOL    HW1 7433   1.959   2.081   1.215
 2178SOL    HW2 7434   1.937   2.144   1.066
 2179SOL     OW 7435   2.138   5.163   5.092
 2179SOL    HW1 7436   2.229   5.126   5.108
 2179SOL    HW2 7437   2.089   5.103   5.029
 2180SOL     OW 7438   1.838   2.451   1.770
 2180SOL    HW1 7439   1.930   2.413   1.760
 2180SOL    HW2 7440   1.798   2.418   1.856
 2181SOL     OW 7441   4.393   4.913   4.333
 2181SOL    HW1 7442   4.465   4.945   4.271
 2181SOL    HW2 7443   4.378   4.982   4.404
 2182SOL     OW 7444   1.400   3.686   4.051
 2182SOL    HW1 7445   1.433   3.616   3.988
 2182SOL    HW2 7446   1.454   3.769   4.039
 2183SOL     OW 7447   2.806   3.808   5.998
 2183SOL    HW1 7448   2.828   3.771   5.908
 2183SOL    HW2 7449   2.709   3.830   6.002
 2184SOL     OW 7450   4.488   2.217   6.763
 2184SOL    HW1 7451   4.527   2.125   6.760
 2184SOL    HW2 7452   4.390   2.211   6.785
 2185SOL     OW 7453   0.772   1.493   0.807
 2185SOL    HW1 7454   0.774   1.582   0.763
 2185SOL    HW2 7455   0.775   1.504   0.906
 2186SOL     OW 7456   0.812   5.770   1.810
 2186SOL    HW1 7457   0.806   5.851   1.751
 2186SOL    HW2 7458   0.743   5.777   1.883
 2187SOL     OW 7459   6.520   0.315   2.945
 2187SOL    HW1 7460   6.616   0.299   2.923
 2187SOL    HW2 7461   6.469   0.229   2.939
 2188SOL     OW 7462   6.898   6.757   4.962
 2188SOL    HW1 7463   6.832   6.723   5.028
 2188SOL    HW2 7464   6.939   6.679   4.913
 2189SOL     OW 7465   1.459   6.787   1.089
 2189SOL    HW1 7466   1.440   6.873   1.136
 2189SOL    HW2 7467   1.557   6.781   1.070
 2190SOL     OW 7468   0.186   2.969   1.699
 2190SOL    HW1 7469   0.126   3.013   1.632
 2190SOL    HW2 7470   0.137   2.893   1.742
 2191SOL     OW 7471   2.909   2.069   6.774
 2191SOL    HW1 7472   2.929   1.998   6.706
 2191SOL    HW2 7473   2.995   2.112   6.803
 2192SOL     OW 7474   4.413   1.103   2.502
 2192SOL    HW1 7475   4.410   1.006   2.526
 2192SOL    HW2 7476   4.448   1.114   2.409
 2193SOL     OW 7477   5.894   6.018   6.565
 2193SOL    HW1 7478   5.868   6.018   6.469
 2193SOL    HW2 7479   5.827   6.070   6.618
 2194SOL     OW 7480   2.762   4.216   5.664
 2194SOL    HW1 7481   2.776   4.285   5.593
 2194SOL    HW2 7482   2.664   4.194   5.670
 2195SOL     OW 7483   0.442   0.707   4.542
 2195SOL    HW1 7484   0.393   0.677   4.460
 2195SOL    HW2 7485   0.531   0.745   4.516
 2196SOL     OW 7486   2.897   6.844   5.073
 2196SOL    HW1 7487   2.908   6.905   5.150
 2196SOL    HW2 7488   2.886   6.750   5.106
 2197SOL     OW 7489   3.069   3.647   1.117
 2197SOL    HW1 7490   3.048   3.625   1.022
 2197SOL    HW2 7491   3.010   3.593   1.178
 2198SOL     OW 7492   5.692   1.564   0.276
 2198SOL    HW1 7493   5.749   1.493   0.237
 2198SOL    HW2 7494   5.597   1.532   0.282
 2199SOL     OW 7495   5.063   0.872   3.295
 2199SOL    HW1 7496   5.024   0.837   3.210
 2199SOL    HW2 7497   5.143   0.818   3.320
 2200SOL     OW 7498   2.351   1.097   5.490
 2200SOL    HW1 7499   2.390   1.047   5.413
 2200SOL    HW2 7500   2.342   1.194   5.465
 2201SOL     OW 7501   6.401   2.867   3.335
 2201SOL    HW1 7502   6.376   2.781   3.290
 2201SOL    HW2 7503   6.338   2.885   3.410
 2202SOL     OW 7504   2.507   5.556   2.101
 2202SOL    HW1 7505   2.502   5.543   2.200
 2202SOL    HW2 7506   2.416   5.580   2.066
 2203SOL     OW 7507   1.878   2.333   1.462
 2203SOL    HW1 7508   1.958   2.384   1.492
 2203SOL    HW2 7509   1.856   2.263   1.530
 2204SOL     OW 7510   3.685   1.088   1.338
 2204SOL    HW1 7511   3.606   1.103   1.277
 2204SOL    HW2 7512   3.737   1.010   1.305
 2205SOL     OW 7513   0.865   0.433   6.172
 2205SOL    HW1 7514   0.824   0.361   6.117
 2205SOL    HW2 7515   0.848   0.416   6.268
 2206SOL     OW 7516   3.532   4.443   6.104
 2206SOL    HW1 7517   3.611   4.413   6.158
 2206SOL    HW2 7518   3.473   4.500   6.160
 2207SOL     OW 7519   3.125   4.146   6.655
 2207SOL    HW1 7520   3.157   4.199   6.576
 2207SOL    HW2 7521   3.173   4.176   6.737
 2208SOL     OW 7522   1.701   6.153   3.092
 2208SOL    HW1 7523   1.720   6.113   3.002
 2208SOL    HW2 7524   1.713   6.083   3.163
 2209SOL     OW 7525   1.575   6.148   5.499
 2209SOL    HW1 7526   1.520   6.155   5.416
 2209SOL    HW2 7527   1.665   6.188   5.482
 2210SOL     OW 7528   6.047   4.730   4.116
 2210SOL    HW1 7529   6.037   4.752   4.213
 2210SOL    HW2 7530   5.964   4.685   4.083
 2211SOL     OW 7531   5.567   0.488   0.521
 2211SOL    HW1 7532   5.636   0.424   0.490
 2211SOL    HW2 7533   5.609   0.559   0.577
 2212SOL     OW 7534   1.388   5.716   6.953
 2212SOL    HW1 7535   1.364   5.682   6.861
 2212SOL    HW2 7536   1.408   5.813   6.948
 2213SOL     OW 7537   3.561   2.718   5.323
 2213SOL    HW1 7538   3.642   2.758   5.280
 2213SOL    HW2 7539   3.481   2.735   5.265
 2214SOL     OW 7540   3.245   2.943   5.007
 2214SOL    HW1 7541   3.283   2.868   5.062
 2214SOL    HW2 7542   3.285   2.940   4.915
 2215SOL     OW 7543   6.182   1.154   0.511
 2215SOL    HW1 7544   6.125   1.229   0.546
 2215SOL    HW2 7545   6.247   1.191   0.444
 2216SOL     OW 7546   1.625   0.379   6.095
 2216SOL    HW1 7547   1.620   0.285   6.063
 2216SOL    HW2 7548   1.658   0.381   6.190
 2217SOL     OW 7549   4.055   6.648   1.477
 2217SOL    HW1 7550   4.027   6.676   1.569
 2217SOL    HW2 7551   4.107   6.563   1.482
 2218SOL     OW 7552   0.172   6.269   0.200
 2218SOL    HW1 7553   0.157   6.274   0.101
 2218SOL    HW2 7554   0.087   6.292   0.248
 2219SOL     OW 7555   5.434   1.930   1.554
 2219SOL    HW1 7556   5.508   1.939   1.487
 2219SOL    HW2 7557   5.474   1.918   1.645
 2220SOL     OW 7558   1.198   0.401   4.579
 2220SOL    HW1 7559   1.272   0.407   4.645
 2220SOL    HW2 7560   1.153   0.490   4.570
 2221SOL     OW 7561   5.884   1.249   5.116
 2221SOL    HW1 7562   5.926   1.204   5.038
 2221SOL    HW2 7563   5.790   1.277   5.093
 2222SOL     OW 7564   5.101   0.743   0.648
 2222SOL    HW1 7565   5.072   0.751   0.552
 2222SOL    HW2 7566   5.041   0.797   0.706
 2223SOL     OW 7567   5.925   1.588   4.955
 2223SOL    HW1 7568   5.998   1.521   4.954
 2223SOL    HW2 7569   5.922   1.635   4.866
 2224SOL     OW 7570   1.299   3.948   0.299
 2224SOL    HW1 7571   1.387   3.991   0.279
 2224SOL    HW2 7572   1.245   4.007   0.359
 2225SOL     OW 7573   6.664   6.663   3.101
 2225SOL    HW1 7574   6.621   6.617   3.179
 2225SOL    HW2 7575   6.690   6.756   3.128
 2226SOL     OW 7576   3.740   4.799   1.110
 2226SOL    HW1 7577   3.765   4.882   1.060
 2226SOL    HW2 7578   3.823   4.745   1.128
 2227SOL     OW 7579   5.682   3.256   0.508
 2227SOL    HW1 7580   5.753   3.322   0.532
 2227SOL    HW2 7581   5.592   3.301   0.513
 2228SOL     OW 7582   2.836   5.054   0.914
 2228SOL    HW1 7583   2.772   5.013   0.849
 2228SOL    HW2 7584   2.820   5.016   1.005
 2229SOL     OW 7585   4.145   1.898   4.447
 2229SOL    HW1 7586   4.242   1.923   4.445
 2229SOL    HW2 7587   4.120   1.873   4.541
 2230SOL     OW 7588   6.100   5.860   6.689
 2230SOL    HW1 7589   6.069   5.787   6.750
 2230SOL    HW2 7590   6.022   5.914   6.659
 2231SOL     OW 7591   0.385   0.627   2.056
 2231SOL    HW1 7592   0.432   0.547   2.018
 2231SOL    HW2 7593   0.290   0.628   2.022
 2232SOL     OW 7594   0.175   3.303   4.959
 2232SOL    HW1 7595   0.246   3.373   4.950
 2232SOL    HW2 7596   0.175   3.268   5.053
 2233SOL     OW 7597   2.441   3.393   0.763
 2233SOL    HW1 7598   2.431   3.310   0.708
 2233SOL    HW2 7599   2.513   3.450   0.725
 2234SOL     OW 7600   3.858   1.986   1.614
 2234SOL    HW1 7601   3.876   2.044   1.693
 2234SOL    HW2 7602   3.925   2.006   1.542
 2235SOL     OW 7603   2.676   0.028   1.425
 2235SOL    HW1 7604   2.601   0.085   1.391
 2235SOL    HW2 7605   2.698   0.054   1.519
 2236SOL     OW 7606   1.517   4.884   6.374
 2236SOL    HW1 7607   1.449   4.944   6.415
 2236SOL    HW2 7608   1.512   4.794   6.417
 2237SOL     OW 7609   6.091   4.895   4.563
 2237SOL    HW1 7610   6.032   4.962   4.518
 2237SOL    HW2 7611   6.097   4.916   4.661
 2238SOL     OW 7612   5.234   4.497   0.842
 2238SOL    HW1 7613   5.249   4.402   0.868
 2238SOL    HW2 7614   5.270   4.513   0.750
 2239SOL     OW 7615   4.054   4.975   2.994
 2239SOL    HW1 7616   3.966   4.993   3.037
 2239SOL    HW2 7617   4.062   4.878   2.973
 2240SOL     OW 7618   5.149   5.671   3.658
 2240SOL    HW1 7619   5.167   5.659   3.560
 2240SOL    HW2 7620   5.118   5.764   3.675
 2241SOL     OW 7621   0.258   6.528   3.217
 2241SOL    HW1 7622   0.171   6.495   3.179
 2241SOL    HW2 7623   0.320   6.551   3.143
 2242SOL     OW 7624   5.061   2.297   3.076
 2242SOL    HW1 7625   5.094   2.345   2.994
 2242SOL    HW2 7626   5.046   2.200   3.055
 2243SOL     OW 7627   2.364   6.468   5.886
 2243SOL    HW1 7628   2.433   6.400   5.859
 2243SOL    HW2 7629   2.370   6.547   5.824
 2244SOL     OW 7630   2.043   6.844   1.516
 2244SOL    HW1 7631   2.069   6.765   1.572
 2244SOL    HW2 7632   1.962   6.887   1.557
 2245SOL     OW 7633   0.650   1.865   1.349
 2245SOL    HW1 7634   0.673   1.956   1.383
 2245SOL    HW2 7635   0.725   1.802   1.369
 2246SOL     OW 7636   0.853   2.199   5.569
 2246SOL    HW1 7637   0.892   2.161   5.653
 2246SOL    HW2 7638   0.885   2.147   5.490
 2247SOL     OW 7639   3.377   3.313   4.415
 2247SOL    HW1 7640   3.394   3.406   4.447
 2247SOL    HW2 7641   3.280   3.292   4.422
 2248SOL     OW 7642   4.923   3.953   5.836
 2248SOL    HW1 7643   4.921   3.915   5.928
 2248SOL    HW2 7644   5.001   3.916   5.786
 2249SOL     OW 7645   6.418   6.207   3.159
 2249SOL    HW1 7646   6.511   6.212   3.198
 2249SOL    HW2 7647   6.373   6.295   3.169
 2250SOL     OW 7648   4.290   3.573   6.367
 2250SOL    HW1 7649   4.250   3.508   6.431
 2250SOL    HW2 7650   4.297   3.530   6.277
 2251SOL     OW 7651   4.994   0.794   0.025
 2251SOL    HW1 7652   4.936   0.762   6.972
 2251SOL    HW2 7653   5.090   0.791   7.020
 2252SOL     OW 7654   5.056   2.985   2.519
 2252SOL    HW1 7655   4.985   2.917   2.500
 2252SOL    HW2 7656   5.096   2.967   2.609
 2253SOL     OW 7657   1.049   3.255   6.635
 2253SOL    HW1 7658   1.028   3.324   6.565
 2253SOL    HW2 7659   1.006   3.281   6.721
 2254SOL     OW 7660   3.943   3.045   5.091
 2254SOL    HW1 7661   3.938   2.985   5.011
 2254SOL    HW2 7662   3.945   3.140   5.061
 2255SOL     OW 7663   4.666   2.446   6.882
 2255SOL    HW1 7664   4.674   2.426   6.979
 2255SOL    HW2 7665   4.741   2.402   6.832
 2256SOL     OW 7666   5.464   5.930   1.354
 2256SOL    HW1 7667   5.493   5.859   1.418
 2256SOL    HW2 7668   5.519   5.923   1.270
 2257SOL     OW 7669   6.852   2.466   4.154
 2257SOL    HW1 7670   6.834   2.384   4.207
 2257SOL    HW2 7671   6.832   2.448   4.057
 2258SOL     OW 7672   1.329   5.504   5.477
 2258SOL    HW1 7673   1.413   5.527   5.428
 2258SOL    HW2 7674   1.348   5.491   5.574
 2259SOL     OW 7675   5.589   3.459   0.200
 2259SOL    HW1 7676   5.564   3.377   0.251
 2259SOL    HW2 7677   5.687   3.474   0.207
 2260SOL     OW 7678   6.303   4.652   2.333
 2260SOL    HW1 7679   6.337   4.573   2.383
 2260SOL    HW2 7680   6.207   4.668   2.359
 2261SOL     OW 7681   6.679   6.259   6.787
 2261SOL    HW1 7682   6.776   6.276   6.771
 2261SOL    HW2 7683   6.631   6.347   6.793
 2262SOL     OW 7684   5.469   1.657   2.415
 2262SOL    HW1 7685   5.530   1.588   2.377
 2262SOL    HW2 7686   5.444   1.723   2.343
 2263SOL     OW 7687   3.341   5.985   6.750
 2263SOL    HW1 7688   3.391   6.057   6.702
 2263SOL    HW2 7689   3.260   6.023   6.794
 2264SOL     OW 7690   3.451   3.876   0.669
 2264SOL    HW1 7691   3.501   3.846   0.751
 2264SOL    HW2 7692   3.398   3.800   0.632
 2265SOL     OW 7693   0.646   1.480   4.682
 2265SOL    HW1 7694   0.649   1.394   4.733
 2265SOL    HW2 7695   0.713   1.478   4.608
 2266SOL     OW 7696   5.803   2.027   0.594
 2266SOL    HW1 7697   5.852   1.991   0.515
 2266SOL    HW2 7698   5.773   1.952   0.653
 2267SOL     OW 7699   4.679   2.358   4.680
 2267SOL    HW1 7700   4.661   2.395   4.771
 2267SOL    HW2 7701   4.691   2.434   4.615
 2268SOL     OW 7702   6.891   3.662   6.582
 2268SOL    HW1 7703   6.824   3.592   6.607
 2268SOL    HW2 7704   6.941   3.633   6.500
 2269SOL     OW 7705   5.594   5.666   4.721
 2269SOL    HW1 7706   5.556   5.624   4.803
 2269SOL    HW2 7707   5.690   5.689   4.737
 2270SOL     OW 7708   3.121   2.415   6.174
 2270SOL    HW1 7709   3.050   2.439   6.108
 2270SOL    HW2 7710   3.210   2.446   6.141
 2271SOL     OW 7711   6.027   4.263   0.234
 2271SOL    HW1 7712   6.090   4.190   0.262
 2271SOL    HW2 7713   5.935   4.225   0.224
 2272SOL     OW 7714   6.141   1.974   6.212
 2272SOL    HW1 7715   6.198   1.911   6.264
 2272SOL    HW2 7716   6.187   2.063   6.206
 2273SOL     OW 7717   1.961   0.120   2.454
 2273SOL    HW1 7718   1.962   0.198   2.392
 2273SOL    HW2 7719   1.905   0.047   2.414
 2274SOL     OW 7720   0.093   2.996   6.505
 2274SOL    HW1 7721   0.188   2.969   6.520
 2274SOL    HW2 7722   0.077   3.084   6.550
 2275SOL     OW 7723   5.979   0.894   3.962
 2275SOL    HW1 7724   6.023   0.973   3.918
 2275SOL    HW2 7725   6.021   0.878   4.051
 2276SOL     OW 7726   2.202   4.991   0.898
 2276SOL    HW1 7727   2.250   4.940   0.826
 2276SOL    HW2 7728   2.266   5.052   0.944
 2277SOL     OW 7729   4.177   3.442   5.312
 2277SOL    HW1 7730   4.223   3.361   5.348
 2277SOL    HW2 7731   4.245   3.508   5.281
 2278SOL     OW 7732   6.413   5.050   3.939
 2278SOL    HW1 7733   6.499   5.002   3.955
 2278SOL    HW2 7734   6.396   5.112   4.016
 2279SOL     OW 7735   5.123   6.154   4.657
 2279SOL    HW1 7736   5.104   6.213   4.735
 2279SOL    HW2 7737   5.057   6.079   4.655
 2280SOL     OW 7738   0.198   6.446   4.509
 2280SOL    HW1 7739   0.173   6.542   4.510
 2280SOL    HW2 7740   0.291   6.436   4.472
 2281SOL     OW 7741   3.282   1.208   2.059
 2281SOL    HW1 7742   3.334   1.293   2.048
 2281SOL    HW2 7743   3.203   1.209   1.998
 2282SOL     OW 7744   4.674   6.931   5.081
 2282SOL    HW1 7745   4.672   6.892   4.988
 2282SOL    HW2 7746   4.600   6.890   5.135
 2283SOL     OW 7747   0.395   4.594   2.256
 2283SOL    HW1 7748   0.488   4.577   2.224
 2283SOL    HW2 7749   0.360   4.677   2.214
 2284SOL     OW 7750   1.819   2.185   7.004
 2284SOL    HW1 7751   1.873   2.266   6.979
 2284SOL    HW2 7752   1.875   2.125   0.039
 2285SOL     OW 7753   2.404   1.971   1.161
 2285SOL    HW1 7754   2.380   2.054   1.213
 2285SOL    HW2 7755   2.498   1.980   1.127
 2286SOL     OW 7756   6.731   0.599   3.994
 2286SOL    HW1 7757   6.721   0.519   3.935
 2286SOL    HW2 7758   6.686   0.581   4.082
 2287SOL     OW 7759   1.521   1.189   3.411
 2287SOL    HW1 7760   1.526   1.114   3.345
 2287SOL    HW2 7761   1.430   1.230   3.409
 2288SOL     OW 7762   6.581   5.593   4.741
 2288SOL    HW1 7763   6.672   5.573   4.703
 2288SOL    HW2 7764   6.516   5.524   4.708
 2289SOL     OW 7765   0.419   4.376   2.540
 2289SOL    HW1 7766   0.463   4.466   2.530
 2289SOL    HW2 7767   0.324   4.383   2.512
 2290SOL     OW 7768   1.591   4.291   2.077
 2290SOL    HW1 7769   1.658   4.217   2.081
 2290SOL    HW2 7770   1.630   4.374   2.117
 2291SOL     OW 7771   2.385   2.185   6.581
 2291SOL    HW1 7772   2.412   2.089   6.573
 2291SOL    HW2 7773   2.311   2.194   6.648
 2292SOL     OW 7774   5.723   2.301   4.520
 2292SOL    HW1 7775   5.670   2.218   4.501
 2292SOL    HW2 7776   5.814   2.275   4.554
 2293SOL     OW 7777   5.282   6.845   1.380
 2293SOL    HW1 7778   5.380   6.827   1.370
 2293SOL    HW2 7779   5.230   6.766   1.350
 2294SOL     OW 7780   3.452   1.341   6.564
 2294SOL    HW1 7781   3.436   1.250   6.600
 2294SOL    HW2 7782   3.470   1.336   6.466
 2295SOL     OW 7783   0.482   1.650   2.603
 2295SOL    HW1 7784   0.530   1.571   2.565
 2295SOL    HW2 7785   0.538   1.732   2.594
 2296SOL     OW 7786   3.586   6.202   1.976
 2296SOL    HW1 7787   3.493   6.218   1.944
 2296SOL    HW2 7788   3.604   6.103   1.978
 2297SOL     OW 7789   4.635   4.527   5.531
 2297SOL    HW1 7790   4.721   4.476   5.541
 2297SOL    HW2 7791   4.584   4.490   5.454
 2298SOL     OW 7792   4.199   3.189   1.871
 2298SOL    HW1 7793   4.137   3.127   1.919
 2298SOL    HW2 7794   4.178   3.284   1.897
 2299SOL     OW 7795   4.919   4.861   4.763
 2299SOL    HW1 7796   4.886   4.955   4.756
 2299SOL    HW2 7797   4.941   4.840   4.858
 2300SOL     OW 7798   2.297   5.735   1.725
 2300SOL    HW1 7799   2.251   5.680   1.654
 2300SOL    HW2 7800   2.235   5.807   1.756
 2301SOL     OW 7801   3.447   2.871   2.614
 2301SOL    HW1 7802   3.433   2.888   2.712
 2301SOL    HW2 7803   3.428   2.775   2.594
 2302SOL     OW 7804   3.522   6.933   1.056
 2302SOL    HW1 7805   3.561   7.007   1.001
 2302SOL    HW2 7806   3.544   6.845   1.014
 2303SOL     OW 7807   1.985   3.510   6.420
 2303SOL    HW1 7808   1.890   3.490   6.445
 2303SOL    HW2 7809   2.039   3.526   6.502
 2304SOL     OW 7810   5.191   6.802   4.029
 2304SOL    HW1 7811   5.228   6.751   3.952
 2304SOL    HW2 7812   5.113   6.753   4.068
 2305SOL     OW 7813   2.210   0.010   2.460
 2305SOL    HW1 7814   2.240   6.968   2.531
 2305SOL    HW2 7815   2.116   0.038   2.478
 2306SOL     OW 7816   2.466   4.834   1.826
 2306SOL    HW1 7817   2.466   4.790   1.736
 2306SOL    HW2 7818   2.399   4.908   1.827
 2307SOL     OW 7819   6.411   3.684   3.792
 2307SOL    HW1 7820   6.384   3.594   3.827
 2307SOL    HW2 7821   6.408   3.682   3.692
 2308SOL     OW 7822   1.475   4.717   1.545
 2308SOL    HW1 7823   1.519   4.782   1.607
 2308SOL    HW2 7824   1.452   4.634   1.595
 2309SOL     OW 7825   1.165   0.678   6.444
 2309SOL    HW1 7826   1.213   0.626   6.373
 2309SOL    HW2 7827   1.196   0.773   6.443
 2310SOL     OW 7828   5.642   5.891   0.260
 2310SOL    HW1 7829   5.639   5.921   0.355
 2310SOL    HW2 7830   5.599   5.960   0.202
 2311SOL     OW 7831   2.031   6.896   1.255
 2311SOL    HW1 7832   2.056   6.880   1.351
 2311SOL    HW2 7833   2.098   6.852   1.195
 2312SOL     OW 7834   3.775   6.133   2.813
 2312SOL    HW1 7835   3.790   6.041   2.777
 2312SOL    HW2 7836   3.823   6.199   2.755
 2313SOL     OW 7837   6.005   5.985   1.309
 2313SOL    HW1 7838   6.093   5.942   1.330
 2313SOL    HW2 7839   5.954   5.927   1.247
 2314SOL     OW 7840   5.639   6.563   3.665
 2314SOL    HW1 7841   5.639   6.464   3.647
 2314SOL    HW2 7842   5.691   6.609   3.593
 2315SOL     OW 7843   4.925   3.204   6.064
 2315SOL    HW1 7844   4.875   3.185   6.148
 2315SOL    HW2 7845   4.988   3.129   6.045
 2316SOL     OW 7846   3.606   1.333   4.258
 2316SOL    HW1 7847   3.525   1.385   4.231
 2316SOL    HW2 7848   3.616   1.253   4.199
 2317SOL     OW 7849   0.699   6.658   2.913
 2317SOL    HW1 7850   0.782   6.662   2.859
 2317SOL    HW2 7851   0.644   6.580   2.883
 2318SOL     OW 7852   1.799   2.758   4.034
 2318SOL    HW1 7853   1.811   2.857   4.047
 2318SOL    HW2 7854   1.819   2.710   4.119
 2319SOL     OW 7855   1.907   4.787   3.995
 2319SOL    HW1 7856   1.978   4.720   3.971
 2319SOL    HW2 7857   1.939   4.844   4.071
 2320SOL     OW 7858   0.918   2.069   5.000
 2320SOL    HW1 7859   0.953   2.139   4.938
 2320SOL    HW2 7860   0.994   2.022   5.045
 2321SOL     OW 7861   2.402   0.461   0.035
 2321SOL    HW1 7862   2.434   0.472   6.963
 2321SOL    HW2 7863   2.441   0.377   0.074
 2322SOL     OW 7864   3.565   1.006   4.794
 2322SOL    HW1 7865   3.542   1.091   4.746
 2322SOL    HW2 7866   3.486   0.946   4.795
 2323SOL     OW 7867   2.708   5.075   1.675
 2323SOL    HW1 7868   2.613   5.052   1.655
 2323SOL    HW2 7869   2.745   5.012   1.744
 2324SOL     OW 7870   6.418   6.359   1.343
 2324SOL    HW1 7871   6.479   6.330   1.417
 2324SOL    HW2 7872   6.333   6.394   1.381
 2325SOL     OW 7873   1.425   4.813   2.400
 2325SOL    HW1 7874   1.328   4.839   2.396
 2325SOL    HW2 7875   1.439   4.747   2.474
 2326SOL     OW 7876   3.065   6.140   5.492
 2326SOL    HW1 7877   2.986   6.080   5.505
 2326SOL    HW2 7878   3.090   6.182   5.580
 2327SOL     OW 7879   6.049   3.063   4.469
 2327SOL    HW1 7880   6.013   3.132   4.406
 2327SOL    HW2 7881   6.125   3.015   4.426
 2328SOL     OW 7882   3.150   1.573   2.324
 2328SOL    HW1 7883   3.183   1.663   2.292
 2328SOL    HW2 7884   3.060   1.584   2.366
 2329SOL     OW 7885   1.616   4.013   5.033
 2329SOL    HW1 7886   1.606   4.087   5.100
 2329SOL    HW2 7887   1.660   3.935   5.076
 2330SOL     OW 7888   1.089   3.565   2.007
 2330SOL    HW1 7889   1.103   3.476   2.049
 2330SOL    HW2 7890   1.105   3.559   1.908
 2331SOL     OW 7891   5.591   5.046   1.248
 2331SOL    HW1 7892   5.658   5.096   1.301
 2331SOL    HW2 7893   5.499   5.082   1.268
 2332SOL     OW 7894   4.663   1.525   5.159
 2332SOL    HW1 7895   4.745   1.502   5.107
 2332SOL    HW2 7896   4.655   1.625   5.164
 2333SOL     OW 7897   0.658   5.350   2.987
 2333SOL    HW1 7898   0.744   5.402   2.987
 2333SOL    HW2 7899   0.596   5.389   2.919
 2334SOL     OW 7900   2.336   0.094   6.854
 2334SOL    HW1 7901   2.373   0.187   6.859
 2334SOL    HW2 7902   2.387   0.040   6.787
 2335SOL     OW 7903   6.012   1.453   2.677
 2335SOL    HW1 7904   5.943   1.384   2.698
 2335SOL    HW2 7905   6.103   1.419   2.703
 2336SOL     OW 7906   4.427   1.657   4.882
 2336SOL    HW1 7907   4.424   1.717   4.802
 2336SOL    HW2 7908   4.484   1.698   4.952
 2337SOL     OW 7909   4.287   1.191   3.293
 2337SOL    HW1 7910   4.380   1.159   3.313
 2337SOL    HW2 7911   4.277   1.204   3.194
 2338SOL     OW 7912   1.075   1.543   6.062
 2338SOL    HW1 7913   0.988   1.506   6.096
 2338SOL    HW2 7914   1.074   1.643   6.070
 2339SOL     OW 7915   4.003   3.877   4.826
 2339SOL    HW1 7916   4.054   3.811   4.881
 2339SOL    HW2 7917   3.977   3.955   4.882
 2340SOL     OW 7918   5.074   4.726   0.061
 2340SOL    HW1 7919   5.105   4.631   0.072
 2340SOL    HW2 7920   5.088   4.755   6.989
 2341SOL     OW 7921   5.580   4.201   1.037
 2341SOL    HW1 7922   5.606   4.105   1.033
 2341SOL    HW2 7923   5.635   4.253   0.972
 2342SOL     OW 7924   0.374   6.402   5.087
 2342SOL    HW1 7925   0.291   6.424   5.037
 2342SOL    HW2 7926   0.410   6.315   5.054
 2343SOL     OW 7927   1.614   6.165   2.369
 2343SOL    HW1 7928   1.688   6.101   2.352
 2343SOL    HW2 7929   1.529   6.129   2.330
 2344SOL     OW 7930   1.718   1.113   1.308
 2344SOL    HW1 7931   1.752   1.037   1.363
 2344SOL    HW2 7932   1.765   1.115   1.220
 2345SOL     OW 7933   3.146   5.175   5.785
 2345SOL    HW1 7934   3.110   5.146   5.874
 2345SOL    HW2 7935   3.137   5.275   5.776
 2346SOL     OW 7936   4.731   2.747   4.769
 2346SOL    HW1 7937   4.725   2.846   4.784
 2346SOL    HW2 7938   4.717   2.727   4.671
 2347SOL     OW 7939   2.282   3.206   1.778
 2347SOL    HW1 7940   2.319   3.298   1.793
 2347SOL    HW2 7941   2.284   3.185   1.680
 2348SOL     OW 7942   3.685   6.285   3.459
 2348SOL    HW1 7943   3.657   6.191   3.478
 2348SOL    HW2 7944   3.754   6.286   3.388
 2349SOL     OW 7945   0.348   4.778   6.074
 2349SOL    HW1 7946   0.289   4.837   6.129
 2349SOL    HW2 7947   0.414   4.833   6.024
 2350SOL     OW 7948   5.400   6.942   6.424
 2350SOL    HW1 7949   5.417   6.886   6.505
 2350SOL    HW2 7950   5.480   6.999   6.405
 2351SOL     OW 7951   3.356   5.201   2.274
 2351SOL    HW1 7952   3.453   5.213   2.298
 2351SOL    HW2 7953   3.312   5.290   2.269
 2352SOL     OW 7954   1.102   3.351   2.159
 2352SOL    HW1 7955   1.159   3.274   2.131
 2352SOL    HW2 7956   1.012   3.317   2.187
 2353SOL     OW 7957   3.127   4.657   5.327
 2353SOL    HW1 7958   3.061   4.606   5.273
 2353SOL    HW2 7959   3.207   4.599   5.344
 2354SOL     OW 7960   3.254   1.901   6.188
 2354SOL    HW1 7961   3.332   1.956   6.215
 2354SOL    HW2 7962   3.244   1.902   6.089
 2355SOL     OW 7963   1.541   5.463   6.458
 2355SOL    HW1 7964   1.536   5.524   6.537
 2355SOL    HW2 7965   1.449   5.451   6.420
 2356SOL     OW 7966   2.403   3.888   0.084
 2356SOL    HW1 7967   2.411   3.948   0.164
 2356SOL    HW2 7968   2.491   3.884   0.036
 2357SOL     OW 7969   4.278   5.216   3.647
 2357SOL    HW1 7970   4.266   5.150   3.572
 2357SOL    HW2 7971   4.222   5.189   3.725
 2358SOL     OW 7972   2.675   5.233   5.410
 2358SOL    HW1 7973   2.724   5.259   5.493
 2358SOL    HW2 7974   2.740   5.195   5.344
 2359SOL     OW 7975   0.179   0.591   5.688
 2359SOL    HW1 7976   0.238   0.562   5.763
 2359SOL    HW2 7977   0.233   0.643   5.622
 2360SOL     OW 7978   5.271   6.147   6.179
 2360SOL    HW1 7979   5.228   6.208   6.113
 2360SOL    HW2 7980   5.201   6.103   6.235
 2361SOL     OW 7981   2.990   0.426   5.248
 2361SOL    HW1 7982   2.953   0.510   5.208
 2361SOL    HW2 7983   3.034   0.448   5.335
 2362SOL     OW 7984   2.557   0.485   5.683
 2362SOL    HW1 7985   2.512   0.398   5.703
 2362SOL    HW2 7986   2.541   0.549   5.757
 2363SOL     OW 7987   4.077   2.629   5.649
 2363SOL    HW1 7988   4.163   2.657   5.692
 2363SOL    HW2 7989   4.001   2.654   5.708
 2364SOL     OW 7990   0.463   2.383   3.203
 2364SOL    HW1 7991   0.528   2.314   3.173
 2364SOL    HW2 7992   0.414   2.420   3.123
 2365SOL     OW 7993   6.283   2.226   6.287
 2365SOL    HW1 7994   6.313   2.270   6.202
 2365SOL    HW2 7995   6.258   2.296   6.354
 2366SOL     OW 7996   1.273   4.811   5.753
 2366SOL    HW1 7997   1.318   4.857   5.676
 2366SOL    HW2 7998   1.174   4.810   5.739
 2367SOL     OW 7999   3.810   3.599   7.002
 2367SOL    HW1 8000   3.821   3.624   6.906
 2367SOL    HW2 8001   3.795   3.682   0.034
 2368SOL     OW 8002   4.901   0.197   3.573
 2368SOL    HW1 8003   4.821   0.194   3.512
 2368SOL    HW2 8004   4.964   0.268   3.542
 2369SOL     OW 8005   1.740   2.442   5.076
 2369SOL    HW1 8006   1.832   2.414   5.048
 2369SOL    HW2 8007   1.741   2.540   5.097
 2370SOL     OW 8008   4.892   3.925   6.732
 2370SOL    HW1 8009   4.899   3.841   6.678
 2370SOL    HW2 8010   4.981   3.970   6.734
 2371SOL     OW 8011   1.179   6.008   1.537
 2371SOL    HW1 8012   1.216   5.972   1.622
 2371SOL    HW2 8013   1.253   6.025   1.472
 2372SOL     OW 8014   0.420   2.295   1.390
 2372SOL    HW1 8015   0.506   2.335   1.421
 2372SOL    HW2 8016   0.408   2.311   1.292
 2373SOL     OW 8017   6.690   6.765   0.292
 2373SOL    HW1 8018   6.754   6.800   0.360
 2373SOL    HW2 8019   6.615   6.717   0.338
 2374SOL     OW 8020   6.200   1.184   4.062
 2374SOL    HW1 8021   6.233   1.142   3.978
 2374SOL    HW2 8022   6.249   1.270   4.078
 2375SOL     OW 8023   2.222   6.705   4.548
 2375SOL    HW1 8024   2.223   6.605   4.535
 2375SOL    HW2 8025   2.246   6.750   4.463
 2376SOL     OW 8026   5.813   2.451   4.326
 2376SOL    HW1 8027   5.860   2.403   4.253
 2376SOL    HW2 8028   5.751   2.389   4.373
 2377SOL     OW 8029   3.268   3.994   3.358
 2377SOL    HW1 8030   3.302   3.901   3.369
 2377SOL    HW2 8031   3.279   4.022   3.262
 2378SOL     OW 8032   5.226   2.494   6.712
 2378SOL    HW1 8033   5.200   2.468   6.805
 2378SOL    HW2 8034   5.286   2.423   6.674
 2379SOL     OW 8035   6.518   1.569   6.608
 2379SOL    HW1 8036   6.456   1.543   6.534
 2379SOL    HW2 8037   6.479   1.645   6.659
 2380SOL     OW 8038   6.417   6.455   6.215
 2380SOL    HW1 8039   6.466   6.526   6.164
 2380SOL    HW2 8040   6.322   6.452   6.184
 2381SOL     OW 8041   2.173   4.128   3.849
 2381SOL    HW1 8042   2.239   4.145   3.775
 2381SOL    HW2 8043   2.116   4.209   3.861
 2382SOL     OW 8044   2.583   4.791   3.276
 2382SOL    HW1 8045   2.677   4.799   3.309
 2382SOL    HW2 8046   2.558   4.875   3.228
 2383SOL     OW 8047   5.062   5.742   0.056
 2383SOL    HW1 8048   5.137   5.679   0.035
 2383SOL    HW2 8049   4.975   5.693   0.050
 2384SOL     OW 8050   0.482   6.762   2.187
 2384SOL    HW1 8051   0.438   6.834   2.241
 2384SOL    HW2 8052   0.472   6.783   2.090
 2385SOL     OW 8053   6.146   6.712   1.354
 2385SOL    HW1 8054   6.179   6.624   1.388
 2385SOL    HW2 8055   6.115   6.767   1.432
 2386SOL     OW 8056   5.292   4.483   4.144
 2386SOL    HW1 8057   5.313   4.524   4.055
 2386SOL    HW2 8058   5.344   4.399   4.156
 2387SOL     OW 8059   7.016   1.644   3.470
 2387SOL    HW1 8060   0.023   1.720   3.529
 2387SOL    HW2 8061   6.978   1.681   3.385
 2388SOL     OW 8062   1.274   1.970   3.919
 2388SOL    HW1 8063   1.324   1.936   3.998
 2388SOL    HW2 8064   1.316   1.936   3.835
 2389SOL     OW 8065   5.355   3.440   3.754
 2389SOL    HW1 8066   5.362   3.389   3.669
 2389SOL    HW2 8067   5.409   3.524   3.747
 2390SOL     OW 8068   3.404   3.599   4.399
 2390SOL    HW1 8069   3.369   3.665   4.465
 2390SOL    HW2 8070   3.494   3.630   4.366
 2391SOL     OW 8071   4.636   4.636   5.769
 2391SOL    HW1 8072   4.713   4.611   5.828
 2391SOL    HW2 8073   4.643   4.587   5.682
 2392SOL     OW 8074   3.787   6.336   5.446
 2392SOL    HW1 8075   3.879   6.342   5.484
 2392SOL    HW2 8076   3.765   6.420   5.396
 2393SOL     OW 8077   3.879   5.323   0.704
 2393SOL    HW1 8078   3.795   5.378   0.708
 2393SOL    HW2 8079   3.953   5.379   0.668
 2394SOL     OW 8080   1.842   3.061   4.851
 2394SOL    HW1 8081   1.787   3.012   4.783
 2394SOL    HW2 8082   1.939   3.054   4.827
 2395SOL     OW 8083   6.155   2.749   0.075
 2395SOL    HW1 8084   6.211   2.684   0.023
 2395SOL    HW2 8085   6.145   2.833   0.021
 2396SOL     OW 8086   4.563   5.891   6.993
 2396SOL    HW1 8087   4.652   5.937   6.996
 2396SOL    HW2 8088   4.554   5.842   6.907
 2397SOL     OW 8089   6.977   3.471   0.647
 2397SOL    HW1 8090   6.908   3.517   0.591
 2397SOL    HW2 8091   0.036   3.528   0.653
 2398SOL     OW 8092   3.013   4.299   6.154
 2398SOL    HW1 8093   2.971   4.287   6.064
 2398SOL    HW2 8094   3.112   4.307   6.144
 2399SOL     OW 8095   4.751   1.283   2.344
 2399SOL    HW1 8096   4.810   1.204   2.362
 2399SOL    HW2 8097   4.679   1.256   2.280
 2400SOL     OW 8098   4.169   5.135   0.470
 2400SOL    HW1 8099   4.139   5.227   0.445
 2400SOL    HW2 8100   4.165   5.125   0.570
 2401SOL     OW 8101   4.089   0.854   6.198
 2401SOL    HW1 8102   4.017   0.923   6.190
 2401SOL    HW2 8103   4.160   0.887   6.260
 2402SOL     OW 8104   0.226   2.420   4.025
 2402SOL    HW1 8105   0.179   2.490   3.972
 2402SOL    HW2 8106   0.168   2.390   4.100
 2403SOL     OW 8107   2.927   2.771   0.183
 2403SOL    HW1 8108   2.867   2.698   0.149
 2403SOL    HW2 8109   2.871   2.851   0.207
 2404SOL     OW 8110   5.826   1.207   2.470
 2404SOL    HW1 8111   5.890   1.252   2.408
 2404SOL    HW2 8112   5.868   1.124   2.507
 2405SOL     OW 8113   3.213   3.716   3.684
 2405SOL    HW1 8114   3.265   3.652   3.628
 2405SOL    HW2 8115   3.268   3.743   3.763
 2406SOL     OW 8116   1.801   0.255   3.822
 2406SOL    HW1 8117   1.755   0.213   3.744
 2406SOL    HW2 8118   1.735   0.310   3.873
 2407SOL     OW 8119   4.748   2.919   2.788
 2407SOL    HW1 8120   4.740   2.924   2.888
 2407SOL    HW2 8121   4.702   2.837   2.755
 2408SOL     OW 8122   3.065   5.052   2.209
 2408SOL    HW1 8123   3.143   5.042   2.269
 2408SOL    HW2 8124   3.038   4.962   2.173
 2409SOL     OW 8125   1.827   2.268   2.017
 2409SOL    HW1 8126   1.856   2.325   2.094
 2409SOL    HW2 8127   1.873   2.179   2.022
 2410SOL     OW 8128   5.555   2.908   6.172
 2410SOL    HW1 8129   5.622   2.975   6.205
 2410SOL    HW2 8130   5.532   2.844   6.246
 2411SOL     OW 8131   4.327   5.397   5.415
 2411SOL    HW1 8132   4.307   5.328   5.345
 2411SOL    HW2 8133   4.422   5.426   5.407
 2412SOL     OW 8134   3.068   3.996   0.065
 2412SOL    HW1 8135   2.985   4.043   0.095
 2412SOL    HW2 8136   3.093   4.028   6.996
 2413SOL     OW 8137   6.492   2.864   6.920
 2413SOL    HW1 8138   6.537   2.805   6.853
 2413SOL    HW2 8139   6.533   2.850   7.010
 2414SOL     OW 8140   5.779   4.289   2.179
 2414SOL    HW1 8141   5.776   4.229   2.260
 2414SOL    HW2 8142   5.871   4.327   2.170
 2415SOL     OW 8143   0.433   0.034   0.957
 2415SOL    HW1 8144   0.443   6.995   0.878
 2415SOL    HW2 8145   0.352   0.009   1.009
 2416SOL     OW 8146   3.454   1.937   5.299
 2416SOL    HW1 8147   3.425   2.013   5.358
 2416SOL    HW2 8148   3.374   1.886   5.269
 2417SOL     OW 8149   4.200   2.644   6.819
 2417SOL    HW1 8150   4.196   2.705   6.899
 2417SOL    HW2 8151   4.278   2.583   6.828
 2418SOL     OW 8152   2.918   3.718   3.391
 2418SOL    HW1 8153   2.943   3.664   3.472
 2418SOL    HW2 8154   2.831   3.764   3.407
 2419SOL     OW 8155   0.894   6.520   3.503
 2419SOL    HW1 8156   0.843   6.435   3.516
 2419SOL    HW2 8157   0.847   6.576   3.435
 2420SOL     OW 8158   3.862   0.638   2.546
 2420SOL    HW1 8159   3.870   0.722   2.493
 2420SOL    HW2 8160   3.918   0.645   2.628
 2421SOL     OW 8161   2.666   0.987   5.014
 2421SOL    HW1 8162   2.739   0.963   5.078
 2421SOL    HW2 8163   2.625   0.903   4.976
 2422SOL     OW 8164   5.516   6.978   1.744
 2422SOL    HW1 8165   5.432   6.958   1.692
 2422SOL    HW2 8166   5.574   0.018   1.691
 2423SOL     OW 8167   1.580   5.866   3.695
 2423SOL    HW1 8168   1.561   5.836   3.788
 2423SOL    HW2 8169   1.574   5.788   3.633
 2424SOL     OW 8170   5.551   6.423   5.928
 2424SOL    HW1 8171   5.471   6.428   5.868
 2424SOL    HW2 8172   5.522   6.423   6.023
 2425SOL     OW 8173   6.095   0.370   4.463
 2425SOL    HW1 8174   6.134   0.357   4.554
 2425SOL    HW2 8175   6.006   0.415   4.471
 2426SOL     OW 8176   0.819   4.494   3.872
 2426SOL    HW1 8177   0.727   4.532   3.875
 2426SOL    HW2 8178   0.883   4.557   3.915
 2427SOL     OW 8179   6.196   5.446   6.678
 2427SOL    HW1 8180   6.275   5.450   6.738
 2427SOL    HW2 8181   6.112   5.434   6.732
 2428SOL     OW 8182   0.148   0.028   3.255
 2428SOL    HW1 8183   0.054   0.008   3.227
 2428SOL    HW2 8184   0.211   7.015   3.187
 2429SOL     OW 8185   6.284   5.975   4.297
 2429SOL    HW1 8186   6.203   5.929   4.260
 2429SOL    HW2 8187   6.267   5.999   4.393
 2430SOL     OW 8188   5.830   2.230   1.546
 2430SOL    HW1 8189   5.918   2.273   1.525
 2430SOL    HW2 8190   5.757   2.299   1.541
 2431SOL     OW 8191   3.919   0.155   1.604
 2431SOL    HW1 8192   3.858   0.134   1.680
 2431SOL    HW2 8193   3.928   0.254   1.595
 2432SOL     OW 8194   4.136   6.881   3.000
 2432SOL    HW1 8195   4.223   6.849   2.965
 2432SOL    HW2 8196   4.098   6.812   3.063
 2433SOL     OW 8197   2.935   6.659   1.008
 2433SOL    HW1 8198   2.956   6.669   1.106
 2433SOL    HW2 8199   2.936   6.749   0.965
 2434SOL     OW 8200   4.217   1.454   3.434
 2434SOL    HW1 8201   4.279   1.529   3.412
 2434SOL    HW2 8202   4.239   1.375   3.378
 2435SOL     OW 8203   4.569   5.664   5.878
 2435SOL    HW1 8204   4.608   5.702   5.794
 2435SOL    HW2 8205   4.478   5.627   5.858
 2436SOL     OW 8206   1.525   6.958   0.799
 2436SOL    HW1 8207   1.516   6.950   0.898
 2436SOL    HW2 8208   1.435   6.977   0.759
 2437SOL     OW 8209   3.901   5.757   0.795
 2437SOL    HW1 8210   3.839   5.822   0.750
 2437SOL    HW2 8211   3.979   5.739   0.735
 2438SOL     OW 8212   3.821   1.531   5.493
 2438SOL    HW1 8213   3.760   1.473   5.440
 2438SOL    HW2 8214   3.776   1.557   5.579
 2439SOL     OW 8215   1.461   4.340   0.119
 2439SOL    HW1 8216   1.527   4.374   0.052
 2439SOL    HW2 8217   1.485   4.246   0.145
 2440SOL     OW 8218   3.743   6.584   5.072
 2440SOL    HW1 8219   3.683   6.505   5.061
 2440SOL    HW2 8220   3.836   6.561   5.041
 2441SOL     OW 8221   5.920   0.870   6.971
 2441SOL    HW1 8222   5.930   0.772   6.953
 2441SOL    HW2 8223   5.860   0.911   6.903
 2442SOL     OW 8224   0.163   5.839   3.895
 2442SOL    HW1 8225   0.257   5.818   3.924
 2442SOL    HW2 8226   0.133   5.770   3.829
 2443SOL     OW 8227   3.569   6.824   6.384
 2443SOL    HW1 8228   3.574   6.895   6.454
 2443SOL    HW2 8229   3.515   6.747   6.418
 2444SOL     OW 8230   3.811   4.214   6.140
 2444SOL    HW1 8231   3.865   4.153   6.197
 2444SOL    HW2 8232   3.799   4.302   6.187
 2445SOL     OW 8233   6.875   1.228   2.343
 2445SOL    HW1 8234   6.779   1.222   2.370
 2445SOL    HW2 8235   6.895   1.159   2.273
 2446SOL     OW 8236   0.526   3.134   4.340
 2446SOL    HW1 8237   0.605   3.073   4.343
 2446SOL    HW2 8238   0.461   3.101   4.271
 2447SOL     OW 8239   2.332   1.351   1.083
 2447SOL    HW1 8240   2.261   1.324   1.148
 2447SOL    HW2 8241   2.403   1.281   1.081
 2448SOL     OW 8242   0.831   0.334   4.475
 2448SOL    HW1 8243   0.762   0.272   4.514
 2448SOL    HW2 8244   0.788   0.394   4.408
 2449SOL     OW 8245   0.231   3.894   2.230
 2449SOL    HW1 8246   0.307   3.872   2.170
 2449SOL    HW2 8247   0.261   3.888   2.325
 2450SOL     OW 8248   2.842   4.944   4.623
 2450SOL    HW1 8249   2.937   4.965   4.646
 2450SOL    HW2 8250   2.785   4.955   4.704
 2451SOL     OW 8251   0.239   6.908   4.076
 2451SOL    HW1 8252   0.193   6.925   3.988
 2451SOL    HW2 8253   0.314   6.973   4.087
 2452SOL     OW 8254   2.845   2.196   3.318
 2452SOL    HW1 8255   2.758   2.156   3.344
 2452SOL    HW2 8256   2.920   2.138   3.351
 2453SOL     OW 8257   6.557   3.477   0.500
 2453SOL    HW1 8258   6.580   3.543   0.571
 2453SOL    HW2 8259   6.559   3.385   0.538
 2454SOL     OW 8260   3.096   0.677   6.947
 2454SOL    HW1 8261   3.154   0.612   6.900
 2454SOL    HW2 8262   3.101   0.767   6.902
 2455SOL     OW 8263   5.198   0.326   0.971
 2455SOL    HW1 8264   5.262   0.374   1.032
 2455SOL    HW2 8265   5.175   0.385   0.894
 2456SOL     OW 8266   5.756   1.236   6.892
 2456SOL    HW1 8267   5.836   1.288   6.863
 2456SOL    HW2 8268   5.760   1.143   6.853
 2457SOL     OW 8269   6.068   6.308   6.547
 2457SOL    HW1 8270   6.047   6.216   6.517
 2457SOL    HW2 8271   6.163   6.330   6.524
 2458SOL     OW 8272   2.386   5.642   4.113
 2458SOL    HW1 8273   2.319   5.572   4.139
 2458SOL    HW2 8274   2.390   5.650   4.014
 2459SOL     OW 8275   2.714   6.387   0.195
 2459SOL    HW1 8276   2.621   6.385   0.160
 2459SOL    HW2 8277   2.741   6.481   0.213
 2460SOL     OW 8278   1.729   1.554   1.751
 2460SOL    HW1 8279   1.676   1.543   1.836
 2460SOL    HW2 8280   1.701   1.637   1.704
 2461SOL     OW 8281   4.570   0.224   2.760
 2461SOL    HW1 8282   4.550   0.159   2.834
 2461SOL    HW2 8283   4.665   0.255   2.767
 2462SOL     OW 8284   2.773   5.080   0.105
 2462SOL    HW1 8285   2.737   5.048   0.017
 2462SOL    HW2 8286   2.807   5.173   0.095
 2463SOL     OW 8287   6.186   2.680   4.425
 2463SOL    HW1 8288   6.195   2.607   4.357
 2463SOL    HW2 8289   6.148   2.642   4.509
 2464SOL     OW 8290   1.597   3.940   1.925
 2464SOL    HW1 8291   1.585   3.843   1.903
 2464SOL    HW2 8292   1.552   3.996   1.855
 2465SOL     OW 8293   0.958   0.038   1.865
 2465SOL    HW1 8294   0.919   6.998   1.798
 2465SOL    HW2 8295   1.012   7.009   1.932
 2466SOL     OW 8296   3.071   1.370   1.666
 2466SOL    HW1 8297   3.161   1.340   1.634
 2466SOL    HW2 8298   3.021   1.412   1.591
 2467SOL     OW 8299   5.671   1.610   5.140
 2467SOL    HW1 8300   5.644   1.513   5.139
 2467SOL    HW2 8301   5.742   1.625   5.072
 2468SOL     OW 8302   5.473   5.993   2.528
 2468SOL    HW1 8303   5.520   6.024   2.445
 2468SOL    HW2 8304   5.533   6.009   2.607
 2469SOL     OW 8305   3.968   4.369   5.278
 2469SOL    HW1 8306   3.920   4.314   5.210
 2469SOL    HW2 8307   4.063   4.381   5.251
 2470SOL     OW 8308   3.653   4.793   5.854
 2470SOL    HW1 8309   3.651   4.749   5.764
 2470SOL    HW2 8310   3.694   4.884   5.847
 2471SOL     OW 8311   2.228   6.389   0.507
 2471SOL    HW1 8312   2.150   6.421   0.453
 2471SOL    HW2 8313   2.277   6.319   0.456
 2472SOL     OW 8314   4.481   2.054   3.790
 2472SOL    HW1 8315   4.460   2.152   3.800
 2472SOL    HW2 8316   4.577   2.039   3.810
 2473SOL     OW 8317   1.961   3.838   5.328
 2473SOL    HW1 8318   1.952   3.900   5.250
 2473SOL    HW2 8319   1.921   3.749   5.304
 2474SOL     OW 8320   0.783   5.799   0.561
 2474SOL    HW1 8321   0.863   5.851   0.533
 2474SOL    HW2 8322   0.716   5.798   0.487
 2475SOL     OW 8323   5.318   0.929   0.990
 2475SOL    HW1 8324   5.228   0.970   0.980
 2475SOL    HW2 8325   5.380   0.994   1.035
 2476SOL     OW 8326   0.420   2.596   3.837
 2476SOL    HW1 8327   0.362   2.677   3.843
 2476SOL    HW2 8328   0.463   2.578   3.925
 2477SOL     OW 8329   5.398   1.179   2.433
 2477SOL    HW1 8330   5.336   1.177   2.511
 2477SOL    HW2 8331   5.393   1.091   2.385
 2478SOL     OW 8332   5.821   0.739   2.169
 2478SOL    HW1 8333   5.743   0.738   2.232
 2478SOL    HW2 8334   5.790   0.718   2.076
 2479SOL     OW 8335   1.330   3.888   1.394
 2479SOL    HW1 8336   1.287   3.926   1.312
 2479SOL    HW2 8337   1.332   3.789   1.387
 2480SOL     OW 8338   5.908   4.528   1.031
 2480SOL    HW1 8339   5.837   4.598   1.026
 2480SOL    HW2 8340   5.908   4.486   1.121
 2481SOL     OW 8341   2.620   0.204   0.361
 2481SOL    HW1 8342   2.536   0.206   0.416
 2481SOL    HW2 8343   2.663   0.294   0.363
 2482SOL     OW 8344   5.036   2.915   5.816
 2482SOL    HW1 8345   4.943   2.908   5.851
 2482SOL    HW2 8346   5.041   2.872   5.726
 2483SOL     OW 8347   2.328   1.490   6.917
 2483SOL    HW1 8348   2.230   1.509   6.910
 2483SOL    HW2 8349   2.354   1.428   6.842
 2484SOL     OW 8350   2.007   0.511   0.319
 2484SOL    HW1 8351   1.956   0.444   0.374
 2484SOL    HW2 8352   2.098   0.475   0.299
 2485SOL     OW 8353   4.870   4.483   2.352
 2485SOL    HW1 8354   4.797   4.415   2.349
 2485SOL    HW2 8355   4.897   4.498   2.448
 2486SOL     OW 8356   3.383   5.116   3.345
 2486SOL    HW1 8357   3.439   5.037   3.372
 2486SOL    HW2 8358   3.323   5.141   3.421
 2487SOL     OW 8359   3.863   5.568   6.783
 2487SOL    HW1 8360   3.847   5.622   6.701
 2487SOL    HW2 8361   3.958   5.576   6.811
 2488SOL     OW 8362   2.286   4.249   2.662
 2488SOL    HW1 8363   2.336   4.310   2.724
 2488SOL    HW2 8364   2.190   4.248   2.687
 2489SOL     OW 8365   2.392   5.661   3.832
 2489SOL    HW1 8366   2.330   5.703   3.765
 2489SOL    HW2 8367   2.479   5.710   3.830
 2490SOL     OW 8368   6.474   5.598   1.184
 2490SOL    HW1 8369   6.451   5.675   1.124
 2490SOL    HW2 8370   6.543   5.627   1.250
 2491SOL     OW 8371   2.434   5.675   0.710
 2491SOL    HW1 8372   2.486   5.747   0.756
 2491SOL    HW2 8373   2.345   5.711   0.682
 2492SOL     OW 8374   4.406   3.090   6.725
 2492SOL    HW1 8375   4.449   3.139   6.801
 2492SOL    HW2 8376   4.307   3.109   6.725
 2493SOL     OW 8377   5.585   0.211   2.934
 2493SOL    HW1 8378   5.623   0.203   2.842
 2493SOL    HW2 8379   5.660   0.214   3.001
 2494SOL     OW 8380   5.681   3.673   2.700
 2494SOL    HW1 8381   5.589   3.686   2.663
 2494SOL    HW2 8382   5.730   3.603   2.647
 2495SOL     OW 8383   5.152   0.378   4.892
 2495SOL    HW1 8384   5.121   0.312   4.961
 2495SOL    HW2 8385   5.086   0.453   4.886
 2496SOL     OW 8386   0.639   4.536   6.298
 2496SOL    HW1 8387   0.595   4.514   6.385
 2496SOL    HW2 8388   0.721   4.590   6.315
 2497SOL     OW 8389   0.306   1.267   1.098
 2497SOL    HW1 8390   0.374   1.318   1.046
 2497SOL    HW2 8391   0.288   1.180   1.054
 2498SOL     OW 8392   3.171   2.142   3.692
 2498SOL    HW1 8393   3.254   2.089   3.677
 2498SOL    HW2 8394   3.095   2.102   3.641
 2499SOL     OW 8395   4.749   2.039   4.164
 2499SOL    HW1 8396   4.740   2.039   4.263
 2499SOL    HW2 8397   4.658   2.049   4.123
 2500SOL     OW 8398   4.369   3.316   5.720
 2500SOL    HW1 8399   4.330   3.408   5.734
 2500SOL    HW2 8400   4.317   3.250   5.774
 2501SOL     OW 8401   0.295   6.136   6.944
 2501SOL    HW1 8402   0.305   6.093   0.011
 2501SOL    HW2 8403   0.199   6.139   6.918
 2502SOL     OW 8404   2.414   6.235   3.357
 2502SOL    HW1 8405   2.362   6.196   3.281
 2502SOL    HW2 8406   2.352   6.285   3.417
 2503SOL     OW 8407   3.550   5.356   6.087
 2503SOL    HW1 8408   3.486   5.280   6.076
 2503SOL    HW2 8409   3.504   5.432   6.132
 2504SOL     OW 8410   3.069   5.396   5.337
 2504SOL    HW1 8411   3.141   5.433   5.396
 2504SOL    HW2 8412   3.108   5.326   5.278
 2505SOL     OW 8413   1.590   6.307   4.422
 2505SOL    HW1 8414   1.603   6.217   4.380
 2505SOL    HW2 8415   1.612   6.301   4.520
 2506SOL     OW 8416   5.790   3.335   6.051
 2506SOL    HW1 8417   5.775   3.253   6.107
 2506SOL    HW2 8418   5.827   3.408   6.108
 2507SOL     OW 8419   0.121   3.758   0.625
 2507SOL    HW1 8420   0.192   3.801   0.568
 2507SOL    HW2 8421   0.033   3.762   0.578
 2508SOL     OW 8422   2.770   1.296   2.248
 2508SOL    HW1 8423   2.869   1.310   2.243
 2508SOL    HW2 8424   2.743   1.283   2.343
 2509SOL     OW 8425   5.869   3.046   3.091
 2509SOL    HW1 8426   5.811   3.021   3.014
 2509SOL    HW2 8427   5.841   2.995   3.172
 2510SOL     OW 8428   3.630   4.520   1.179
 2510SOL    HW1 8429   3.590   4.555   1.094
 2510SOL    HW2 8430   3.659   4.597   1.236
 2511SOL     OW 8431   2.355   2.262   4.263
 2511SOL    HW1 8432   2.298   2.254   4.181
 2511SOL    HW2 8433   2.406   2.178   4.278
 2512SOL     OW 8434   5.261   5.517   5.533
 2512SOL    HW1 8435   5.170   5.479   5.514
 2512SOL    HW2 8436   5.255   5.584   5.607
 2513SOL     OW 8437   1.051   2.968   5.415
 2513SOL    HW1 8438   1.021   2.967   5.319
 2513SOL    HW2 8439   1.140   2.924   5.423
 2514SOL     OW 8440   6.616   4.043   4.311
 2514SOL    HW1 8441   6.540   3.985   4.339
 2514SOL    HW2 8442   6.693   4.031   4.374
 2515SOL     OW 8443   1.343   0.207   0.678
 2515SOL    HW1 8444   1.278   0.242   0.745
 2515SOL    HW2 8445   1.318   0.114   0.651
 2516SOL     OW 8446   5.595   6.921   2.820
 2516SOL    HW1 8447   5.695   6.926   2.811
 2516SOL    HW2 8448   5.560   7.011   2.846
 2517SOL     OW 8449   1.897   5.683   5.339
 2517SOL    HW1 8450   1.813   5.684   5.285
 2517SOL    HW2 8451   1.950   5.601   5.316
 2518SOL     OW 8452   2.409   3.024   6.922
 2518SOL    HW1 8453   2.463   2.977   6.852
 2518SOL    HW2 8454   2.312   3.014   6.900
 2519SOL     OW 8455   4.845   5.368   4.379
 2519SOL    HW1 8456   4.943   5.373   4.401
 2519SOL    HW2 8457   4.815   5.272   4.382
 2520SOL     OW 8458   1.266   2.436   0.923
 2520SOL    HW1 8459   1.247   2.534   0.918
 2520SOL    HW2 8460   1.344   2.415   0.865
 2521SOL     OW 8461   0.899   6.473   5.605
 2521SOL    HW1 8462   0.992   6.444   5.627
 2521SOL    HW2 8463   0.866   6.421   5.526
 2522SOL     OW 8464   0.604   3.206   5.910
 2522SOL    HW1 8465   0.675   3.276   5.898
 2522SOL    HW2 8466   0.514   3.247   5.900
 2523SOL     OW 8467   0.323   3.405   1.101
 2523SOL    HW1 8468   0.297   3.366   1.012
 2523SOL    HW2 8469   0.405   3.359   1.135
 2524SOL     OW 8470   0.862   6.135   4.234
 2524SOL    HW1 8471   0.834   6.202   4.166
 2524SOL    HW2 8472   0.800   6.139   4.313
 2525SOL     OW 8473   1.014   2.294   4.862
 2525SOL    HW1 8474   1.103   2.338   4.873
 2525SOL    HW2 8475   0.942   2.363   4.861
 2526SOL     OW 8476   1.318   3.751   5.915
 2526SOL    HW1 8477   1.337   3.847   5.934
 2526SOL    HW2 8478   1.390   3.695   5.956
 2527SOL     OW 8479   4.818   0.208   4.906
 2527SOL    HW1 8480   4.857   0.264   4.833
 2527SOL    HW2 8481   4.847   0.113   4.894
 2528SOL     OW 8482   6.206   4.562   1.115
 2528SOL    HW1 8483   6.124   4.563   1.058
 2528SOL    HW2 8484   6.266   4.637   1.088
 2529SOL     OW 8485   6.047   5.955   5.990
 2529SOL    HW1 8486   5.952   5.983   5.998
 2529SOL    HW2 8487   6.054   5.871   5.937
 2530SOL     OW 8488   1.008   5.809   4.969
 2530SOL    HW1 8489   1.096   5.761   4.969
 2530SOL    HW2 8490   0.950   5.771   4.897
 2531SOL     OW 8491   5.512   5.707   4.259
 2531SOL    HW1 8492   5.458   5.779   4.304
 2531SOL    HW2 8493   5.536   5.638   4.327
 2532SOL     OW 8494   0.827   6.295   0.957
 2532SOL    HW1 8495   0.777   6.279   0.872
 2532SOL    HW2 8496   0.801   6.225   1.024
 2533SOL     OW 8497   4.749   6.385   3.767
 2533SOL    HW1 8498   4.814   6.434   3.824
 2533SOL    HW2 8499   4.661   6.433   3.768
 2534SOL     OW 8500   2.060   6.786   3.350
 2534SOL    HW1 8501   2.073   6.690   3.373
 2534SOL    HW2 8502   1.978   6.820   3.395
 2535SOL     OW 8503   2.264   2.536   6.874
 2535SOL    HW1 8504   2.346   2.551   6.818
 2535SOL    HW2 8505   2.193   2.494   6.818
 2536SOL     OW 8506   0.375   1.727   3.476
 2536SOL    HW1 8507   0.320   1.656   3.432
 2536SOL    HW2 8508   0.405   1.793   3.408
 2537SOL     OW 8509   5.648   5.807   6.747
 2537SOL    HW1 8510   5.618   5.844   6.659
 2537SOL    HW2 8511   5.573   5.755   6.788
 2538SOL     OW 8512   1.465   4.279   4.662
 2538SOL    HW1 8513   1.518   4.317   4.586
 2538SOL    HW2 8514   1.526   4.232   4.726
 2539SOL     OW 8515   4.482   0.206   5.971
 2539SOL    HW1 8516   4.483   0.243   5.878
 2539SOL    HW2 8517   4.450   0.111   5.969
 2540SOL     OW 8518   4.670   1.238   1.326
 2540SOL    HW1 8519   4.704   1.144   1.324
 2540SOL    HW2 8520   4.615   1.255   1.244
 2541SOL     OW 8521   1.399   0.481   5.921
 2541SOL    HW1 8522   1.492   0.454   5.942
 2541SOL    HW2 8523   1.336   0.442   5.989
 2542SOL     OW 8524   4.301   1.516   5.276
 2542SOL    HW1 8525   4.314   1.607   5.316
 2542SOL    HW2 8526   4.227   1.520   5.208
 2543SOL     OW 8527   1.958   0.911   3.031
 2543SOL    HW1 8528   1.931   0.829   2.981
 2543SOL    HW2 8529   2.007   0.973   2.969
 2544SOL     OW 8530   0.599   5.028   2.720
 2544SOL    HW1 8531   0.657   5.110   2.729
 2544SOL    HW2 8532   0.505   5.056   2.704
 2545SOL     OW 8533   1.554   0.598   1.315
 2545SOL    HW1 8534   1.586   0.692   1.307
 2545SOL    HW2 8535   1.459   0.592   1.284
 2546SOL     OW 8536   6.698   3.042   1.647
 2546SOL    HW1 8537   6.749   3.071   1.566
 2546SOL    HW2 8538   6.692   3.119   1.711
 2547SOL     OW 8539   5.336   5.309   6.776
 2547SOL    HW1 8540   5.300   5.388   6.727
 2547SOL    HW2 8541   5.435   5.320   6.788
 2548SOL     OW 8542   2.640   0.488   5.233
 2548SOL    HW1 8543   2.559   0.539   5.205
 2548SOL    HW2 8544   2.678   0.528   5.316
 2549SOL     OW 8545   2.307   1.846   1.906
 2549SOL    HW1 8546   2.249   1.775   1.946
 2549SOL    HW2 8547   2.266   1.936   1.923
 2550SOL     OW 8548   6.423   0.575   6.481
 2550SOL    HW1 8549   6.378   0.555   6.394
 2550SOL    HW2 8550   6.426   0.674   6.494
 2551SOL     OW 8551   3.086   5.197   0.386
 2551SOL    HW1 8552   3.047   5.207   0.477
 2551SOL    HW2 8553   3.154   5.124   0.386
 2552SOL     OW 8554   1.656   5.498   5.806
 2552SOL    HW1 8555   1.717   5.562   5.759
 2552SOL    HW2 8556   1.710   5.428   5.852
 2553SOL     OW 8557   2.952   3.512   6.587
 2553SOL    HW1 8558   3.011   3.535   6.509
 2553SOL    HW2 8559   2.857   3.532   6.563
 2554SOL     OW 8560   1.496   5.828   6.482
 2554SOL    HW1 8561   1.499   5.728   6.476
 2554SOL    HW2 8562   1.586   5.866   6.459
 2555SOL     OW 8563   5.883   6.456   6.452
 2555SOL    HW1 8564   5.933   6.531   6.410
 2555SOL    HW2 8565   5.947   6.393   6.496
 2556SOL     OW 8566   4.012   6.059   0.923
 2556SOL    HW1 8567   4.064   5.988   0.876
 2556SOL    HW2 8568   3.939   6.092   0.863
 2557SOL     OW 8569   2.358   1.692   6.545
 2557SOL    HW1 8570   2.417   1.614   6.523
 2557SOL    HW2 8571   2.275   1.659   6.591
 2558SOL     OW 8572   3.617   3.493   5.956
 2558SOL    HW1 8573   3.633   3.581   5.912
 2558SOL    HW2 8574   3.537   3.450   5.916
 2559SOL     OW 8575   6.587   3.454   4.398
 2559SOL    HW1 8576   6.624   3.386   4.461
 2559SOL    HW2 8577   6.517   3.412   4.340
 2560SOL     OW 8578   4.890   3.416   4.177
 2560SOL    HW1 8579   4.904   3.431   4.079
 2560SOL    HW2 8580   4.847   3.327   4.192
 2561SOL     OW 8581   3.440   0.307   3.183
 2561SOL    HW1 8582   3.427   0.331   3.279
 2561SOL    HW2 8583   3.504   0.371   3.141
 2562SOL     OW 8584   2.262   5.207   2.719
 2562SOL    HW1 8585   2.172   5.175   2.749
 2562SOL    HW2 8586   2.251   5.278   2.649
 2563SOL     OW 8587   3.982   1.660   6.673
 2563SOL    HW1 8588   3.971   1.682   6.576
 2563SOL    HW2 8589   3.893   1.639   6.713
 2564SOL     OW 8590   1.109   6.524   6.308
 2564SOL    HW1 8591   1.156   6.436   6.315
 2564SOL    HW2 8592   1.156   6.581   6.240
 2565SOL     OW 8593   0.037   0.670   0.845
 2565SOL    HW1 8594   0.118   0.722   0.873
 2565SOL    HW2 8595   0.011   0.697   0.752
 2566SOL     OW 8596   1.239   6.674   0.527
 2566SOL    HW1 8597   1.217   6.661   0.431
 2566SOL    HW2 8598   1.338   6.676   0.539
 2567SOL     OW 8599   1.400   1.141   2.179
 2567SOL    HW1 8600   1.313   1.101   2.151
 2567SOL    HW2 8601   1.469   1.068   2.187
 2568SOL     OW 8602   2.673   0.474   0.316
 2568SOL    HW1 8603   2.600   0.513   0.259
 2568SOL    HW2 8604   2.760   0.483   0.269
 2569SOL     OW 8605   2.377   1.110   2.356
 2569SOL    HW1 8606   2.394   1.056   2.438
 2569SOL    HW2 8607   2.460   1.114   2.300
 2570SOL     OW 8608   5.756   0.283   6.634
 2570SOL    HW1 8609   5.785   0.255   6.726
 2570SOL    HW2 8610   5.810   0.362   6.605
 2571SOL     OW 8611   2.985   3.314   4.347
 2571SOL    HW1 8612   2.946   3.371   4.419
 2571SOL    HW2 8613   3.018   3.228   4.387
 2572SOL     OW 8614   1.474   6.647   1.774
 2572SOL    HW1 8615   1.390   6.592   1.771
 2572SOL    HW2 8616   1.452   6.742   1.753
 2573SOL     OW 8617   6.721   1.465   2.075
 2573SOL    HW1 8618   6.817   1.437   2.075
 2573SOL    HW2 8619   6.715   1.564   2.081
 2574SOL     OW 8620   0.203   3.203   0.080
 2574SOL    HW1 8621   0.279   3.147   0.113
 2574SOL    HW2 8622   0.189   3.186   7.005
 2575SOL     OW 8623   4.835   4.045   0.959
 2575SOL    HW1 8624   4.847   3.966   0.899
 2575SOL    HW2 8625   4.738   4.057   0.980
 2576SOL     OW 8626   3.691   0.057   3.858
 2576SOL    HW1 8627   3.732   0.040   3.769
 2576SOL    HW2 8628   3.761   0.048   3.929
 2577SOL     OW 8629   4.540   0.011   2.974
 2577SOL    HW1 8630   4.492   0.002   3.061
 2577SOL    HW2 8631   4.627   6.984   2.978
 2578SOL     OW 8632   4.509   2.770   5.281
 2578SOL    HW1 8633   4.575   2.711   5.327
 2578SOL    HW2 8634   4.548   2.803   5.195
 2579SOL     OW 8635   1.046   1.348   4.026
 2579SOL    HW1 8636   1.103   1.416   3.980
 2579SOL    HW2 8637   1.052   1.360   4.125
 2580SOL     OW 8638   1.747   3.062   6.321
 2580SOL    HW1 8639   1.772   2.996   6.391
 2580SOL    HW2 8640   1.677   3.125   6.357
 2581SOL     OW 8641   6.267   4.874   1.729
 2581SOL    HW1 8642   6.231   4.850   1.819
 2581SOL    HW2 8643   6.199   4.855   1.660
 2582SOL     OW 8644   1.332   4.107   2.683
 2582SOL    HW1 8645   1.313   4.056   2.599
 2582SOL    HW2 8646   1.249   4.114   2.738
 2583SOL     OW 8647   0.910   1.484   1.129
 2583SOL    HW1 8648   0.893   1.392   1.163
 2583SOL    HW2 8649   0.990   1.523   1.176
 2584SOL     OW 8650   3.323   5.836   0.378
 2584SOL    HW1 8651   3.321   5.893   0.296
 2584SOL    HW2 8652   3.340   5.741   0.352
 2585SOL     OW 8653   3.476   0.680   0.424
 2585SOL    HW1 8654   3.486   0.724   0.513
 2585SOL    HW2 8655   3.495   0.746   0.351
 2586SOL     OW 8656   4.870   1.742   3.728
 2586SOL    HW1 8657   4.869   1.652   3.770
 2586SOL    HW2 8658   4.964   1.776   3.723
 2587SOL     OW 8659   6.508   1.192   4.259
 2587SOL    HW1 8660   6.547   1.131   4.189
 2587SOL    HW2 8661   6.456   1.265   4.215
 2588SOL     OW 8662   4.670   6.997   0.459
 2588SOL    HW1 8663   4.574   6.990   0.431
 2588SOL    HW2 8664   4.676   6.989   0.559
 2589SOL     OW 8665   0.222   6.053   5.070
 2589SOL    HW1 8666   0.122   6.056   5.067
 2589SOL    HW2 8667   0.254   6.081   5.160
 2590SOL     OW 8668   3.284   6.500   2.102
 2590SOL    HW1 8669   3.355   6.538   2.161
 2590SOL    HW2 8670   3.253   6.570   2.037
 2591SOL     OW 8671   6.260   6.085   2.332
 2591SOL    HW1 8672   6.261   6.097   2.232
 2591SOL    HW2 8673   6.228   5.993   2.353
 2592SOL     OW 8674   2.274   6.796   1.139
 2592SOL    HW1 8675   2.366   6.794   1.177
 2592SOL    HW2 8676   2.270   6.860   1.063
 2593SOL     OW 8677   3.128   6.453   1.611
 2593SOL    HW1 8678   3.187   6.432   1.532
 2593SOL    HW2 8679   3.133   6.551   1.631
 2594SOL     OW 8680   0.260   6.393   5.931
 2594SOL    HW1 8681   0.301   6.465   5.875
 2594SOL    HW2 8682   0.162   6.386   5.909
 2595SOL     OW 8683   6.274   1.683   5.485
 2595SOL    HW1 8684   6.310   1.618   5.418
 2595SOL    HW2 8685   6.205   1.741   5.441
 2596SOL     OW 8686   3.898   2.157   1.823
 2596SOL    HW1 8687   3.933   2.140   1.916
 2596SOL    HW2 8688   3.831   2.231   1.826
 2597SOL     OW 8689   1.837   3.697   6.720
 2597SOL    HW1 8690   1.883   3.747   6.647
 2597SOL    HW2 8691   1.889   3.707   6.805
 2598SOL     OW 8692   6.346   1.278   4.523
 2598SOL    HW1 8693   6.404   1.253   4.446
 2598SOL    HW2 8694   6.403   1.296   4.604
 2599SOL     OW 8695   2.669   0.751   0.634
 2599SOL    HW1 8696   2.712   0.829   0.680
 2599SOL    HW2 8697   2.722   0.668   0.652
 2600SOL     OW 8698   4.895   3.666   4.616
 2600SOL    HW1 8699   4.806   3.711   4.620
 2600SOL    HW2 8700   4.902   3.599   4.690
 2601SOL     OW 8701   2.719   1.561   6.772
 2601SOL    HW1 8702   2.658   1.514   6.835
 2601SOL    HW2 8703   2.680   1.649   6.746
 2602SOL     OW 8704   6.713   4.731   3.882
 2602SOL    HW1 8705   6.759   4.809   3.839
 2602SOL    HW2 8706   6.620   4.723   3.846
 2603SOL     OW 8707   2.151   2.225   1.746
 2603SOL    HW1 8708   2.201   2.302   1.784
 2603SOL    HW2 8709   2.214   2.164   1.698
 2604SOL     OW 8710   5.036   1.210   2.860
 2604SOL    HW1 8711   5.065   1.294   2.904
 2604SOL    HW2 8712   5.025   1.226   2.762
 2605SOL     OW 8713   3.081   4.929   3.424
 2605SOL    HW1 8714   3.059   4.995   3.495
 2605SOL    HW2 8715   3.177   4.904   3.429
 2606SOL     OW 8716   0.437   4.527   1.250
 2606SOL    HW1 8717   0.386   4.447   1.283
 2606SOL    HW2 8718   0.377   4.584   1.194
 2607SOL     OW 8719   0.738   1.493   5.800
 2607SOL    HW1 8720   0.761   1.456   5.890
 2607SOL    HW2 8721   0.804   1.564   5.775
 2608SOL     OW 8722   4.080   5.432   2.383
 2608SOL    HW1 8723   4.029   5.428   2.469
 2608SOL    HW2 8724   4.096   5.339   2.349
 2609SOL     OW 8725   0.685   2.463   1.835
 2609SOL    HW1 8726   0.726   2.529   1.772
 2609SOL    HW2 8727   0.594   2.495   1.862
 2610SOL     OW 8728   6.767   4.870   4.320
 2610SOL    HW1 8729   6.726   4.795   4.268
 2610SOL    HW2 8730   6.832   4.833   4.387
 2611SOL     OW 8731   5.616   6.628   1.623
 2611SOL    HW1 8732   5.680   6.558   1.592
 2611SOL    HW2 8733   5.657   6.680   1.697
 2612SOL     OW 8734   6.585   6.717   6.165
 2612SOL    HW1 8735   6.682   6.719   6.189
 2612SOL    HW2 8736   6.534   6.775   6.228
 2613SOL     OW 8737   2.678   6.513   1.211
 2613SOL    HW1 8738   2.703   6.417   1.197
 2613SOL    HW2 8739   2.756   6.572   1.187
 2614SOL     OW 8740   6.576   0.130   5.913
 2614SOL    HW1 8741   6.502   0.191   5.886
 2614SOL    HW2 8742   6.539   0.038   5.929
 2615SOL     OW 8743   6.223   3.665   2.796
 2615SOL    HW1 8744   6.164   3.642   2.719
 2615SOL    HW2 8745   6.215   3.763   2.816
 2616SOL     OW 8746   3.834   3.474   3.698
 2616SOL    HW1 8747   3.816   3.474   3.797
 2616SOL    HW2 8748   3.762   3.423   3.652
 2617SOL     OW 8749   3.935   6.448   1.124
 2617SOL    HW1 8750   3.954   6.398   1.208
 2617SOL    HW2 8751   3.898   6.538   1.146
 2618SOL     OW 8752   6.936   6.886   4.141
 2618SOL    HW1 8753   6.960   6.982   4.127
 2618SOL    HW2 8754   6.857   6.879   4.202
 2619SOL     OW 8755   3.449   1.323   3.435
 2619SOL    HW1 8756   3.527   1.282   3.482
 2619SOL    HW2 8757   3.477   1.408   3.391
 2620SOL     OW 8758   0.716   6.412   3.258
 2620SOL    HW1 8759   0.669   6.496   3.228
 2620SOL    HW2 8760   0.721   6.348   3.181
 2621SOL     OW 8761   1.579   5.478   2.291
 2621SOL    HW1 8762   1.651   5.466   2.223
 2621SOL    HW2 8763   1.619   5.513   2.376
 2622SOL     OW 8764   2.482   1.936   6.489
 2622SOL    HW1 8765   2.491   1.980   6.399
 2622SOL    HW2 8766   2.451   1.842   6.477
 2623SOL     OW 8767   3.622   1.732   5.351
 2623SOL    HW1 8768   3.599   1.659   5.286
 2623SOL    HW2 8769   3.574   1.815   5.326
 2624SOL     OW 8770   6.737   2.751   5.239
 2624SOL    HW1 8771   6.742   2.729   5.336
 2624SOL    HW2 8772   6.788   2.683   5.186
 2625SOL     OW 8773   3.060   2.445   5.683
 2625SOL    HW1 8774   3.020   2.445   5.775
 2625SOL    HW2 8775   3.013   2.377   5.627
 2626SOL     OW 8776   0.187   0.700   5.096
 2626SOL    HW1 8777   0.088   0.688   5.102
 2626SOL    HW2 8778   0.230   0.614   5.069
 2627SOL     OW 8779   0.924   0.841   5.044
 2627SOL    HW1 8780   0.843   0.871   5.095
 2627SOL    HW2 8781   0.992   0.805   5.108
 2628SOL     OW 8782   2.024   4.521   6.606
 2628SOL    HW1 8783   1.992   4.613   6.584
 2628SOL    HW2 8784   2.061   4.520   6.699
 2629SOL     OW 8785   3.476   4.191   1.835
 2629SOL    HW1 8786   3.376   4.195   1.831
 2629SOL    HW2 8787   3.509   4.125   1.768
 2630SOL     OW 8788   3.303   1.713   3.810
 2630SOL    HW1 8789   3.323   1.632   3.756
 2630SOL    HW2 8790   3.372   1.723   3.881
 2631SOL     OW 8791   5.337   0.409   4.336
 2631SOL    HW1 8792   5.245   0.394   4.298
 2631SOL    HW2 8793   5.405   0.370   4.275
 2632SOL     OW 8794   2.706   2.206   6.489
 2632SOL    HW1 8795   2.654   2.132   6.530
 2632SOL    HW2 8796   2.771   2.169   6.422
 2633SOL     OW 8797   6.405   1.463   5.354
 2633SOL    HW1 8798   6.494   1.418   5.365
 2633SOL    HW2 8799   6.350   1.412   5.288
 2634SOL     OW 8800   1.463   4.071   3.049
 2634SOL    HW1 8801   1.435   4.069   3.145
 2634SOL    HW2 8802   1.390   4.036   2.992
 2635SOL     OW 8803   6.121   5.791   5.211
 2635SOL    HW1 8804   6.064   5.841   5.277
 2635SOL    HW2 8805   6.167   5.856   5.151
 2636SOL     OW 8806   4.894   0.129   5.459
 2636SOL    HW1 8807   4.990   0.159   5.464
 2636SOL    HW2 8808   4.854   0.162   5.373
 2637SOL     OW 8809   5.840   1.899   3.634
 2637SOL    HW1 8810   5.837   1.806   3.597
 2637SOL    HW2 8811   5.760   1.950   3.603
 2638SOL     OW 8812   6.653   0.016   2.846
 2638SOL    HW1 8813   6.688   0.062   2.764
 2638SOL    HW2 8814   6.687   6.944   2.847
 2639SOL     OW 8815   0.730   0.191   2.019
 2639SOL    HW1 8816   0.778   0.132   1.953
 2639SOL    HW2 8817   0.723   0.144   2.106
 2640SOL     OW 8818   7.020   6.308   4.660
 2640SOL    HW1 8819   0.070   6.361   4.616
 2640SOL    HW2 8820   6.950   6.285   4.592
 2641SOL     OW 8821   4.888   2.900   1.838
 2641SOL    HW1 8822   4.841   2.955   1.906
 2641SOL    HW2 8823   4.880   2.943   1.748
 2642SOL     OW 8824   4.291   7.014   4.286
 2642SOL    HW1 8825   4.210   6.997   4.230
 2642SOL    HW2 8826   4.363   6.948   4.262
 2643SOL     OW 8827   0.801   3.896   2.388
 2643SOL    HW1 8828   0.884   3.942   2.418
 2643SOL    HW2 8829   0.730   3.905   2.458
 2644SOL     OW 8830   6.231   6.153   6.064
 2644SOL    HW1 8831   6.174   6.071   6.054
 2644SOL    HW2 8832   6.327   6.128   6.056
 2645SOL     OW 8833   4.675   5.477   4.180
 2645SOL    HW1 8834   4.689   5.448   4.085
 2645SOL    HW2 8835   4.739   5.428   4.239
 2646SOL     OW 8836   5.918   6.931   6.945
 2646SOL    HW1 8837   5.898   6.864   7.018
 2646SOL    HW2 8838   5.992   6.896   6.888
 2647SOL     OW 8839   6.499   0.782   2.222
 2647SOL    HW1 8840   6.419   0.736   2.185
 2647SOL    HW2 8841   6.510   0.871   2.176
 2648SOL     OW 8842   0.148   6.898   3.495
 2648SOL    HW1 8843   0.130   6.942   3.408
 2648SOL    HW2 8844   0.194   6.810   3.480
 2649SOL     OW 8845   5.871   3.488   6.289
 2649SOL    HW1 8846   5.962   3.522   6.262
 2649SOL    HW2 8847   5.863   3.489   6.388
 2650SOL     OW 8848   0.326   3.479   4.552
 2650SOL    HW1 8849   0.419   3.476   4.516
 2650SOL    HW2 8850   0.299   3.389   4.585
 2651SOL     OW 8851   0.078   2.099   7.016
 2651SOL    HW1 8852   0.138   2.019   7.013
 2651SOL    HW2 8853   7.018   2.076   0.045
 2652SOL     OW 8854   3.356   3.847   3.919
 2652SOL    HW1 8855   3.437   3.820   3.868
 2652SOL    HW2 8856   3.366   3.941   3.950
 2653SOL     OW 8857   5.366   0.269   5.651
 2653SOL    HW1 8858   5.305   0.336   5.695
 2653SOL    HW2 8859   5.458   0.277   5.690
 2654SOL     OW 8860   5.314   5.199   0.859
 2654SOL    HW1 8861   5.242   5.225   0.923
 2654SOL    HW2 8862   5.274   5.184   0.768
 2655SOL     OW 8863   4.951   4.928   4.154
 2655SOL    HW1 8864   4.993   4.844   4.189
 2655SOL    HW2 8865   4.885   4.905   4.082
 2656SOL     OW 8866   3.659   4.938   4.096
 2656SOL    HW1 8867   3.614   4.991   4.167
 2656SOL    HW2 8868   3.737   4.889   4.135
 2657SOL     OW 8869   2.124   4.032   6.527
 2657SOL    HW1 8870   2.155   4.121   6.492
 2657SOL    HW2 8871   2.203   3.973   6.541
 2658SOL     OW 8872   4.756   4.516   0.346
 2658SOL    HW1 8873   4.725   4.470   0.263
 2658SOL    HW2 8874   4.787   4.608   0.323
 2659SOL     OW 8875   6.612   2.764   4.828
 2659SOL    HW1 8876   6.538   2.700   4.807
 2659SOL    HW2 8877   6.693   2.713   4.859
 2660SOL     OW 8878   0.502   1.473   1.043
 2660SOL    HW1 8879   0.446   1.550   1.077
 2660SOL    HW2 8880   0.599   1.496   1.052
 2661SOL     OW 8881   2.158   6.569   0.975
 2661SOL    HW1 8882   2.206   6.652   0.948
 2661SOL    HW2 8883   2.143   6.512   0.895
 2662SOL     OW 8884   4.473   0.255   5.366
 2662SOL    HW1 8885   4.373   0.261   5.356
 2662SOL    HW2 8886   4.502   0.161   5.348
 2663SOL     OW 8887   2.616   4.110   0.818
 2663SOL    HW1 8888   2.548   4.159   0.765
 2663SOL    HW2 8889   2.586   4.017   0.834
 2664SOL     OW 8890   4.181   3.688   4.978
 2664SOL    HW1 8891   4.191   3.588   4.986
 2664SOL    HW2 8892   4.268   3.731   4.999
 2665SOL     OW 8893   2.638   2.488   5.029
 2665SOL    HW1 8894   2.550   2.494   4.982
 2665SOL    HW2 8895   2.702   2.434   4.974
 2666SOL     OW 8896   5.172   3.882   1.552
 2666SOL    HW1 8897   5.260   3.928   1.551
 2666SOL    HW2 8898   5.185   3.783   1.559
 2667SOL     OW 8899   1.843   6.015   4.324
 2667SOL    HW1 8900   1.851   5.936   4.263
 2667SOL    HW2 8901   1.809   5.985   4.413
 2668SOL     OW 8902   5.906   3.454   4.279
 2668SOL    HW1 8903   5.854   3.383   4.232
 2668SOL    HW2 8904   5.862   3.542   4.265
 2669SOL     OW 8905   2.833   4.808   5.295
 2669SOL    HW1 8906   2.803   4.752   5.372
 2669SOL    HW2 8907   2.878   4.751   5.227
 2670SOL     OW 8908   5.570   2.506   6.651
 2670SOL    HW1 8909   5.594   2.410   6.657
 2670SOL    HW2 8910   5.522   2.535   6.734
 2671SOL     OW 8911   3.693   5.220   6.680
 2671SOL    HW1 8912   3.614   5.267   6.719
 2671SOL    HW2 8913   3.709   5.254   6.587
 2672SOL     OW 8914   0.080   4.949   0.702
 2672SOL    HW1 8915   0.174   4.979   0.715
 2672SOL    HW2 8916   0.063   4.934   0.604
 2673SOL     OW 8917   5.754   1.478   4.372
 2673SOL    HW1 8918   5.695   1.401   4.347
 2673SOL    HW2 8919   5.840   1.473   4.321
 2674SOL     OW 8920   1.524   4.041   3.644
 2674SOL    HW1 8921   1.543   3.950   3.683
 2674SOL    HW2 8922   1.427   4.060   3.649
 2675SOL     OW 8923   6.382   5.369   4.683
 2675SOL    HW1 8924   6.420   5.287   4.640
 2675SOL    HW2 8925   6.322   5.343   4.758
 2676SOL     OW 8926   4.341   1.865   1.252
 2676SOL    HW1 8927   4.427   1.817   1.233
 2676SOL    HW2 8928   4.322   1.929   1.178
 2677SOL     OW 8929   3.228   3.923   0.281
 2677SOL    HW1 8930   3.180   3.952   0.198
 2677SOL    HW2 8931   3.279   4.000   0.319
 2678SOL     OW 8932   6.403   3.636   1.426
 2678SOL    HW1 8933   6.466   3.714   1.427
 2678SOL    HW2 8934   6.429   3.572   1.498
 2679SOL     OW 8935   3.343   5.349   1.113
 2679SOL    HW1 8936   3.274   5.418   1.090
 2679SOL    HW2 8937   3.299   5.272   1.159
 2680SOL     OW 8938   0.523   1.560   0.540
 2680SOL    HW1 8939   0.546   1.604   0.453
 2680SOL    HW2 8940   0.476   1.473   0.522
 2681SOL     OW 8941   1.224   2.380   4.391
 2681SOL    HW1 8942   1.133   2.361   4.354
 2681SOL    HW2 8943   1.218   2.453   4.459
 2682SOL     OW 8944   5.664   4.392   2.426
 2682SOL    HW1 8945   5.728   4.464   2.402
 2682SOL    HW2 8946   5.697   4.343   2.507
 2683SOL     OW 8947   2.631   3.549   0.636
 2683SOL    HW1 8948   2.673   3.591   0.716
 2683SOL    HW2 8949   2.600   3.620   0.573
 2684SOL     OW 8950   4.605   5.911   1.368
 2684SOL    HW1 8951   4.682   5.955   1.414
 2684SOL    HW2 8952   4.635   5.874   1.280
 2685SOL     OW 8953   6.330   6.008   6.965
 2685SOL    HW1 8954   6.252   6.041   7.018
 2685SOL    HW2 8955   6.314   5.913   6.939
 2686SOL     OW 8956   1.473   1.633   5.681
 2686SOL    HW1 8957   1.572   1.642   5.686
 2686SOL    HW2 8958   1.435   1.634   5.774
 2687SOL     OW 8959   4.508   4.580   2.354
 2687SOL    HW1 8960   4.559   4.630   2.283
 2687SOL    HW2 8961   4.539   4.485   2.356
 2688SOL     OW 8962   4.526   5.043   6.992
 2688SOL    HW1 8963   4.498   5.139   6.988
 2688SOL    HW2 8964   4.466   4.994   0.032
 2689SOL     OW 8965   1.254   3.570   3.591
 2689SOL    HW1 8966   1.239   3.479   3.630
 2689SOL    HW2 8967   1.168   3.620   3.588
 2690SOL     OW 8968   3.356   3.418   4.082
 2690SOL    HW1 8969   3.283   3.385   4.142
 2690SOL    HW2 8970   3.387   3.344   4.023
 2691SOL     OW 8971   1.359   5.364   2.161
 2691SOL    HW1 8972   1.422   5.410   2.224
 2691SOL    HW2 8973   1.284   5.323   2.213
 2692SOL     OW 8974   3.571   4.913   3.103
 2692SOL    HW1 8975   3.483   4.957   3.123
 2692SOL    HW2 8976   3.575   4.890   3.006
 2693SOL     OW 8977   1.089   4.148   2.791
 2693SOL    HW1 8978   1.021   4.173   2.861
 2693SOL    HW2 8979   1.080   4.210   2.713
 2694SOL     OW 8980   4.582   6.556   3.082
 2694SOL    HW1 8981   4.620   6.648   3.087
 2694SOL    HW2 8982   4.587   6.523   2.988
 2695SOL     OW 8983   4.383   0.846   2.707
 2695SOL    HW1 8984   4.354   0.771   2.767
 2695SOL    HW2 8985   4.432   0.915   2.761
 2696SOL     OW 8986   3.884   3.467   5.388
 2696SOL    HW1 8987   3.850   3.475   5.482
 2696SOL    HW2 8988   3.974   3.423   5.389
 2697SOL     OW 8989   3.232   1.309   2.451
 2697SOL    HW1 8990   3.315   1.270   2.411
 2697SOL    HW2 8991   3.231   1.408   2.437
 2698SOL     OW 8992   1.638   6.006   0.510
 2698SOL    HW1 8993   1.572   5.936   0.485
 2698SOL    HW2 8994   1.641   6.076   0.438
 2699SOL     OW 8995   3.165   6.689   0.431
 2699SOL    HW1 8996   3.087   6.731   0.478
 2699SOL    HW2 8997   3.131   6.626   0.361
 2700SOL     OW 8998   1.883   3.727   0.429
 2700SOL    HW1 8999   1.879   3.824   0.409
 2700SOL    HW2 9000   1.792   3.686   0.419
 2701SOL     OW 9001   4.420   1.002   6.231
 2701SOL    HW1 9002   4.352   0.958   6.290
 2701SOL    HW2 9003   4.499   1.029   6.286
 2702SOL     OW 9004   0.351   2.996   3.610
 2702SOL    HW1 9005   0.428   3.039   3.658
 2702SOL    HW2 9006   0.271   3.056   3.615
 2703SOL     OW 9007   2.024   0.603   2.578
 2703SOL    HW1 9008   2.049   0.638   2.668
 2703SOL    HW2 9009   2.077   0.520   2.558
 2704SOL     OW 9010   6.974   6.412   1.156
 2704SOL    HW1 9011   0.039   6.426   1.108
 2704SOL    HW2 9012   6.966   6.316   1.182
 2705SOL     OW 9013   0.879   4.961   4.159
 2705SOL    HW1 9014   0.928   4.922   4.081
 2705SOL    HW2 9015   0.901   4.909   4.241
 2706SOL     OW 9016   0.952   0.763   1.731
 2706SOL    HW1 9017   1.020   0.699   1.766
 2706SOL    HW2 9018   0.868   0.756   1.785
 2707SOL     OW 9019   2.511   0.774   4.924
 2707SOL    HW1 9020   2.554   0.690   4.889
 2707SOL    HW2 9021   2.466   0.754   5.011
 2708SOL     OW 9022   0.695   2.384   0.457
 2708SOL    HW1 9023   0.728   2.315   0.393
 2708SOL    HW2 9024   0.679   2.470   0.408
 2709SOL     OW 9025   5.832   6.244   0.384
 2709SOL    HW1 9026   5.733   6.237   0.396
 2709SOL    HW2 9027   5.868   6.317   0.442
 2710SOL     OW 9028   0.878   2.877   3.679
 2710SOL    HW1 9029   0.969   2.916   3.693
 2710SOL    HW2 9030   0.854   2.820   3.757
 2711SOL     OW 9031   2.644   1.334   4.035
 2711SOL    HW1 9032   2.635   1.350   4.133
 2711SOL    HW2 9033   2.584   1.396   3.985
 2712SOL     OW 9034   3.273   4.932   0.669
 2712SOL    HW1 9035   3.181   4.899   0.688
 2712SOL    HW2 9036   3.339   4.859   0.688
 2713SOL     OW 9037   2.092   2.081   5.159
 2713SOL    HW1 9038   2.089   2.059   5.061
 2713SOL    HW2 9039   2.099   2.180   5.171
 2714SOL     OW 9040   4.558   2.368   0.484
 2714SOL    HW1 9041   4.563   2.270   0.465
 2714SOL    HW2 9042   4.627   2.392   0.553
 2715SOL     OW 9043   5.072   1.296   0.638
 2715SOL    HW1 9044   5.059   1.329   0.545
 2715SOL    HW2 9045   5.012   1.347   0.700
 2716SOL     OW 9046   5.292   4.384   2.712
 2716SOL    HW1 9047   5.264   4.398   2.617
 2716SOL    HW2 9048   5.359   4.310   2.716
 2717SOL     OW 9049   2.353   4.739   2.099
 2717SOL    HW1 9050   2.413   4.729   2.178
 2717SOL    HW2 9051   2.408   4.734   2.015
 2718SOL     OW 9052   1.576   3.087   5.839
 2718SOL    HW1 9053   1.529   3.160   5.790
 2718SOL    HW2 9054   1.572   3.105   5.937
 2719SOL     OW 9055   6.899   5.834   1.190
 2719SOL    HW1 9056   6.982   5.878   1.223
 2719SOL    HW2 9057   6.904   5.823   1.091
 2720SOL     OW 9058   2.142   6.033   2.477
 2720SOL    HW1 9059   2.159   5.966   2.405
 2720SOL    HW2 9060   2.202   6.112   2.464
 2721SOL     OW 9061   2.940   0.611   4.290
 2721SOL    HW1 9062   2.864   0.634   4.230
 2721SOL    HW2 9063   2.906   0.593   4.382
 2722SOL     OW 9064   6.429   5.857   1.598
 2722SOL    HW1 9065   6.501   5.789   1.599
 2722SOL    HW2 9066   6.466   5.945   1.569
 2723SOL     OW 9067   0.440   6.760   5.582
 2723SOL    HW1 9068   0.466   6.818   5.505
 2723SOL    HW2 9069   0.520   6.709   5.613
 2724SOL     OW 9070   2.221   6.779   6.757
 2724SOL    HW1 9071   2.319   6.789   6.739
 2724SOL    HW2 9072   2.170   6.784   6.671
 2725SOL     OW 9073   5.608   5.042   4.278
 2725SOL    HW1 9074   5.514   5.058   4.248
 2725SOL    HW2 9075   5.615   4.949   4.314
 2726SOL     OW 9076   7.002   3.481   0.990
 2726SOL    HW1 9077   0.040   3.520   0.920
 2726SOL    HW2 9078   6.940   3.415   0.948
 2727SOL     OW 9079   0.592   5.640   4.180
 2727SOL    HW1 9080   0.630   5.726   4.214
 2727SOL    HW2 9081   0.606   5.568   4.247
 2728SOL     OW 9082   3.873   6.614   5.744
 2728SOL    HW1 9083   3.938   6.673   5.792
 2728SOL    HW2 9084   3.890   6.518   5.769
 2729SOL     OW 9085   6.706   5.671   1.307
 2729SOL    HW1 9086   6.723   5.583   1.261
 2729SOL    HW2 9087   6.765   5.741   1.267
 2730SOL     OW 9088   2.066   5.029   1.145
 2730SOL    HW1 9089   2.115   5.026   1.058
 2730SOL    HW2 9090   1.968   5.025   1.128
 2731SOL     OW 9091   3.866   3.512   1.999
 2731SOL    HW1 9092   3.870   3.591   1.939
 2731SOL    HW2 9093   3.914   3.533   2.084
 2732SOL     OW 9094   5.640   2.610   2.190
 2732SOL    HW1 9095   5.681   2.577   2.275
 2732SOL    HW2 9096   5.646   2.539   2.120
 2733SOL     OW 9097   0.654   0.341   5.071
 2733SOL    HW1 9098   0.747   0.324   5.039
 2733SOL    HW2 9099   0.607   0.254   5.085
 2734SOL     OW 9100   2.066   5.618   1.389
 2734SOL    HW1 9101   2.087   5.716   1.396
 2734SOL    HW2 9102   2.149   5.567   1.367
 2735SOL     OW 9103   1.189   3.135   2.838
 2735SOL    HW1 9104   1.155   3.041   2.838
 2735SOL    HW2 9105   1.168   3.177   2.749
 2736SOL     OW 9106   4.210   6.743   4.905
 2736SOL    HW1 9107   4.166   6.697   4.828
 2736SOL    HW2 9108   4.281   6.805   4.871
 2737SOL     OW 9109   3.421   3.560   5.667
 2737SOL    HW1 9110   3.418   3.482   5.731
 2737SOL    HW2 9111   3.408   3.527   5.574
 2738SOL     OW 9112   5.525   4.676   4.091
 2738SOL    HW1 9113   5.487   4.725   4.170
 2738SOL    HW2 9114   5.560   4.587   4.120
 2739SOL     OW 9115   6.743   4.692   0.787
 2739SOL    HW1 9116   6.782   4.784   0.780
 2739SOL    HW2 9117   6.669   4.682   0.721
 2740SOL     OW 9118   6.106   3.570   2.570
 2740SOL    HW1 9119   6.164   3.508   2.517
 2740SOL    HW2 9120   6.013   3.535   2.572
 2741SOL     OW 9121   6.509   0.637   5.562
 2741SOL    HW1 9122   6.415   0.658   5.591
 2741SOL    HW2 9123   6.520   0.538   5.554
 2742SOL     OW 9124   2.358   4.984   6.695
 2742SOL    HW1 9125   2.361   5.057   6.627
 2742SOL    HW2 9126   2.433   4.995   6.760
 2743SOL     OW 9127   0.392   5.425   2.521
 2743SOL    HW1 9128   0.293   5.431   2.506
 2743SOL    HW2 9129   0.411   5.425   2.620
 2744SOL     OW 9130   5.139   1.409   6.837
 2744SOL    HW1 9131   5.121   1.461   6.754
 2744SOL    HW2 9132   5.053   1.373   6.874
 2745SOL     OW 9133   0.881   0.046   6.534
 2745SOL    HW1 9134   0.782   0.058   6.533
 2745SOL    HW2 9135   0.920   0.099   6.610
 2746SOL     OW 9136   2.095   2.309   3.804
 2746SOL    HW1 9137   2.023   2.376   3.785
 2746SOL    HW2 9138   2.157   2.304   3.727
 2747SOL     OW 9139   6.028   3.568   5.701
 2747SOL    HW1 9140   6.109   3.594   5.650
 2747SOL    HW2 9141   5.947   3.582   5.645
 2748SOL     OW 9142   4.678   2.408   0.879
 2748SOL    HW1 9143   4.735   2.446   0.807
 2748SOL    HW2 9144   4.597   2.364   0.839
 2749SOL     OW 9145   6.163   4.645   3.307
 2749SOL    HW1 9146   6.102   4.678   3.378
 2749SOL    HW2 9147   6.155   4.703   3.225
 2750SOL     OW 9148   0.840   4.644   1.035
 2750SOL    HW1 9149   0.871   4.590   0.957
 2750SOL    HW2 9150   0.770   4.593   1.085
 2751SOL     OW 9151   0.170   6.386   0.924
 2751SOL    HW1 9152   0.101   6.316   0.909
 2751SOL    HW2 9153   0.237   6.384   0.849
 2752SOL     OW 9154   4.822   4.799   5.506
 2752SOL    HW1 9155   4.901   4.783   5.566
 2752SOL    HW2 9156   4.751   4.846   5.558
 2753SOL     OW 9157   0.766   6.906   5.760
 2753SOL    HW1 9158   0.702   6.963   5.708
 2753SOL    HW2 9159   0.745   6.809   5.745
 2754SOL     OW 9160   7.005   0.724   3.482
 2754SOL    HW1 9161   7.014   0.640   3.428
 2754SOL    HW2 9162   6.974   0.701   3.574
 2755SOL     OW 9163   2.492   7.010   3.860
 2755SOL    HW1 9164   2.495   6.911   3.874
 2755SOL    HW2 9165   2.585   0.024   3.862
 2756SOL     OW 9166   5.503   4.247   5.715
 2756SOL    HW1 9167   5.477   4.235   5.619
 2756SOL    HW2 9168   5.586   4.302   5.721
 2757SOL     OW 9169   2.362   1.707   6.120
 2757SOL    HW1 9170   2.380   1.655   6.036
 2757SOL    HW2 9171   2.446   1.718   6.172
 2758SOL     OW 9172   5.089   6.468   3.100
 2758SOL    HW1 9173   5.060   6.539   3.037
 2758SOL    HW2 9174   5.028   6.389   3.092
 2759SOL     OW 9175   4.418   5.792   5.486
 2759SOL    HW1 9176   4.338   5.772   5.430
 2759SOL    HW2 9177   4.501   5.762   5.439
 2760SOL     OW 9178   0.440   5.734   2.804
 2760SOL    HW1 9179   0.426   5.773   2.896
 2760SOL    HW2 9180   0.416   5.803   2.735
 2761SOL     OW 9181   1.703   4.580   4.622
 2761SOL    HW1 9182   1.622   4.623   4.581
 2761SOL    HW2 9183   1.785   4.629   4.591
 2762SOL     OW 9184   2.089   1.647   6.680
 2762SOL    HW1 9185   2.012   1.627   6.740
 2762SOL    HW2 9186   2.072   1.608   6.590
 2763SOL     OW 9187   4.639   1.816   5.012
 2763SOL    HW1 9188   4.652   1.883   5.084
 2763SOL    HW2 9189   4.727   1.789   4.974
 2764SOL     OW 9190   6.772   0.534   2.184
 2764SOL    HW1 9191   6.832   0.485   2.247
 2764SOL    HW2 9192   6.678   0.503   2.196
 2765SOL     OW 9193   6.206   6.864   1.110
 2765SOL    HW1 9194   6.170   6.806   1.184
 2765SOL    HW2 9195   6.130   6.908   1.063
 2766SOL     OW 9196   4.293   2.587   0.111
 2766SOL    HW1 9197   4.260   2.677   0.082
 2766SOL    HW2 9198   4.337   2.542   0.033
 2767SOL     OW 9199   6.614   5.534   6.660
 2767SOL    HW1 9200   6.543   5.512   6.727
 2767SOL    HW2 9201   6.642   5.630   6.671
 2768SOL     OW 9202   4.886   0.502   1.427
 2768SOL    HW1 9203   4.813   0.563   1.395
 2768SOL    HW2 9204   4.849   0.411   1.443
 2769SOL     OW 9205   2.468   4.165   6.530
 2769SOL    HW1 9206   2.427   4.231   6.466
 2769SOL    HW2 9207   2.532   4.107   6.481
 2770SOL     OW 9208   4.867   5.697   5.462
 2770SOL    HW1 9209   4.922   5.760   5.406
 2770SOL    HW2 9210   4.780   5.679   5.417
 2771SOL     OW 9211   5.428   1.465   4.403
 2771SOL    HW1 9212   5.428   1.518   4.487
 2771SOL    HW2 9213   5.444   1.368   4.424
 2772SOL     OW 9214   3.011   0.913   1.143
 2772SOL    HW1 9215   2.921   0.953   1.131
 2772SOL    HW2 9216   3.067   0.931   1.062
 2773SOL     OW 9217   6.479   2.812   4.163
 2773SOL    HW1 9218   6.435   2.804   4.073
 2773SOL    HW2 9219   6.531   2.729   4.182
 2774SOL     OW 9220   5.319   3.252   2.745
 2774SOL    HW1 9221   5.417   3.265   2.760
 2774SOL    HW2 9222   5.283   3.190   2.814
 2775SOL     OW 9223   6.348   3.625   5.202
 2775SOL    HW1 9224   6.419   3.669   5.256
 2775SOL    HW2 9225   6.380   3.535   5.171
 2776SOL     OW 9226   5.077   4.329   6.106
 2776SOL    HW1 9227   5.064   4.317   6.008
 2776SOL    HW2 9228   5.172   4.353   6.125
 2777SOL     OW 9229   3.094   2.284   1.122
 2777SOL    HW1 9230   3.131   2.299   1.214
 2777SOL    HW2 9231   3.001   2.249   1.130
 2778SOL     OW 9232   1.270   6.303   6.264
 2778SOL    HW1 9233   1.339   6.235   6.241
 2778SOL    HW2 9234   1.181   6.275   6.228
 2779SOL     OW 9235   5.703   6.513   1.994
 2779SOL    HW1 9236   5.642   6.585   1.960
 2779SOL    HW2 9237   5.795   6.527   1.959
 2780SOL     OW 9238   0.182   6.873   5.547
 2780SOL    HW1 9239   0.271   6.838   5.579
 2780SOL    HW2 9240   0.186   6.890   5.449
 2781SOL     OW 9241   5.885   0.509   2.692
 2781SOL    HW1 9242   5.972   0.541   2.653
 2781SOL    HW2 9243   5.830   0.588   2.720
 2782SOL     OW 9244   4.575   1.290   5.224
 2782SOL    HW1 9245   4.598   1.383   5.197
 2782SOL    HW2 9246   4.641   1.257   5.292
 2783SOL     OW 9247   6.601   4.040   2.459
 2783SOL    HW1 9248   6.580   4.121   2.513
 2783SOL    HW2 9249   6.567   4.052   2.366
 2784SOL     OW 9250   3.481   1.291   2.337
 2784SOL    HW1 9251   3.449   1.366   2.279
 2784SOL    HW2 9252   3.536   1.228   2.282
 2785SOL     OW 9253   5.450   2.319   0.811
 2785SOL    HW1 9254   5.374   2.352   0.756
 2785SOL    HW2 9255   5.480   2.392   0.873
 2786SOL     OW 9256   6.189   6.966   1.997
 2786SOL    HW1 9257   6.092   6.979   1.979
 2786SOL    HW2 9258   6.224   6.891   1.942
 2787SOL     OW 9259   5.835   6.813   5.389
 2787SOL    HW1 9260   5.932   6.795   5.368
 2787SOL    HW2 9261   5.827   6.841   5.484
 2788SOL     OW 9262   2.702   6.747   5.875
 2788SOL    HW1 9263   2.640   6.786   5.806
 2788SOL    HW2 9264   2.795   6.748   5.839
 2789SOL     OW 9265   1.966   2.063   3.709
 2789SOL    HW1 9266   2.044   2.126   3.711
 2789SOL    HW2 9267   1.991   1.981   3.658
 2790SOL     OW 9268   3.163   5.459   1.620
 2790SOL    HW1 9269   3.146   5.466   1.718
 2790SOL    HW2 9270   3.157   5.363   1.591
 2791SOL     OW 9271   0.854   3.213   2.156
 2791SOL    HW1 9272   0.844   3.121   2.118
 2791SOL    HW2 9273   0.769   3.264   2.142
 2792SOL     OW 9274   2.438   0.491   4.309
 2792SOL    HW1 9275   2.424   0.421   4.239
 2792SOL    HW2 9276   2.427   0.582   4.268
 2793SOL     OW 9277   5.146   3.591   1.917
 2793SOL    HW1 9278   5.118   3.501   1.883
 2793SOL    HW2 9279   5.196   3.580   2.003
 2794SOL     OW 9280   6.454   2.151   5.940
 2794SOL    HW1 9281   6.539   2.115   5.903
 2794SOL    HW2 9282   6.427   2.097   6.019
 2795SOL     OW 9283   0.887   3.452   0.966
 2795SOL    HW1 9284   0.933   3.529   1.010
 2795SOL    HW2 9285   0.841   3.396   1.035
 2796SOL     OW 9286   0.168   6.154   3.427
 2796SOL    HW1 9287   0.200   6.104   3.507
 2796SOL    HW2 9288   0.245   6.199   3.382
 2797SOL     OW 9289   5.180   5.501   5.139
 2797SOL    HW1 9290   5.235   5.562   5.196
 2797SOL    HW2 9291   5.096   5.547   5.111
 2798SOL     OW 9292   6.488   5.818   2.717
 2798SOL    HW1 9293   6.405   5.766   2.734
 2798SOL    HW2 9294   6.465   5.904   2.671
 2799SOL     OW 9295   5.572   5.841   5.857
 2799SOL    HW1 9296   5.644   5.778   5.830
 2799SOL    HW2 9297   5.544   5.895   5.777
 2800SOL     OW 9298   5.643   6.683   5.909
 2800SOL    HW1 9299   5.620   6.586   5.914
 2800SOL    HW2 9300   5.565   6.738   5.941
 2801SOL     OW 9301   0.548   5.580   5.768
 2801SOL    HW1 9302   0.478   5.620   5.828
 2801SOL    HW2 9303   0.631   5.636   5.772
 2802SOL     OW 9304   5.395   6.716   5.500
 2802SOL    HW1 9305   5.363   6.811   5.500
 2802SOL    HW2 9306   5.466   6.705   5.430
 2803SOL     OW 9307   3.788   5.187   5.549
 2803SOL    HW1 9308   3.773   5.249   5.472
 2803SOL    HW2 9309   3.823   5.100   5.516
 2804SOL     OW 9310   0.765   3.845   5.202
 2804SOL    HW1 9311   0.840   3.782   5.221
 2804SOL    HW2 9312   0.788   3.903   5.123
 2805SOL     OW 9313   5.933   3.322   3.132
 2805SOL    HW1 9314   5.917   3.231   3.093
 2805SOL    HW2 9315   6.031   3.341   3.132
 2806SOL     OW 9316   2.255   3.989   5.986
 2806SOL    HW1 9317   2.235   3.903   5.938
 2806SOL    HW2 9318   2.181   4.008   6.051
 2807SOL     OW 9319   4.972   6.905   3.479
 2807SOL    HW1 9320   5.028   6.868   3.554
 2807SOL    HW2 9321   4.876   6.902   3.505
 2808SOL     OW 9322   6.595   5.410   1.663
 2808SOL    HW1 9323   6.530   5.364   1.602
 2808SOL    HW2 9324   6.662   5.344   1.696
 2809SOL     OW 9325   5.042   2.877   1.292
 2809SOL    HW1 9326   5.140   2.885   1.312
 2809SOL    HW2 9327   4.989   2.900   1.373
 2810SOL     OW 9328   2.540   5.934   2.701
 2810SOL    HW1 9329   2.522   5.896   2.791
 2810SOL    HW2 9330   2.633   5.971   2.698
 2811SOL     OW 9331   1.355   1.704   3.126
 2811SOL    HW1 9332   1.406   1.726   3.209
 2811SOL    HW2 9333   1.301   1.783   3.097
 2812SOL     OW 9334   6.138   3.468   0.567
 2812SOL    HW1 9335   6.134   3.408   0.487
 2812SOL    HW2 9336   6.151   3.562   0.537
 2813SOL     OW 9337   0.331   1.698   0.082
 2813SOL    HW1 9338   0.241   1.739   0.066
 2813SOL    HW2 9339   0.370   1.667   7.018
 2814SOL     OW 9340   3.080   3.934   5.681
 2814SOL    HW1 9341   3.055   4.014   5.626
 2814SOL    HW2 9342   3.161   3.891   5.642
 2815SOL     OW 9343   6.887   4.919   6.239
 2815SOL    HW1 9344   6.944   4.926   6.320
 2815SOL    HW2 9345   6.919   4.842   6.183
 2816SOL     OW 9346   6.514   6.196   4.413
 2816SOL    HW1 9347   6.430   6.146   4.430
 2816SOL    HW2 9348   6.494   6.278   4.359
 2817SOL     OW 9349   3.171   0.397   2.638
 2817SOL    HW1 9350   3.079   0.406   2.675
 2817SOL    HW2 9351   3.205   0.488   2.611
 2818SOL     OW 9352   0.288   0.880   2.290
 2818SOL    HW1 9353   0.235   0.926   2.218
 2818SOL    HW2 9354   0.347   0.811   2.248
 2819SOL     OW 9355   1.925   0.061   2.083
 2819SOL    HW1 9356   1.971   0.128   2.024
 2819SOL    HW2 9357   1.848   0.104   2.129
 2820SOL     OW 9358   1.519   2.038   2.806
 2820SOL    HW1 9359   1.532   1.954   2.859
 2820SOL    HW2 9360   1.515   2.015   2.709
 2821SOL     OW 9361   3.263   4.869   5.783
 2821SOL    HW1 9362   3.328   4.795   5.773
 2821SOL    HW2 9363   3.185   4.854   5.722
 2822SOL     OW 9364   4.542   2.096   0.449
 2822SOL    HW1 9365   4.587   2.061   0.531
 2822SOL    HW2 9366   4.449   2.062   0.445
 2823SOL     OW 9367   5.825   1.357   0.148
 2823SOL    HW1 9368   5.797   1.352   0.052
 2823SOL    HW2 9369   5.918   1.394   0.154
 2824SOL     OW 9370   2.005   1.792   5.331
 2824SOL    HW1 9371   2.060   1.824   5.408
 2824SOL    HW2 9372   2.032   1.842   5.248
 2825SOL     OW 9373   5.624   0.303   5.790
 2825SOL    HW1 9374   5.624   0.403   5.785
 2825SOL    HW2 9375   5.616   0.275   5.885
 2826SOL     OW 9376   3.751   2.752   6.353
 2826SOL    HW1 9377   3.791   2.835   6.393
 2826SOL    HW2 9378   3.778   2.745   6.257
 2827SOL     OW 9379   0.200   0.274   6.324
 2827SOL    HW1 9380   0.138   0.333   6.273
 2827SOL    HW2 9381   0.199   0.301   6.421
 2828SOL     OW 9382   2.178   2.739   0.620
 2828SOL    HW1 9383   2.159   2.647   0.653
 2828SOL    HW2 9384   2.196   2.800   0.697
 2829SOL     OW 9385   3.259   3.387   3.291
 2829SOL    HW1 9386   3.335   3.408   3.229
 2829SOL    HW2 9387   3.282   3.306   3.345
 2830SOL     OW 9388   3.184   3.921   5.314
 2830SOL    HW1 9389   3.249   3.982   5.360
 2830SOL    HW2 9390   3.095   3.966   5.308
 2831SOL     OW 9391   1.029   3.302   2.973
 2831SOL    HW1 9392   1.068   3.336   3.060
 2831SOL    HW2 9393   1.094   3.240   2.930
 2832SOL     OW 9394   0.974   2.992   1.563
 2832SOL    HW1 9395   0.986   2.927   1.637
 2832SOL    HW2 9396   0.904   2.958   1.499
 2833SOL     OW 9397   3.067   1.205   2.252
 2833SOL    HW1 9398   3.121   1.179   2.172
 2833SOL    HW2 9399   3.128   1.231   2.326
 2834SOL     OW 9400   3.733   6.573   5.334
 2834SOL    HW1 9401   3.750   6.591   5.237
 2834SOL    HW2 9402   3.716   6.660   5.381
 2835SOL     OW 9403   0.429   6.710   1.063
 2835SOL    HW1 9404   0.459   6.619   1.090
 2835SOL    HW2 9405   0.330   6.717   1.073
 2836SOL     OW 9406   1.154   6.558   1.745
 2836SOL    HW1 9407   1.161   6.552   1.645
 2836SOL    HW2 9408   1.103   6.640   1.770
 2837SOL     OW 9409   5.454   4.759   2.649
 2837SOL    HW1 9410   5.424   4.844   2.605
 2837SOL    HW2 9411   5.489   4.697   2.579
 2838SOL     OW 9412   4.248   3.472   0.943
 2838SOL    HW1 9413   4.323   3.511   0.995
 2838SOL    HW2 9414   4.212   3.391   0.991
 2839SOL     OW 9415   0.323   2.839   2.305
 2839SOL    HW1 9416   0.336   2.803   2.398
 2839SOL    HW2 9417   0.390   2.798   2.244
 2840SOL     OW 9418   1.626   5.721   1.822
 2840SOL    HW1 9419   1.566   5.690   1.749
 2840SOL    HW2 9420   1.572   5.766   1.893
 2841SOL     OW 9421   5.972   2.336   6.323
 2841SOL    HW1 9422   5.876   2.322   6.346
 2841SOL    HW2 9423   6.029   2.268   6.369
 2842SOL     OW 9424   0.562   5.436   4.376
 2842SOL    HW1 9425   0.466   5.411   4.389
 2842SOL    HW2 9426   0.621   5.365   4.414
 2843SOL     OW 9427   2.871   1.542   2.449
 2843SOL    HW1 9428   2.811   1.619   2.432
 2843SOL    HW2 9429   2.817   1.458   2.458
 2844SOL     OW 9430   6.326   5.203   0.520
 2844SOL    HW1 9431   6.346   5.269   0.592
 2844SOL    HW2 9432   6.227   5.193   0.509
 2845SOL     OW 9433   5.243   3.076   2.352
 2845SOL    HW1 9434   5.211   2.981   2.358
 2845SOL    HW2 9435   5.206   3.128   2.428
 2846SOL     OW 9436   3.893   0.681   0.711
 2846SOL    HW1 9437   3.879   0.779   0.698
 2846SOL    HW2 9438   3.811   0.631   0.682
 2847SOL     OW 9439   5.210   3.943   3.430
 2847SOL    HW1 9440   5.279   3.994   3.378
 2847SOL    HW2 9441   5.183   3.995   3.510
 2848SOL     OW 9442   2.202   2.706   5.861
 2848SOL    HW1 9443   2.181   2.646   5.784
 2848SOL    HW2 9444   2.185   2.801   5.834
 2849SOL     OW 9445   3.320   0.398   1.381
 2849SOL    HW1 9446   3.344   0.396   1.478
 2849SOL    HW2 9447   3.223   0.422   1.371
 2850SOL     OW 9448   2.163   0.253   3.119
 2850SOL    HW1 9449   2.116   0.183   3.172
 2850SOL    HW2 9450   2.154   0.233   3.022
 2851SOL     OW 9451   5.076   3.088   6.627
 2851SOL    HW1 9452   5.014   3.166   6.629
 2851SOL    HW2 9453   5.036   3.014   6.573
 2852SOL     OW 9454   6.175   4.373   6.815
 2852SOL    HW1 9455   6.104   4.315   6.774
 2852SOL    HW2 9456   6.181   4.459   6.765
 2853SOL     OW 9457   1.219   2.496   6.810
 2853SOL    HW1 9458   1.168   2.578   6.785
 2853SOL    HW2 9459   1.296   2.522   6.869
 2854SOL     OW 9460   4.018   0.456   5.793
 2854SOL    HW1 9461   4.070   0.371   5.785
 2854SOL    HW2 9462   3.987   0.485   5.703
 2855SOL     OW 9463   1.307   1.934   5.508
 2855SOL    HW1 9464   1.392   1.978   5.537
 2855SOL    HW2 9465   1.328   1.848   5.460
 2856SOL     OW 9466   0.854   3.183   4.289
 2856SOL    HW1 9467   0.918   3.108   4.276
 2856SOL    HW2 9468   0.788   3.185   4.213
 2857SOL     OW 9469   0.820   2.751   1.428
 2857SOL    HW1 9470   0.863   2.698   1.354
 2857SOL    HW2 9471   0.748   2.808   1.390
 2858SOL     OW 9472   4.765   5.257   2.259
 2858SOL    HW1 9473   4.746   5.288   2.166
 2858SOL    HW2 9474   4.724   5.321   2.324
 2859SOL     OW 9475   6.602   6.712   0.030
 2859SOL    HW1 9476   6.684   6.728   6.998
 2859SOL    HW2 9477   6.615   6.752   0.121
 2860SOL     OW 9478   2.567   0.586   2.425
 2860SOL    HW1 9479   2.487   0.603   2.367
 2860SOL    HW2 9480   2.642   0.645   2.396
 2861SOL     OW 9481   3.307   5.538   5.598
 2861SOL    HW1 9482   3.340   5.625   5.561
 2861SOL    HW2 9483   3.334   5.464   5.537
 2862SOL     OW 9484   4.115   2.341   1.809
 2862SOL    HW1 9485   4.019   2.313   1.812
 2862SOL    HW2 9486   4.156   2.311   1.723
 2863SOL     OW 9487   4.817   1.688   6.166
 2863SOL    HW1 9488   4.779   1.775   6.196
 2863SOL    HW2 9489   4.837   1.691   6.069
 2864SOL     OW 9490   4.772   2.526   0.635
 2864SOL    HW1 9491   4.864   2.560   0.652
 2864SOL    HW2 9492   4.720   2.594   0.582
 2865SOL     OW 9493   4.025   6.752   3.947
 2865SOL    HW1 9494   4.032   6.653   3.937
 2865SOL    HW2 9495   3.962   6.789   3.879
 2866SOL     OW 9496   5.505   4.174   0.154
 2866SOL    HW1 9497   5.489   4.218   0.066
 2866SOL    HW2 9498   5.424   4.184   0.212
 2867SOL     OW 9499   6.286   5.969   3.246
 2867SOL    HW1 9500   6.236   5.993   3.329
 2867SOL    HW2 9501   6.325   6.052   3.205
 2868SOL     OW 9502   1.325   1.057   5.299
 2868SOL    HW1 9503   1.252   1.035   5.363
 2868SOL    HW2 9504   1.370   1.142   5.326
 2869SOL     OW 9505   6.447   0.868   3.368
 2869SOL    HW1 9506   6.510   0.944   3.351
 2869SOL    HW2 9507   6.413   0.834   3.280
 2870SOL     OW 9508   0.678   2.135   5.940
 2870SOL    HW1 9509   0.607   2.070   5.966
 2870SOL    HW2 9510   0.636   2.214   5.895
 2871SOL     OW 9511   5.727   0.928   0.581
 2871SOL    HW1 9512   5.699   0.996   0.513
 2871SOL    HW2 9513   5.739   0.973   0.670
 2872SOL     OW 9514   2.713   1.978   1.079
 2872SOL    HW1 9515   2.747   1.914   1.148
 2872SOL    HW2 9516   2.755   2.068   1.093
 2873SOL     OW 9517   6.564   6.906   2.573
 2873SOL    HW1 9518   6.541   7.001   2.553
 2873SOL    HW2 9519   6.522   6.847   2.505
 2874SOL     OW 9520   3.724   6.499   2.936
 2874SOL    HW1 9521   3.756   6.594   2.929
 2874SOL    HW2 9522   3.759   6.446   2.860
 2875SOL     OW 9523   4.263   0.330   1.920
 2875SOL    HW1 9524   4.320   0.407   1.949
 2875SOL    HW2 9525   4.302   0.290   1.837
 2876SOL     OW 9526   2.009   0.485   3.210
 2876SOL    HW1 9527   1.920   0.450   3.181
 2876SOL    HW2 9528   2.082   0.431   3.167
 2877SOL     OW 9529   2.672   0.896   6.330
 2877SOL    HW1 9530   2.763   0.924   6.297
 2877SOL    HW2 9531   2.607   0.970   6.313
 2878SOL     OW 9532   2.836   3.829   5.238
 2878SOL    HW1 9533   2.909   3.777   5.283
 2878SOL    HW2 9534   2.859   3.843   5.142
 2879SOL     OW 9535   5.775   5.681   5.768
 2879SOL    HW1 9536   5.816   5.675   5.677
 2879SOL    HW2 9537   5.848   5.685   5.837
 2880SOL     OW 9538   0.615   1.333   3.004
 2880SOL    HW1 9539   0.581   1.337   3.098
 2880SOL    HW2 9540   0.712   1.358   3.002
 2881SOL     OW 9541   3.808   5.998   0.259
 2881SOL    HW1 9542   3.716   6.029   0.284
 2881SOL    HW2 9543   3.802   5.907   0.217
 2882SOL     OW 9544   0.134   5.774   1.458
 2882SOL    HW1 9545   0.136   5.683   1.497
 2882SOL    HW2 9546   0.174   5.771   1.366
 2883SOL     OW 9547   5.902   0.260   3.739
 2883SOL    HW1 9548   5.969   0.223   3.675
 2883SOL    HW2 9549   5.881   0.355   3.715
 2884SOL     OW 9550   0.737   6.777   2.526
 2884SOL    HW1 9551   0.766   6.773   2.430
 2884SOL    HW2 9552   0.675   6.700   2.544
 2885SOL     OW 9553   1.673   2.544   4.770
 2885SOL    HW1 9554   1.618   2.501   4.841
 2885SOL    HW2 9555   1.631   2.528   4.681
 2886SOL     OW 9556   1.728   3.507   6.530
 2886SOL    HW1 9557   1.637   3.469   6.545
 2886SOL    HW2 9558   1.760   3.553   6.613
 2887SOL     OW 9559   0.875   6.570   5.041
 2887SOL    HW1 9560   0.910   6.478   5.054
 2887SOL    HW2 9561   0.951   6.635   5.047
 2888SOL     OW 9562   0.237   4.598   0.303
 2888SOL    HW1 9563   0.282   4.513   0.331
 2888SOL    HW2 9564   0.250   4.667   0.373
 2889SOL     OW 9565   2.778   5.954   2.969
 2889SOL    HW1 9566   2.868   5.961   3.012
 2889SOL    HW2 9567   2.779   6.003   2.882
 2890SOL     OW 9568   1.509   6.081   0.810
 2890SOL    HW1 9569   1.552   6.009   0.757
 2890SOL    HW2 9570   1.538   6.170   0.776
 2891SOL     OW 9571   0.758   3.792   3.399
 2891SOL    HW1 9572   0.760   3.753   3.491
 2891SOL    HW2 9573   0.686   3.862   3.394
 2892SOL     OW 9574   6.141   2.728   1.400
 2892SOL    HW1 9575   6.074   2.712   1.472
 2892SOL    HW2 9576   6.232   2.739   1.440
 2893SOL     OW 9577   0.862   4.806   4.386
 2893SOL    HW1 9578   0.789   4.770   4.327
 2893SOL    HW2 9579   0.820   4.849   4.467
 2894SOL     OW 9580   1.279   3.617   1.368
 2894SOL    HW1 9581   1.281   3.521   1.341
 2894SOL    HW2 9582   1.192   3.637   1.414
 2895SOL     OW 9583   5.570   1.430   5.669
 2895SOL    HW1 9584   5.489   1.397   5.621
 2895SOL    HW2 9585   5.644   1.364   5.658
 2896SOL     OW 9586   4.341   6.868   5.534
 2896SOL    HW1 9587   4.301   6.800   5.471
 2896SOL    HW2 9588   4.419   6.912   5.489
 2897SOL     OW 9589   4.016   4.963   2.158
 2897SOL    HW1 9590   3.921   4.965   2.127
 2897SOL    HW2 9591   4.070   4.905   2.097
 2898SOL     OW 9592   4.269   4.659   3.906
 2898SOL    HW1 9593   4.338   4.721   3.944
 2898SOL    HW2 9594   4.314   4.591   3.848
 2899SOL     OW 9595   0.388   1.844   0.693
 2899SOL    HW1 9596   0.372   1.833   0.791
 2899SOL    HW2 9597   0.360   1.761   0.645
 2900SOL     OW 9598   3.639   4.718   6.830
 2900SOL    HW1 9599   3.702   4.795   6.837
 2900SOL    HW2 9600   3.608   4.691   6.921
 2901SOL     OW 9601   2.306   4.457   3.428
 2901SOL    HW1 9602   2.360   4.521   3.483
 2901SOL    HW2 9603   2.356   4.436   3.345
 2902SOL     OW 9604   6.498   5.173   3.004
 2902SOL    HW1 9605   6.444   5.105   2.953
 2902SOL    HW2 9606   6.436   5.231   3.057
 2903SOL     OW 9607   4.063   6.464   0.444
 2903SOL    HW1 9608   3.993   6.507   0.501
 2903SOL    HW2 9609   4.062   6.505   0.353
 2904SOL     OW 9610   2.854   5.150   5.231
 2904SOL    HW1 9611   2.950   5.176   5.243
 2904SOL    HW2 9612   2.836   5.134   5.134
 2905SOL     OW 9613   1.643   3.861   4.039
 2905SOL    HW1 9614   1.638   3.957   4.067
 2905SOL    HW2 9615   1.710   3.851   3.966
 2906SOL     OW 9616   4.962   5.608   2.936
 2906SOL    HW1 9617   5.040   5.654   2.895
 2906SOL    HW2 9618   4.887   5.605   2.870
 2907SOL     OW 9619   0.537   1.342   3.525
 2907SOL    HW1 9620   0.557   1.252   3.563
 2907SOL    HW2 9621   0.548   1.411   3.598
 2908SOL     OW 9622   5.182   0.368   3.524
 2908SOL    HW1 9623   5.192   0.268   3.525
 2908SOL    HW2 9624   5.188   0.401   3.430
 2909SOL     OW 9625   2.325   5.506   4.400
 2909SOL    HW1 9626   2.358   5.437   4.465
 2909SOL    HW2 9627   2.389   5.583   4.399
 2910SOL     OW 9628   5.830   0.060   3.983
 2910SOL    HW1 9629   5.854   0.107   4.068
 2910SOL    HW2 9630   5.840   0.124   3.907
 2911SOL     OW 9631   1.856   5.159   3.640
 2911SOL    HW1 9632   1.902   5.128   3.723
 2911SOL    HW2 9633   1.766   5.114   3.633
 2912SOL     OW 9634   6.455   6.751   0.490
 2912SOL    HW1 9635   6.441   6.850   0.492
 2912SOL    HW2 9636   6.397   6.711   0.420
 2913SOL     OW 9637   3.620   5.235   1.969
 2913SOL    HW1 9638   3.527   5.271   1.955
 2913SOL    HW2 9639   3.624   5.140   1.940
 2914SOL     OW 9640   6.196   5.735   6.998
 2914SOL    HW1 9641   6.101   5.764   7.001
 2914SOL    HW2 9642   6.201   5.635   7.007
 2915SOL     OW 9643   2.954   2.024   3.523
 2915SOL    HW1 9644   2.932   1.954   3.455
 2915SOL    HW2 9645   2.969   1.980   3.612
 2916SOL     OW 9646   1.073   5.446   0.584
 2916SOL    HW1 9647   1.086   5.412   0.490
 2916SOL    HW2 9648   1.163   5.465   0.625
 2917SOL     OW 9649   2.995   0.120   4.198
 2917SOL    HW1 9650   2.897   0.121   4.175
 2917SOL    HW2 9651   3.042   0.191   4.147
 2918SOL     OW 9652   6.220   4.311   5.516
 2918SOL    HW1 9653   6.179   4.377   5.453
 2918SOL    HW2 9654   6.307   4.346   5.550
 2919SOL     OW 9655   6.059   0.637   2.968
 2919SOL    HW1 9656   5.961   0.619   2.978
 2919SOL    HW2 9657   6.107   0.608   3.050
 2920SOL     OW 9658   2.762   0.648   0.955
 2920SOL    HW1 9659   2.751   0.671   1.051
 2920SOL    HW2 9660   2.828   0.710   0.913
 2921SOL     OW 9661   0.911   0.413   5.393
 2921SOL    HW1 9662   0.988   0.359   5.359
 2921SOL    HW2 9663   0.934   0.510   5.388
 2922SOL     OW 9664   4.969   6.336   1.665
 2922SOL    HW1 9665   4.878   6.330   1.705
 2922SOL    HW2 9666   4.961   6.361   1.568
 2923SOL     OW 9667   6.489   5.686   4.080
 2923SOL    HW1 9668   6.450   5.778   4.089
 2923SOL    HW2 9669   6.426   5.619   4.120
 2924SOL     OW 9670   0.006   2.604   5.308
 2924SOL    HW1 9671   0.078   2.556   5.357
 2924SOL    HW2 9672   6.941   2.557   5.325
 2925SOL     OW 9673   5.837   2.427   0.562
 2925SOL    HW1 9674   5.747   2.385   0.570
 2925SOL    HW2 9675   5.887   2.416   0.647
 2926SOL     OW 9676   5.631   2.256   6.796
 2926SOL    HW1 9677   5.673   2.168   6.820
 2926SOL    HW2 9678   5.680   2.330   6.842
 2927SOL     OW 9679   1.860   3.718   1.050
 2927SOL    HW1 9680   1.880   3.641   1.110
 2927SOL    HW2 9681   1.945   3.750   1.008
 2928SOL     OW 9682   0.066   0.510   6.553
 2928SOL    HW1 9683   0.054   0.444   6.627
 2928SOL    HW2 9684   0.020   0.476   6.470
 2929SOL     OW 9685   1.272   2.899   6.186
 2929SOL    HW1 9686   1.338   2.834   6.225
 2929SOL    HW2 9687   1.204   2.922   6.255
 2930SOL     OW 9688   5.329   6.922   5.751
 2930SOL    HW1 9689   5.256   6.986   5.728
 2930SOL    HW2 9690   5.408   6.938   5.692
 2931SOL     OW 9691   4.948   5.005   6.704
 2931SOL    HW1 9692   5.008   4.925   6.701
 2931SOL    HW2 9693   4.913   5.016   6.797
 2932SOL     OW 9694   1.054   5.807   1.928
 2932SOL    HW1 9695   1.082   5.713   1.952
 2932SOL    HW2 9696   0.959   5.806   1.895
 2933SOL     OW 9697   1.829   6.493   1.974
 2933SOL    HW1 9698   1.814   6.592   1.978
 2933SOL    HW2 9699   1.765   6.453   1.909
 2934SOL     OW 9700   5.494   2.634   6.895
 2934SOL    HW1 9701   5.591   2.649   6.913
 2934SOL    HW2 9702   5.453   2.586   6.972
 2935SOL     OW 9703   6.727   2.822   6.125
 2935SOL    HW1 9704   6.743   2.796   6.030
 2935SOL    HW2 9705   6.699   2.917   6.129
 2936SOL     OW 9706   4.723   5.959   0.423
 2936SOL    HW1 9707   4.663   5.938   0.501
 2936SOL    HW2 9708   4.695   6.046   0.383
 2937SOL     OW 9709   5.353   4.803   1.259
 2937SOL    HW1 9710   5.336   4.901   1.272
 2937SOL    HW2 9711   5.399   4.789   1.171
 2938SOL     OW 9712   5.508   4.515   7.011
 2938SOL    HW1 9713   5.578   4.484   0.053
 2938SOL    HW2 9714   5.419   4.478   0.016
 2939SOL     OW 9715   2.388   0.484   2.047
 2939SOL    HW1 9716   2.475   0.435   2.045
 2939SOL    HW2 9717   2.399   0.571   1.999
 2940SOL     OW 9718   5.481   4.945   5.393
 2940SOL    HW1 9719   5.492   4.915   5.298
 2940SOL    HW2 9720   5.391   4.988   5.404
 2941SOL     OW 9721   1.413   2.281   4.242
 2941SOL    HW1 9722   1.338   2.335   4.278
 2941SOL    HW2 9723   1.478   2.340   4.194
 2942SOL     OW 9724   3.754   1.876   0.814
 2942SOL    HW1 9725   3.731   1.825   0.731
 2942SOL    HW2 9726   3.706   1.964   0.814
 2943SOL     OW 9727   5.933   4.103   4.087
 2943SOL    HW1 9728   6.005   4.167   4.114
 2943SOL    HW2 9729   5.971   4.010   4.083
 2944SOL     OW 9730   3.153   6.135   4.209
 2944SOL    HW1 9731   3.091   6.177   4.275
 2944SOL    HW2 9732   3.229   6.197   4.191
 2945SOL     OW 9733   4.106   3.249   1.515
 2945SOL    HW1 9734   4.140   3.159   1.542
 2945SOL    HW2 9735   4.039   3.281   1.582
 2946SOL     OW 9736   2.085   4.707   6.178
 2946SOL    HW1 9737   2.056   4.801   6.197
 2946SOL    HW2 9738   2.004   4.649   6.167
 2947SOL     OW 9739   0.979   5.863   1.445
 2947SOL    HW1 9740   1.070   5.887   1.478
 2947SOL    HW2 9741   0.955   5.923   1.369
 2948SOL     OW 9742   0.279   4.433   4.671
 2948SOL    HW1 9743   0.192   4.390   4.695
 2948SOL    HW2 9744   0.314   4.394   4.586
 2949SOL     OW 9745   1.062   5.236   1.040
 2949SOL    HW1 9746   1.034   5.325   1.005
 2949SOL    HW2 9747   0.981   5.179   1.054
 2950SOL     OW 9748   5.857   5.736   4.504
 2950SOL    HW1 9749   5.823   5.785   4.423
 2950SOL    HW2 9750   5.877   5.802   4.576
 2951SOL     OW 9751   5.702   1.985   2.007
 2951SOL    HW1 9752   5.711   1.920   2.082
 2951SOL    HW2 9753   5.780   2.048   2.007
 2952SOL     OW 9754   0.351   6.125   5.514
 2952SOL    HW1 9755   0.291   6.203   5.502
 2952SOL    HW2 9756   0.376   6.117   5.611
 2953SOL     OW 9757   6.308   4.066   3.041
 2953SOL    HW1 9758   6.315   4.003   2.963
 2953SOL    HW2 9759   6.213   4.075   3.069
 2954SOL     OW 9760   1.090   5.260   1.853
 2954SOL    HW1 9761   1.081   5.235   1.757
 2954SOL    HW2 9762   1.022   5.210   1.907
 2955SOL     OW 9763   0.873   4.224   1.333
 2955SOL    HW1 9764   0.888   4.125   1.340
 2955SOL    HW2 9765   0.826   4.257   1.415
 2956SOL     OW 9766   5.656   5.682   3.173
 2956SOL    HW1 9767   5.691   5.721   3.088
 2956SOL    HW2 9768   5.684   5.586   3.181
 2957SOL     OW 9769   4.957   4.045   1.620
 2957SOL    HW1 9770   5.021   3.975   1.590
 2957SOL    HW2 9771   4.924   4.024   1.712
 2958SOL     OW 9772   2.305   4.270   3.632
 2958SOL    HW1 9773   2.328   4.334   3.559
 2958SOL    HW2 9774   2.245   4.198   3.597
 2959SOL     OW 9775   4.886   3.342   1.955
 2959SOL    HW1 9776   4.929   3.320   1.868
 2959SOL    HW2 9777   4.834   3.263   1.988
 2960SOL     OW 9778   3.093   0.107   0.438
 2960SOL    HW1 9779   3.079   0.025   0.493
 2960SOL    HW2 9780   3.026   0.110   0.363
 2961SOL     OW 9781   5.800   4.694   3.262
 2961SOL    HW1 9782   5.719   4.642   3.291
 2961SOL    HW2 9783   5.855   4.716   3.343
 2962SOL     OW 9784   4.429   5.877   3.594
 2962SOL    HW1 9785   4.528   5.877   3.585
 2962SOL    HW2 9786   4.393   5.967   3.571
 2963SOL     OW 9787   1.313   1.059   6.888
 2963SOL    HW1 9788   1.273   1.122   6.954
 2963SOL    HW2 9789   1.241   1.023   6.828
 2964SOL     OW 9790   0.215   1.615   5.391
 2964SOL    HW1 9791   0.194   1.590   5.485
 2964SOL    HW2 9792   0.307   1.585   5.368
 2965SOL     OW 9793   0.707   0.900   4.628
 2965SOL    HW1 9794   0.688   0.828   4.561
 2965SOL    HW2 9795   0.722   0.859   4.718
 2966SOL     OW 9796   4.891   4.972   3.062
 2966SOL    HW1 9797   4.953   4.986   2.985
 2966SOL    HW2 9798   4.863   5.060   3.099
 2967SOL     OW 9799   6.015   0.870   5.798
 2967SOL    HW1 9800   5.995   0.966   5.778
 2967SOL    HW2 9801   6.074   0.833   5.727
 2968SOL     OW 9802   1.044   2.721   0.673
 2968SOL    HW1 9803   1.089   2.784   0.610
 2968SOL    HW2 9804   1.021   2.637   0.624
 2969SOL     OW 9805   4.648   2.369   4.238
 2969SOL    HW1 9806   4.610   2.280   4.215
 2969SOL    HW2 9807   4.745   2.372   4.212
 2970SOL     OW 9808   2.619   2.964   5.401
 2970SOL    HW1 9809   2.561   2.988   5.323
 2970SOL    HW2 9810   2.635   2.865   5.402
 2971SOL     OW 9811   4.932   3.748   1.147
 2971SOL    HW1 9812   4.991   3.670   1.123
 2971SOL    HW2 9813   4.842   3.736   1.106
 2972SOL     OW 9814   6.221   4.940   6.482
 2972SOL    HW1 9815   6.133   4.894   6.498
 2972SOL    HW2 9816   6.217   5.033   6.520
 2973SOL     OW 9817   5.091   5.842   2.132
 2973SOL    HW1 9818   5.034   5.787   2.070
 2973SOL    HW2 9819   5.055   5.836   2.225
 2974SOL     OW 9820   0.195   4.664   3.727
 2974SOL    HW1 9821   0.110   4.640   3.774
 2974SOL    HW2 9822   0.259   4.587   3.734
 2975SOL     OW 9823   5.172   4.295   3.920
 2975SOL    HW1 9824   5.165   4.206   3.965
 2975SOL    HW2 9825   5.257   4.340   3.946
 2976SOL     OW 9826   4.394   1.807   2.471
 2976SOL    HW1 9827   4.335   1.841   2.544
 2976SOL    HW2 9828   4.394   1.872   2.395
 2977SOL     OW 9829   1.135   0.475   2.931
 2977SOL    HW1 9830   1.078   0.441   3.006
 2977SOL    HW2 9831   1.129   0.411   2.854
 2978SOL     OW 9832   3.441   4.684   0.103
 2978SOL    HW1 9833   3.522   4.684   0.162
 2978SOL    HW2 9834   3.360   4.662   0.158
 2979SOL     OW 9835   3.372   1.408   3.702
 2979SOL    HW1 9836   3.377   1.359   3.789
 2979SOL    HW2 9837   3.359   1.342   3.627
 2980SOL     OW 9838   1.807   5.703   5.609
 2980SOL    HW1 9839   1.741   5.777   5.612
 2980SOL    HW2 9840   1.831   5.683   5.514
 2981SOL     OW 9841   2.554   0.852   6.701
 2981SOL    HW1 9842   2.524   0.814   6.614
 2981SOL    HW2 9843   2.654   0.854   6.704
 2982SOL     OW 9844   2.565   5.865   0.847
 2982SOL    HW1 9845   2.611   5.937   0.796
 2982SOL    HW2 9846   2.612   5.850   0.934
 2983SOL     OW 9847   6.335   2.238   1.850
 2983SOL    HW1 9848   6.421   2.205   1.886
 2983SOL    HW2 9849   6.260   2.206   1.908
 2984SOL     OW 9850   6.221   5.021   0.135
 2984SOL    HW1 9851   6.151   4.973   0.186
 2984SOL    HW2 9852   6.210   5.004   0.037
 2985SOL     OW 9853   2.039   2.458   4.527
 2985SOL    HW1 9854   2.133   2.426   4.521
 2985SOL    HW2 9855   1.986   2.420   4.451
 2986SOL     OW 9856   3.629   4.106   2.755
 2986SOL    HW1 9857   3.711   4.163   2.741
 2986SOL    HW2 9858   3.657   4.014   2.782
 2987SOL     OW 9859   1.313   1.544   3.965
 2987SOL    HW1 9860   1.242   1.564   3.897
 2987SOL    HW2 9861   1.356   1.630   3.994
 2988SOL     OW 9862   1.656   6.580   2.531
 2988SOL    HW1 9863   1.629   6.676   2.523
 2988SOL    HW2 9864   1.695   6.549   2.445
 2989SOL     OW 9865   4.927   5.097   5.974
 2989SOL    HW1 9866   4.934   5.061   6.067
 2989SOL    HW2 9867   5.018   5.097   5.932
 2990SOL     OW 9868   3.821   1.543   4.071
 2990SOL    HW1 9869   3.733   1.561   4.114
 2990SOL    HW2 9870   3.872   1.629   4.063
 2991SOL     OW 9871   6.086   3.093   5.775
 2991SOL    HW1 9872   6.174   3.118   5.733
 2991SOL    HW2 9873   6.039   3.176   5.805
 2992SOL     OW 9874   1.320   5.097   4.749
 2992SOL    HW1 9875   1.303   5.031   4.823
 2992SOL    HW2 9876   1.271   5.182   4.770
 2993SOL     OW 9877   0.692   5.187   1.412
 2993SOL    HW1 9878   0.642   5.238   1.482
 2993SOL    HW2 9879   0.672   5.089   1.422
 2994SOL     OW 9880   4.092   6.516   0.151
 2994SOL    HW1 9881   4.174   6.563   0.121
 2994SOL    HW2 9882   4.064   6.449   0.082
 2995SOL     OW 9883   3.934   1.102   6.458
 2995SOL    HW1 9884   4.019   1.083   6.508
 2995SOL    HW2 9885   3.860   1.118   6.524
 2996SOL     OW 9886   0.691   1.080   5.011
 2996SOL    HW1 9887   0.666   0.992   5.051
 2996SOL    HW2 9888   0.789   1.082   4.992
 2997SOL     OW 9889   4.883   0.279   3.205
 2997SOL    HW1 9890   4.813   0.246   3.269
 2997SOL    HW2 9891   4.957   0.212   3.199
 2998SOL     OW 9892   5.356   6.816   3.637
 2998SOL    HW1 9893   5.450   6.809   3.670
 2998SOL    HW2 9894   5.356   6.855   3.545
 2999SOL     OW 9895   2.416   5.283   5.489
 2999SOL    HW1 9896   2.505   5.266   5.445
 2999SOL    HW2 9897   2.345   5.286   5.420
 3000SOL     OW 9898   3.290   4.311   6.111
 3000SOL    HW1 9899   3.275   4.221   6.152
 3000SOL    HW2 9900   3.388   4.324   6.094
 3001SOL     OW 9901   6.575   1.326   6.713
 3001SOL    HW1 9902   6.505   1.260   6.686
 3001SOL    HW2 9903   6.556   1.415   6.672
 3002SOL     OW 9904   3.685   2.172   0.151
 3002SOL    HW1 9905   3.716   2.102   0.086
 3002SOL    HW2 9906   3.586   2.165   0.162
 3003SOL     OW 9907   0.612   6.817   0.900
 3003SOL    HW1 9908   0.687   6.856   0.954
 3003SOL    HW2 9909   0.543   6.780   0.961
 3004SOL     OW 9910   1.001   4.266   2.357
 3004SOL    HW1 9911   0.946   4.305   2.431
 3004SOL    HW2 9912   0.947   4.261   2.274
 3005SOL     OW 9913   1.533   2.408   0.083
 3005SOL    HW1 9914   1.509   2.503   0.099
 3005SOL    HW2 9915   1.535   2.359   0.170
 3006SOL     OW 9916   5.637   2.535   4.658
 3006SOL    HW1 9917   5.543   2.557   4.634
 3006SOL    HW2 9918   5.675   2.473   4.590
 3007SOL     OW 9919   5.290   4.188   1.018
 3007SOL    HW1 9920   5.270   4.268   1.075
 3007SOL    HW2 9921   5.389   4.178   1.007
 3008SOL     OW 9922   2.989   2.573   6.520
 3008SOL    HW1 9923   3.003   2.556   6.422
 3008SOL    HW2 9924   2.984   2.671   6.537
 3009SOL     OW 9925   6.353   2.546   2.862
 3009SOL    HW1 9926   6.442   2.506   2.885
 3009SOL    HW2 9927   6.287   2.522   2.933
 3010SOL     OW 9928   3.001   5.823   3.296
 3010SOL    HW1 9929   3.078   5.785   3.347
 3010SOL    HW2 9930   2.927   5.756   3.292
 3011SOL     OW 9931   5.662   1.371   2.629
 3011SOL    HW1 9932   5.572   1.333   2.611
 3011SOL    HW2 9933   5.727   1.336   2.562
 3012SOL     OW 9934   2.558   3.113   6.647
 3012SOL    HW1 9935   2.589   3.020   6.667
 3012SOL    HW2 9936   2.603   3.146   6.564
 3013SOL     OW 9937   5.433   5.339   4.075
 3013SOL    HW1 9938   5.412   5.261   4.017
 3013SOL    HW2 9939   5.393   5.324   4.166
 3014SOL     OW 9940   4.803   2.339   5.404
 3014SOL    HW1 9941   4.831   2.385   5.319
 3014SOL    HW2 9942   4.759   2.252   5.381
 3015SOL     OW 9943   1.781   1.852   0.181
 3015SOL    HW1 9944   1.684   1.838   0.161
 3015SOL    HW2 9945   1.832   1.770   0.156
 3016SOL     OW 9946   3.348   6.259   4.394
 3016SOL    HW1 9947   3.379   6.242   4.300
 3016SOL    HW2 9948   3.382   6.187   4.454
 3017SOL     OW 9949   6.185   5.859   2.467
 3017SOL    HW1 9950   6.210   5.762   2.454
 3017SOL    HW2 9951   6.147   5.871   2.558
 3018SOL     OW 9952   2.853   0.214   6.694
 3018SOL    HW1 9953   2.838   0.116   6.684
 3018SOL    HW2 9954   2.845   0.258   6.605
 3019SOL     OW 9955   0.668   0.060   0.022
 3019SOL    HW1 9956   0.713   0.021   6.964
 3019SOL    HW2 9957   0.633   0.151   7.021
 3020SOL     OW 9958   3.909   3.110   0.775
 3020SOL    HW1 9959   3.911   3.167   0.693
 3020SOL    HW2 9960   3.982   3.137   0.837
 3021SOL     OW 9961   3.078   0.103   4.968
 3021SOL    HW1 9962   3.135   0.026   4.941
 3021SOL    HW2 9963   3.085   0.175   4.900
 3022SOL     OW 9964   4.406   5.125   4.491
 3022SOL    HW1 9965   4.310   5.139   4.515
 3022SOL    HW2 9966   4.433   5.192   4.422
 3023SOL     OW 9967   4.211   6.320   3.141
 3023SOL    HW1 9968   4.185   6.327   3.237
 3023SOL    HW2 9969   4.240   6.410   3.108
 3024SOL     OW 9970   5.562   6.645   4.396
 3024SOL    HW1 9971   5.481   6.597   4.363
 3024SOL    HW2 9972   5.534   6.728   4.446
 3025SOL     OW 9973   4.376   6.197   1.549
 3025SOL    HW1 9974   4.368   6.283   1.498
 3025SOL    HW2 9975   4.309   6.195   1.622
 3026SOL     OW 9976   0.352   1.312   5.981
 3026SOL    HW1 9977   0.283   1.253   6.022
 3026SOL    HW2 9978   0.406   1.260   5.915
 3027SOL     OW 9979   3.833   1.530   3.078
 3027SOL    HW1 9980   3.808   1.608   3.021
 3027SOL    HW2 9981   3.788   1.537   3.167
 3028SOL     OW 9982   1.246   3.214   5.514
 3028SOL    HW1 9983   1.191   3.133   5.497
 3028SOL    HW2 9984   1.341   3.188   5.530
 3029SOL     OW 9985   1.095   3.203   4.942
 3029SOL    HW1 9986   1.079   3.284   4.886
 3029SOL    HW2 9987   1.193   3.185   4.948
 3030SOL     OW 9988   1.218   3.001   0.736
 3030SOL    HW1 9989   1.290   2.978   0.670
 3030SOL    HW2 9990   1.220   3.100   0.754
 3031SOL     OW 9991   0.183   5.085   1.321
 3031SOL    HW1 9992   0.217   5.063   1.412
 3031SOL    HW2 9993   0.247   5.147   1.276
 3032SOL     OW 9994   1.841   6.883   1.752
 3032SOL    HW1 9995   1.928   6.858   1.795
 3032SOL    HW2 9996   1.788   6.800   1.734
 3033SOL     OW 9997   5.340   0.943   2.281
 3033SOL    HW1 9998   5.391   0.943   2.196
 3033SOL    HW2 9999   5.249   0.982   2.266
 3034SOL     OW10000   0.899   0.215   3.236
 3034SOL    HW110001   0.886   0.296   3.180
 3034SOL    HW210002   0.811   0.184   3.272
 3035SOL     OW10003   0.618   2.981   6.080
 3035SOL    HW110004   0.589   3.019   6.168
 3035SOL    HW210005   0.609   3.051   6.009
 3036SOL     OW10006   1.463   2.198   5.198
 3036SOL    HW110007   1.392   2.225   5.264
 3036SOL    HW210008   1.523   2.131   5.239
 3037SOL     OW10009   6.347   5.358   6.191
 3037SOL    HW110010   6.342   5.455   6.213
 3037SOL    HW210011   6.387   5.308   6.269
 3038SOL     OW10012   5.168   5.135   5.854
 3038SOL    HW110013   5.244   5.198   5.866
 3038SOL    HW210014   5.147   5.126   5.757
 3039SOL     OW10015   1.040   2.933   1.249
 3039SOL    HW110016   1.111   2.954   1.317
 3039SOL    HW210017   1.038   3.006   1.180
 3040SOL     OW10018   3.887   4.157   5.872
 3040SOL    HW110019   3.874   4.060   5.851
 3040SOL    HW210020   3.878   4.172   5.970
 3041SOL     OW10021   2.272   4.171   5.598
 3041SOL    HW110022   2.367   4.146   5.615
 3041SOL    HW210023   2.238   4.122   5.518
 3042SOL     OW10024   6.334   6.556   3.193
 3042SOL    HW110025   6.353   6.544   3.096
 3042SOL    HW210026   6.259   6.621   3.205
 3043SOL     OW10027   3.022   3.975   1.719
 3043SOL    HW110028   3.093   3.968   1.790
 3043SOL    HW210029   2.996   4.071   1.707
 3044SOL     OW10030   3.516   6.122   5.668
 3044SOL    HW110031   3.438   6.148   5.725
 3044SOL    HW210032   3.597   6.112   5.726
 3045SOL     OW10033   5.100   0.125   3.174
 3045SOL    HW110034   5.187   0.172   3.190
 3045SOL    HW210035   5.108   0.067   3.093
 3046SOL     OW10036   3.822   0.851   6.282
 3046SOL    HW110037   3.872   0.897   6.356
 3046SOL    HW210038   3.724   0.856   6.301
 3047SOL     OW10039   5.959   0.416   1.614
 3047SOL    HW110040   6.046   0.413   1.662
 3047SOL    HW210041   5.973   0.392   1.518
 3048SOL     OW10042   3.881   2.517   1.085
 3048SOL    HW110043   3.921   2.506   1.175
 3048SOL    HW210044   3.864   2.614   1.067
 3049SOL     OW10045   1.646   6.854   3.629
 3049SOL    HW110046   1.566   6.884   3.576
 3049SOL    HW210047   1.616   6.795   3.704
 3050SOL     OW10048   3.221   1.682   1.735
 3050SOL    HW110049   3.133   1.729   1.723
 3050SOL    HW210050   3.283   1.708   1.660
 3051SOL     OW10051   1.890   6.690   6.534
 3051SOL    HW110052   1.915   6.769   6.591
 3051SOL    HW210053   1.792   6.691   6.518
 3052SOL     OW10054   5.076   5.415   1.739
 3052SOL    HW110055   5.169   5.382   1.753
 3052SOL    HW210056   5.078   5.505   1.696
 3053SOL     OW10057   6.605   3.294   1.047
 3053SOL    HW110058   6.673   3.317   0.977
 3053SOL    HW210059   6.543   3.371   1.061
 3054SOL     OW10060   5.788   1.955   1.500
 3054SOL    HW110061   5.761   1.920   1.589
 3054SOL    HW210062   5.800   2.054   1.506
 3055SOL     OW10063   5.468   0.036   5.008
 3055SOL    HW110064   5.483   0.010   5.103
 3055SOL    HW210065   5.470   0.135   4.999
 3056SOL     OW10066   6.044   1.129   6.001
 3056SOL    HW110067   6.060   1.222   6.031
 3056SOL    HW210068   5.945   1.113   5.992
 3057SOL     OW10069   4.494   5.054   4.039
 3057SOL    HW110070   4.557   5.065   3.962
 3057SOL    HW210071   4.401   5.073   4.007
 3058SOL     OW10072   0.294   4.713   1.110
 3058SOL    HW110073   0.273   4.809   1.091
 3058SOL    HW210074   0.215   4.657   1.086
 3059SOL     OW10075   2.691   1.732   4.221
 3059SOL    HW110076   2.692   1.826   4.255
 3059SOL    HW210077   2.779   1.689   4.241
 3060SOL     OW10078   1.775   5.480   0.009
 3060SOL    HW110079   1.861   5.446   0.046
 3060SOL    HW210080   1.705   5.409   0.015
 3061SOL     OW10081   6.505   6.074   5.990
 3061SOL    HW110082   6.572   6.063   5.917
 3061SOL    HW210083   6.547   6.124   6.066
 3062SOL     OW10084   1.782   0.018   0.695
 3062SOL    HW110085   1.850   7.003   0.759
 3062SOL    HW210086   1.690   0.004   0.732
 3063SOL     OW10087   2.223   4.581   1.372
 3063SOL    HW110088   2.163   4.502   1.359
 3063SOL    HW210089   2.181   4.662   1.331
 3064SOL     OW10090   4.912   3.457   0.530
 3064SOL    HW110091   4.887   3.409   0.445
 3064SOL    HW210092   4.995   3.416   0.568
 3065SOL     OW10093   1.292   2.698   6.584
 3065SOL    HW110094   1.325   2.641   6.660
 3065SOL    HW210095   1.206   2.659   6.550
 3066SOL     OW10096   5.049   5.029   0.507
 3066SOL    HW110097   5.117   5.088   0.552
 3066SOL    HW210098   5.096   4.958   0.455
 3067SOL     OW10099   3.957   1.126   6.128
 3067SOL    HW110100   3.901   1.205   6.103
 3067SOL    HW210101   3.943   1.103   6.224
 3068SOL     OW10102   0.151   6.283   1.653
 3068SOL    HW110103   0.197   6.369   1.633
 3068SOL    HW210104   0.178   6.214   1.585
 3069SOL     OW10105   6.839   6.374   2.314
 3069SOL    HW110106   6.864   6.353   2.220
 3069SOL    HW210107   6.801   6.467   2.318
 3070SOL     OW10108   2.836   0.956   6.766
 3070SOL    HW110109   2.912   0.896   6.790
 3070SOL    HW210110   2.856   1.050   6.795
 3071SOL     OW10111   6.670   6.576   4.386
 3071SOL    HW110112   6.602   6.540   4.449
 3071SOL    HW210113   6.711   6.658   4.424
 3072SOL     OW10114   2.503   5.400   6.389
 3072SOL    HW110115   2.544   5.406   6.299
 3072SOL    HW210116   2.574   5.408   6.459
 3073SOL     OW10117   6.940   3.548   3.288
 3073SOL    HW110118   6.891   3.631   3.316
 3073SOL    HW210119   0.015   3.561   3.303
 3074SOL     OW10120   0.038   4.159   1.205
 3074SOL    HW110121   0.118   4.099   1.195
 3074SOL    HW210122   0.004   4.185   1.115
 3075SOL     OW10123   2.412   5.454   2.862
 3075SOL    HW110124   2.316   5.458   2.890
 3075SOL    HW210125   2.437   5.360   2.841
 3076SOL     OW10126   6.531   1.159   3.736
 3076SOL    HW110127   6.593   1.106   3.678
 3076SOL    HW210128   6.559   1.256   3.734
 3077SOL     OW10129   5.462   4.671   1.985
 3077SOL    HW110130   5.397   4.601   1.957
 3077SOL    HW210131   5.533   4.630   2.043
 3078SOL     OW10132   6.934   3.346   2.859
 3078SOL    HW110133   6.933   3.429   2.914
 3078SOL    HW210134   6.847   3.299   2.867
 3079SOL     OW10135   2.797   2.284   3.041
 3079SOL    HW110136   2.846   2.250   3.121
 3079SOL    HW210137   2.757   2.206   2.991
 3080SOL     OW10138   6.479   5.004   2.425
 3080SOL    HW110139   6.386   5.016   2.458
 3080SOL    HW210140   6.479   4.944   2.345
 3081SOL     OW10141   1.009   3.978   6.146
 3081SOL    HW110142   0.977   3.995   6.053
 3081SOL    HW210143   1.021   3.879   6.160
 3082SOL     OW10144   1.982   5.727   4.356
 3082SOL    HW110145   2.019   5.754   4.267
 3082SOL    HW210146   2.057   5.726   4.423
 3083SOL     OW10147   3.148   6.135   3.723
 3083SOL    HW110148   3.113   6.054   3.770
 3083SOL    HW210149   3.157   6.116   3.625
 3084SOL     OW10150   6.253   4.253   3.334
 3084SOL    HW110151   6.202   4.329   3.375
 3084SOL    HW210152   6.191   4.197   3.278
 3085SOL     OW10153   6.407   4.243   0.487
 3085SOL    HW110154   6.407   4.221   0.389
 3085SOL    HW210155   6.484   4.302   0.508
 3086SOL     OW10156   5.165   1.746   0.639
 3086SOL    HW110157   5.065   1.745   0.644
 3086SOL    HW210158   5.198   1.840   0.637
 3087SOL     OW10159   2.335   6.803   3.319
 3087SOL    HW110160   2.237   6.808   3.338
 3087SOL    HW210161   2.357   6.715   3.277
 3088SOL     OW10162   2.235   4.244   4.873
 3088SOL    HW110163   2.243   4.169   4.938
 3088SOL    HW210164   2.271   4.215   4.784
 3089SOL     OW10165   3.540   1.660   4.583
 3089SOL    HW110166   3.537   1.755   4.612
 3089SOL    HW210167   3.614   1.612   4.630
 3090SOL     OW10168   2.381   1.458   1.671
 3090SOL    HW110169   2.431   1.443   1.586
 3090SOL    HW210170   2.337   1.547   1.670
 3091SOL     OW10171   1.684   1.195   0.610
 3091SOL    HW110172   1.621   1.254   0.560
 3091SOL    HW210173   1.693   1.228   0.704
 3092SOL     OW10174   5.593   0.023   0.596
 3092SOL    HW110175   5.602   6.946   0.609
 3092SOL    HW210176   5.550   0.063   0.677
 3093SOL     OW10177   5.204   5.523   6.661
 3093SOL    HW110178   5.196   5.592   6.589
 3093SOL    HW210179   5.116   5.511   6.705
 3094SOL     OW10180   2.381   0.314   4.072
 3094SOL    HW110181   2.389   0.334   3.974
 3094SOL    HW210182   2.284   0.305   4.096
 3095SOL     OW10183   2.571   4.122   5.353
 3095SOL    HW110184   2.586   4.218   5.328
 3095SOL    HW210185   2.506   4.082   5.288
 3096SOL     OW10186   0.859   5.274   5.310
 3096SOL    HW110187   0.811   5.188   5.327
 3096SOL    HW210188   0.926   5.262   5.238
 3097SOL     OW10189   5.688   3.499   6.924
 3097SOL    HW110190   5.701   3.496   0.001
 3097SOL    HW210191   5.763   3.451   6.878
 3098SOL     OW10192   1.914   3.215   1.750
 3098SOL    HW110193   1.881   3.124   1.726
 3098SOL    HW210194   1.839   3.281   1.736
 3099SOL     OW10195   1.195   6.302   4.096
 3099SOL    HW110196   1.139   6.357   4.034
 3099SOL    HW210197   1.186   6.205   4.071
 3100SOL     OW10198   6.710   6.066   3.937
 3100SOL    HW110199   6.688   6.061   3.839
 3100SOL    HW210200   6.651   6.003   3.988
 3101SOL     OW10201   6.269   5.982   6.515
 3101SOL    HW110202   6.199   5.953   6.580
 3101SOL    HW210203   6.225   6.014   6.431
 3102SOL     OW10204   6.086   6.934   1.566
 3102SOL    HW110205   6.104   7.020   1.519
 3102SOL    HW210206   5.993   6.936   1.604
 3103SOL     OW10207   4.232   1.767   1.785
 3103SOL    HW110208   4.142   1.727   1.801
 3103SOL    HW210209   4.245   1.846   1.845
 3104SOL     OW10210   4.469   0.583   6.249
 3104SOL    HW110211   4.511   0.636   6.176
 3104SOL    HW210212   4.497   0.620   6.337
 3105SOL     OW10213   6.027   4.249   1.204
 3105SOL    HW110214   5.962   4.192   1.254
 3105SOL    HW210215   6.120   4.213   1.218
 3106SOL     OW10216   4.570   6.961   4.482
 3106SOL    HW110217   4.571   6.969   4.383
 3106SOL    HW210218   4.542   0.025   4.523
 3107SOL     OW10219   3.549   0.755   4.547
 3107SOL    HW110220   3.553   0.745   4.646
 3107SOL    HW210221   3.480   0.693   4.510
 3108SOL     OW10222   2.423   5.591   4.991
 3108SOL    HW110223   2.484   5.565   4.916
 3108SOL    HW210224   2.354   5.520   5.003
 3109SOL     OW10225   5.791   6.792   3.491
 3109SOL    HW110226   5.876   6.834   3.460
 3109SOL    HW210227   5.736   6.860   3.539
 3110SOL     OW10228   1.471   3.705   2.983
 3110SOL    HW110229   1.433   3.614   2.966
 3110SOL    HW210230   1.429   3.771   2.920
 3111SOL     OW10231   6.912   4.985   3.256
 3111SOL    HW110232   6.930   5.061   3.319
 3111SOL    HW210233   6.823   4.945   3.277
 3112SOL     OW10234   3.289   3.026   0.038
 3112SOL    HW110235   3.267   2.949   0.097
 3112SOL    HW210236   3.310   3.106   0.093
 3113SOL     OW10237   3.186   4.850   3.067
 3113SOL    HW110238   3.212   4.946   3.079
 3113SOL    HW210239   3.145   4.838   2.976
 3114SOL     OW10240   3.387   1.666   0.022
 3114SOL    HW110241   3.438   1.752   0.016
 3114SOL    HW210242   3.433   1.606   0.087
 3115SOL     OW10243   4.050   4.579   6.079
 3115SOL    HW110244   4.049   4.519   5.999
 3115SOL    HW210245   3.962   4.573   6.127
 3116SOL     OW10246   6.631   2.044   6.667
 3116SOL    HW110247   6.585   2.131   6.651
 3116SOL    HW210248   6.619   1.984   6.588
 3117SOL     OW10249   4.529   3.978   5.493
 3117SOL    HW110250   4.442   3.953   5.451
 3117SOL    HW210251   4.513   4.006   5.588
 3118SOL     OW10252   0.994   5.064   2.046
 3118SOL    HW110253   0.909   5.052   2.098
 3118SOL    HW210254   1.009   4.984   1.989
 3119SOL     OW10255   2.378   2.534   0.119
 3119SOL    HW110256   2.363   2.443   0.156
 3119SOL    HW210257   2.362   2.533   0.020
 3120SOL     OW10258   2.731   0.436   5.996
 3120SOL    HW110259   2.806   0.449   5.932
 3120SOL    HW210260   2.754   0.478   6.084
 3121SOL     OW10261   6.208   1.646   4.711
 3121SOL    HW110262   6.184   1.596   4.628
 3121SOL    HW210263   6.188   1.744   4.698
 3122SOL     OW10264   4.682   5.777   5.671
 3122SOL    HW110265   4.739   5.851   5.706
 3122SOL    HW210266   4.730   5.728   5.599
 3123SOL     OW10267   2.453   1.683   2.286
 3123SOL    HW110268   2.479   1.637   2.201
 3123SOL    HW210269   2.362   1.723   2.276
 3124SOL     OW10270   4.890   0.158   4.528
 3124SOL    HW110271   4.896   0.241   4.583
 3124SOL    HW210272   4.874   0.182   4.433
 3125SOL     OW10273   1.141   3.525   5.590
 3125SOL    HW110274   1.154   3.428   5.573
 3125SOL    HW210275   1.201   3.578   5.529
 3126SOL     OW10276   5.759   4.114   5.385
 3126SOL    HW110277   5.791   4.208   5.397
 3126SOL    HW210278   5.811   4.053   5.444
 3127SOL     OW10279   1.924   2.293   6.591
 3127SOL    HW110280   1.997   2.240   6.635
 3127SOL    HW210281   1.944   2.303   6.494
 3128SOL     OW10282   3.432   1.621   6.329
 3128SOL    HW110283   3.409   1.685   6.403
 3128SOL    HW210284   3.355   1.615   6.266
 3129SOL     OW10285   6.493   3.792   6.907
 3129SOL    HW110286   6.437   3.842   6.841
 3129SOL    HW210287   6.508   3.699   6.875
 3130SOL     OW10288   2.112   4.462   2.106
 3130SOL    HW110289   2.094   4.415   2.020
 3130SOL    HW210290   2.026   4.500   2.142
 3131SOL     OW10291   0.684   3.030   1.625
 3131SOL    HW110292   0.778   3.062   1.635
 3131SOL    HW210293   0.632   3.054   1.707
 3132SOL     OW10294   5.222   5.127   6.606
 3132SOL    HW110295   5.127   5.105   6.627
 3132SOL    HW210296   5.263   5.176   6.683
 3133SOL     OW10297   3.263   0.989   3.205
 3133SOL    HW110298   3.184   1.007   3.147
 3133SOL    HW210299   3.345   0.981   3.148
 3134SOL     OW10300   4.253   4.239   1.172
 3134SOL    HW110301   4.347   4.228   1.203
 3134SOL    HW210302   4.222   4.154   1.129
 3135SOL     OW10303   4.846   0.194   5.738
 3135SOL    HW110304   4.931   0.225   5.782
 3135SOL    HW210305   4.869   0.145   5.654
 3136SOL     OW10306   5.196   0.023   2.499
 3136SOL    HW110307   5.222   6.969   2.439
 3136SOL    HW210308   5.124   0.077   2.455
 3137SOL     OW10309   6.363   7.009   2.842
 3137SOL    HW110310   6.462   7.016   2.855
 3137SOL    HW210311   6.341   7.022   2.746
 3138SOL     OW10312   0.277   6.116   3.967
 3138SOL    HW110313   0.246   6.022   3.951
 3138SOL    HW210314   0.252   6.144   4.060
 3139SOL     OW10315   3.876   5.527   0.349
 3139SOL    HW110316   3.813   5.594   0.389
 3139SOL    HW210317   3.828   5.440   0.336
 3140SOL     OW10318   6.513   6.105   6.578
 3140SOL    HW110319   6.419   6.071   6.572
 3140SOL    HW210320   6.514   6.204   6.563
 3141SOL     OW10321   1.219   0.664   6.718
 3141SOL    HW110322   1.172   0.587   6.761
 3141SOL    HW210323   1.239   0.642   6.623
 3142SOL     OW10324   2.762   6.837   2.416
 3142SOL    HW110325   2.746   6.744   2.381
 3142SOL    HW210326   2.677   6.889   2.412
 3143SOL     OW10327   6.253   1.650   0.097
 3143SOL    HW110328   6.241   1.738   0.051
 3143SOL    HW210329   6.344   1.615   0.078
 3144SOL     OW10330   4.309   3.941   0.814
 3144SOL    HW110331   4.290   3.845   0.791
 3144SOL    HW210332   4.303   3.997   0.732
 3145SOL     OW10333   2.113   6.327   1.875
 3145SOL    HW110334   2.084   6.405   1.820
 3145SOL    HW210335   2.033   6.276   1.906
 3146SOL     OW10336   0.540   1.691   4.464
 3146SOL    HW110337   0.615   1.660   4.523
 3146SOL    HW210338   0.541   1.791   4.459
 3147SOL     OW10339   2.973   5.318   0.604
 3147SOL    HW110340   2.999   5.331   0.699
 3147SOL    HW210341   2.873   5.313   0.597
 3148SOL     OW10342   6.703   6.895   3.666
 3148SOL    HW110343   6.797   6.868   3.647
 3148SOL    HW210344   6.642   6.817   3.650
 3149SOL     OW10345   3.474   0.773   6.197
 3149SOL    HW110346   3.508   0.810   6.111
 3149SOL    HW210347   3.504   0.832   6.272
 3150SOL     OW10348   6.454   5.722   5.320
 3150SOL    HW110349   6.405   5.758   5.399
 3150SOL    HW210350   6.401   5.647   5.280
 3151SOL     OW10351   0.640   1.240   4.795
 3151SOL    HW110352   0.648   1.181   4.876
 3151SOL    HW210353   0.664   1.187   4.713
 3152SOL     OW10354   0.740   5.323   0.742
 3152SOL    HW110355   0.645   5.336   0.714
 3152SOL    HW210356   0.786   5.411   0.747
 3153SOL     OW10357   6.466   5.595   0.312
 3153SOL    HW110358   6.557   5.568   0.281
 3153SOL    HW210359   6.449   5.690   0.288
 3154SOL     OW10360   0.020   2.187   6.712
 3154SOL    HW110361   0.036   2.101   6.760
 3154SOL    HW210362   0.107   2.230   6.691
 3155SOL     OW10363   6.671   4.748   0.402
 3155SOL    HW110364   6.640   4.682   0.333
 3155SOL    HW210365   6.770   4.743   0.411
 3156SOL     OW10366   3.064   3.094   2.210
 3156SOL    HW110367   3.090   3.032   2.284
 3156SOL    HW210368   2.991   3.155   2.243
 3157SOL     OW10369   2.217   1.671   5.706
 3157SOL    HW110370   2.226   1.722   5.621
 3157SOL    HW210371   2.173   1.728   5.775
 3158SOL     OW10372   3.458   1.525   4.136
 3158SOL    HW110373   3.365   1.490   4.129
 3158SOL    HW210374   3.471   1.600   4.072
 3159SOL     OW10375   5.569   0.259   6.943
 3159SOL    HW110376   5.508   0.258   7.022
 3159SOL    HW210377   5.648   0.316   6.962
 3160SOL     OW10378   1.334   5.919   5.709
 3160SOL    HW110379   1.290   5.865   5.638
 3160SOL    HW210380   1.350   6.012   5.675
 3161SOL     OW10381   2.227   2.722   2.935
 3161SOL    HW110382   2.165   2.716   3.013
 3161SOL    HW210383   2.240   2.818   2.910
 3162SOL     OW10384   1.590   5.182   1.471
 3162SOL    HW110385   1.609   5.279   1.458
 3162SOL    HW210386   1.663   5.140   1.524
 3163SOL     OW10387   4.343   3.826   6.290
 3163SOL    HW110388   4.317   3.732   6.312
 3163SOL    HW210389   4.439   3.829   6.263
 3164SOL     OW10390   3.886   5.728   1.274
 3164SOL    HW110391   3.937   5.703   1.192
 3164SOL    HW210392   3.790   5.704   1.263
 3165SOL     OW10393   0.915   6.939   1.603
 3165SOL    HW110394   0.928   6.857   1.548
 3165SOL    HW210395   0.948   7.019   1.551
 3166SOL     OW10396   4.214   1.912   3.419
 3166SOL    HW110397   4.213   1.813   3.417
 3166SOL    HW210398   4.132   1.946   3.465
 3167SOL     OW10399   5.727   4.348   0.865
 3167SOL    HW110400   5.819   4.327   0.835
 3167SOL    HW210401   5.671   4.374   0.787
 3168SOL     OW10402   4.941   3.009   0.346
 3168SOL    HW110403   4.860   2.988   0.401
 3168SOL    HW210404   4.958   2.934   0.282
 3169SOL     OW10405   2.361   4.265   4.186
 3169SOL    HW110406   2.324   4.172   4.189
 3169SOL    HW210407   2.353   4.307   4.276
 3170SOL     OW10408   3.998   5.938   1.649
 3170SOL    HW110409   3.926   6.002   1.623
 3170SOL    HW210410   3.984   5.851   1.603
 3171SOL     OW10411   7.003   1.464   2.310
 3171SOL    HW110412   6.934   1.393   2.325
 3171SOL    HW210413   0.040   1.470   2.390
 3172SOL     OW10414   0.219   5.994   0.159
 3172SOL    HW110415   0.135   5.943   0.178
 3172SOL    HW210416   0.217   6.081   0.208
 3173SOL     OW10417   3.420   2.596   0.114
 3173SOL    HW110418   3.357   2.661   0.156
 3173SOL    HW210419   3.446   2.629   0.023
 3174SOL     OW10420   3.117   2.598   0.658
 3174SOL    HW110421   3.036   2.639   0.698
 3174SOL    HW210422   3.114   2.607   0.558
 3175SOL     OW10423   6.135   0.798   1.666
 3175SOL    HW110424   6.160   0.708   1.704
 3175SOL    HW210425   6.044   0.824   1.698
 3176SOL     OW10426   1.158   4.335   5.731
 3176SOL    HW110427   1.182   4.245   5.693
 3176SOL    HW210428   1.196   4.407   5.673
 3177SOL     OW10429   4.670   4.333   3.444
 3177SOL    HW110430   4.671   4.290   3.354
 3177SOL    HW210431   4.585   4.384   3.456
 3178SOL     OW10432   6.572   1.930   0.810
 3178SOL    HW110433   6.573   1.865   0.734
 3178SOL    HW210434   6.601   2.020   0.777
 3179SOL     OW10435   1.131   2.555   1.770
 3179SOL    HW110436   1.117   2.564   1.671
 3179SOL    HW210437   1.127   2.458   1.796
 3180SOL     OW10438   5.948   0.659   0.170
 3180SOL    HW110439   5.989   0.576   0.208
 3180SOL    HW210440   5.925   0.722   0.245
 3181SOL     OW10441   0.162   1.962   2.644
 3181SOL    HW110442   0.212   1.878   2.665
 3181SOL    HW210443   0.121   1.955   2.553
 3182SOL     OW10444   2.490   0.356   6.639
 3182SOL    HW110445   2.427   0.399   6.573
 3182SOL    HW210446   2.541   0.284   6.593
 3183SOL     OW10447   4.904   4.163   2.276
 3183SOL    HW110448   4.993   4.209   2.278
 3183SOL    HW210449   4.875   4.143   2.369
 3184SOL     OW10450   0.805   2.966   2.737
 3184SOL    HW110451   0.809   3.065   2.746
 3184SOL    HW210452   0.722   2.939   2.688
 3185SOL     OW10453   4.945   5.399   6.696
 3185SOL    HW110454   4.953   5.389   6.596
 3185SOL    HW210455   4.893   5.482   6.716
 3186SOL     OW10456   3.173   2.277   0.866
 3186SOL    HW110457   3.239   2.351   0.858
 3186SOL    HW210458   3.136   2.274   0.959
 3187SOL     OW10459   4.499   5.204   0.459
 3187SOL    HW110460   4.537   5.118   0.424
 3187SOL    HW210461   4.411   5.187   0.503
 3188SOL     OW10462   1.064   6.915   4.378
 3188SOL    HW110463   1.156   6.955   4.378
 3188SOL    HW210464   1.055   6.852   4.301
 3189SOL     OW10465   1.273   1.981   1.347
 3189SOL    HW110466   1.318   2.058   1.302
 3189SOL    HW210467   1.268   1.904   1.284
 3190SOL     OW10468   0.752   5.543   0.171
 3190SOL    HW110469   0.656   5.517   0.163
 3190SOL    HW210470   0.810   5.472   0.132
 3191SOL     OW10471   5.065   5.605   0.827
 3191SOL    HW110472   4.998   5.566   0.764
 3191SOL    HW210473   5.133   5.657   0.775
 3192SOL     OW10474   6.993   3.347   1.380
 3192SOL    HW110475   6.959   3.278   1.316
 3192SOL    HW210476   0.043   3.400   1.336
 3193SOL     OW10477   4.506   1.150   6.620
 3193SOL    HW110478   4.459   1.221   6.567
 3193SOL    HW210479   4.560   1.093   6.558
 3194SOL     OW10480   1.084   1.746   6.631
 3194SOL    HW110481   1.115   1.763   6.538
 3194SOL    HW210482   1.029   1.663   6.634
 3195SOL     OW10483   2.626   1.197   3.721
 3195SOL    HW110484   2.646   1.256   3.644
 3195SOL    HW210485   2.712   1.165   3.762
 3196SOL     OW10486   0.286   0.534   6.870
 3196SOL    HW110487   0.283   0.597   6.793
 3196SOL    HW210488   0.356   0.564   6.935
 3197SOL     OW10489   3.189   6.662   4.160
 3197SOL    HW110490   3.141   6.698   4.240
 3197SOL    HW210491   3.185   6.729   4.086
 3198SOL     OW10492   6.155   3.030   3.700
 3198SOL    HW110493   6.081   3.013   3.765
 3198SOL    HW210494   6.216   2.951   3.698
 3199SOL     OW10495   5.135   4.079   3.016
 3199SOL    HW110496   5.087   4.136   2.949
 3199SOL    HW210497   5.228   4.112   3.029
 3200SOL     OW10498   5.898   3.415   2.867
 3200SOL    HW110499   5.918   3.511   2.844
 3200SOL    HW210500   5.937   3.393   2.956
 3201SOL     OW10501   6.319   4.739   4.221
 3201SOL    HW110502   6.243   4.738   4.156
 3201SOL    HW210503   6.396   4.687   4.184
 3202SOL     OW10504   1.158   4.673   1.573
 3202SOL    HW110505   1.188   4.634   1.486
 3202SOL    HW210506   1.167   4.773   1.569
 3203SOL     OW10507   6.289   2.276   0.538
 3203SOL    HW110508   6.349   2.334   0.482
 3203SOL    HW210509   6.297   2.302   0.634
 3204SOL     OW10510   4.836   6.314   3.111
 3204SOL    HW110511   4.758   6.349   3.163
 3204SOL    HW210512   4.803   6.253   3.039
 3205SOL     OW10513   5.456   2.578   5.739
 3205SOL    HW110514   5.419   2.577   5.832
 3205SOL    HW210515   5.556   2.576   5.743
 3206SOL     OW10516   2.021   4.787   0.131
 3206SOL    HW110517   2.099   4.726   0.143
 3206SOL    HW210518   1.989   4.783   0.037
 3207SOL     OW10519   1.074   0.995   5.841
 3207SOL    HW110520   1.120   0.968   5.925
 3207SOL    HW210521   1.112   1.082   5.808
 3208SOL     OW10522   4.357   6.537   6.113
 3208SOL    HW110523   4.388   6.444   6.136
 3208SOL    HW210524   4.318   6.538   6.021
 3209SOL     OW10525   4.107   5.442   3.480
 3209SOL    HW110526   4.163   5.372   3.524
 3209SOL    HW210527   4.155   5.477   3.400
 3210SOL     OW10528   0.983   4.198   0.777
 3210SOL    HW110529   0.936   4.141   0.844
 3210SOL    HW210530   1.074   4.223   0.810
 3211SOL     OW10531   2.150   3.361   0.499
 3211SOL    HW110532   2.091   3.284   0.521
 3211SOL    HW210533   2.109   3.415   0.425
 3212SOL     OW10534   3.044   6.961   1.421
 3212SOL    HW110535   2.967   6.916   1.465
 3212SOL    HW210536   3.091   6.895   1.361
 3213SOL     OW10537   1.259   6.977   0.653
 3213SOL    HW110538   1.222   7.003   0.742
 3213SOL    HW210539   1.225   6.887   0.627
 3214SOL     OW10540   4.382   5.841   1.098
 3214SOL    HW110541   4.474   5.814   1.070
 3214SOL    HW210542   4.370   5.822   1.195
 3215SOL     OW10543   0.116   3.506   1.232
 3215SOL    HW110544   0.206   3.464   1.220
 3215SOL    HW210545   0.060   3.488   1.151
 3216SOL     OW10546   6.407   5.506   6.857
 3216SOL    HW110547   6.358   5.489   6.943
 3216SOL    HW210548   6.408   5.604   6.839
 3217SOL     OW10549   0.161   5.295   2.263
 3217SOL    HW110550   0.246   5.260   2.301
 3217SOL    HW210551   0.134   5.239   2.185
 3218SOL     OW10552   4.631   2.522   3.730
 3218SOL    HW110553   4.678   2.486   3.650
 3218SOL    HW210554   4.629   2.453   3.802
 3219SOL     OW10555   0.317   1.981   3.627
 3219SOL    HW110556   0.349   1.900   3.578
 3219SOL    HW210557   0.341   2.063   3.576
 3220SOL     OW10558   0.307   5.729   6.782
 3220SOL    HW110559   0.388   5.780   6.753
 3220SOL    HW210560   0.227   5.788   6.778
 3221SOL     OW10561   4.322   0.440   1.573
 3221SOL    HW110562   4.339   0.483   1.485
 3221SOL    HW210563   4.410   0.424   1.619
 3222SOL     OW10564   3.289   0.957   2.812
 3222SOL    HW110565   3.328   1.035   2.762
 3222SOL    HW210566   3.202   0.931   2.770
 3223SOL     OW10567   2.464   6.658   6.652
 3223SOL    HW110568   2.496   6.631   6.561
 3223SOL    HW210569   2.409   6.584   6.692
 3224SOL     OW10570   4.867   3.844   6.089
 3224SOL    HW110571   4.925   3.908   6.140
 3224SOL    HW210572   4.774   3.845   6.128
 3225SOL     OW10573   5.508   3.142   5.805
 3225SOL    HW110574   5.466   3.061   5.765
 3225SOL    HW210575   5.604   3.146   5.781
 3226SOL     OW10576   2.630   1.547   2.838
 3226SOL    HW110577   2.727   1.549   2.815
 3226SOL    HW210578   2.576   1.547   2.753
 3227SOL     OW10579   3.433   2.663   6.894
 3227SOL    HW110580   3.382   2.699   6.816
 3227SOL    HW210581   3.515   2.616   6.862
 3228SOL     OW10582   0.185   4.085   1.774
 3228SOL    HW110583   0.152   4.141   1.850
 3228SOL    HW210584   0.192   3.990   1.804
 3229SOL     OW10585   4.107   0.583   4.927
 3229SOL    HW110586   4.049   0.591   4.845
 3229SOL    HW210587   4.202   0.577   4.899
 3230SOL     OW10588   2.509   4.071   5.622
 3230SOL    HW110589   2.545   4.078   5.529
 3230SOL    HW210590   2.489   3.975   5.642
 3231SOL     OW10591   2.771   6.879   1.240
 3231SOL    HW110592   2.757   6.946   1.313
 3231SOL    HW210593   2.854   6.901   1.189
 3232SOL     OW10594   5.109   6.661   4.747
 3232SOL    HW110595   5.081   6.674   4.842
 3232SOL    HW210596   5.042   6.604   4.699
 3233SOL     OW10597   0.736   2.436   1.413
 3233SOL    HW110598   0.828   2.408   1.441
 3233SOL    HW210599   0.718   2.528   1.446
 3234SOL     OW10600   0.321   2.313   6.813
 3234SOL    HW110601   0.320   2.285   6.909
 3234SOL    HW210602   0.263   2.393   6.800
 3235SOL     OW10603   6.213   0.606   2.737
 3235SOL    HW110604   6.160   0.616   2.821
 3235SOL    HW210605   6.311   0.605   2.759
 3236SOL     OW10606   1.680   2.745   0.649
 3236SOL    HW110607   1.741   2.715   0.723
 3236SOL    HW210608   1.733   2.797   0.582
 3237SOL     OW10609   5.493   1.336   3.404
 3237SOL    HW110610   5.557   1.264   3.430
 3237SOL    HW210611   5.433   1.357   3.481
 3238SOL     OW10612   0.131   5.445   0.697
 3238SOL    HW110613   0.164   5.410   0.609
 3238SOL    HW210614   0.096   5.538   0.685
 3239SOL     OW10615   6.780   1.705   2.419
 3239SOL    HW110616   6.834   1.682   2.338
 3239SOL    HW210617   6.824   1.668   2.500
 3240SOL     OW10618   6.855   6.705   6.220
 3240SOL    HW110619   6.858   6.614   6.179
 3240SOL    HW210620   6.933   6.759   6.188
 3241SOL     OW10621   4.725   1.057   4.909
 3241SOL    HW110622   4.671   0.977   4.882
 3241SOL    HW210623   4.685   1.139   4.869
 3242SOL     OW10624   4.114   3.917   6.851
 3242SOL    HW110625   4.142   3.883   6.761
 3242SOL    HW210626   4.038   3.862   6.885
 3243SOL     OW10627   4.280   4.415   0.681
 3243SOL    HW110628   4.288   4.334   0.622
 3243SOL    HW210629   4.201   4.403   0.741
 3244SOL     OW10630   4.487   5.898   0.239
 3244SOL    HW110631   4.569   5.871   0.289
 3244SOL    HW210632   4.509   5.911   0.142
 3245SOL     OW10633   5.488   3.580   4.808
 3245SOL    HW110634   5.403   3.631   4.817
 3245SOL    HW210635   5.545   3.594   4.889
 3246SOL     OW10636   5.468   0.349   2.684
 3246SOL    HW110637   5.560   0.315   2.705
 3246SOL    HW210638   5.448   0.330   2.588
 3247SOL     OW10639   6.615   4.517   2.645
 3247SOL    HW110640   6.590   4.469   2.561
 3247SOL    HW210641   6.710   4.496   2.668
 3248SOL     OW10642   6.080   3.881   1.622
 3248SOL    HW110643   6.171   3.900   1.661
 3248SOL    HW210644   6.075   3.785   1.595
 3249SOL     OW10645   4.063   3.794   4.241
 3249SOL    HW110646   3.985   3.736   4.266
 3249SOL    HW210647   4.031   3.889   4.230
 3250SOL     OW10648   5.621   0.077   2.267
 3250SOL    HW110649   5.573   0.037   2.346
 3250SOL    HW210650   5.652   0.169   2.290
 3251SOL     OW10651   3.198   1.120   3.795
 3251SOL    HW110652   3.176   1.023   3.787
 3251SOL    HW210653   3.181   1.165   3.707
 3252SOL     OW10654   2.445   0.729   2.795
 3252SOL    HW110655   2.441   0.826   2.820
 3252SOL    HW210656   2.374   0.679   2.844
 3253SOL     OW10657   4.765   4.155   2.000
 3253SOL    HW110658   4.805   4.157   2.092
 3253SOL    HW210659   4.671   4.188   2.004
 3254SOL     OW10660   5.330   6.091   5.611
 3254SOL    HW110661   5.426   6.068   5.599
 3254SOL    HW210662   5.274   6.021   5.566
 3255SOL     OW10663   5.113   6.307   0.424
 3255SOL    HW110664   5.088   6.261   0.510
 3255SOL    HW210665   5.180   6.252   0.375
 3256SOL     OW10666   3.203   1.034   0.495
 3256SOL    HW110667   3.154   1.090   0.428
 3256SOL    HW210668   3.300   1.059   0.496
 3257SOL     OW10669   1.487   1.781   2.102
 3257SOL    HW110670   1.430   1.790   2.184
 3257SOL    HW210671   1.537   1.866   2.087
 3258SOL     OW10672   4.703   5.492   2.425
 3258SOL    HW110673   4.658   5.550   2.493
 3258SOL    HW210674   4.694   5.533   2.335
 3259SOL     OW10675   5.037   5.067   4.522
 3259SOL    HW110676   4.979   5.073   4.441
 3259SOL    HW210677   5.064   4.972   4.537
 3260SOL     OW10678   1.104   1.954   0.793
 3260SOL    HW110679   1.107   2.046   0.834
 3260SOL    HW210680   1.183   1.902   0.824
 3261SOL     OW10681   5.714   0.475   1.707
 3261SOL    HW110682   5.807   0.461   1.674
 3261SOL    HW210683   5.699   0.423   1.791
 3262SOL     OW10684   3.053   2.125   2.742
 3262SOL    HW110685   2.983   2.194   2.759
 3262SOL    HW210686   3.102   2.147   2.658
 3263SOL     OW10687   2.552   1.049   3.244
 3263SOL    HW110688   2.600   1.032   3.158
 3263SOL    HW210689   2.497   0.969   3.268
 3264SOL     OW10690   1.238   4.214   0.945
 3264SOL    HW110691   1.228   4.284   1.016
 3264SOL    HW210692   1.334   4.207   0.919
 3265SOL     OW10693   5.362   0.722   6.533
 3265SOL    HW110694   5.335   0.816   6.511
 3265SOL    HW210695   5.289   0.659   6.504
 3266SOL     OW10696   1.809   3.938   0.103
 3266SOL    HW110697   1.776   3.922   0.196
 3266SOL    HW210698   1.905   3.967   0.106
 3267SOL     OW10699   3.485   6.450   1.094
 3267SOL    HW110700   3.472   6.398   1.178
 3267SOL    HW210701   3.401   6.501   1.073
 3268SOL     OW10702   1.472   3.639   1.594
 3268SOL    HW110703   1.397   3.637   1.528
 3268SOL    HW210704   1.558   3.660   1.545
 3269SOL     OW10705   4.987   5.560   2.015
 3269SOL    HW110706   4.916   5.623   1.981
 3269SOL    HW210707   4.989   5.564   2.115
 3270SOL     OW10708   1.248   4.306   5.992
 3270SOL    HW110709   1.219   4.320   5.897
 3270SOL    HW210710   1.289   4.390   6.027
 3271SOL     OW10711   5.814   3.714   2.323
 3271SOL    HW110712   5.732   3.673   2.364
 3271SOL    HW210713   5.787   3.775   2.249
 3272SOL     OW10714   3.518   4.473   5.817
 3272SOL    HW110715   3.455   4.544   5.788
 3272SOL    HW210716   3.532   4.477   5.916
 3273SOL     OW10717   0.110   6.055   0.706
 3273SOL    HW110718   0.049   6.086   0.779
 3273SOL    HW210719   0.187   6.004   0.746
 3274SOL     OW10720   5.106   1.044   0.599
 3274SOL    HW110721   5.083   1.140   0.616
 3274SOL    HW210722   5.027   0.997   0.561
 3275SOL     OW10723   5.966   1.435   6.852
 3275SOL    HW110724   6.053   1.472   6.821
 3275SOL    HW210725   5.912   1.507   6.895
 3276SOL     OW10726   2.880   5.984   6.894
 3276SOL    HW110727   2.877   5.911   6.825
 3276SOL    HW210728   2.859   5.945   6.984
 3277SOL     OW10729   3.828   0.153   6.691
 3277SOL    HW110730   3.855   0.231   6.634
 3277SOL    HW210731   3.907   0.093   6.705
 3278SOL     OW10732   0.653   1.046   5.598
 3278SOL    HW110733   0.632   0.981   5.525
 3278SOL    HW210734   0.729   1.011   5.653
 3279SOL     OW10735   4.945   0.354   0.683
 3279SOL    HW110736   5.016   0.285   0.671
 3279SOL    HW210737   4.909   0.382   0.594
 3280SOL     OW10738   4.073   4.850   3.879
 3280SOL    HW110739   4.023   4.848   3.792
 3280SOL    HW210740   4.140   4.776   3.881
 3281SOL     OW10741   2.036   4.849   1.741
 3281SOL    HW110742   2.071   4.768   1.787
 3281SOL    HW210743   1.968   4.894   1.800
 3282SOL     OW10744   6.989   5.114   5.659
 3282SOL    HW110745   6.986   5.148   5.565
 3282SOL    HW210746   6.904   5.137   5.706
 3283SOL     OW10747   3.718   0.369   0.897
 3283SOL    HW110748   3.743   0.438   0.965
 3283SOL    HW210749   3.705   0.412   0.808
 3284SOL     OW10750   0.012   4.877   0.069
 3284SOL    HW110751   0.090   4.845   0.015
 3284SOL    HW210752   7.015   4.812   0.143
 3285SOL     OW10753   4.236   2.248   3.453
 3285SOL    HW110754   4.234   2.287   3.362
 3285SOL    HW210755   4.328   2.259   3.492
 3286SOL     OW10756   3.383   2.925   2.140
 3286SOL    HW110757   3.471   2.966   2.116
 3286SOL    HW210758   3.364   2.848   2.079
 3287SOL     OW10759   0.511   0.590   7.016
 3287SOL    HW110760   0.544   0.577   0.087
 3287SOL    HW210761   0.589   0.592   6.953
 3288SOL     OW10762   0.806   5.764   5.850
 3288SOL    HW110763   0.774   5.855   5.878
 3288SOL    HW210764   0.831   5.711   5.931
 3289SOL     OW10765   2.670   0.094   5.417
 3289SOL    HW110766   2.625   0.102   5.506
 3289SOL    HW210767   2.621   0.147   5.349
 3290SOL     OW10768   0.143   6.715   1.341
 3290SOL    HW110769   0.109   6.729   1.434
 3290SOL    HW210770   0.189   6.798   1.310
 3291SOL     OW10771   1.523   6.823   0.412
 3291SOL    HW110772   1.553   6.781   0.498
 3291SOL    HW210773   1.525   6.922   0.420
 3292SOL     OW10774   0.350   1.291   0.472
 3292SOL    HW110775   0.256   1.263   0.493
 3292SOL    HW210776   0.388   1.229   0.404
 3293SOL     OW10777   0.377   4.025   1.995
 3293SOL    HW110778   0.461   4.021   1.940
 3293SOL    HW210779   0.308   3.965   1.954
 3294SOL     OW10780   5.965   1.925   6.673
 3294SOL    HW110781   5.935   1.935   6.578
 3294SOL    HW210782   5.895   1.878   6.726
 3295SOL     OW10783   1.415   2.569   1.959
 3295SOL    HW110784   1.323   2.561   1.923
 3295SOL    HW210785   1.475   2.607   1.888
 3296SOL     OW10786   1.190   6.762   2.807
 3296SOL    HW110787   1.182   6.852   2.764
 3296SOL    HW210788   1.262   6.765   2.877
 3297SOL     OW10789   2.982   0.827   5.543
 3297SOL    HW110790   2.991   0.728   5.535
 3297SOL    HW210791   3.068   0.871   5.515
 3298SOL     OW10792   6.076   1.834   5.351
 3298SOL    HW110793   6.006   1.859   5.418
 3298SOL    HW210794   6.046   1.753   5.301
 3299SOL     OW10795   3.208   5.721   3.058
 3299SOL    HW110796   3.122   5.772   3.050
 3299SOL    HW210797   3.195   5.644   3.120
 3300SOL     OW10798   6.559   0.936   4.931
 3300SOL    HW110799   6.655   0.953   4.956
 3300SOL    HW210800   6.512   0.892   5.008
 3301SOL     OW10801   1.564   3.176   3.382
 3301SOL    HW110802   1.473   3.135   3.382
 3301SOL    HW210803   1.589   3.201   3.288
 3302SOL     OW10804   0.711   4.817   5.663
 3302SOL    HW110805   0.663   4.766   5.734
 3302SOL    HW210806   0.676   4.792   5.573
 3303SOL     OW10807   3.578   4.058   1.393
 3303SOL    HW110808   3.616   3.982   1.341
 3303SOL    HW210809   3.483   4.073   1.365
 3304SOL     OW10810   1.325   5.675   4.170
 3304SOL    HW110811   1.349   5.769   4.193
 3304SOL    HW210812   1.408   5.619   4.171
 3305SOL     OW10813   1.981   1.028   2.503
 3305SOL    HW110814   2.026   0.960   2.445
 3305SOL    HW210815   2.044   1.103   2.523
 3306SOL     OW10816   2.175   5.286   5.328
 3306SOL    HW110817   2.193   5.279   5.230
 3306SOL    HW210818   2.099   5.225   5.353
 3307SOL     OW10819   0.202   5.479   6.815
 3307SOL    HW110820   0.256   5.563   6.811
 3307SOL    HW210821   0.166   5.457   6.724
 3308SOL     OW10822   2.516   6.324   0.809
 3308SOL    HW110823   2.491   6.241   0.759
 3308SOL    HW210824   2.492   6.404   0.755
 3309SOL     OW10825   0.015   5.900   3.053
 3309SOL    HW110826   0.059   5.821   3.011
 3309SOL    HW210827   7.003   5.874   3.144
 3310SOL     OW10828   0.040   3.432   6.413
 3310SOL    HW110829   6.998   3.357   6.428
 3310SOL    HW210830   7.015   3.508   6.368
 3311SOL     OW10831   2.435   4.016   1.430
 3311SOL    HW110832   2.466   4.055   1.343
 3311SOL    HW210833   2.512   4.006   1.492
 3312SOL     OW10834   4.231   4.737   5.927
 3312SOL    HW110835   4.177   4.782   5.856
 3312SOL    HW210836   4.172   4.680   5.984
 3313SOL     OW10837   0.804   5.919   3.580
 3313SOL    HW110838   0.843   5.851   3.642
 3313SOL    HW210839   0.877   5.962   3.527
 3314SOL     OW10840   2.936   1.575   2.743
 3314SOL    HW110841   2.893   1.569   2.652
 3314SOL    HW210842   3.034   1.593   2.732
 3315SOL     OW10843   6.410   3.862   3.981
 3315SOL    HW110844   6.502   3.873   4.020
 3315SOL    HW210845   6.416   3.811   3.896
 3316SOL     OW10846   4.846   1.392   5.680
 3316SOL    HW110847   4.755   1.356   5.662
 3316SOL    HW210848   4.888   1.341   5.755
 3317SOL     OW10849   4.410   3.161   1.704
 3317SOL    HW110850   4.321   3.165   1.750
 3317SOL    HW210851   4.476   3.114   1.763
 3318SOL     OW10852   1.785   1.392   1.202
 3318SOL    HW110853   1.717   1.329   1.241
 3318SOL    HW210854   1.842   1.429   1.275
 3319SOL     OW10855   6.759   1.432   4.341
 3319SOL    HW110856   6.821   1.358   4.366
 3319SOL    HW210857   6.777   1.461   4.247
 3320SOL     OW10858   6.540   0.489   4.908
 3320SOL    HW110859   6.576   0.558   4.971
 3320SOL    HW210860   6.468   0.437   4.954
 3321SOL     OW10861   4.954   1.554   0.123
 3321SOL    HW110862   5.001   1.642   0.122
 3321SOL    HW210863   5.019   1.481   0.141
 3322SOL     OW10864   6.474   2.885   1.221
 3322SOL    HW110865   6.566   2.871   1.185
 3322SOL    HW210866   6.406   2.849   1.156
 3323SOL     OW10867   3.052   2.652   0.394
 3323SOL    HW110868   2.991   2.707   0.338
 3323SOL    HW210869   3.046   2.556   0.365
 3324SOL     OW10870   3.845   5.324   6.967
 3324SOL    HW110871   3.822   5.263   6.891
 3324SOL    HW210872   3.767   5.332   0.006
 3325SOL     OW10873   1.044   3.167   0.166
 3325SOL    HW110874   0.957   3.129   0.199
 3325SOL    HW210875   1.025   3.246   0.107
 3326SOL     OW10876   4.727   2.049   1.533
 3326SOL    HW110877   4.657   2.018   1.469
 3326SOL    HW210878   4.711   2.007   1.622
 3327SOL     OW10879   2.746   5.602   1.690
 3327SOL    HW110880   2.764   5.505   1.706
 3327SOL    HW210881   2.828   5.645   1.654
 3328SOL     OW10882   4.464   2.295   0.766
 3328SOL    HW110883   4.454   2.214   0.823
 3328SOL    HW210884   4.394   2.295   0.694
 3329SOL     OW10885   4.780   0.665   5.017
 3329SOL    HW110886   4.687   0.641   5.046
 3329SOL    HW210887   4.811   0.744   5.070
 3330SOL     OW10888   6.363   4.899   1.272
 3330SOL    HW110889   6.364   4.980   1.214
 3330SOL    HW210890   6.396   4.922   1.364
 3331SOL     OW10891   2.320   2.671   1.236
 3331SOL    HW110892   2.291   2.753   1.285
 3331SOL    HW210893   2.372   2.697   1.154
 3332SOL     OW10894   6.006   5.289   6.863
 3332SOL    HW110895   5.941   5.353   6.822
 3332SOL    HW210896   5.961   5.201   6.878
 3333SOL     OW10897   4.260   4.375   6.372
 3333SOL    HW110898   4.282   4.388   6.276
 3333SOL    HW210899   4.293   4.286   6.403
 3334SOL     OW10900   3.042   3.844   1.471
 3334SOL    HW110901   3.063   3.914   1.539
 3334SOL    HW210902   3.022   3.758   1.516
 3335SOL     OW10903   5.188   6.984   5.268
 3335SOL    HW110904   5.258   6.918   5.241
 3335SOL    HW210905   5.098   6.952   5.237
 3336SOL     OW10906   2.258   6.315   4.712
 3336SOL    HW110907   2.200   6.234   4.720
 3336SOL    HW210908   2.348   6.297   4.751
 3337SOL     OW10909   3.408   4.057   2.458
 3337SOL    HW110910   3.332   3.993   2.448
 3337SOL    HW210911   3.410   4.119   2.379
 3338SOL     OW10912   5.473   3.049   1.918
 3338SOL    HW110913   5.495   3.139   1.882
 3338SOL    HW210914   5.375   3.032   1.910
 3339SOL     OW10915   6.720   0.263   6.666
 3339SOL    HW110916   6.711   0.224   6.574
 3339SOL    HW210917   6.776   0.202   6.722
 3340SOL     OW10918   3.616   1.697   2.445
 3340SOL    HW110919   3.712   1.722   2.462
 3340SOL    HW210920   3.581   1.750   2.368
 3341SOL     OW10921   1.325   5.338   3.392
 3341SOL    HW110922   1.388   5.381   3.328
 3341SOL    HW210923   1.249   5.400   3.411
 3342SOL     OW10924   2.481   6.956   4.186
 3342SOL    HW110925   2.474   6.978   4.089
 3342SOL    HW210926   2.511   0.015   4.235
 3343SOL     OW10927   6.012   3.297   0.780
 3343SOL    HW110928   5.996   3.332   0.872
 3343SOL    HW210929   5.966   3.355   0.713
 3344SOL     OW10930   5.388   3.206   4.185
 3344SOL    HW110931   5.394   3.245   4.093
 3344SOL    HW210932   5.303   3.236   4.229
 3345SOL     OW10933   1.613   3.742   5.747
 3345SOL    HW110934   1.597   3.717   5.843
 3345SOL    HW210935   1.525   3.760   5.703
 3346SOL     OW10936   1.571   0.852   1.135
 3346SOL    HW110937   1.663   0.873   1.103
 3346SOL    HW210938   1.522   0.801   1.064
 3347SOL     OW10939   0.924   3.618   5.229
 3347SOL    HW110940   0.857   3.544   5.216
 3347SOL    HW210941   1.007   3.597   5.178
 3348SOL     OW10942   3.232   3.699   4.135
 3348SOL    HW110943   3.283   3.742   4.061
 3348SOL    HW210944   3.268   3.607   4.152
 3349SOL     OW10945   0.973   6.066   2.581
 3349SOL    HW110946   1.021   6.152   2.598
 3349SOL    HW210947   0.946   6.025   2.668
 3350SOL     OW10948   0.865   2.580   6.002
 3350SOL    HW110949   0.960   2.554   6.016
 3350SOL    HW210950   0.852   2.676   6.028
 3351SOL     OW10951   4.941   1.131   1.914
 3351SOL    HW110952   4.854   1.163   1.877
 3351SOL    HW210953   4.984   1.205   1.967
 3352SOL     OW10954   6.556   2.104   0.453
 3352SOL    HW110955   6.560   2.091   0.353
 3352SOL    HW210956   6.489   2.042   0.492
 3353SOL     OW10957   1.714   5.412   1.599
 3353SOL    HW110958   1.642   5.389   1.665
 3353SOL    HW210959   1.792   5.352   1.613
 3354SOL     OW10960   4.784   2.535   5.149
 3354SOL    HW110961   4.834   2.611   5.108
 3354SOL    HW210962   4.698   2.568   5.188
 3355SOL     OW10963   2.077   1.716   0.119
 3355SOL    HW110964   2.163   1.767   0.128
 3355SOL    HW210965   2.095   1.618   0.131
 3356SOL     OW10966   0.910   4.403   5.969
 3356SOL    HW110967   0.927   4.363   6.059
 3356SOL    HW210968   0.933   4.500   5.971
 3357SOL     OW10969   2.530   4.370   1.766
 3357SOL    HW110970   2.471   4.435   1.719
 3357SOL    HW210971   2.614   4.415   1.794
 3358SOL     OW10972   4.647   1.354   0.927
 3358SOL    HW110973   4.725   1.406   0.963
 3358SOL    HW210974   4.569   1.366   0.988
 3359SOL     OW10975   0.142   0.288   3.207
 3359SOL    HW110976   0.227   0.338   3.220
 3359SOL    HW210977   0.151   0.195   3.245
 3360SOL     OW10978   0.668   1.409   6.867
 3360SOL    HW110979   0.718   1.477   6.920
 3360SOL    HW210980   0.699   1.317   6.892
 3361SOL     OW10981   1.002   4.666   3.988
 3361SOL    HW110982   0.967   4.737   3.928
 3361SOL    HW210983   1.075   4.703   4.045
 3362SOL     OW10984   3.667   1.176   2.981
 3362SOL    HW110985   3.734   1.228   3.034
 3362SOL    HW210986   3.600   1.238   2.941
 3363SOL     OW10987   6.371   6.872   1.723
 3363SOL    HW110988   6.331   6.871   1.631
 3363SOL    HW210989   6.426   6.955   1.735
 3364SOL     OW10990   1.277   4.657   3.837
 3364SOL    HW110991   1.259   4.712   3.919
 3364SOL    HW210992   1.222   4.691   3.761
 3365SOL     OW10993   6.766   1.982   5.290
 3365SOL    HW110994   6.731   1.891   5.271
 3365SOL    HW210995   6.691   2.042   5.318
 3366SOL     OW10996   5.808   6.533   5.038
 3366SOL    HW110997   5.840   6.545   5.132
 3366SOL    HW210998   5.803   6.435   5.017
 3367SOL     OW10999   3.645   2.657   1.622
 3367SOL    HW111000   3.640   2.726   1.550
 3367SOL    HW211001   3.637   2.701   1.711
 3368SOL     OW11002   0.379   4.930   5.704
 3368SOL    HW111003   0.442   4.917   5.781
 3368SOL    HW211004   0.429   4.918   5.618
 3369SOL     OW11005   3.689   2.845   6.080
 3369SOL    HW111006   3.595   2.828   6.112
 3369SOL    HW211007   3.688   2.854   5.980
 3370SOL     OW11008   7.016   5.856   6.675
 3370SOL    HW111009   6.928   5.904   6.686
 3370SOL    HW211010   0.066   5.923   6.662
 3371SOL     OW11011   2.084   3.040   2.157
 3371SOL    HW111012   2.074   3.135   2.189
 3371SOL    HW211013   2.095   3.040   2.058
 3372SOL     OW11014   0.626   1.832   0.902
 3372SOL    HW111015   0.648   1.772   0.978
 3372SOL    HW211016   0.527   1.834   0.889
 3373SOL     OW11017   6.964   1.541   2.985
 3373SOL    HW111018   6.955   1.617   2.921
 3373SOL    HW211019   0.035   1.538   3.021
 3374SOL     OW11020   1.242   6.467   4.741
 3374SOL    HW111021   1.341   6.453   4.729
 3374SOL    HW211022   1.205   6.396   4.800
 3375SOL     OW11023   6.993   5.624   6.493
 3375SOL    HW111024   6.978   5.685   6.571
 3375SOL    HW211025   6.993   5.529   6.524
 3376SOL     OW11026   3.878   2.991   3.240
 3376SOL    HW111027   3.924   2.971   3.327
 3376SOL    HW211028   3.922   3.069   3.196
 3377SOL     OW11029   6.660   6.311   5.863
 3377SOL    HW111030   6.636   6.217   5.841
 3377SOL    HW211031   6.697   6.315   5.956
 3378SOL     OW11032   0.505   1.108   0.349
 3378SOL    HW111033   0.571   1.174   0.314
 3378SOL    HW211034   0.552   1.041   0.405
 3379SOL     OW11035   6.394   6.859   6.326
 3379SOL    HW111036   6.408   6.957   6.334
 3379SOL    HW211037   6.365   6.821   6.414
 3380SOL     OW11038   5.931   6.924   5.079
 3380SOL    HW111039   6.019   6.907   5.124
 3380SOL    HW211040   5.873   6.979   5.140
 3381SOL     OW11041   0.981   2.667   1.213
 3381SOL    HW111042   1.060   2.607   1.220
 3381SOL    HW211043   1.011   2.762   1.198
 3382SOL     OW11044   0.251   2.267   0.623
 3382SOL    HW111045   0.175   2.215   0.661
 3382SOL    HW211046   0.310   2.205   0.570
 3383SOL     OW11047   4.543   5.797   1.697
 3383SOL    HW111048   4.491   5.846   1.627
 3383SOL    HW211049   4.577   5.863   1.765
 3384SOL     OW11050   2.910   3.408   6.239
 3384SOL    HW111051   2.951   3.317   6.227
 3384SOL    HW211052   2.956   3.474   6.180
 3385SOL     OW11053   6.752   3.196   4.078
 3385SOL    HW111054   6.689   3.256   4.028
 3385SOL    HW211055   6.699   3.135   4.138
 3386SOL     OW11056   5.492   4.460   6.737
 3386SOL    HW111057   5.520   4.471   6.832
 3386SOL    HW211058   5.525   4.373   6.702
 3387SOL     OW11059   3.328   0.665   3.210
 3387SOL    HW111060   3.422   0.699   3.218
 3387SOL    HW211061   3.307   0.645   3.114
 3388SOL     OW11062   5.190   3.072   1.978
 3388SOL    HW111063   5.113   3.112   2.028
 3388SOL    HW211064   5.216   2.985   2.021
 3389SOL     OW11065   5.429   5.052   6.142
 3389SOL    HW111066   5.428   4.954   6.165
 3389SOL    HW211067   5.522   5.080   6.121
 3390SOL     OW11068   4.888   5.877   6.457
 3390SOL    HW111069   4.844   5.959   6.420
 3390SOL    HW211070   4.970   5.902   6.507
 3391SOL     OW11071   5.036   3.156   5.487
 3391SOL    HW111072   4.991   3.131   5.401
 3391SOL    HW211073   5.114   3.096   5.503
 3392SOL     OW11074   2.829   6.479   3.766
 3392SOL    HW111075   2.858   6.389   3.734
 3392SOL    HW211076   2.749   6.508   3.714
 3393SOL     OW11077   0.355   6.430   6.787
 3393SOL    HW111078   0.344   6.330   6.784
 3393SOL    HW211079   0.267   6.473   6.807
 3394SOL     OW11080   5.746   3.915   2.122
 3394SOL    HW111081   5.709   3.983   2.058
 3394SOL    HW211082   5.799   3.847   2.072
 3395SOL     OW11083   5.182   3.150   3.201
 3395SOL    HW111084   5.187   3.117   3.295
 3395SOL    HW211085   5.240   3.232   3.192
 3396SOL     OW11086   4.478   2.012   3.485
 3396SOL    HW111087   4.477   1.995   3.584
 3396SOL    HW211088   4.393   1.978   3.445
 3397SOL     OW11089   2.537   0.295   5.914
 3397SOL    HW111090   2.605   0.349   5.964
 3397SOL    HW211091   2.447   0.337   5.926
 3398SOL     OW11092   0.409   6.693   4.684
 3398SOL    HW111093   0.442   6.659   4.772
 3398SOL    HW211094   0.320   6.738   4.697
 3399SOL     OW11095   5.805   4.151   3.858
 3399SOL    HW111096   5.869   4.159   3.935
 3399SOL    HW211097   5.839   4.083   3.794
 3400SOL     OW11098   4.647   3.240   5.614
 3400SOL    HW111099   4.732   3.291   5.603
 3400SOL    HW211100   4.607   3.260   5.703
 3401SOL     OW11101   0.103   3.156   1.017
 3401SOL    HW111102   0.143   3.231   0.965
 3401SOL    HW211103   0.023   3.190   1.068
 3402SOL     OW11104   3.944   6.031   6.723
 3402SOL    HW111105   3.853   6.056   6.754
 3402SOL    HW211106   4.005   6.021   6.802
 3403SOL     OW11107   4.099   5.423   4.959
 3403SOL    HW111108   4.003   5.396   4.970
 3403SOL    HW211109   4.149   5.350   4.913
 3404SOL     OW11110   4.986   1.228   6.990
 3404SOL    HW111111   4.921   1.208   6.917
 3404SOL    HW211112   4.945   1.204   0.056
 3405SOL     OW11113   6.823   4.011   4.506
 3405SOL    HW111114   6.816   3.982   4.601
 3405SOL    HW211115   6.897   4.078   4.497
 3406SOL     OW11116   0.945   4.229   1.695
 3406SOL    HW111117   1.014   4.176   1.645
 3406SOL    HW211118   0.977   4.323   1.707
 3407SOL     OW11119   1.452   5.073   5.967
 3407SOL    HW111120   1.453   5.081   5.868
 3407SOL    HW211121   1.452   4.976   5.993
 3408SOL     OW11122   4.754   3.838   5.229
 3408SOL    HW111123   4.832   3.848   5.167
 3408SOL    HW211124   4.721   3.744   5.226
 3409SOL     OW11125   3.532   6.529   6.403
 3409SOL    HW111126   3.563   6.524   6.498
 3409SOL    HW211127   3.548   6.441   6.358
 3410SOL     OW11128   6.740   6.528   1.016
 3410SOL    HW111129   6.768   6.432   1.022
 3410SOL    HW211130   6.822   6.585   1.005
 3411SOL     OW11131   0.421   2.758   1.682
 3411SOL    HW111132   0.356   2.702   1.631
 3411SOL    HW211133   0.373   2.836   1.723
 3412SOL     OW11134   4.486   2.779   0.223
 3412SOL    HW111135   4.413   2.712   0.216
 3412SOL    HW211136   4.575   2.733   0.221
 3413SOL     OW11137   5.730   1.320   0.920
 3413SOL    HW111138   5.732   1.401   0.978
 3413SOL    HW211139   5.813   1.266   0.936
 3414SOL     OW11140   3.021   0.556   5.522
 3414SOL    HW111141   3.018   0.463   5.558
 3414SOL    HW211142   3.112   0.574   5.486
 3415SOL     OW11143   1.813   3.717   4.790
 3415SOL    HW111144   1.801   3.665   4.705
 3415SOL    HW211145   1.907   3.705   4.823
 3416SOL     OW11146   0.183   5.729   0.867
 3416SOL    HW111147   0.145   5.716   0.775
 3416SOL    HW211148   0.241   5.811   0.868
 3417SOL     OW11149   0.920   6.353   2.772
 3417SOL    HW111150   0.927   6.440   2.724
 3417SOL    HW211151   0.990   6.347   2.842
 3418SOL     OW11152   3.538   0.502   4.026
 3418SOL    HW111153   3.579   0.533   4.112
 3418SOL    HW211154   3.556   0.405   4.013
 3419SOL     OW11155   2.763   5.815   4.991
 3419SOL    HW111156   2.833   5.885   4.975
 3419SOL    HW211157   2.805   5.724   4.981
 3420SOL     OW11158   5.504   3.011   4.330
 3420SOL    HW111159   5.548   3.036   4.417
 3420SOL    HW211160   5.470   3.093   4.285
 3421SOL     OW11161   5.373   1.143   5.104
 3421SOL    HW111162   5.426   1.064   5.135
 3421SOL    HW211163   5.295   1.112   5.050
 3422SOL     OW11164   2.145   0.443   0.627
 3422SOL    HW111165   2.185   0.519   0.575
 3422SOL    HW211166   2.099   0.381   0.564
 3423SOL     OW11167   0.533   4.510   6.882
 3423SOL    HW111168   0.592   4.442   6.926
 3423SOL    HW211169   0.464   4.540   6.948
 3424SOL     OW11170   2.954   6.638   1.300
 3424SOL    HW111171   2.908   6.699   1.365
 3424SOL    HW211172   2.960   6.546   1.340
 3425SOL     OW11173   5.789   4.915   2.595
 3425SOL    HW111174   5.767   4.826   2.635
 3425SOL    HW211175   5.715   4.943   2.534
 3426SOL     OW11176   4.091   2.940   0.549
 3426SOL    HW111177   4.131   2.989   0.627
 3426SOL    HW211178   4.119   2.983   0.464
 3427SOL     OW11179   6.273   0.278   0.257
 3427SOL    HW111180   6.355   0.327   0.228
 3427SOL    HW211181   6.266   0.280   0.357
 3428SOL     OW11182   2.220   5.258   0.302
 3428SOL    HW111183   2.180   5.341   0.263
 3428SOL    HW211184   2.320   5.263   0.297
 3429SOL     OW11185   0.334   1.996   0.343
 3429SOL    HW111186   0.284   2.060   0.284
 3429SOL    HW211187   0.285   1.909   0.346
 3430SOL     OW11188   1.156   6.598   5.106
 3430SOL    HW111189   1.170   6.589   5.205
 3430SOL    HW211190   1.243   6.588   5.058
 3431SOL     OW11191   0.916   6.766   1.173
 3431SOL    HW111192   0.874   6.845   1.127
 3431SOL    HW211193   0.988   6.798   1.234
 3432SOL     OW11194   1.835   2.618   6.891
 3432SOL    HW111195   1.890   2.699   6.870
 3432SOL    HW211196   1.789   2.631   6.979
 3433SOL     OW11197   1.180   0.368   6.079
 3433SOL    HW111198   1.119   0.410   6.012
 3433SOL    HW211199   1.126   0.314   6.144
 3434SOL     OW11200   4.198   1.416   1.159
 3434SOL    HW111201   4.179   1.489   1.225
 3434SOL    HW211202   4.139   1.426   1.080
 3435SOL     OW11203   0.259   1.792   0.928
 3435SOL    HW111204   0.224   1.702   0.900
 3435SOL    HW211205   0.232   1.810   1.023
 3436SOL     OW11206   3.605   5.898   6.540
 3436SOL    HW111207   3.530   5.846   6.499
 3436SOL    HW211208   3.579   5.994   6.549
 3437SOL     OW11209   2.263   1.020   6.087
 3437SOL    HW111210   2.340   1.054   6.033
 3437SOL    HW211211   2.178   1.060   6.052
 3438SOL     OW11212   1.254   3.008   0.007
 3438SOL    HW111213   1.317   3.045   6.961
 3438SOL    HW211214   1.177   3.071   0.017
 3439SOL     OW11215   2.068   6.129   4.818
 3439SOL    HW111216   2.011   6.169   4.890
 3439SOL    HW211217   2.134   6.066   4.859
 3440SOL     OW11218   3.251   3.793   1.266
 3440SOL    HW111219   3.258   3.729   1.343
 3440SOL    HW211220   3.166   3.775   1.216
 3441SOL     OW11221   5.179   6.993   4.774
 3441SOL    HW111222   5.240   6.989   4.853
 3441SOL    HW211223   5.135   6.905   4.761
 3442SOL     OW11224   2.580   4.883   2.216
 3442SOL    HW111225   2.612   4.952   2.282
 3442SOL    HW211226   2.502   4.919   2.165
 3443SOL     OW11227   5.271   6.124   1.373
 3443SOL    HW111228   5.333   6.200   1.355
 3443SOL    HW211229   5.324   6.044   1.403
 3444SOL     OW11230   4.839   5.244   0.152
 3444SOL    HW111231   4.808   5.271   0.060
 3444SOL    HW211232   4.882   5.322   0.197
 3445SOL     OW11233   6.826   5.445   3.906
 3445SOL    HW111234   6.769   5.363   3.902
 3445SOL    HW211235   6.767   5.526   3.905
 3446SOL     OW11236   5.916   0.902   2.564
 3446SOL    HW111237   5.975   0.859   2.496
 3446SOL    HW211238   5.827   0.856   2.566
 3447SOL     OW11239   5.967   5.497   0.973
 3447SOL    HW111240   5.890   5.545   0.932
 3447SOL    HW211241   6.049   5.510   0.917
 3448SOL     OW11242   3.597   0.543   0.670
 3448SOL    HW111243   3.509   0.578   0.701
 3448SOL    HW211244   3.584   0.455   0.624
 3449SOL     OW11245   6.077   6.413   4.055
 3449SOL    HW111246   6.141   6.352   4.007
 3449SOL    HW211247   6.004   6.440   3.993
 3450SOL     OW11248   0.001   2.589   6.272
 3450SOL    HW111249   6.924   2.574   6.279
 3450SOL    HW211250   0.026   2.668   6.328
 3451SOL     OW11251   1.923   5.729   1.155
 3451SOL    HW111252   2.017   5.695   1.153
 3451SOL    HW211253   1.913   5.804   1.089
 3452SOL     OW11254   6.309   0.708   6.158
 3452SOL    HW111255   6.222   0.741   6.195
 3452SOL    HW211256   6.363   0.785   6.124
 3453SOL     OW11257   6.799   6.047   6.627
 3453SOL    HW111258   6.726   6.109   6.654
 3453SOL    HW211259   6.863   6.095   6.567
 3454SOL     OW11260   0.948   2.137   5.822
 3454SOL    HW111261   0.861   2.095   5.847
 3454SOL    HW211262   1.019   2.067   5.820
 3455SOL     OW11263   2.946   2.237   4.343
 3455SOL    HW111264   2.975   2.187   4.424
 3455SOL    HW211265   2.872   2.300   4.367
 3456SOL     OW11266   5.824   5.764   2.649
 3456SOL    HW111267   5.862   5.671   2.644
 3456SOL    HW211268   5.839   5.810   2.562
 3457SOL     OW11269   2.847   4.811   3.404
 3457SOL    HW111270   2.934   4.854   3.429
 3457SOL    HW211271   2.809   4.764   3.483
 3458SOL     OW11272   4.975   0.455   1.984
 3458SOL    HW111273   4.950   0.385   1.918
 3458SOL    HW211274   4.954   0.546   1.947
 3459SOL     OW11275   5.428   3.318   3.174
 3459SOL    HW111276   5.467   3.257   3.242
 3459SOL    HW211277   5.495   3.333   3.101
 3460SOL     OW11278   2.334   3.303   6.655
 3460SOL    HW111279   2.250   3.268   6.698
 3460SOL    HW211280   2.400   3.228   6.646
 3461SOL     OW11281   4.410   5.660   4.901
 3461SOL    HW111282   4.327   5.625   4.944
 3461SOL    HW211283   4.391   5.682   4.805
 3462SOL     OW11284   0.114   3.816   2.701
 3462SOL    HW111285   0.129   3.906   2.660
 3462SOL    HW211286   0.036   3.772   2.657
 3463SOL     OW11287   0.778   3.626   2.361
 3463SOL    HW111288   0.807   3.722   2.368
 3463SOL    HW211289   0.781   3.597   2.265
 3464SOL     OW11290   6.236   3.870   6.534
 3464SOL    HW111291   6.260   3.925   6.614
 3464SOL    HW211292   6.175   3.922   6.474
 3465SOL     OW11293   1.666   2.152   2.378
 3465SOL    HW111294   1.727   2.114   2.447
 3465SOL    HW211295   1.652   2.249   2.395
 3466SOL     OW11296   0.274   4.842   0.413
 3466SOL    HW111297   0.322   4.884   0.336
 3466SOL    HW211298   0.296   4.890   0.498
 3467SOL     OW11299   1.759   2.468   0.561
 3467SOL    HW111300   1.791   2.562   0.552
 3467SOL    HW211301   1.751   2.445   0.658
 3468SOL     OW11302   5.134   6.953   2.862
 3468SOL    HW111303   5.218   7.006   2.851
 3468SOL    HW211304   5.143   6.865   2.816
 3469SOL     OW11305   4.798   0.367   2.651
 3469SOL    HW111306   4.881   0.335   2.697
 3469SOL    HW211307   4.784   0.464   2.672
 3470SOL     OW11308   5.961   3.362   1.478
 3470SOL    HW111309   5.875   3.402   1.446
 3470SOL    HW211310   6.017   3.433   1.521
 3471SOL     OW11311   4.221   5.079   3.913
 3471SOL    HW111312   4.144   5.019   3.895
 3471SOL    HW211313   4.188   5.167   3.948
 3472SOL     OW11314   2.708   0.732   2.947
 3472SOL    HW111315   2.653   0.730   2.864
 3472SOL    HW211316   2.650   0.711   3.026
 3473SOL     OW11317   0.033   2.271   1.639
 3473SOL    HW111318   0.032   2.316   1.550
 3473SOL    HW211319   0.120   2.222   1.651
 3474SOL     OW11320   1.259   4.717   1.838
 3474SOL    HW111321   1.302   4.636   1.879
 3474SOL    HW211322   1.204   4.688   1.759
 3475SOL     OW11323   1.432   4.675   4.250
 3475SOL    HW111324   1.437   4.676   4.349
 3475SOL    HW211325   1.468   4.589   4.215
 3476SOL     OW11326   2.712   1.350   3.500
 3476SOL    HW111327   2.788   1.415   3.494
 3476SOL    HW211328   2.658   1.353   3.416
 3477SOL     OW11329   1.977   5.150   0.784
 3477SOL    HW111330   2.051   5.098   0.825
 3477SOL    HW211331   1.998   5.168   0.688
 3478SOL     OW11332   2.671   5.731   5.470
 3478SOL    HW111333   2.602   5.731   5.397
 3478SOL    HW211334   2.625   5.743   5.558
 3479SOL     OW11335   1.358   0.588   3.156
 3479SOL    HW111336   1.277   0.552   3.111
 3479SOL    HW211337   1.336   0.676   3.199
 3480SOL     OW11338   0.687   6.682   5.236
 3480SOL    HW111339   0.614   6.617   5.260
 3480SOL    HW211340   0.748   6.641   5.169
 3481SOL     OW11341   4.615   0.313   0.520
 3481SOL    HW111342   4.577   0.292   0.610
 3481SOL    HW211343   4.686   0.247   0.497
 3482SOL     OW11344   5.547   1.288   1.944
 3482SOL    HW111345   5.450   1.310   1.930
 3482SOL    HW211346   5.597   1.300   1.859
 3483SOL     OW11347   4.893   2.217   1.734
 3483SOL    HW111348   4.888   2.312   1.703
 3483SOL    HW211349   4.833   2.161   1.677
 3484SOL     OW11350   0.988   3.297   6.917
 3484SOL    HW111351   0.932   3.378   6.899
 3484SOL    HW211352   1.085   3.322   6.912
 3485SOL     OW11353   1.881   1.651   4.577
 3485SOL    HW111354   1.805   1.601   4.535
 3485SOL    HW211355   1.963   1.593   4.577
 3486SOL     OW11356   2.916   0.870   3.408
 3486SOL    HW111357   2.831   0.817   3.415
 3486SOL    HW211358   2.894   0.968   3.406
 3487SOL     OW11359   5.320   2.600   5.306
 3487SOL    HW111360   5.368   2.638   5.386
 3487SOL    HW211361   5.295   2.505   5.325
 3488SOL     OW11362   5.765   1.794   4.164
 3488SOL    HW111363   5.812   1.706   4.153
 3488SOL    HW211364   5.718   1.795   4.252
 3489SOL     OW11365   4.012   0.125   1.161
 3489SOL    HW111366   3.981   0.033   1.137
 3489SOL    HW211367   4.015   0.181   1.079
 3490SOL     OW11368   4.240   4.276   0.254
 3490SOL    HW111369   4.252   4.359   0.198
 3490SOL    HW211370   4.298   4.283   0.335
 3491SOL     OW11371   4.643   2.523   4.902
 3491SOL    HW111372   4.681   2.600   4.851
 3491SOL    HW211373   4.644   2.543   5.000
 3492SOL     OW11374   0.321   5.292   1.156
 3492SOL    HW111375   0.365   5.212   1.116
 3492SOL    HW211376   0.390   5.361   1.178
 3493SOL     OW11377   5.650   4.241   6.659
 3493SOL    HW111378   5.673   4.242   6.562
 3493SOL    HW211379   5.583   4.169   6.677
 3494SOL     OW11380   3.779   0.865   1.157
 3494SOL    HW111381   3.694   0.815   1.173
 3494SOL    HW211382   3.776   0.907   1.066
 3495SOL     OW11383   5.624   5.291   2.390
 3495SOL    HW111384   5.551   5.338   2.340
 3495SOL    HW211385   5.701   5.353   2.403
 3496SOL     OW11386   6.258   4.622   0.586
 3496SOL    HW111387   6.255   4.583   0.494
 3496SOL    HW211388   6.216   4.713   0.586
 3497SOL     OW11389   3.629   1.156   3.921
 3497SOL    HW111390   3.709   1.194   3.968
 3497SOL    HW211391   3.660   1.099   3.845
 3498SOL     OW11392   2.705   2.443   0.681
 3498SOL    HW111393   2.673   2.534   0.654
 3498SOL    HW211394   2.756   2.403   0.605
 3499SOL     OW11395   4.800   3.149   4.225
 3499SOL    HW111396   4.808   3.128   4.322
 3499SOL    HW211397   4.729   3.091   4.184
 3500SOL     OW11398   1.847   3.270   4.545
 3500SOL    HW111399   1.757   3.240   4.512
 3500SOL    HW211400   1.902   3.190   4.570
 3501SOL     OW11401   1.917   5.667   4.814
 3501SOL    HW111402   1.894   5.748   4.761
 3501SOL    HW211403   1.878   5.586   4.770
 3502SOL     OW11404   6.294   2.800   2.813
 3502SOL    HW111405   6.328   2.709   2.836
 3502SOL    HW211406   6.220   2.825   2.875
 3503SOL     OW11407   6.437   6.479   4.526
 3503SOL    HW111408   6.362   6.538   4.495
 3503SOL    HW211409   6.399   6.403   4.579
 3504SOL     OW11410   2.067   1.920   1.675
 3504SOL    HW111411   2.004   1.934   1.598
 3504SOL    HW211412   2.037   1.841   1.729
 3505SOL     OW11413   5.429   4.785   5.121
 3505SOL    HW111414   5.329   4.777   5.122
 3505SOL    HW211415   5.470   4.694   5.131
 3506SOL     OW11416   5.030   5.142   5.575
 3506SOL    HW111417   5.006   5.225   5.526
 3506SOL    HW211418   4.947   5.095   5.604
 3507SOL     OW11419   1.613   1.474   6.953
 3507SOL    HW111420   1.588   1.480   6.856
 3507SOL    HW211421   1.589   1.383   6.987
 3508SOL     OW11422   3.066   2.578   5.936
 3508SOL    HW111423   3.084   2.650   5.869
 3508SOL    HW211424   3.046   2.619   6.025
 3509SOL     OW11425   6.200   0.626   5.906
 3509SOL    HW111426   6.164   0.661   5.992
 3509SOL    HW211427   6.245   0.700   5.855
 3510SOL     OW11428   1.564   2.610   1.719
 3510SOL    HW111429   1.535   2.608   1.623
 3510SOL    HW211430   1.647   2.557   1.730
 3511SOL     OW11431   3.096   5.517   0.489
 3511SOL    HW111432   3.070   5.605   0.529
 3511SOL    HW211433   3.034   5.446   0.521
 3512SOL     OW11434   0.357   4.962   0.680
 3512SOL    HW111435   0.445   4.915   0.673
 3512SOL    HW211436   0.370   5.054   0.717
 3513SOL     OW11437   6.441   3.050   0.277
 3513SOL    HW111438   6.536   3.026   0.296
 3513SOL    HW211439   6.389   2.966   0.259
 3514SOL     OW11440   0.902   1.559   2.045
 3514SOL    HW111441   0.920   1.656   2.029
 3514SOL    HW211442   0.851   1.521   1.968
 3515SOL     OW11443   4.916   5.779   3.506
 3515SOL    HW111444   4.837   5.840   3.499
 3515SOL    HW211445   4.918   5.718   3.427
 3516SOL     OW11446   4.792   0.395   0.934
 3516SOL    HW111447   4.789   0.311   0.988
 3516SOL    HW211448   4.851   0.381   0.854
 3517SOL     OW11449   1.343   1.843   0.934
 3517SOL    HW111450   1.387   1.760   0.899
 3517SOL    HW211451   1.331   1.836   1.033
 3518SOL     OW11452   5.740   3.273   4.134
 3518SOL    HW111453   5.665   3.206   4.127
 3518SOL    HW211454   5.710   3.361   4.097
 3519SOL     OW11455   1.341   0.973   6.141
 3519SOL    HW111456   1.291   0.901   6.093
 3519SOL    HW211457   1.336   1.058   6.089
 3520SOL     OW11458   3.154   4.820   6.081
 3520SOL    HW111459   3.065   4.786   6.051
 3520SOL    HW211460   3.198   4.869   6.006
 3521SOL     OW11461   4.978   3.349   6.877
 3521SOL    HW111462   4.965   3.426   6.938
 3521SOL    HW211463   4.979   3.264   6.930
 3522SOL     OW11464   6.853   4.341   1.975
 3522SOL    HW111465   6.808   4.372   1.891
 3522SOL    HW211466   6.948   4.316   1.955
 3523SOL     OW11467   2.845   4.986   6.157
 3523SOL    HW111468   2.826   5.072   6.204
 3523SOL    HW211469   2.763   4.928   6.158
 3524SOL     OW11470   3.686   1.455   1.252
 3524SOL    HW111471   3.679   1.381   1.186
 3524SOL    HW211472   3.742   1.426   1.330
 3525SOL     OW11473   1.393   3.915   2.213
 3525SOL    HW111474   1.372   3.990   2.151
 3525SOL    HW211475   1.371   3.827   2.169
 3526SOL     OW11476   2.205   6.076   4.020
 3526SOL    HW111477   2.221   6.139   4.096
 3526SOL    HW211478   2.288   6.067   3.965
 3527SOL     OW11479   5.712   2.550   5.828
 3527SOL    HW111480   5.780   2.491   5.871
 3527SOL    HW211481   5.722   2.644   5.862
 3528SOL     OW11482   0.485   5.030   4.297
 3528SOL    HW111483   0.445   4.948   4.339
 3528SOL    HW211484   0.455   5.111   4.348
 3529SOL     OW11485   3.869   0.326   0.386
 3529SOL    HW111486   3.775   0.355   0.369
 3529SOL    HW211487   3.926   0.346   0.306
 3530SOL     OW11488   1.017   5.140   3.131
 3530SOL    HW111489   1.000   5.216   3.069
 3530SOL    HW211490   0.933   5.115   3.179
 3531SOL     OW11491   4.919   2.998   0.647
 3531SOL    HW111492   4.998   3.039   0.602
 3531SOL    HW211493   4.881   3.062   0.713
 3532SOL     OW11494   2.685   0.911   1.489
 3532SOL    HW111495   2.643   0.871   1.407
 3532SOL    HW211496   2.747   0.985   1.463
 3533SOL     OW11497   1.983   1.771   2.564
 3533SOL    HW111498   2.017   1.679   2.583
 3533SOL    HW211499   1.885   1.775   2.581
 3534SOL     OW11500   5.765   1.216   5.547
 3534SOL    HW111501   5.767   1.124   5.508
 3534SOL    HW211502   5.858   1.251   5.556
 3535SOL     OW11503   1.022   4.965   0.592
 3535SOL    HW111504   1.013   4.970   0.492
 3535SOL    HW211505   0.961   5.032   0.634
 3536SOL     OW11506   2.226   2.188   3.577
 3536SOL    HW111507   2.225   2.162   3.481
 3536SOL    HW211508   2.321   2.190   3.611
 3537SOL     OW11509   2.898   5.800   0.945
 3537SOL    HW111510   2.886   5.775   1.041
 3537SOL    HW211511   2.952   5.884   0.939
 3538SOL     OW11512   1.216   0.751   6.049
 3538SOL    HW111513   1.226   0.705   5.961
 3538SOL    HW211514   1.261   0.698   6.121
 3539SOL     OW11515   6.111   3.717   6.181
 3539SOL    HW111516   6.187   3.780   6.169
 3539SOL    HW211517   6.135   3.628   6.142
 3540SOL     OW11518   1.825   2.830   6.122
 3540SOL    HW111519   1.782   2.743   6.148
 3540SOL    HW211520   1.804   2.899   6.191
 3541SOL     OW11521   1.749   2.806   6.658
 3541SOL    HW111522   1.667   2.765   6.617
 3541SOL    HW211523   1.767   2.763   6.747
 3542SOL     OW11524   1.414   4.522   1.981
 3542SOL    HW111525   1.498   4.575   1.972
 3542SOL    HW211526   1.403   4.492   2.075
 3543SOL     OW11527   0.924   2.903   5.166
 3543SOL    HW111528   0.847   2.841   5.149
 3543SOL    HW211529   0.910   2.987   5.113
 3544SOL     OW11530   2.897   4.227   6.425
 3544SOL    HW111531   2.816   4.284   6.438
 3544SOL    HW211532   2.975   4.285   6.399
 3545SOL     OW11533   3.814   5.253   0.308
 3545SOL    HW111534   3.839   5.231   0.214
 3545SOL    HW211535   3.761   5.177   0.347
 3546SOL     OW11536   0.366   4.482   3.344
 3546SOL    HW111537   0.365   4.412   3.273
 3546SOL    HW211538   0.274   4.492   3.382
 3547SOL     OW11539   6.728   5.239   5.298
 3547SOL    HW111540   6.711   5.251   5.200
 3547SOL    HW211541   6.825   5.255   5.318
 3548SOL     OW11542   5.375   0.795   5.740
 3548SOL    HW111543   5.394   0.699   5.720
 3548SOL    HW211544   5.430   0.854   5.679
 3549SOL     OW11545   0.115   5.292   5.915
 3549SOL    HW111546   0.044   5.227   5.943
 3549SOL    HW211547   0.072   5.379   5.889
 3550SOL     OW11548   5.750   2.903   3.324
 3550SOL    HW111549   5.694   2.840   3.270
 3550SOL    HW211550   5.724   2.897   3.420
 3551SOL     OW11551   3.338   1.979   3.188
 3551SOL    HW111552   3.279   1.982   3.108
 3551SOL    HW211553   3.296   2.030   3.263
 3552SOL     OW11554   6.577   6.363   1.585
 3552SOL    HW111555   6.492   6.359   1.637
 3552SOL    HW211556   6.654   6.340   1.645
 3553SOL     OW11557   4.616   5.516   0.534
 3553SOL    HW111558   4.652   5.527   0.441
 3553SOL    HW211559   4.570   5.601   0.562
 3554SOL     OW11560   4.564   1.725   1.175
 3554SOL    HW111561   4.643   1.680   1.216
 3554SOL    HW211562   4.506   1.656   1.132
 3555SOL     OW11563   0.600   4.218   4.120
 3555SOL    HW111564   0.663   4.213   4.042
 3555SOL    HW211565   0.629   4.290   4.182
 3556SOL     OW11566   3.962   1.439   4.450
 3556SOL    HW111567   3.975   1.503   4.526
 3556SOL    HW211568   4.024   1.464   4.375
 3557SOL     OW11569   0.868   0.925   4.324
 3557SOL    HW111570   0.830   0.988   4.391
 3557SOL    HW211571   0.951   0.964   4.284
 3558SOL     OW11572   2.013   5.944   2.132
 3558SOL    HW111573   2.083   5.896   2.185
 3558SOL    HW211574   1.974   6.018   2.187
 3559SOL     OW11575   0.489   6.526   5.324
 3559SOL    HW111576   0.432   6.501   5.245
 3559SOL    HW211577   0.536   6.445   5.358
 3560SOL     OW11578   1.447   5.308   2.490
 3560SOL    HW111579   1.502   5.339   2.412
 3560SOL    HW211580   1.431   5.385   2.552
 3561SOL     OW11581   4.563   4.468   4.969
 3561SOL    HW111582   4.486   4.492   5.028
 3561SOL    HW211583   4.646   4.509   5.005
 3562SOL     OW11584   3.486   1.363   2.876
 3562SOL    HW111585   3.493   1.426   2.798
 3562SOL    HW211586   3.479   1.416   2.960
 3563SOL     OW11587   6.361   1.916   0.564
 3563SOL    HW111588   6.332   1.926   0.659
 3563SOL    HW211589   6.289   1.948   0.503
 3564SOL     OW11590   1.116   4.422   3.081
 3564SOL    HW111591   1.042   4.482   3.111
 3564SOL    HW211592   1.149   4.451   2.991
 3565SOL     OW11593   3.318   6.251   5.073
 3565SOL    HW111594   3.319   6.197   5.157
 3565SOL    HW211595   3.227   6.248   5.032
 3566SOL     OW11596   6.868   3.972   5.941
 3566SOL    HW111597   6.966   3.991   5.940
 3566SOL    HW211598   6.827   4.001   5.855
 3567SOL     OW11599   0.159   2.424   6.520
 3567SOL    HW111600   0.098   2.446   6.595
 3567SOL    HW211601   0.115   2.445   6.433
 3568SOL     OW11602   4.442   4.506   3.431
 3568SOL    HW111603   4.383   4.567   3.485
 3568SOL    HW211604   4.460   4.547   3.342
 3569SOL     OW11605   2.757   1.538   5.972
 3569SOL    HW111606   2.812   1.586   5.904
 3569SOL    HW211607   2.701   1.603   6.023
 3570SOL     OW11608   5.543   0.977   5.601
 3570SOL    HW111609   5.623   0.962   5.543
 3570SOL    HW211610   5.463   0.994   5.543
 3571SOL     OW11611   0.750   5.273   4.506
 3571SOL    HW111612   0.806   5.233   4.433
 3571SOL    HW211613   0.763   5.221   4.590
 3572SOL     OW11614   5.891   3.611   3.144
 3572SOL    HW111615   5.882   3.512   3.142
 3572SOL    HW211616   5.832   3.652   3.074
 3573SOL     OW11617   0.699   5.984   3.119
 3573SOL    HW111618   0.651   5.907   3.078
 3573SOL    HW211619   0.687   5.981   3.218
 3574SOL     OW11620   0.761   3.396   0.227
 3574SOL    HW111621   0.784   3.430   0.136
 3574SOL    HW211622   0.704   3.315   0.219
 3575SOL     OW11623   5.415   5.108   2.035
 3575SOL    HW111624   5.374   5.190   1.994
 3575SOL    HW211625   5.401   5.030   1.975
 3576SOL     OW11626   0.028   2.309   6.254
 3576SOL    HW111627   6.991   2.389   6.256
 3576SOL    HW211628   7.013   2.238   6.313
 3577SOL     OW11629   1.445   1.507   6.475
 3577SOL    HW111630   1.511   1.559   6.420
 3577SOL    HW211631   1.488   1.481   6.562
 3578SOL     OW11632   4.305   2.049   0.698
 3578SOL    HW111633   4.227   2.104   0.728
 3578SOL    HW211634   4.298   2.032   0.600
 3579SOL     OW11635   6.576   2.232   3.723
 3579SOL    HW111636   6.672   2.208   3.739
 3579SOL    HW211637   6.517   2.158   3.756
 3580SOL     OW11638   5.575   2.990   1.310
 3580SOL    HW111639   5.661   3.019   1.351
 3580SOL    HW211640   5.522   3.070   1.283
 3581SOL     OW11641   1.552   5.699   3.480
 3581SOL    HW111642   1.456   5.722   3.463
 3581SOL    HW211643   1.578   5.622   3.422
 3582SOL     OW11644   0.386   3.725   6.243
 3582SOL    HW111645   0.378   3.657   6.316
 3582SOL    HW211646   0.295   3.751   6.211
 3583SOL     OW11647   0.661   4.120   6.428
 3583SOL    HW111648   0.703   4.030   6.441
 3583SOL    HW211649   0.567   4.118   6.463
 3584SOL     OW11650   5.855   5.487   6.723
 3584SOL    HW111651   5.842   5.549   6.646
 3584SOL    HW211652   5.788   5.508   6.794
 3585SOL     OW11653   3.087   0.315   4.823
 3585SOL    HW111654   3.144   0.396   4.812
 3585SOL    HW211655   2.999   0.341   4.862
 3586SOL     OW11656   6.833   2.003   5.012
 3586SOL    HW111657   6.863   1.976   5.103
 3586SOL    HW211658   6.806   2.100   5.013
 3587SOL     OW11659   2.320   4.459   5.966
 3587SOL    HW111660   2.418   4.454   5.947
 3587SOL    HW211661   2.277   4.372   5.942
 3588SOL     OW11662   1.238   2.720   5.962
 3588SOL    HW111663   1.262   2.751   6.054
 3588SOL    HW211664   1.174   2.784   5.920
 3589SOL     OW11665   4.622   1.363   4.729
 3589SOL    HW111666   4.582   1.368   4.638
 3589SOL    HW211667   4.549   1.365   4.798
 3590SOL     OW11668   0.618   2.628   0.648
 3590SOL    HW111669   0.598   2.535   0.677
 3590SOL    HW211670   0.547   2.659   0.585
 3591SOL     OW11671   5.142   4.027   6.762
 3591SOL    HW111672   5.213   4.004   6.829
 3591SOL    HW211673   5.185   4.041   6.673
 3592SOL     OW11674   0.640   5.038   1.733
 3592SOL    HW111675   0.733   5.051   1.767
 3592SOL    HW211676   0.620   4.940   1.727
 3593SOL     OW11677   0.470   5.473   4.920
 3593SOL    HW111678   0.387   5.525   4.939
 3593SOL    HW211679   0.549   5.536   4.919
 3594SOL     OW11680   4.493   6.347   3.614
 3594SOL    HW111681   4.469   6.415   3.683
 3594SOL    HW211682   4.593   6.340   3.607
 3595SOL     OW11683   3.798   5.708   6.544
 3595SOL    HW111684   3.743   5.791   6.555
 3595SOL    HW211685   3.811   5.690   6.446
 3596SOL     OW11686   6.133   3.158   3.323
 3596SOL    HW111687   6.094   3.066   3.322
 3596SOL    HW211688   6.093   3.211   3.399
 3597SOL     OW11689   2.032   2.338   5.598
 3597SOL    HW111690   1.997   2.281   5.523
 3597SOL    HW211691   1.955   2.374   5.650
 3598SOL     OW11692   1.238   5.423   6.468
 3598SOL    HW111693   1.265   5.332   6.497
 3598SOL    HW211694   1.148   5.445   6.506
 3599SOL     OW11695   6.626   2.519   6.661
 3599SOL    HW111696   6.713   2.474   6.638
 3599SOL    HW211697   6.639   2.617   6.666
 3600SOL     OW11698   0.592   2.901   1.383
 3600SOL    HW111699   0.494   2.887   1.390
 3600SOL    HW211700   0.623   2.959   1.459
 3601SOL     OW11701   5.284   3.567   6.749
 3601SOL    HW111702   5.364   3.572   6.689
 3601SOL    HW211703   5.313   3.582   6.844
 3602SOL     OW11704   1.756   2.413   0.835
 3602SOL    HW111705   1.819   2.487   0.860
 3602SOL    HW211706   1.808   2.330   0.815
 3603SOL     OW11707   3.266   0.943   4.165
 3603SOL    HW111708   3.218   1.029   4.179
 3603SOL    HW211709   3.203   0.867   4.179
 3604SOL     OW11710   6.356   5.639   3.085
 3604SOL    HW111711   6.398   5.598   3.004
 3604SOL    HW211712   6.414   5.713   3.119
 3605SOL     OW11713   6.828   3.938   4.772
 3605SOL    HW111714   6.810   3.841   4.756
 3605SOL    HW211715   6.927   3.953   4.780
 3606SOL     OW11716   0.255   0.215   4.800
 3606SOL    HW111717   0.216   0.154   4.732
 3606SOL    HW211718   0.275   0.304   4.758
 3607SOL     OW11719   5.928   5.068   1.832
 3607SOL    HW111720   6.012   5.115   1.805
 3607SOL    HW211721   5.920   5.067   1.932
 3608SOL     OW11722   5.024   2.754   4.247
 3608SOL    HW111723   4.985   2.794   4.164
 3608SOL    HW211724   5.059   2.826   4.307
 3609SOL     OW11725   1.339   6.977   4.411
 3609SOL    HW111726   1.433   6.988   4.444
 3609SOL    HW211727   1.340   6.928   4.323
 3610SOL     OW11728   1.864   0.047   5.926
 3610SOL    HW111729   1.888   0.098   6.009
 3610SOL    HW211730   1.937   7.006   5.903
 3611SOL     OW11731   4.563   5.246   4.689
 3611SOL    HW111732   4.530   5.188   4.615
 3611SOL    HW211733   4.578   5.338   4.655
 3612SOL     OW11734   6.709   0.005   0.579
 3612SOL    HW111735   6.806   0.013   0.558
 3612SOL    HW211736   6.696   6.960   0.652
 3613SOL     OW11737   4.646   4.536   1.966
 3613SOL    HW111738   4.609   4.447   1.993
 3613SOL    HW211739   4.684   4.530   1.874
 3614SOL     OW11740   3.924   3.503   1.185
 3614SOL    HW111741   4.015   3.462   1.191
 3614SOL    HW211742   3.932   3.601   1.167
 3615SOL     OW11743   5.287   4.920   6.416
 3615SOL    HW111744   5.265   4.996   6.479
 3615SOL    HW211745   5.210   4.903   6.356
 3616SOL     OW11746   0.457   1.753   6.675
 3616SOL    HW111747   0.442   1.778   6.771
 3616SOL    HW211748   0.546   1.786   6.646
 3617SOL     OW11749   4.137   1.112   6.632
 3617SOL    HW111750   4.166   1.204   6.662
 3617SOL    HW211751   4.085   1.068   6.705
 3618SOL     OW11752   2.402   2.879   5.668
 3618SOL    HW111753   2.397   2.781   5.687
 3618SOL    HW211754   2.411   2.894   5.569
 3619SOL     OW11755   5.331   2.919   4.596
 3619SOL    HW111756   5.278   2.868   4.664
 3619SOL    HW211757   5.371   2.855   4.530
 3620SOL     OW11758   5.793   6.717   5.685
 3620SOL    HW111759   5.756   6.685   5.772
 3620SOL    HW211760   5.893   6.720   5.691
 3621SOL     OW11761   3.119   2.844   5.387
 3621SOL    HW111762   3.129   2.752   5.425
 3621SOL    HW211763   3.025   2.859   5.358
 3622SOL     OW11764   0.712   1.322   5.534
 3622SOL    HW111765   0.678   1.229   5.552
 3622SOL    HW211766   0.740   1.364   5.620
 3623SOL     OW11767   6.813   6.234   4.503
 3623SOL    HW111768   6.721   6.209   4.474
 3623SOL    HW211769   6.850   6.303   4.440
 3624SOL     OW11770   1.603   6.944   2.688
 3624SOL    HW111771   1.671   7.016   2.704
 3624SOL    HW211772   1.605   6.919   2.591
 3625SOL     OW11773   6.675   2.773   6.723
 3625SOL    HW111774   6.771   2.795   6.737
 3625SOL    HW211775   6.638   2.828   6.648
 3626SOL     OW11776   1.488   2.101   6.208
 3626SOL    HW111777   1.446   2.176   6.257
 3626SOL    HW211778   1.588   2.108   6.215
 3627SOL     OW11779   3.287   3.475   2.266
 3627SOL    HW111780   3.281   3.508   2.172
 3627SOL    HW211781   3.383   3.458   2.289
 3628SOL     OW11782   1.776   1.183   2.075
 3628SOL    HW111783   1.704   1.229   2.128
 3628SOL    HW211784   1.852   1.247   2.060
 3629SOL     OW11785   6.643   0.803   5.393
 3629SOL    HW111786   6.602   0.728   5.444
 3629SOL    HW211787   6.667   0.877   5.456
 3630SOL     OW11788   4.972   2.154   4.042
 3630SOL    HW111789   5.034   2.077   4.031
 3630SOL    HW211790   4.888   2.123   4.088
 3631SOL     OW11791   2.563   1.339   3.246
 3631SOL    HW111792   2.535   1.243   3.250
 3631SOL    HW211793   2.642   1.348   3.185
 3632SOL     OW11794   5.009   4.890   1.542
 3632SOL    HW111795   4.914   4.861   1.541
 3632SOL    HW211796   5.068   4.812   1.520
 3633SOL     OW11797   4.384   2.056   5.619
 3633SOL    HW111798   4.291   2.077   5.589
 3633SOL    HW211799   4.381   1.991   5.694
 3634SOL     OW11800   1.579   5.063   5.185
 3634SOL    HW111801   1.623   5.141   5.232
 3634SOL    HW211802   1.645   4.988   5.177
 3635SOL     OW11803   3.273   0.028   0.751
 3635SOL    HW111804   3.280   0.127   0.743
 3635SOL    HW211805   3.277   0.002   0.848
 3636SOL     OW11806   6.921   5.434   0.851
 3636SOL    HW111807   7.011   5.419   0.811
 3636SOL    HW211808   6.855   5.455   0.779
 3637SOL     OW11809   0.275   2.379   2.104
 3637SOL    HW111810   0.191   2.387   2.159
 3637SOL    HW211811   0.271   2.294   2.052
 3638SOL     OW11812   0.630   4.410   3.472
 3638SOL    HW111813   0.682   4.353   3.409
 3638SOL    HW211814   0.557   4.457   3.422
 3639SOL     OW11815   3.638   5.666   0.943
 3639SOL    HW111816   3.702   5.648   0.868
 3639SOL    HW211817   3.622   5.582   0.994
 3640SOL     OW11818   4.106   0.913   0.206
 3640SOL    HW111819   4.119   0.833   0.147
 3640SOL    HW211820   4.160   0.902   0.290
 3641SOL     OW11821   6.048   4.013   2.140
 3641SOL    HW111822   6.012   4.097   2.182
 3641SOL    HW211823   6.044   3.939   2.207
 3642SOL     OW11824   5.190   2.006   0.554
 3642SOL    HW111825   5.106   2.029   0.604
 3642SOL    HW211826   5.269   2.046   0.601
 3643SOL     OW11827   3.309   5.654   4.001
 3643SOL    HW111828   3.226   5.601   4.018
 3643SOL    HW211829   3.389   5.595   4.007
 3644SOL     OW11830   0.504   0.884   1.872
 3644SOL    HW111831   0.579   0.844   1.926
 3644SOL    HW211832   0.536   0.901   1.779
 3645SOL     OW11833   1.442   2.741   4.121
 3645SOL    HW111834   1.473   2.829   4.084
 3645SOL    HW211835   1.457   2.740   4.220
 3646SOL     OW11836   1.629   3.993   6.511
 3646SOL    HW111837   1.724   3.968   6.532
 3646SOL    HW211838   1.619   4.092   6.512
 3647SOL     OW11839   2.510   6.172   6.508
 3647SOL    HW111840   2.558   6.231   6.572
 3647SOL    HW211841   2.433   6.128   6.555
 3648SOL     OW11842   4.419   5.789   2.021
 3648SOL    HW111843   4.365   5.806   1.939
 3648SOL    HW211844   4.379   5.714   2.073
 3649SOL     OW11845   6.282   2.596   1.204
 3649SOL    HW111846   6.268   2.667   1.135
 3649SOL    HW211847   6.225   2.617   1.284
 3650SOL     OW11848   6.672   5.729   2.102
 3650SOL    HW111849   6.699   5.721   2.006
 3650SOL    HW211850   6.714   5.655   2.155
 3651SOL     OW11851   0.501   0.113   4.826
 3651SOL    HW111852   0.408   0.150   4.833
 3651SOL    HW211853   0.517   0.051   4.903
 3652SOL     OW11854   6.208   0.243   3.646
 3652SOL    HW111855   6.213   0.328   3.594
 3652SOL    HW211856   6.239   0.260   3.740
 3653SOL     OW11857   1.077   1.608   3.861
 3653SOL    HW111858   0.983   1.576   3.852
 3653SOL    HW211859   1.101   1.664   3.782
 3654SOL     OW11860   3.625   4.457   0.419
 3654SOL    HW111861   3.614   4.373   0.366
 3654SOL    HW211862   3.610   4.438   0.516
 3655SOL     OW11863   3.312   0.118   3.966
 3655SOL    HW111864   3.294   0.031   4.012
 3655SOL    HW211865   3.260   0.191   4.012
 3656SOL     OW11866   0.689   4.615   1.384
 3656SOL    HW111867   0.590   4.615   1.394
 3656SOL    HW211868   0.715   4.556   1.307
 3657SOL     OW11869   5.656   5.842   5.326
 3657SOL    HW111870   5.705   5.929   5.336
 3657SOL    HW211871   5.566   5.859   5.285
 3658SOL     OW11872   2.224   4.723   6.478
 3658SOL    HW111873   2.189   4.762   6.563
 3658SOL    HW211874   2.209   4.624   6.478
 3659SOL     OW11875   1.904   3.279   5.530
 3659SOL    HW111876   1.875   3.352   5.593
 3659SOL    HW211877   1.855   3.195   5.552
 3660SOL     OW11878   5.642   5.812   4.035
 3660SOL    HW111879   5.604   5.754   4.108
 3660SOL    HW211880   5.703   5.757   3.978
 3661SOL     OW11881   6.484   0.801   5.163
 3661SOL    HW111882   6.537   0.777   5.244
 3661SOL    HW211883   6.404   0.741   5.156
 3662SOL     OW11884   3.784   1.055   4.201
 3662SOL    HW111885   3.767   0.992   4.125
 3662SOL    HW211886   3.795   1.148   4.165
 3663SOL     OW11887   1.612   1.904   0.568
 3663SOL    HW111888   1.624   1.804   0.574
 3663SOL    HW211889   1.678   1.942   0.504
 3664SOL     OW11890   4.708   2.294   1.407
 3664SOL    HW111891   4.704   2.202   1.445
 3664SOL    HW211892   4.700   2.288   1.307
 3665SOL     OW11893   0.840   6.294   4.979
 3665SOL    HW111894   0.758   6.351   4.988
 3665SOL    HW211895   0.821   6.202   5.013
 3666SOL     OW11896   0.779   3.376   2.850
 3666SOL    HW111897   0.737   3.463   2.877
 3666SOL    HW211898   0.853   3.353   2.913
 3667SOL     OW11899   0.422   1.232   3.856
 3667SOL    HW111900   0.352   1.257   3.789
 3667SOL    HW211901   0.472   1.314   3.884
 3668SOL     OW11902   1.442   1.396   0.728
 3668SOL    HW111903   1.364   1.385   0.789
 3668SOL    HW211904   1.527   1.386   0.780
 3669SOL     OW11905   5.229   1.530   3.916
 3669SOL    HW111906   5.289   1.489   3.984
 3669SOL    HW211907   5.235   1.478   3.830
 3670SOL     OW11908   1.709   5.677   6.650
 3670SOL    HW111909   1.790   5.659   6.705
 3670SOL    HW211910   1.734   5.736   6.573
 3671SOL     OW11911   0.022   1.705   4.019
 3671SOL    HW111912   0.093   1.652   4.065
 3671SOL    HW211913   6.955   1.664   4.037
 3672SOL     OW11914   4.640   2.081   1.871
 3672SOL    HW111915   4.726   2.104   1.916
 3672SOL    HW211916   4.614   2.156   1.810
 3673SOL     OW11917   4.380   6.325   0.026
 3673SOL    HW111918   4.469   6.370   0.018
 3673SOL    HW211919   4.337   6.352   0.112
 3674SOL     OW11920   1.597   5.869   5.361
 3674SOL    HW111921   1.500   5.891   5.367
 3674SOL    HW211922   1.640   5.880   5.451
 3675SOL     OW11923   2.142   2.922   3.853
 3675SOL    HW111924   2.179   2.911   3.760
 3675SOL    HW211925   2.131   2.832   3.895
 3676SOL     OW11926   6.156   4.218   2.503
 3676SOL    HW111927   6.157   4.217   2.603
 3676SOL    HW211928   6.156   4.124   2.470
 3677SOL     OW11929   3.066   6.264   4.417
 3677SOL    HW111930   3.165   6.262   4.428
 3677SOL    HW211931   3.032   6.357   4.432
 3678SOL     OW11932   0.781   1.538   4.267
 3678SOL    HW111933   0.747   1.617   4.216
 3678SOL    HW211934   0.786   1.459   4.207
 3679SOL     OW11935   6.810   0.323   3.413
 3679SOL    HW111936   6.845   0.390   3.480
 3679SOL    HW211937   6.773   0.244   3.461
 3680SOL     OW11938   5.019   3.169   4.065
 3680SOL    HW111939   5.086   3.213   4.125
 3680SOL    HW211940   4.935   3.152   4.116
 3681SOL     OW11941   0.295   1.136   6.419
 3681SOL    HW111942   0.307   1.096   6.328
 3681SOL    HW211943   0.347   1.082   6.486
 3682SOL     OW11944   5.745   3.150   0.007
 3682SOL    HW111945   5.741   3.131   0.105
 3682SOL    HW211946   5.663   3.201   7.002
 3683SOL     OW11947   6.725   1.915   4.480
 3683SOL    HW111948   6.732   1.826   4.524
 3683SOL    HW211949   6.711   1.903   4.382
 3684SOL     OW11950   1.033   5.366   6.848
 3684SOL    HW111951   1.079   5.428   6.911
 3684SOL    HW211952   0.934   5.367   6.867
 3685SOL     OW11953   1.742   6.025   6.379
 3685SOL    HW111954   1.819   5.961   6.384
 3685SOL    HW211955   1.721   6.060   6.471
 3686SOL     OW11956   6.193   5.254   5.086
 3686SOL    HW111957   6.167   5.178   5.145
 3686SOL    HW211958   6.192   5.225   4.991
 3687SOL     OW11959   3.711   6.539   3.884
 3687SOL    HW111960   3.784   6.603   3.861
 3687SOL    HW211961   3.650   6.580   3.952
 3688SOL     OW11962   0.425   3.199   6.779
 3688SOL    HW111963   0.449   3.267   6.849
 3688SOL    HW211964   0.440   3.238   6.688
 3689SOL     OW11965   1.948   0.334   5.700
 3689SOL    HW111966   1.998   0.266   5.755
 3689SOL    HW211967   1.850   0.323   5.715
 3690SOL     OW11968   4.094   5.988   6.928
 3690SOL    HW111969   4.181   6.036   6.927
 3690SOL    HW211970   4.086   5.934   7.013
 3691SOL     OW11971   2.375   1.795   6.855
 3691SOL    HW111972   2.438   1.793   6.777
 3691SOL    HW211973   2.378   1.707   6.902
 3692SOL     OW11974   6.522   5.284   5.660
 3692SOL    HW111975   6.505   5.244   5.570
 3692SOL    HW211976   6.569   5.372   5.649
 3693SOL     OW11977   2.147   3.566   3.009
 3693SOL    HW111978   2.125   3.662   3.026
 3693SOL    HW211979   2.208   3.532   3.081
 3694SOL     OW11980   0.599   6.170   1.869
 3694SOL    HW111981   0.523   6.106   1.860
 3694SOL    HW211982   0.567   6.262   1.848
 3695SOL     OW11983   5.128   3.157   1.536
 3695SOL    HW111984   5.077   3.072   1.547
 3695SOL    HW211985   5.110   3.195   1.445
 3696SOL     OW11986   3.875   0.090   4.064
 3696SOL    HW111987   3.948   0.024   4.081
 3696SOL    HW211988   3.843   0.127   4.151
 3697SOL     OW11989   0.300   6.495   2.928
 3697SOL    HW111990   0.392   6.461   2.911
 3697SOL    HW211991   0.289   6.586   2.888
 3698SOL     OW11992   2.830   1.263   4.439
 3698SOL    HW111993   2.792   1.312   4.361
 3698SOL    HW211994   2.909   1.314   4.475
 3699SOL     OW11995   1.639   1.971   3.924
 3699SOL    HW111996   1.658   1.994   4.019
 3699SOL    HW211997   1.651   2.052   3.867
 3700SOL     OW11998   1.223   5.262   5.006
 3700SOL    HW111999   1.322   5.258   5.013
 3700SOL    HW212000   1.197   5.343   4.952
 3701SOL     OW12001   1.422   0.750   4.022
 3701SOL    HW112002   1.515   0.788   4.024
 3701SOL    HW212003   1.403   0.705   4.109
 3702SOL     OW12004   5.649   6.674   3.185
 3702SOL    HW112005   5.696   6.762   3.185
 3702SOL    HW212006   5.640   6.641   3.091
 3703SOL     OW12007   6.433   0.096   6.374
 3703SOL    HW112008   6.421   0.139   6.284
 3703SOL    HW212009   6.357   0.120   6.433
 3704SOL     OW12010   3.649   2.118   0.857
 3704SOL    HW112011   3.659   2.217   0.847
 3704SOL    HW212012   3.553   2.092   0.847
 3705SOL     OW12013   5.290   4.199   5.052
 3705SOL    HW112014   5.280   4.119   5.111
 3705SOL    HW212015   5.201   4.224   5.014
 3706SOL     OW12016   1.140   3.871   6.826
 3706SOL    HW112017   1.082   3.948   6.853
 3706SOL    HW212018   1.134   3.858   6.727
 3707SOL     OW12019   5.281   4.546   4.645
 3707SOL    HW112020   5.378   4.564   4.631
 3707SOL    HW212021   5.244   4.501   4.564
 3708SOL     OW12022   6.209   0.887   0.484
 3708SOL    HW112023   6.191   0.984   0.470
 3708SOL    HW212024   6.153   0.833   0.421
 3709SOL     OW12025   3.535   0.737   1.171
 3709SOL    HW112026   3.545   0.684   1.255
 3709SOL    HW212027   3.464   0.807   1.184
 3710SOL     OW12028   6.673   5.259   5.030
 3710SOL    HW112029   6.694   5.238   4.934
 3710SOL    HW212030   6.637   5.351   5.037
 3711SOL     OW12031   1.286   5.634   4.658
 3711SOL    HW112032   1.365   5.618   4.600
 3711SOL    HW212033   1.249   5.726   4.640
 3712SOL     OW12034   0.915   5.092   6.158
 3712SOL    HW112035   0.836   5.032   6.172
 3712SOL    HW212036   0.936   5.098   6.061
 3713SOL     OW12037   0.483   6.928   5.354
 3713SOL    HW112038   0.582   6.941   5.346
 3713SOL    HW212039   0.438   7.017   5.366
 3714SOL     OW12040   5.642   5.896   6.114
 3714SOL    HW112041   5.589   5.876   6.031
 3714SOL    HW212042   5.697   5.816   6.138
 3715SOL     OW12043   0.632   3.924   2.584
 3715SOL    HW112044   0.609   3.888   2.674
 3715SOL    HW212045   0.625   4.024   2.584
 3716SOL     OW12046   6.109   6.659   3.754
 3716SOL    HW112047   6.054   6.623   3.830
 3716SOL    HW212048   6.132   6.755   3.773
 3717SOL     OW12049   6.088   6.728   6.800
 3717SOL    HW112050   6.084   6.628   6.802
 3717SOL    HW212051   6.155   6.760   6.867
 3718SOL     OW12052   0.684   0.917   0.100
 3718SOL    HW112053   0.675   0.839   0.038
 3718SOL    HW212054   0.736   0.890   0.181
 3719SOL     OW12055   4.891   3.505   1.542
 3719SOL    HW112056   4.870   3.486   1.447
 3719SOL    HW212057   4.897   3.604   1.555
 3720SOL     OW12058   5.865   3.460   0.167
 3720SOL    HW112059   5.908   3.496   0.084
 3720SOL    HW212060   5.904   3.370   0.189
 3721SOL     OW12061   6.837   5.081   1.959
 3721SOL    HW112062   6.924   5.038   1.936
 3721SOL    HW212063   6.815   5.061   2.054
 3722SOL     OW12064   5.741   6.111   0.928
 3722SOL    HW112065   5.662   6.115   0.868
 3722SOL    HW212066   5.820   6.077   0.876
 3723SOL     OW12067   5.768   4.786   1.221
 3723SOL    HW112068   5.694   4.718   1.228
 3723SOL    HW212069   5.728   4.878   1.220
 3724SOL     OW12070   1.611   4.863   4.891
 3724SOL    HW112071   1.567   4.774   4.893
 3724SOL    HW212072   1.633   4.891   4.985
 3725SOL     OW12073   0.145   5.095   0.144
 3725SOL    HW112074   0.242   5.087   0.120
 3725SOL    HW212075   0.096   5.014   0.111
 3726SOL     OW12076   5.881   3.162   6.507
 3726SOL    HW112077   5.866   3.071   6.546
 3726SOL    HW212078   5.803   3.221   6.528
 3727SOL     OW12079   6.401   1.631   5.727
 3727SOL    HW112080   6.361   1.694   5.793
 3727SOL    HW212081   6.358   1.644   5.638
 3728SOL     OW12082   0.980   3.437   6.395
 3728SOL    HW112083   1.030   3.361   6.354
 3728SOL    HW212084   0.881   3.420   6.388
 3729SOL     OW12085   1.939   1.916   3.997
 3729SOL    HW112086   2.027   1.870   3.981
 3729SOL    HW212087   1.909   1.960   3.912
 3730SOL     OW12088   3.293   6.135   5.323
 3730SOL    HW112089   3.201   6.130   5.360
 3730SOL    HW212090   3.348   6.198   5.378
 3731SOL     OW12091   0.175   1.376   0.732
 3731SOL    HW112092   0.121   1.435   0.792
 3731SOL    HW212093   0.272   1.393   0.748
 3732SOL     OW12094   2.742   1.990   0.225
 3732SOL    HW112095   2.788   1.978   0.137
 3732SOL    HW212096   2.811   2.004   0.297
 3733SOL     OW12097   1.681   3.482   2.765
 3733SOL    HW112098   1.750   3.528   2.821
 3733SOL    HW212099   1.655   3.541   2.688
 3734SOL     OW12100   5.330   0.455   1.453
 3734SOL    HW112101   5.309   0.510   1.535
 3734SOL    HW212102   5.262   0.473   1.383
 3735SOL     OW12103   2.838   1.008   2.706
 3735SOL    HW112104   2.902   1.046   2.639
 3735SOL    HW212105   2.835   0.909   2.697
 3736SOL     OW12106   0.059   1.678   1.150
 3736SOL    HW112107   6.999   1.623   1.158
 3736SOL    HW212108   0.057   1.752   1.217
 3737SOL     OW12109   5.400   0.871   4.370
 3737SOL    HW112110   5.468   0.944   4.367
 3737SOL    HW212111   5.399   0.822   4.283
 3738SOL     OW12112   6.597   0.351   1.924
 3738SOL    HW112113   6.678   0.320   1.875
 3738SOL    HW212114   6.563   0.435   1.881
 3739SOL     OW12115   2.734   5.229   0.687
 3739SOL    HW112116   2.700   5.135   0.684
 3739SOL    HW212117   2.801   5.239   0.760
 3740SOL     OW12118   6.587   0.277   0.664
 3740SOL    HW112119   6.654   0.338   0.706
 3740SOL    HW212120   6.633   0.215   0.600
 3741SOL     OW12121   5.354   2.624   6.000
 3741SOL    HW112122   5.317   2.716   6.005
 3741SOL    HW212123   5.293   2.560   6.047
 3742SOL     OW12124   2.980   1.870   6.609
 3742SOL    HW112125   2.904   1.838   6.552
 3742SOL    HW212126   3.050   1.911   6.551
 3743SOL     OW12127   6.137   3.085   0.638
 3743SOL    HW112128   6.221   3.124   0.601
 3743SOL    HW212129   6.080   3.158   0.675
 3744SOL     OW12130   1.907   6.282   1.624
 3744SOL    HW112131   1.810   6.294   1.643
 3744SOL    HW212132   1.952   6.242   1.703
 3745SOL     OW12133   4.603   4.449   2.635
 3745SOL    HW112134   4.536   4.428   2.564
 3745SOL    HW212135   4.651   4.534   2.613
 3746SOL     OW12136   6.281   1.064   3.819
 3746SOL    HW112137   6.349   1.122   3.776
 3746SOL    HW212138   6.189   1.093   3.790
 3747SOL     OW12139   3.488   5.995   5.127
 3747SOL    HW112140   3.401   6.018   5.169
 3747SOL    HW212141   3.563   6.027   5.185
 3748SOL     OW12142   5.872   0.818   1.827
 3748SOL    HW112143   5.849   0.914   1.807
 3748SOL    HW212144   5.790   0.769   1.854
 3749SOL     OW12145   1.951   5.400   3.291
 3749SOL    HW112146   2.008   5.329   3.249
 3749SOL    HW212147   1.963   5.396   3.391
 3750SOL     OW12148   6.399   5.231   1.518
 3750SOL    HW112149   6.359   5.254   1.430
 3750SOL    HW212150   6.448   5.144   1.511
 3751SOL     OW12151   6.846   3.445   1.574
 3751SOL    HW112152   6.847   3.543   1.557
 3751SOL    HW212153   6.919   3.402   1.521
 3752SOL     OW12154   0.007   6.843   0.920
 3752SOL    HW112155   0.024   6.829   0.822
 3752SOL    HW212156   6.933   6.863   0.934
 3753SOL     OW12157   0.007   1.082   4.147
 3753SOL    HW112158   6.997   1.141   4.073
 3753SOL    HW212159   0.107   1.076   4.143
 3754SOL     OW12160   4.246   6.870   0.998
 3754SOL    HW112161   4.305   6.950   1.015
 3754SOL    HW212162   4.178   6.863   1.070
 3755SOL     OW12163   5.351   5.921   4.348
 3755SOL    HW112164   5.302   5.993   4.298
 3755SOL    HW212165   5.300   5.898   4.431
 3756SOL     OW12166   2.281   5.534   6.454
 3756SOL    HW112167   2.364   5.486   6.427
 3756SOL    HW212168   2.201   5.480   6.428
 3757SOL     OW12169   4.341   6.288   6.736
 3757SOL    HW112170   4.243   6.298   6.753
 3757SOL    HW212171   4.376   6.211   6.789
 3758SOL     OW12172   2.023   1.139   5.373
 3758SOL    HW112173   2.037   1.081   5.292
 3758SOL    HW212174   1.989   1.228   5.344
 3759SOL     OW12175   4.560   5.757   6.121
 3759SOL    HW112176   4.652   5.747   6.160
 3759SOL    HW212177   4.563   5.732   6.024
 3760SOL     OW12178   1.890   1.556   5.243
 3760SOL    HW112179   1.821   1.499   5.289
 3760SOL    HW212180   1.900   1.642   5.292
 3761SOL     OW12181   1.125   1.022   4.618
 3761SOL    HW112182   1.223   1.030   4.637
 3761SOL    HW212183   1.104   0.927   4.595
 3762SOL     OW12184   1.406   3.795   0.073
 3762SOL    HW112185   1.345   3.812   7.018
 3762SOL    HW212186   1.353   3.797   0.158
 3763SOL     OW12187   0.073   4.351   1.470
 3763SOL    HW112188   0.087   4.288   1.394
 3763SOL    HW212189   0.074   4.301   1.556
 3764SOL     OW12190   1.541   6.712   3.861
 3764SOL    HW112191   1.532   6.812   3.859
 3764SOL    HW212192   1.481   6.674   3.931
 3765SOL     OW12193   4.383   0.821   1.024
 3765SOL    HW112194   4.321   0.887   0.981
 3765SOL    HW212195   4.370   0.731   0.982
 3766SOL     OW12196   1.042   1.040   3.709
 3766SOL    HW112197   1.131   0.998   3.693
 3766SOL    HW212198   1.039   1.078   3.801
 3767SOL     OW12199   2.246   4.171   0.242
 3767SOL    HW112200   2.332   4.121   0.251
 3767SOL    HW212201   2.229   4.224   0.325
 3768SOL     OW12202   1.652   6.221   4.903
 3768SOL    HW112203   1.565   6.240   4.948
 3768SOL    HW212204   1.724   6.280   4.942
 3769SOL     OW12205   6.109   6.780   5.400
 3769SOL    HW112206   6.186   6.826   5.355
 3769SOL    HW212207   6.140   6.737   5.485
 3770SOL     OW12208   2.117   0.323   0.048
 3770SOL    HW112209   2.110   0.294   0.144
 3770SOL    HW212210   2.100   0.244   7.011
 3771SOL     OW12211   6.020   3.495   6.971
 3771SOL    HW112212   5.958   3.435   6.919
 3771SOL    HW212213   6.056   3.566   6.911
 3772SOL     OW12214   6.928   0.733   6.844
 3772SOL    HW112215   6.912   0.788   6.926
 3772SOL    HW212216   6.997   0.663   6.864
 3773SOL     OW12217   5.899   2.667   6.123
 3773SOL    HW112218   5.940   2.594   6.067
 3773SOL    HW212219   5.830   2.715   6.069
 3774SOL     OW12220   0.379   6.274   0.383
 3774SOL    HW112221   0.469   6.246   0.349
 3774SOL    HW212222   0.309   6.249   0.316
 3775SOL     OW12223   5.043   5.261   2.300
 3775SOL    HW112224   4.965   5.318   2.274
 3775SOL    HW212225   5.082   5.296   2.385
 3776SOL     OW12226   3.907   1.366   0.740
 3776SOL    HW112227   3.912   1.457   0.698
 3776SOL    HW212228   3.834   1.313   0.698
 3777SOL     OW12229   3.533   5.015   4.324
 3777SOL    HW112230   3.462   4.980   4.385
 3777SOL    HW212231   3.518   5.113   4.307
 3778SOL     OW12232   3.747   4.940   2.181
 3778SOL    HW112233   3.757   4.904   2.274
 3778SOL    HW212234   3.651   4.935   2.155
 3779SOL     OW12235   1.887   4.783   0.898
 3779SOL    HW112236   1.931   4.820   0.816
 3779SOL    HW212237   1.940   4.706   0.934
 3780SOL     OW12238   5.712   6.137   5.316
 3780SOL    HW112239   5.630   6.153   5.263
 3780SOL    HW212240   5.748   6.223   5.350
 3781SOL     OW12241   0.762   6.916   4.415
 3781SOL    HW112242   0.746   6.818   4.404
 3781SOL    HW212243   0.849   6.940   4.373
 3782SOL     OW12244   2.686   0.678   3.977
 3782SOL    HW112245   2.679   0.706   4.073
 3782SOL    HW212246   2.595   0.679   3.936
 3783SOL     OW12247   5.656   5.260   3.920
 3783SOL    HW112248   5.641   5.314   3.836
 3783SOL    HW212249   5.591   5.290   3.990
 3784SOL     OW12250   4.758   2.784   2.160
 3784SOL    HW112251   4.770   2.873   2.116
 3784SOL    HW212252   4.687   2.732   2.112
 3785SOL     OW12253   1.754   1.886   6.491
 3785SOL    HW112254   1.684   1.956   6.476
 3785SOL    HW212255   1.783   1.888   6.587
 3786SOL     OW12256   2.341   6.285   2.690
 3786SOL    HW112257   2.261   6.326   2.734
 3786SOL    HW212258   2.323   6.273   2.592
 3787SOL     OW12259   6.046   0.787   2.345
 3787SOL    HW112260   5.967   0.773   2.284
 3787SOL    HW212261   6.091   0.699   2.361
 3788SOL     OW12262   0.617   4.198   4.514
 3788SOL    HW112263   0.543   4.155   4.463
 3788SOL    HW212264   0.703   4.184   4.465
 3789SOL     OW12265   0.532   2.670   5.325
 3789SOL    HW112266   0.608   2.710   5.375
 3789SOL    HW212267   0.505   2.731   5.251
 3790SOL     OW12268   1.116   4.758   5.132
 3790SOL    HW112269   1.130   4.665   5.167
 3790SOL    HW212270   1.139   4.824   5.204
 3791SOL     OW12271   5.110   0.537   0.291
 3791SOL    HW112272   5.146   0.476   0.220
 3791SOL    HW212273   5.185   0.573   0.346
 3792SOL     OW12274   1.061   1.867   5.164
 3792SOL    HW112275   1.020   1.813   5.091
 3792SOL    HW212276   1.156   1.888   5.140
 3793SOL     OW12277   4.558   6.538   2.802
 3793SOL    HW112278   4.474   6.508   2.755
 3793SOL    HW212279   4.586   6.627   2.765
 3794SOL     OW12280   2.644   3.849   0.272
 3794SOL    HW112281   2.704   3.773   0.298
 3794SOL    HW212282   2.649   3.862   0.173
 3795SOL     OW12283   4.596   6.409   6.408
 3795SOL    HW112284   4.547   6.352   6.474
 3795SOL    HW212285   4.675   6.359   6.373
 3796SOL     OW12286   3.227   1.834   2.263
 3796SOL    HW112287   3.260   1.812   2.171
 3796SOL    HW212288   3.239   1.932   2.280
 3797SOL     OW12289   0.213   3.840   1.876
 3797SOL    HW112290   0.182   3.777   1.948
 3797SOL    HW212291   0.256   3.787   1.802
 3798SOL     OW12292   2.505   5.776   2.499
 3798SOL    HW112293   2.578   5.796   2.433
 3798SOL    HW212294   2.502   5.849   2.568
 3799SOL     OW12295   0.726   2.383   4.361
 3799SOL    HW112296   0.684   2.384   4.271
 3799SOL    HW212297   0.743   2.288   4.390
 3800SOL     OW12298   5.447   3.244   3.916
 3800SOL    HW112299   5.376   3.178   3.892
 3800SOL    HW212300   5.443   3.322   3.853
 3801SOL     OW12301   6.233   6.772   2.874
 3801SOL    HW112302   6.295   6.851   2.871
 3801SOL    HW212303   6.151   6.793   2.820
 3802SOL     OW12304   1.185   2.117   2.905
 3802SOL    HW112305   1.195   2.185   2.834
 3802SOL    HW212306   1.251   2.135   2.978
 3803SOL     OW12307   3.300   2.560   1.312
 3803SOL    HW112308   3.200   2.562   1.319
 3803SOL    HW212309   3.339   2.546   1.403
 3804SOL     OW12310   4.968   0.942   3.948
 3804SOL    HW112311   4.954   1.039   3.928
 3804SOL    HW212312   5.057   0.914   3.911
 3805SOL     OW12313   2.512   2.884   1.590
 3805SOL    HW112314   2.587   2.852   1.532
 3805SOL    HW212315   2.544   2.961   1.645
 3806SOL     OW12316   3.929   4.067   6.315
 3806SOL    HW112317   3.906   4.025   6.403
 3806SOL    HW212318   4.012   4.024   6.279
 3807SOL     OW12319   2.178   5.453   2.999
 3807SOL    HW112320   2.140   5.361   3.013
 3807SOL    HW212321   2.144   5.514   3.071
 3808SOL     OW12322   4.297   0.576   0.900
 3808SOL    HW112323   4.392   0.544   0.895
 3808SOL    HW212324   4.235   0.501   0.880
 3809SOL     OW12325   5.725   3.261   1.157
 3809SOL    HW112326   5.656   3.211   1.105
 3809SOL    HW212327   5.810   3.265   1.104
 3810SOL     OW12328   4.269   2.248   4.384
 3810SOL    HW112329   4.325   2.168   4.359
 3810SOL    HW212330   4.304   2.288   4.468
 3811SOL     OW12331   1.357   3.926   4.402
 3811SOL    HW112332   1.410   3.959   4.324
 3811SOL    HW212333   1.392   3.837   4.431
 3812SOL     OW12334   5.317   0.202   4.717
 3812SOL    HW112335   5.271   0.115   4.704
 3812SOL    HW212336   5.265   0.257   4.783
 3813SOL     OW12337   4.970   4.738   0.533
 3813SOL    HW112338   4.936   4.679   0.461
 3813SOL    HW212339   4.993   4.828   0.495
 3814SOL     OW12340   0.224   6.862   0.289
 3814SOL    HW112341   0.243   6.766   0.269
 3814SOL    HW212342   0.256   6.919   0.213
 3815SOL     OW12343   4.469   2.973   0.038
 3815SOL    HW112344   4.473   2.916   0.120
 3815SOL    HW212345   4.536   2.941   6.994
 3816SOL     OW12346   1.057   6.055   6.548
 3816SOL    HW112347   1.089   6.045   6.642
 3816SOL    HW212348   1.030   5.965   6.512
 3817SOL     OW12349   4.773   4.213   2.560
 3817SOL    HW112350   4.726   4.274   2.624
 3817SOL    HW212351   4.815   4.138   2.611
 3818SOL     OW12352   5.852   0.830   0.359
 3818SOL    HW112353   5.871   0.924   0.333
 3818SOL    HW212354   5.804   0.828   0.446
 3819SOL     OW12355   5.785   5.441   1.667
 3819SOL    HW112356   5.772   5.518   1.730
 3819SOL    HW212357   5.836   5.472   1.587
 3820SOL     OW12358   5.572   0.028   3.263
 3820SOL    HW112359   5.636   6.992   3.213
 3820SOL    HW212360   5.622   0.078   3.334
 3821SOL     OW12361   2.210   1.406   0.842
 3821SOL    HW112362   2.282   1.436   0.779
 3821SOL    HW212363   2.252   1.379   0.929
 3822SOL     OW12364   1.392   6.655   2.426
 3822SOL    HW112365   1.464   6.606   2.378
 3822SOL    HW212366   1.398   6.753   2.406
 3823SOL     OW12367   2.867   2.813   5.969
 3823SOL    HW112368   2.772   2.832   5.991
 3823SOL    HW212369   2.872   2.763   5.882
 3824SOL     OW12370   5.990   2.454   0.799
 3824SOL    HW112371   6.076   2.467   0.849
 3824SOL    HW212372   5.962   2.358   0.805
 3825SOL     OW12373   1.160   6.205   0.481
 3825SOL    HW112374   1.236   6.176   0.539
 3825SOL    HW212375   1.107   6.275   0.529
 3826SOL     OW12376   1.047   2.720   6.788
 3826SOL    HW112377   1.065   2.810   6.749
 3826SOL    HW212378   0.950   2.713   6.813
 3827SOL     OW12379   2.622   2.344   1.157
 3827SOL    HW112380   2.617   2.434   1.201
 3827SOL    HW212381   2.652   2.355   1.062
 3828SOL     OW12382   3.828   2.460   1.696
 3828SOL    HW112383   3.776   2.406   1.762
 3828SOL    HW212384   3.769   2.532   1.658
 3829SOL     OW12385   1.534   4.948   4.235
 3829SOL    HW112386   1.502   4.854   4.225
 3829SOL    HW212387   1.534   4.993   4.146
 3830SOL     OW12388   0.730   0.487   4.265
 3830SOL    HW112389   0.733   0.437   4.179
 3830SOL    HW212390   0.817   0.534   4.279
 3831SOL     OW12391   4.344   2.392   2.451
 3831SOL    HW112392   4.411   2.407   2.378
 3831SOL    HW212393   4.266   2.342   2.415
 3832SOL     OW12394   5.670   0.868   3.005
 3832SOL    HW112395   5.743   0.935   3.018
 3832SOL    HW212396   5.591   0.895   3.060
 3833SOL     OW12397   0.904   6.069   5.574
 3833SOL    HW112398   0.879   6.166   5.571
 3833SOL    HW212399   0.942   6.048   5.664
 3834SOL     OW12400   4.405   3.441   1.722
 3834SOL    HW112401   4.502   3.466   1.734
 3834SOL    HW212402   4.396   3.342   1.725
 3835SOL     OW12403   2.876   5.547   5.005
 3835SOL    HW112404   2.964   5.499   4.997
 3835SOL    HW212405   2.850   5.554   5.101
 3836SOL     OW12406   1.879   4.151   5.524
 3836SOL    HW112407   1.827   4.107   5.451
 3836SOL    HW212408   1.938   4.084   5.568
 3837SOL     OW12409   4.852   4.206   0.045
 3837SOL    HW112410   4.837   4.215   6.969
 3837SOL    HW212411   4.784   4.143   0.084
 3838SOL     OW12412   6.723   3.711   4.708
 3838SOL    HW112413   6.738   3.616   4.738
 3838SOL    HW212414   6.689   3.711   4.614
 3839SOL     OW12415   4.063   1.139   3.881
 3839SOL    HW112416   4.131   1.135   3.808
 3839SOL    HW212417   4.040   1.047   3.912
 3840SOL     OW12418   1.714   1.457   5.484
 3840SOL    HW112419   1.767   1.384   5.441
 3840SOL    HW212420   1.632   1.476   5.430
 3841SOL     OW12421   0.212   3.225   5.601
 3841SOL    HW112422   0.170   3.202   5.513
 3841SOL    HW212423   0.215   3.325   5.611
 3842SOL     OW12424   1.376   3.880   6.423
 3842SOL    HW112425   1.440   3.831   6.364
 3842SOL    HW212426   1.387   3.978   6.410
 3843SOL     OW12427   0.147   4.087   2.667
 3843SOL    HW112428   0.068   4.123   2.717
 3843SOL    HW212429   0.224   4.074   2.730
 3844SOL     OW12430   0.482   2.928   6.765
 3844SOL    HW112431   0.455   3.016   6.804
 3844SOL    HW212432   0.518   2.870   6.838
 3845SOL     OW12433   3.693   2.890   3.052
 3845SOL    HW112434   3.604   2.867   3.090
 3845SOL    HW212435   3.753   2.925   3.124
 3846SOL     OW12436   0.966   4.897   3.880
 3846SOL    HW112437   0.927   4.930   3.794
 3846SOL    HW212438   1.059   4.934   3.890
 3847SOL     OW12439   6.111   0.969   4.732
 3847SOL    HW112440   6.088   1.066   4.731
 3847SOL    HW212441   6.208   0.957   4.711
 3848SOL     OW12442   3.048   5.570   2.612
 3848SOL    HW112443   3.084   5.521   2.691
 3848SOL    HW212444   2.972   5.629   2.642
 3849SOL     OW12445   0.519   1.743   5.070
 3849SOL    HW112446   0.559   1.731   5.161
 3849SOL    HW212447   0.585   1.715   5.000
 3850SOL     OW12448   2.499   3.290   1.478
 3850SOL    HW112449   2.466   3.199   1.453
 3850SOL    HW212450   2.535   3.336   1.397
 3851SOL     OW12451   1.713   4.631   2.851
 3851SOL    HW112452   1.758   4.543   2.867
 3851SOL    HW212453   1.777   4.693   2.805
 3852SOL     OW12454   4.812   6.930   4.198
 3852SOL    HW112455   4.718   6.961   4.208
 3852SOL    HW212456   4.875   7.005   4.216
 3853SOL     OW12457   1.269   2.835   2.666
 3853SOL    HW112458   1.321   2.921   2.662
 3853SOL    HW212459   1.187   2.845   2.609
 3854SOL     OW12460   0.966   3.146   2.414
 3854SOL    HW112461   0.899   3.073   2.426
 3854SOL    HW212462   0.935   3.208   2.343
 3855SOL     OW12463   5.066   5.885   6.672
 3855SOL    HW112464   5.122   5.937   6.607
 3855SOL    HW212465   5.094   5.907   6.765
 3856SOL     OW12466   6.424   6.435   5.776
 3856SOL    HW112467   6.373   6.383   5.708
 3856SOL    HW212468   6.504   6.384   5.805
 3857SOL     OW12469   1.071   5.974   5.826
 3857SOL    HW112470   1.149   5.981   5.764
 3857SOL    HW212471   1.085   5.899   5.890
 3858SOL     OW12472   1.509   6.220   5.238
 3858SOL    HW112473   1.452   6.181   5.166
 3858SOL    HW212474   1.536   6.313   5.213
 3859SOL     OW12475   6.506   2.099   2.950
 3859SOL    HW112476   6.553   2.109   3.038
 3859SOL    HW212477   6.409   2.120   2.962
 3860SOL     OW12478   1.604   0.506   5.587
 3860SOL    HW112479   1.555   0.493   5.674
 3860SOL    HW212480   1.657   0.591   5.592
 3861SOL     OW12481   5.294   4.939   2.419
 3861SOL    HW112482   5.197   4.940   2.441
 3861SOL    HW212483   5.324   4.846   2.398
 3862SOL     OW12484   0.489   0.117   5.142
 3862SOL    HW112485   0.393   0.135   5.120
 3862SOL    HW212486   0.517   0.030   5.101
 3863SOL     OW12487   4.621   2.764   6.378
 3863SOL    HW112488   4.664   2.755   6.289
 3863SOL    HW212489   4.686   2.738   6.450
 3864SOL     OW12490   3.089   1.473   5.225
 3864SOL    HW112491   2.997   1.506   5.245
 3864SOL    HW212492   3.154   1.510   5.292
 3865SOL     OW12493   3.567   0.135   0.910
 3865SOL    HW112494   3.484   0.165   0.956
 3865SOL    HW212495   3.622   0.215   0.886
 3866SOL     OW12496   4.010   1.093   0.846
 3866SOL    HW112497   3.998   1.192   0.837
 3866SOL    HW212498   3.959   1.062   0.926
 3867SOL     OW12499   1.451   3.491   3.894
 3867SOL    HW112500   1.534   3.468   3.843
 3867SOL    HW212501   1.371   3.476   3.835
 3868SOL     OW12502   2.498   6.631   0.959
 3868SOL    HW112503   2.541   6.563   1.020
 3868SOL    HW212504   2.462   6.585   0.878
 3869SOL     OW12505   6.627   3.203   4.563
 3869SOL    HW112506   6.529   3.185   4.564
 3869SOL    HW212507   6.677   3.117   4.546
 3870SOL     OW12508   4.657   5.300   0.712
 3870SOL    HW112509   4.659   5.381   0.653
 3870SOL    HW212510   4.566   5.258   0.707
 3871SOL     OW12511   4.251   0.567   2.322
 3871SOL    HW112512   4.184   0.560   2.249
 3871SOL    HW212513   4.324   0.500   2.307
 3872SOL     OW12514   3.686   2.886   2.160
 3872SOL    HW112515   3.776   2.913   2.125
 3872SOL    HW212516   3.669   2.931   2.247
 3873SOL     OW12517   0.042   4.822   1.635
 3873SOL    HW112518   0.087   4.787   1.553
 3873SOL    HW212519   0.009   4.915   1.617
 3874SOL     OW12520   3.675   6.122   6.797
 3874SOL    HW112521   3.660   6.045   6.859
 3874SOL    HW212522   3.604   6.124   6.728
 3875SOL     OW12523   0.936   2.732   2.349
 3875SOL    HW112524   0.966   2.789   2.272
 3875SOL    HW212525   0.974   2.639   2.338
 3876SOL     OW12526   6.264   5.161   6.827
 3876SOL    HW112527   6.179   5.204   6.857
 3876SOL    HW212528   6.267   5.160   6.727
 3877SOL     OW12529   6.894   2.832   0.063
 3877SOL    HW112530   6.993   2.819   0.075
 3877SOL    HW212531   6.874   2.930   0.067
 3878SOL     OW12532   2.484   6.534   5.207
 3878SOL    HW112533   2.448   6.451   5.166
 3878SOL    HW212534   2.499   6.519   5.305
 3879SOL     OW12535   4.756   6.659   0.869
 3879SOL    HW112536   4.777   6.752   0.899
 3879SOL    HW212537   4.696   6.663   0.789
 3880SOL     OW12538   5.928   4.270   3.508
 3880SOL    HW112539   5.929   4.183   3.556
 3880SOL    HW212540   6.016   4.315   3.518
 3881SOL     OW12541   1.427   5.416   0.291
 3881SOL    HW112542   1.333   5.389   0.310
 3881SOL    HW212543   1.489   5.370   0.354
 3882SOL     OW12544   5.975   1.450   4.642
 3882SOL    HW112545   6.015   1.520   4.583
 3882SOL    HW212546   5.878   1.471   4.657
 3883SOL     OW12547   4.564   1.121   3.375
 3883SOL    HW112548   4.612   1.126   3.287
 3883SOL    HW212549   4.629   1.097   3.447
 3884SOL     OW12550   1.540   5.796   3.940
 3884SOL    HW112551   1.594   5.737   4.000
 3884SOL    HW212552   1.471   5.845   3.994
 3885SOL     OW12553   6.495   1.497   4.326
 3885SOL    HW112554   6.461   1.533   4.413
 3885SOL    HW212555   6.585   1.455   4.340
 3886SOL     OW12556   6.687   6.965   5.114
 3886SOL    HW112557   6.696   6.899   5.187
 3886SOL    HW212558   6.768   6.962   5.055
 3887SOL     OW12559   5.349   2.186   5.616
 3887SOL    HW112560   5.299   2.217   5.697
 3887SOL    HW212561   5.436   2.234   5.609
 3888SOL     OW12562   0.895   0.604   6.513
 3888SOL    HW112563   0.984   0.647   6.500
 3888SOL    HW212564   0.826   0.674   6.532
 3889SOL     OW12565   6.938   3.024   6.184
 3889SOL    HW112566   6.921   3.096   6.251
 3889SOL    HW212567   6.899   2.938   6.216
 3890SOL     OW12568   5.661   6.106   2.713
 3890SOL    HW112569   5.751   6.095   2.671
 3890SOL    HW212570   5.626   6.198   2.693
 3891SOL     OW12571   5.493   4.231   4.880
 3891SOL    HW112572   5.493   4.160   4.809
 3891SOL    HW212573   5.407   4.226   4.931
 3892SOL     OW12574   0.540   0.805   2.484
 3892SOL    HW112575   0.451   0.793   2.528
 3892SOL    HW212576   0.536   0.772   2.390
 3893SOL     OW12577   2.943   5.673   2.136
 3893SOL    HW112578   2.866   5.652   2.076
 3893SOL    HW212579   2.932   5.625   2.223
 3894SOL     OW12580   3.413   2.141   0.194
 3894SOL    HW112581   3.326   2.100   0.221
 3894SOL    HW212582   3.396   2.217   0.131
 3895SOL     OW12583   1.301   0.937   5.046
 3895SOL    HW112584   1.293   1.005   4.972
 3895SOL    HW212585   1.314   0.984   5.133
 3896SOL     OW12586   0.292   2.296   6.009
 3896SOL    HW112587   0.314   2.276   5.914
 3896SOL    HW212588   0.207   2.348   6.013
 3897SOL     OW12589   3.245   6.713   1.919
 3897SOL    HW112590   3.167   6.733   1.977
 3897SOL    HW212591   3.326   6.761   1.953
 3898SOL     OW12592   3.198   2.959   3.299
 3898SOL    HW112593   3.180   3.019   3.221
 3898SOL    HW212594   3.198   3.014   3.383
 3899SOL     OW12595   4.735   1.107   4.303
 3899SOL    HW112596   4.705   1.020   4.265
 3899SOL    HW212597   4.671   1.180   4.276
 3900SOL     OW12598   5.184   3.449   3.157
 3900SOL    HW112599   5.170   3.498   3.243
 3900SOL    HW212600   5.274   3.405   3.158
 3901SOL     OW12601   2.495   6.215   5.848
 3901SOL    HW112602   2.575   6.252   5.896
 3901SOL    HW212603   2.526   6.165   5.767
 3902SOL     OW12604   4.612   4.332   2.297
 3902SOL    HW112605   4.635   4.249   2.349
 3902SOL    HW212606   4.617   4.313   2.199
 3903SOL     OW12607   4.245   3.384   6.554
 3903SOL    HW112608   4.266   3.422   6.644
 3903SOL    HW212609   4.203   3.294   6.565
 3904SOL     OW12610   1.142   0.979   6.363
 3904SOL    HW112611   1.183   1.058   6.406
 3904SOL    HW212612   1.186   0.961   6.275
 3905SOL     OW12613   5.923   6.518   5.966
 3905SOL    HW112614   5.961   6.488   5.879
 3905SOL    HW212615   5.895   6.614   5.960
 3906SOL     OW12616   1.765   5.024   5.600
 3906SOL    HW112617   1.682   5.067   5.567
 3906SOL    HW212618   1.819   4.991   5.522
 3907SOL     OW12619   0.305   0.846   4.734
 3907SOL    HW112620   0.262   0.896   4.659
 3907SOL    HW212621   0.363   0.773   4.697
 3908SOL     OW12622   0.847   1.180   6.644
 3908SOL    HW112623   0.938   1.215   6.665
 3908SOL    HW212624   0.854   1.097   6.590
 3909SOL     OW12625   6.147   4.309   6.319
 3909SOL    HW112626   6.226   4.334   6.375
 3909SOL    HW212627   6.100   4.231   6.360
 3910SOL     OW12628   3.751   3.831   2.029
 3910SOL    HW112629   3.683   3.847   2.101
 3910SOL    HW212630   3.841   3.858   2.062
 3911SOL     OW12631   5.247   1.349   0.853
 3911SOL    HW112632   5.186   1.305   0.786
 3911SOL    HW212633   5.283   1.434   0.814
 3912SOL     OW12634   3.954   0.589   6.321
 3912SOL    HW112635   4.028   0.579   6.255
 3912SOL    HW212636   3.900   0.670   6.297
 3913SOL     OW12637   3.523   5.866   6.959
 3913SOL    HW112638   3.432   5.867   6.919
 3913SOL    HW212639   3.572   5.785   6.928
 3914SOL     OW12640   4.886   1.167   1.558
 3914SOL    HW112641   4.931   1.242   1.508
 3914SOL    HW212642   4.901   1.081   1.509
 3915SOL     OW12643   3.894   6.758   6.846
 3915SOL    HW112644   3.870   6.665   6.873
 3915SOL    HW212645   3.945   6.756   6.760
 3916SOL     OW12646   2.601   6.813   3.051
 3916SOL    HW112647   2.566   6.744   2.987
 3916SOL    HW212648   2.630   6.769   3.135
 3917SOL     OW12649   2.754   4.840   0.450
 3917SOL    HW112650   2.832   4.863   0.392
 3917SOL    HW212651   2.701   4.766   0.407
 3918SOL     OW12652   4.063   0.451   0.761
 3918SOL    HW112653   4.062   0.396   0.678
 3918SOL    HW212654   3.991   0.521   0.756
 3919SOL     OW12655   3.875   0.753   0.266
 3919SOL    HW112656   3.936   0.822   0.225
 3919SOL    HW212657   3.926   0.702   0.336
 3920SOL     OW12658   2.014   0.785   0.063
 3920SOL    HW112659   1.959   0.715   0.110
 3920SOL    HW212660   2.079   0.739   0.002
 3921SOL     OW12661   0.007   2.537   6.717
 3921SOL    HW112662   7.006   2.632   6.736
 3921SOL    HW212663   6.947   2.481   6.720
 3922SOL     OW12664   4.702   5.230   1.324
 3922SOL    HW112665   4.713   5.291   1.403
 3922SOL    HW212666   4.630   5.163   1.343
 3923SOL     OW12667   5.445   2.190   1.088
 3923SOL    HW112668   5.355   2.225   1.114
 3923SOL    HW212669   5.463   2.212   0.992
 3924SOL     OW12670   0.731   4.371   3.036
 3924SOL    HW112671   0.667   4.298   3.059
 3924SOL    HW212672   0.691   4.459   3.062
 3925SOL     OW12673   4.604   4.726   1.718
 3925SOL    HW112674   4.700   4.754   1.719
 3925SOL    HW212675   4.597   4.632   1.684
 3926SOL     OW12676   0.717   0.249   5.347
 3926SOL    HW112677   0.712   0.237   5.248
 3926SOL    HW212678   0.774   0.328   5.368
 3927SOL     OW12679   0.516   3.068   3.833
 3927SOL    HW112680   0.544   2.983   3.879
 3927SOL    HW212681   0.577   3.142   3.862
 3928SOL     OW12682   2.661   6.452   1.994
 3928SOL    HW112683   2.621   6.519   2.057
 3928SOL    HW212684   2.591   6.385   1.968
 3929SOL     OW12685   0.077   1.012   0.116
 3929SOL    HW112686   0.020   0.967   0.185
 3929SOL    HW212687   0.174   0.993   0.136
 3930SOL     OW12688   0.775   2.098   3.849
 3930SOL    HW112689   0.830   2.021   3.816
 3930SOL    HW212690   0.785   2.175   3.786
 3931SOL     OW12691   1.795   1.940   1.853
 3931SOL    HW112692   1.780   1.985   1.941
 3931SOL    HW212693   1.859   1.864   1.865
 3932SOL     OW12694   2.596   5.315   4.273
 3932SOL    HW112695   2.613   5.407   4.310
 3932SOL    HW212696   2.585   5.250   4.349
 3933SOL     OW12697   1.369   6.495   0.000
 3933SOL    HW112698   1.281   6.477   6.980
 3933SOL    HW212699   1.364   6.580   0.053
 3934SOL     OW12700   0.166   1.258   3.307
 3934SOL    HW112701   0.131   1.183   3.364
 3934SOL    HW212702   0.130   1.248   3.214
 3935SOL     OW12703   6.774   2.104   6.099
 3935SOL    HW112704   6.843   2.110   6.028
 3935SOL    HW212705   6.748   2.196   6.128
 3936SOL     OW12706   6.724   6.162   5.520
 3936SOL    HW112707   6.753   6.116   5.435
 3936SOL    HW212708   6.805   6.187   5.573
 3937SOL     OW12709   0.608   6.240   3.052
 3937SOL    HW112710   0.563   6.249   2.963
 3937SOL    HW212711   0.626   6.143   3.071
 3938SOL     OW12712   6.865   3.381   4.242
 3938SOL    HW112713   6.823   3.313   4.182
 3938SOL    HW212714   6.797   3.416   4.307
 3939SOL     OW12715   2.417   1.663   3.696
 3939SOL    HW112716   2.322   1.690   3.686
 3939SOL    HW212717   2.422   1.573   3.740
 3940SOL     OW12718   3.006   4.816   2.095
 3940SOL    HW112719   2.943   4.753   2.049
 3940SOL    HW212720   3.099   4.798   2.064
 3941SOL     OW12721   5.933   6.785   4.034
 3941SOL    HW112722   5.955   6.868   3.981
 3941SOL    HW212723   5.859   6.806   4.098
 3942SOL     OW12724   0.837   6.297   5.394
 3942SOL    HW112725   0.739   6.310   5.377
 3942SOL    HW212726   0.879   6.252   5.316
 3943SOL     OW12727   1.136   3.224   1.581
 3943SOL    HW112728   1.191   3.173   1.648
 3943SOL    HW212729   1.058   3.168   1.554
 3944SOL     OW12730   5.755   3.607   5.589
 3944SOL    HW112731   5.755   3.553   5.673
 3944SOL    HW212732   5.675   3.667   5.587
 3945SOL     OW12733   0.853   2.467   3.253
 3945SOL    HW112734   0.780   2.497   3.314
 3945SOL    HW212735   0.833   2.374   3.220
 3946SOL     OW12736   0.329   3.951   0.050
 3946SOL    HW112737   0.421   3.940   0.089
 3946SOL    HW212738   0.287   4.033   0.089
 3947SOL     OW12739   6.238   5.471   0.041
 3947SOL    HW112740   6.148   5.429   0.055
 3947SOL    HW212741   6.306   5.420   0.093
 3948SOL     OW12742   1.255   3.419   6.926
 3948SOL    HW112743   1.283   3.408   7.022
 3948SOL    HW212744   1.281   3.510   6.894
 3949SOL     OW12745   6.434   0.354   3.267
 3949SOL    HW112746   6.456   0.381   3.361
 3949SOL    HW212747   6.519   0.338   3.216
 3950SOL     OW12748   4.234   4.119   1.689
 3950SOL    HW112749   4.319   4.148   1.733
 3950SOL    HW212750   4.192   4.047   1.743
 3951SOL     OW12751   0.330   1.939   6.889
 3951SOL    HW112752   0.262   1.869   6.868
 3951SOL    HW212753   0.371   1.974   6.804
 3952SOL     OW12754   6.222   3.182   4.144
 3952SOL    HW112755   6.152   3.225   4.088
 3952SOL    HW212756   6.201   3.084   4.154
 3953SOL     OW12757   3.151   4.506   5.886
 3953SOL    HW112758   3.195   4.490   5.798
 3953SOL    HW212759   3.064   4.554   5.872
 3954SOL     OW12760   5.998   4.640   5.707
 3954SOL    HW112761   5.953   4.654   5.795
 3954SOL    HW212762   5.935   4.664   5.633
 3955SOL     OW12763   4.427   6.568   0.416
 3955SOL    HW112764   4.403   6.567   0.319
 3955SOL    HW212765   4.526   6.566   0.426
 3956SOL     OW12766   0.758   2.760   5.443
 3956SOL    HW112767   0.735   2.857   5.444
 3956SOL    HW212768   0.857   2.749   5.429
 3957SOL     OW12769   3.168   5.839   3.865
 3957SOL    HW112770   3.230   5.771   3.904
 3957SOL    HW212771   3.129   5.803   3.780
 3958SOL     OW12772   5.561   6.453   0.170
 3958SOL    HW112773   5.572   6.551   0.158
 3958SOL    HW212774   5.640   6.405   0.131
 3959SOL     OW12775   3.389   6.007   1.288
 3959SOL    HW112776   3.434   6.092   1.263
 3959SOL    HW212777   3.333   5.974   1.212
 3960SOL     OW12778   5.077   2.585   6.298
 3960SOL    HW112779   5.113   2.656   6.358
 3960SOL    HW212780   4.987   2.557   6.329
 3961SOL     OW12781   5.124   1.940   1.776
 3961SOL    HW112782   5.102   1.930   1.873
 3961SOL    HW212783   5.118   1.851   1.731
 3962SOL     OW12784   0.677   6.129   6.782
 3962SOL    HW112785   0.716   6.061   6.844
 3962SOL    HW212786   0.750   6.185   6.743
 3963SOL     OW12787   6.011   5.616   3.417
 3963SOL    HW112788   6.072   5.654   3.348
 3963SOL    HW212789   5.927   5.670   3.420
 3964SOL     OW12790   4.573   5.422   5.247
 3964SOL    HW112791   4.652   5.379   5.291
 3964SOL    HW212792   4.580   5.410   5.148
 3965SOL     OW12793   3.470   4.825   6.081
 3965SOL    HW112794   3.393   4.764   6.063
 3965SOL    HW212795   3.537   4.817   6.008
 3966SOL     OW12796   6.449   4.798   6.509
 3966SOL    HW112797   6.360   4.843   6.501
 3966SOL    HW212798   6.520   4.859   6.473
 3967SOL     OW12799   0.813   5.072   3.329
 3967SOL    HW112800   0.815   4.972   3.333
 3967SOL    HW212801   0.721   5.102   3.303
 3968SOL     OW12802   5.328   0.404   2.429
 3968SOL    HW112803   5.262   0.476   2.407
 3968SOL    HW212804   5.291   0.315   2.405
 3969SOL     OW12805   1.104   4.634   2.609
 3969SOL    HW112806   1.108   4.734   2.609
 3969SOL    HW212807   1.014   4.604   2.640
 3970SOL     OW12808   4.847   5.061   3.504
 3970SOL    HW112809   4.885   5.091   3.417
 3970SOL    HW212810   4.748   5.080   3.506
 3971SOL     OW12811   2.932   5.091   2.764
 3971SOL    HW112812   2.939   5.188   2.744
 3971SOL    HW212813   2.914   5.041   2.680
 3972SOL     OW12814   0.348   5.805   0.560
 3972SOL    HW112815   0.254   5.787   0.533
 3972SOL    HW212816   0.381   5.887   0.514
 3973SOL     OW12817   3.366   3.452   4.787
 3973SOL    HW112818   3.382   3.550   4.779
 3973SOL    HW212819   3.379   3.424   4.881
 3974SOL     OW12820   0.458   0.600   6.287
 3974SOL    HW112821   0.529   0.660   6.252
 3974SOL    HW212822   0.452   0.611   6.387
 3975SOL     OW12823   6.798   0.443   5.793
 3975SOL    HW112824   6.799   0.396   5.880
 3975SOL    HW212825   6.860   0.522   5.797
 3976SOL     OW12826   0.965   5.047   1.291
 3976SOL    HW112827   0.942   5.011   1.201
 3976SOL    HW212828   0.948   4.977   1.360
 3977SOL     OW12829   3.080   5.108   6.025
 3977SOL    HW112830   3.165   5.106   6.079
 3977SOL    HW212831   3.008   5.062   6.076
 3978SOL     OW12832   5.391   1.191   4.678
 3978SOL    HW112833   5.362   1.126   4.748
 3978SOL    HW212834   5.491   1.187   4.668
 3979SOL     OW12835   1.732   6.613   1.694
 3979SOL    HW112836   1.734   6.583   1.599
 3979SOL    HW212837   1.638   6.610   1.728
 3980SOL     OW12838   6.580   3.715   5.301
 3980SOL    HW112839   6.615   3.624   5.324
 3980SOL    HW212840   6.590   3.775   5.380
 3981SOL     OW12841   0.528   1.432   6.171
 3981SOL    HW112842   0.482   1.378   6.100
 3981SOL    HW212843   0.486   1.523   6.176
 3982SOL     OW12844   2.602   0.633   4.492
 3982SOL    HW112845   2.534   0.581   4.440
 3982SOL    HW212846   2.555   0.698   4.552
 3983SOL     OW12847   3.124   6.007   4.670
 3983SOL    HW112848   3.206   6.061   4.690
 3983SOL    HW212849   3.131   5.919   4.716
 3984SOL     OW12850   1.693   0.075   1.829
 3984SOL    HW112851   1.751   0.006   1.786
 3984SOL    HW212852   1.742   0.162   1.832
 3985SOL     OW12853   2.287   3.598   6.898
 3985SOL    HW112854   2.375   3.552   6.883
 3985SOL    HW212855   2.303   3.686   6.941
 3986SOL     OW12856   0.326   1.460   2.803
 3986SOL    HW112857   0.301   1.476   2.707
 3986SOL    HW212858   0.426   1.453   2.810
 3987SOL     OW12859   1.529   5.203   4.948
 3987SOL    HW112860   1.546   5.134   5.018
 3987SOL    HW212861   1.531   5.160   4.858
 3988SOL     OW12862   3.792   1.746   5.950
 3988SOL    HW112863   3.721   1.794   5.900
 3988SOL    HW212864   3.753   1.704   6.032
 3989SOL     OW12865   5.990   0.453   5.813
 3989SOL    HW112866   5.934   0.525   5.771
 3989SOL    HW212867   6.079   0.490   5.837
 3990SOL     OW12868   5.413   2.163   4.312
 3990SOL    HW112869   5.352   2.240   4.299
 3990SOL    HW212870   5.387   2.113   4.395
 3991SOL     OW12871   6.643   2.510   3.161
 3991SOL    HW112872   6.714   2.531   3.228
 3991SOL    HW212873   6.670   2.545   3.072
 3992SOL     OW12874   4.679   3.020   6.597
 3992SOL    HW112875   4.587   3.051   6.620
 3992SOL    HW212876   4.681   2.984   6.504
 3993SOL     OW12877   2.612   2.044   3.406
 3993SOL    HW112878   2.584   2.112   3.337
 3993SOL    HW212879   2.624   1.955   3.362
 3994SOL     OW12880   2.089   2.768   4.869
 3994SOL    HW112881   2.088   2.867   4.851
 3994SOL    HW212882   2.124   2.752   4.961
 3995SOL     OW12883   2.672   4.809   3.984
 3995SOL    HW112884   2.586   4.853   4.011
 3995SOL    HW212885   2.652   4.723   3.938
 3996SOL     OW12886   1.977   1.210   4.988
 3996SOL    HW112887   1.982   1.303   5.023
 3996SOL    HW212888   1.881   1.181   4.983
 3997SOL     OW12889   5.022   3.715   3.286
 3997SOL    HW112890   5.078   3.797   3.301
 3997SOL    HW212891   4.954   3.733   3.215
 3998SOL     OW12892   5.520   2.123   2.186
 3998SOL    HW112893   5.609   2.099   2.148
 3998SOL    HW212894   5.471   2.182   2.122
 3999SOL     OW12895   5.993   4.038   3.673
 3999SOL    HW112896   6.070   4.055   3.735
 3999SOL    HW212897   5.949   3.952   3.698
 4000SOL     OW12898   3.103   5.357   2.789
 4000SOL    HW112899   3.070   5.300   2.865
 4000SOL    HW212900   3.181   5.312   2.745
 4001SOL     OW12901   2.297   3.470   5.254
 4001SOL    HW112902   2.385   3.469   5.302
 4001SOL    HW212903   2.266   3.565   5.245
 4002SOL     OW12904   3.631   3.653   4.988
 4002SOL    HW112905   3.712   3.601   4.961
 4002SOL    HW212906   3.647   3.697   5.076
 4003SOL     OW12907   2.301   1.198   6.310
 4003SOL    HW112908   2.331   1.273   6.251
 4003SOL    HW212909   2.320   1.110   6.266
 4004SOL     OW12910   6.488   2.996   4.737
 4004SOL    HW112911   6.566   2.937   4.720
 4004SOL    HW212912   6.404   2.951   4.707
 4005SOL     OW12913   5.073   4.549   1.549
 4005SOL    HW112914   5.061   4.450   1.543
 4005SOL    HW212915   5.116   4.582   1.464
 4006SOL     OW12916   5.781   4.657   2.396
 4006SOL    HW112917   5.779   4.633   2.494
 4006SOL    HW212918   5.737   4.746   2.383
 4007SOL     OW12919   0.236   2.254   2.968
 4007SOL    HW112920   0.289   2.169   2.973
 4007SOL    HW212921   0.288   2.322   2.916
 4008SOL     OW12922   3.484   1.063   6.083
 4008SOL    HW112923   3.544   1.138   6.055
 4008SOL    HW212924   3.463   1.006   6.004
 4009SOL     OW12925   4.321   2.160   1.119
 4009SOL    HW112926   4.232   2.115   1.111
 4009SOL    HW212927   4.382   2.127   1.046
 4010SOL     OW12928   2.879   3.359   1.626
 4010SOL    HW112929   2.790   3.349   1.670
 4010SOL    HW212930   2.895   3.281   1.565
 4011SOL     OW12931   0.144   6.569   1.629
 4011SOL    HW112932   0.066   6.553   1.691
 4011SOL    HW212933   0.177   6.662   1.641
 4012SOL     OW12934   4.376   6.392   2.119
 4012SOL    HW112935   4.431   6.427   2.195
 4012SOL    HW212936   4.321   6.315   2.150
 4013SOL     OW12937   2.050   0.500   1.349
 4013SOL    HW112938   2.135   0.494   1.298
 4013SOL    HW212939   1.974   0.467   1.291
 4014SOL     OW12940   3.510   5.900   3.717
 4014SOL    HW112941   3.442   5.937   3.780
 4014SOL    HW212942   3.538   5.809   3.747
 4015SOL     OW12943   4.273   4.548   6.865
 4015SOL    HW112944   4.278   4.542   6.766
 4015SOL    HW212945   4.179   4.571   6.893
 4016SOL     OW12946   2.240   5.833   6.918
 4016SOL    HW112947   2.188   5.817   6.834
 4016SOL    HW212948   2.338   5.823   6.900
 4017SOL     OW12949   0.907   6.096   6.005
 4017SOL    HW112950   0.966   6.049   5.940
 4017SOL    HW212951   0.958   6.116   6.089
 4018SOL     OW12952   4.996   6.220   1.372
 4018SOL    HW112953   4.978   6.127   1.404
 4018SOL    HW212954   5.094   6.237   1.372
 4019SOL     OW12955   5.973   4.252   2.934
 4019SOL    HW112956   5.886   4.258   2.885
 4019SOL    HW212957   5.999   4.342   2.967
 4020SOL     OW12958   6.560   3.347   5.796
 4020SOL    HW112959   6.657   3.336   5.816
 4020SOL    HW212960   6.540   3.312   5.704
 4021SOL     OW12961   3.627   4.384   5.282
 4021SOL    HW112962   3.704   4.367   5.221
 4021SOL    HW212963   3.639   4.332   5.367
 4022SOL     OW12964   4.192   0.176   6.975
 4022SOL    HW112965   4.152   0.088   6.950
 4022SOL    HW212966   4.283   0.184   6.934
 4023SOL     OW12967   0.354   0.466   5.132
 4023SOL    HW112968   0.405   0.472   5.046
 4023SOL    HW212969   0.320   0.373   5.143
 4024SOL     OW12970   2.413   5.292   4.572
 4024SOL    HW112971   2.351   5.234   4.521
 4024SOL    HW212972   2.422   5.258   4.666
 4025SOL     OW12973   1.070   6.054   4.025
 4025SOL    HW112974   0.995   6.046   4.090
 4025SOL    HW212975   1.035   6.036   3.932
 4026SOL     OW12976   6.108   6.655   3.468
 4026SOL    HW112977   6.058   6.594   3.406
 4026SOL    HW212978   6.092   6.626   3.562
 4027SOL     OW12979   3.023   2.163   0.135
 4027SOL    HW112980   3.026   2.212   0.048
 4027SOL    HW212981   3.000   2.067   0.118
 4028SOL     OW12982   4.019   1.759   3.591
 4028SOL    HW112983   3.989   1.666   3.610
 4028SOL    HW212984   4.089   1.786   3.656
 4029SOL     OW12985   2.865   4.578   5.823
 4029SOL    HW112986   2.871   4.551   5.727
 4029SOL    HW212987   2.812   4.662   5.831
 4030SOL     OW12988   0.270   1.597   1.755
 4030SOL    HW112989   0.278   1.511   1.805
 4030SOL    HW212990   0.287   1.582   1.658
 4031SOL     OW12991   5.297   5.988   3.735
 4031SOL    HW112992   5.204   5.964   3.707
 4031SOL    HW212993   5.310   5.966   3.832
 4032SOL     OW12994   6.832   0.122   1.876
 4032SOL    HW112995   6.919   0.145   1.920
 4032SOL    HW212996   6.776   0.068   1.940
 4033SOL     OW12997   2.378   3.047   1.403
 4033SOL    HW112998   2.286   3.066   1.437
 4033SOL    HW212999   2.419   2.972   1.456
 4034SOL     OW13000   6.089   1.892   4.686
 4034SOL    HW113001   6.041   1.868   4.770
 4034SOL    HW213002   6.172   1.943   4.709
 4035SOL     OW13003   6.489   1.976   1.080
 4035SOL    HW113004   6.524   1.945   0.991
 4035SOL    HW213005   6.398   1.936   1.095
 4036SOL     OW13006   4.193   5.642   2.288
 4036SOL    HW113007   4.145   5.562   2.324
 4036SOL    HW213008   4.153   5.670   2.201
 4037SOL     OW13009   2.042   1.481   6.951
 4037SOL    HW113010   2.004   1.562   6.995
 4037SOL    HW213011   1.989   1.400   6.978
 4038SOL     OW13012   4.560   3.181   1.443
 4038SOL    HW113013   4.639   3.169   1.503
 4038SOL    HW213014   4.475   3.172   1.496
 4039SOL     OW13015   6.121   5.281   1.361
 4039SOL    HW113016   6.173   5.349   1.413
 4039SOL    HW213017   6.112   5.197   1.416
 4040SOL     OW13018   3.735   0.264   6.113
 4040SOL    HW113019   3.677   0.300   6.187
 4040SOL    HW213020   3.792   0.338   6.077
 4041SOL     OW13021   0.913   5.128   1.589
 4041SOL    HW113022   0.942   5.195   1.520
 4041SOL    HW213023   0.834   5.077   1.555
 4042SOL     OW13024   6.007   5.700   3.003
 4042SOL    HW113025   6.059   5.726   3.085
 4042SOL    HW213026   6.013   5.601   2.991
 4043SOL     OW13027   6.903   2.276   5.097
 4043SOL    HW113028   6.878   2.290   5.193
 4043SOL    HW213029   6.998   2.245   5.091
 4044SOL     OW13030   4.478   6.997   3.450
 4044SOL    HW113031   4.459   6.901   3.473
 4044SOL    HW213032   4.447   7.015   3.357
 4045SOL     OW13033   3.674   6.115   5.296
 4045SOL    HW113034   3.676   6.029   5.347
 4045SOL    HW213035   3.689   6.192   5.359
 4046SOL     OW13036   1.382   1.780   4.144
 4046SOL    HW113037   1.470   1.763   4.101
 4046SOL    HW213038   1.384   1.744   4.238
 4047SOL     OW13039   1.944   2.213   0.404
 4047SOL    HW113040   1.911   2.120   0.419
 4047SOL    HW213041   1.916   2.271   0.481
 4048SOL     OW13042   4.798   1.739   1.940
 4048SOL    HW113043   4.775   1.803   2.013
 4048SOL    HW213044   4.809   1.789   1.854
 4049SOL     OW13045   5.774   4.979   6.312
 4049SOL    HW113046   5.791   5.027   6.226
 4049SOL    HW213047   5.691   4.923   6.303
 4050SOL     OW13048   1.399   6.904   2.086
 4050SOL    HW113049   1.442   6.817   2.063
 4050SOL    HW213050   1.362   6.946   2.003
 4051SOL     OW13051   4.215   1.962   6.970
 4051SOL    HW113052   4.179   1.897   6.903
 4051SOL    HW213053   4.272   1.914   0.014
 4052SOL     OW13054   6.397   1.485   2.631
 4052SOL    HW113055   6.465   1.449   2.695
 4052SOL    HW213056   6.429   1.573   2.594
 4053SOL     OW13057   2.907   5.574   3.757
 4053SOL    HW113058   2.858   5.623   3.829
 4053SOL    HW213059   2.994   5.541   3.794
 4054SOL     OW13060   6.324   4.096   1.780
 4054SOL    HW113061   6.231   4.129   1.763
 4054SOL    HW213062   6.389   4.153   1.731
 4055SOL     OW13063   2.912   3.383   0.249
 4055SOL    HW113064   2.860   3.315   0.196
 4055SOL    HW213065   2.876   3.386   0.342
 4056SOL     OW13066   4.016   4.050   0.376
 4056SOL    HW113067   3.980   4.143   0.383
 4056SOL    HW213068   4.040   4.032   0.280
 4057SOL     OW13069   6.445   3.122   1.409
 4057SOL    HW113070   6.458   3.045   1.347
 4057SOL    HW213071   6.533   3.166   1.426
 4058SOL     OW13072   1.720   0.190   4.565
 4058SOL    HW113073   1.676   0.234   4.487
 4058SOL    HW213074   1.751   0.260   4.630
 4059SOL     OW13075   1.192   1.853   2.925
 4059SOL    HW113076   1.185   1.952   2.914
 4059SOL    HW213077   1.208   1.811   2.836
 4060SOL     OW13078   5.448   5.749   5.149
 4060SOL    HW113079   5.363   5.747   5.201
 4060SOL    HW213080   5.457   5.665   5.095
 4061SOL     OW13081   2.887   4.787   2.373
 4061SOL    HW113082   2.953   4.809   2.300
 4061SOL    HW213083   2.801   4.757   2.332
 4062SOL     OW13084   2.031   1.900   2.146
 4062SOL    HW113085   1.945   1.884   2.193
 4062SOL    HW213086   2.026   1.985   2.094
 4063SOL     OW13087   6.116   6.458   6.767
 4063SOL    HW113088   6.078   6.403   6.692
 4063SOL    HW213089   6.125   6.400   6.849
 4064SOL     OW13090   2.740   0.423   3.902
 4064SOL    HW113091   2.692   0.352   3.953
 4064SOL    HW213092   2.714   0.513   3.937
 4065SOL     OW13093   0.789   6.972   1.036
 4065SOL    HW113094   0.714   7.000   1.096
 4065SOL    HW213095   0.871   0.002   1.059
 4066SOL     OW13096   5.345   5.129   3.931
 4066SOL    HW113097   5.386   5.094   3.847
 4066SOL    HW213098   5.370   5.071   4.007
 4067SOL     OW13099   6.355   3.161   2.921
 4067SOL    HW113100   6.269   3.133   2.878
 4067SOL    HW213101   6.344   3.163   3.020
 4068SOL     OW13102   2.094   1.482   4.546
 4068SOL    HW113103   2.120   1.516   4.455
 4068SOL    HW213104   2.176   1.468   4.601
 4069SOL     OW13105   2.272   4.941   6.353
 4069SOL    HW113106   2.181   4.971   6.326
 4069SOL    HW213107   2.265   4.860   6.411
 4070SOL     OW13108   0.157   3.624   2.373
 4070SOL    HW113109   0.173   3.619   2.275
 4070SOL    HW213110   0.058   3.622   2.390
 4071SOL     OW13111   1.662   0.767   5.620
 4071SOL    HW113112   1.592   0.800   5.558
 4071SOL    HW213113   1.750   0.806   5.595
 4072SOL     OW13114   0.240   5.529   4.500
 4072SOL    HW113115   0.223   5.482   4.587
 4072SOL    HW213116   0.288   5.615   4.517
 4073SOL     OW13117   2.472   6.275   6.268
 4073SOL    HW113118   2.459   6.253   6.365
 4073SOL    HW213119   2.568   6.263   6.243
 4074SOL     OW13120   6.803   3.590   1.955
 4074SOL    HW113121   6.840   3.621   2.042
 4074SOL    HW213122   6.814   3.491   1.947
 4075SOL     OW13123   3.933   1.710   1.776
 4075SOL    HW113124   3.931   1.798   1.824
 4075SOL    HW213125   3.901   1.723   1.682
 4076SOL     OW13126   2.568   2.704   5.433
 4076SOL    HW113127   2.523   2.678   5.518
 4076SOL    HW213128   2.500   2.728   5.365
 4077SOL     OW13129   2.996   0.741   0.407
 4077SOL    HW113130   2.999   0.647   0.374
 4077SOL    HW213131   3.034   0.802   0.338
 4078SOL     OW13132   0.471   5.665   1.616
 4078SOL    HW113133   0.558   5.622   1.638
 4078SOL    HW213134   0.480   5.764   1.621
 4079SOL     OW13135   1.096   1.717   4.163
 4079SOL    HW113136   1.094   1.700   4.064
 4079SOL    HW213137   1.188   1.701   4.197
 4080SOL     OW13138   3.457   4.579   6.662
 4080SOL    HW113139   3.519   4.628   6.724
 4080SOL    HW213140   3.510   4.537   6.589
 4081SOL     OW13141   1.832   2.679   4.966
 4081SOL    HW113142   1.786   2.625   4.895
 4081SOL    HW213143   1.927   2.693   4.940
 4082SOL     OW13144   1.545   2.973   0.747
 4082SOL    HW113145   1.573   2.986   0.652
 4082SOL    HW213146   1.594   2.894   0.786
 4083SOL     OW13147   0.029   4.633   2.037
 4083SOL    HW113148   0.104   4.581   2.078
 4083SOL    HW213149   7.010   4.579   1.964
 4084SOL     OW13150   4.736   2.382   3.519
 4084SOL    HW113151   4.763   2.291   3.551
 4084SOL    HW213152   4.757   2.391   3.422
 4085SOL     OW13153   2.105   6.169   0.924
 4085SOL    HW113154   2.006   6.175   0.921
 4085SOL    HW213155   2.134   6.138   1.015
 4086SOL     OW13156   1.428   5.405   1.764
 4086SOL    HW113157   1.378   5.423   1.679
 4086SOL    HW213158   1.388   5.458   1.838
 4087SOL     OW13159   1.959   1.315   3.331
 4087SOL    HW113160   1.952   1.364   3.244
 4087SOL    HW213161   1.947   1.379   3.406
 4088SOL     OW13162   6.597   0.768   6.735
 4088SOL    HW113163   6.513   0.796   6.688
 4088SOL    HW213164   6.622   0.676   6.707
 4089SOL     OW13165   5.790   5.438   4.219
 4089SOL    HW113166   5.743   5.379   4.153
 4089SOL    HW213167   5.722   5.489   4.272
 4090SOL     OW13168   1.530   5.565   5.284
 4090SOL    HW113169   1.471   5.554   5.204
 4090SOL    HW213170   1.545   5.662   5.301
 4091SOL     OW13171   6.625   6.531   6.811
 4091SOL    HW113172   6.612   6.622   6.851
 4091SOL    HW213173   6.721   6.506   6.816
 4092SOL     OW13174   5.851   2.427   5.092
 4092SOL    HW113175   5.786   2.491   5.134
 4092SOL    HW213176   5.804   2.374   5.021
 4093SOL     OW13177   4.616   5.534   2.157
 4093SOL    HW113178   4.567   5.448   2.170
 4093SOL    HW213179   4.671   5.529   2.074
 4094SOL     OW13180   2.021   5.528   5.708
 4094SOL    HW113181   2.088   5.505   5.637
 4094SOL    HW213182   1.945   5.579   5.666
 4095SOL     OW13183   1.074   3.280   0.598
 4095SOL    HW113184   1.138   3.234   0.537
 4095SOL    HW213185   0.998   3.318   0.545
 4096SOL     OW13186   4.570   6.950   6.203
 4096SOL    HW113187   4.502   6.981   6.137
 4096SOL    HW213188   4.592   6.854   6.185
 4097SOL     OW13189   4.101   4.852   4.796
 4097SOL    HW113190   4.191   4.808   4.799
 4097SOL    HW213191   4.060   4.837   4.706
 4098SOL     OW13192   6.667   2.581   1.750
 4098SOL    HW113193   6.693   2.512   1.682
 4098SOL    HW213194   6.567   2.590   1.751
 4099SOL     OW13195   3.196   5.113   1.132
 4099SOL    HW113196   3.112   5.164   1.113
 4099SOL    HW213197   3.195   5.028   1.081
 4100SOL     OW13198   6.681   0.070   4.655
 4100SOL    HW113199   6.641   0.077   4.747
 4100SOL    HW213200   6.777   0.044   4.663
 4101SOL     OW13201   6.341   1.174   6.671
 4101SOL    HW113202   6.379   1.125   6.592
 4101SOL    HW213203   6.253   1.133   6.696
 4102SOL     OW13204   0.632   0.877   0.497
 4102SOL    HW113205   0.580   0.803   0.538
 4102SOL    HW213206   0.703   0.839   0.437
 4103SOL     OW13207   6.961   6.849   0.069
 4103SOL    HW113208   6.929   6.873   0.161
 4103SOL    HW213209   0.009   6.913   0.040
 4104SOL     OW13210   7.016   4.773   2.739
 4104SOL    HW113211   6.921   4.794   2.717
 4104SOL    HW213212   0.054   4.828   2.682
 4105SOL     OW13213   5.271   6.982   1.623
 4105SOL    HW113214   5.283   6.932   1.537
 4105SOL    HW213215   5.190   6.948   1.671
 4106SOL     OW13216   6.052   3.226   2.783
 4106SOL    HW113217   5.979   3.291   2.802
 4106SOL    HW213218   6.020   3.133   2.804
 4107SOL     OW13219   0.899   4.922   1.030
 4107SOL    HW113220   0.855   4.833   1.037
 4107SOL    HW213221   0.966   4.921   0.956
 4108SOL     OW13222   6.074   4.922   5.514
 4108SOL    HW113223   5.991   4.866   5.509
 4108SOL    HW213224   6.150   4.865   5.545
 4109SOL     OW13225   6.044   0.071   4.896
 4109SOL    HW113226   5.984   0.095   4.820
 4109SOL    HW213227   5.992   0.016   4.963
 4110SOL     OW13228   4.569   3.480   6.155
 4110SOL    HW113229   4.609   3.456   6.067
 4110SOL    HW213230   4.480   3.436   6.164
 4111SOL     OW13231   5.227   3.714   0.333
 4111SOL    HW113232   5.182   3.796   0.367
 4111SOL    HW213233   5.258   3.658   0.410
 4112SOL     OW13234   4.809   6.303   4.763
 4112SOL    HW113235   4.747   6.332   4.836
 4112SOL    HW213236   4.769   6.226   4.714
 4113SOL     OW13237   5.028   6.219   4.927
 4113SOL    HW113238   5.032   6.287   5.000
 4113SOL    HW213239   4.963   6.249   4.857
 4114SOL     OW13240   3.542   2.160   4.518
 4114SOL    HW113241   3.448   2.180   4.547
 4114SOL    HW213242   3.543   2.143   4.419
 4115SOL     OW13243   3.343   5.314   1.932
 4115SOL    HW113244   3.269   5.249   1.913
 4115SOL    HW213245   3.332   5.351   2.024
 4116SOL     OW13246   3.103   0.883   2.627
 4116SOL    HW113247   3.090   0.976   2.593
 4116SOL    HW213248   3.022   0.828   2.608
 4117SOL     OW13249   1.595   4.092   2.332
 4117SOL    HW113250   1.517   4.042   2.293
 4117SOL    HW213251   1.561   4.164   2.393
 4118SOL     OW13252   3.899   6.366   6.992
 4118SOL    HW113253   3.809   6.410   6.990
 4118SOL    HW213254   3.912   6.321   0.058
 4119SOL     OW13255   2.861   1.946   3.781
 4119SOL    HW113256   2.909   1.917   3.864
 4119SOL    HW213257   2.783   1.885   3.765
 4120SOL     OW13258   3.697   1.195   6.603
 4120SOL    HW113259   3.676   1.221   6.509
 4120SOL    HW213260   3.621   1.141   6.641
 4121SOL     OW13261   5.608   1.244   4.357
 4121SOL    HW113262   5.671   1.168   4.345
 4121SOL    HW213263   5.527   1.229   4.300
 4122SOL     OW13264   1.210   5.512   4.386
 4122SOL    HW113265   1.114   5.485   4.379
 4122SOL    HW213266   1.225   5.560   4.473
 4123SOL     OW13267   4.259   4.491   5.549
 4123SOL    HW113268   4.167   4.452   5.553
 4123SOL    HW213269   4.303   4.482   5.639
 4124SOL     OW13270   0.061   6.067   0.430
 4124SOL    HW113271   7.012   6.137   0.432
 4124SOL    HW213272   0.089   6.046   0.524
 4125SOL     OW13273   5.112   1.640   2.039
 4125SOL    HW113274   5.107   1.634   1.939
 4125SOL    HW213275   5.091   1.733   2.068
 4126SOL     OW13276   1.536   3.447   4.331
 4126SOL    HW113277   1.451   3.499   4.335
 4126SOL    HW213278   1.610   3.507   4.303
 4127SOL     OW13279   4.930   4.859   5.100
 4127SOL    HW113280   4.873   4.796   5.153
 4127SOL    HW213281   4.944   4.943   5.153
 4128SOL     OW13282   1.112   2.588   1.489
 4128SOL    HW113283   1.183   2.655   1.466
 4128SOL    HW213284   1.022   2.626   1.467
 4129SOL     OW13285   3.797   1.503   5.778
 4129SOL    HW113286   3.886   1.458   5.770
 4129SOL    HW213287   3.807   1.584   5.837
 4130SOL     OW13288   6.447   3.509   6.910
 4130SOL    HW113289   6.503   3.454   6.971
 4130SOL    HW213290   6.384   3.448   6.860
 4131SOL     OW13291   0.649   0.819   3.673
 4131SOL    HW113292   0.672   0.739   3.728
 4131SOL    HW213293   0.575   0.870   3.717
 4132SOL     OW13294   5.089   4.352   3.522
 4132SOL    HW113295   5.168   4.346   3.583
 4132SOL    HW213296   5.005   4.339   3.575
 4133SOL     OW13297   2.775   5.664   0.556
 4133SOL    HW113298   2.752   5.645   0.652
 4133SOL    HW213299   2.694   5.698   0.508
 4134SOL     OW13300   2.363   3.655   0.895
 4134SOL    HW113301   2.331   3.617   0.808
 4134SOL    HW213302   2.390   3.580   0.955
 4135SOL     OW13303   1.356   1.721   2.695
 4135SOL    HW113304   1.405   1.754   2.776
 4135SOL    HW213305   1.403   1.640   2.659
 4136SOL     OW13306   1.378   2.332   3.546
 4136SOL    HW113307   1.305   2.398   3.561
 4136SOL    HW213308   1.456   2.377   3.502
 4137SOL     OW13309   1.254   4.502   0.986
 4137SOL    HW113310   1.180   4.496   1.054
 4137SOL    HW213311   1.311   4.581   1.007
 4138SOL     OW13312   5.046   5.335   2.991
 4138SOL    HW113313   5.036   5.303   2.897
 4138SOL    HW213314   5.030   5.434   2.995
 4139SOL     OW13315   1.914   1.764   5.957
 4139SOL    HW113316   1.822   1.782   5.922
 4139SOL    HW213317   1.926   1.810   6.045
 4140SOL     OW13318   3.554   0.372   5.281
 4140SOL    HW113319   3.556   0.305   5.208
 4140SOL    HW213320   3.462   0.410   5.289
 4141SOL     OW13321   6.024   6.305   0.934
 4141SOL    HW113322   6.104   6.259   0.973
 4141SOL    HW213323   6.046   6.339   0.843
 4142SOL     OW13324   6.542   5.004   1.499
 4142SOL    HW113325   6.633   5.018   1.461
 4142SOL    HW213326   6.527   4.907   1.516
 4143SOL     OW13327   5.761   1.528   0.559
 4143SOL    HW113328   5.676   1.533   0.612
 4143SOL    HW213329   5.743   1.555   0.465
 4144SOL     OW13330   4.798   3.402   0.243
 4144SOL    HW113331   4.702   3.376   0.232
 4144SOL    HW213332   4.857   3.330   0.209
 4145SOL     OW13333   6.849   6.192   1.497
 4145SOL    HW113334   6.936   6.143   1.484
 4145SOL    HW213335   6.867   6.291   1.498
 4146SOL     OW13336   6.626   0.651   3.448
 4146SOL    HW113337   6.697   0.697   3.395
 4146SOL    HW213338   6.542   0.706   3.447
 4147SOL     OW13339   5.252   3.806   6.585
 4147SOL    HW113340   5.251   3.743   6.663
 4147SOL    HW213341   5.159   3.812   6.547
 4148SOL     OW13342   1.380   0.463   5.354
 4148SOL    HW113343   1.462   0.465   5.411
 4148SOL    HW213344   1.395   0.404   5.275
 4149SOL     OW13345   0.081   3.271   0.450
 4149SOL    HW113346   0.048   3.349   0.504
 4149SOL    HW213347   0.021   3.256   0.372
 4150SOL     OW13348   1.303   0.847   5.740
 4150SOL    HW113349   1.240   0.905   5.688
 4150SOL    HW213350   1.278   0.751   5.728
 4151SOL     OW13351   2.437   5.781   6.223
 4151SOL    HW113352   2.479   5.706   6.172
 4151SOL    HW213353   2.456   5.867   6.177
 4152SOL     OW13354   4.774   5.889   0.781
 4152SOL    HW113355   4.753   5.965   0.841
 4152SOL    HW213356   4.869   5.897   0.749
 4153SOL     OW13357   4.444   5.549   6.852
 4153SOL    HW113358   4.400   5.581   6.935
 4153SOL    HW213359   4.490   5.626   6.806
 4154SOL     OW13360   6.952   5.226   3.379
 4154SOL    HW113361   6.992   5.289   3.445
 4154SOL    HW213362   6.885   5.274   3.323
 4155SOL     OW13363   1.465   0.916   2.911
 4155SOL    HW113364   1.372   0.947   2.929
 4155SOL    HW213365   1.528   0.957   2.978
 4156SOL     OW13366   5.053   5.974   5.049
 4156SOL    HW113367   5.094   5.906   4.989
 4156SOL    HW213368   5.042   6.061   5.001
 4157SOL     OW13369   4.772   5.315   3.954
 4157SOL    HW113370   4.785   5.271   3.865
 4157SOL    HW213371   4.861   5.322   4.000
 4158SOL     OW13372   0.553   4.094   1.779
 4158SOL    HW113373   0.647   4.058   1.786
 4158SOL    HW213374   0.512   4.062   1.694
 4159SOL     OW13375   1.863   3.605   3.710
 4159SOL    HW113376   1.803   3.536   3.750
 4159SOL    HW213377   1.818   3.649   3.632
 4160SOL     OW13378   5.929   1.173   1.043
 4160SOL    HW113379   5.880   1.184   1.130
 4160SOL    HW213380   6.002   1.106   1.055
 4161SOL     OW13381   1.048   1.470   0.663
 4161SOL    HW113382   1.067   1.521   0.747
 4161SOL    HW213383   1.039   1.373   0.685
 4162SOL     OW13384   0.011   6.241   6.454
 4162SOL    HW113385   7.009   6.261   6.359
 4162SOL    HW213386   0.110   6.230   6.461
 4163SOL     OW13387   5.032   6.593   3.345
 4163SOL    HW113388   5.073   6.683   3.329
 4163SOL    HW213389   5.029   6.541   3.259
 4164SOL     OW13390   1.751   6.619   5.871
 4164SOL    HW113391   1.701   6.705   5.865
 4164SOL    HW213392   1.840   6.636   5.913
 4165SOL     OW13393   4.063   0.014   6.714
 4165SOL    HW113394   4.089   7.005   6.805
 4165SOL    HW213395   4.060   6.959   6.651
 4166SOL     OW13396   6.144   3.004   0.922
 4166SOL    HW113397   6.060   2.995   0.975
 4166SOL    HW213398   6.126   2.977   0.827
 4167SOL     OW13399   1.619   3.753   0.917
 4167SOL    HW113400   1.606   3.656   0.899
 4167SOL    HW213401   1.711   3.769   0.953
 4168SOL     OW13402   6.535   4.698   1.536
 4168SOL    HW113403   6.439   4.701   1.563
 4168SOL    HW213404   6.592   4.682   1.617
 4169SOL     OW13405   5.909   4.238   4.436
 4169SOL    HW113406   5.971   4.160   4.426
 4169SOL    HW213407   5.932   4.308   4.368
 4170SOL     OW13408   4.921   4.274   5.857
 4170SOL    HW113409   4.942   4.186   5.814
 4170SOL    HW213410   4.843   4.263   5.919
 4171SOL     OW13411   6.761   5.300   0.250
 4171SOL    HW113412   6.834   5.368   0.249
 4171SOL    HW213413   6.679   5.338   0.209
 4172SOL     OW13414   0.773   1.832   6.082
 4172SOL    HW113415   0.760   1.876   6.171
 4172SOL    HW213416   0.689   1.842   6.028
 4173SOL     OW13417   5.384   3.959   5.704
 4173SOL    HW113418   5.445   3.883   5.722
 4173SOL    HW213419   5.415   4.009   5.623
 4174SOL     OW13420   5.293   0.740   3.361
 4174SOL    HW113421   5.369   0.746   3.426
 4174SOL    HW213422   5.267   0.644   3.349
 4175SOL     OW13423   2.473   5.976   4.233
 4175SOL    HW113424   2.498   6.067   4.265
 4175SOL    HW213425   2.499   5.966   4.137
 4176SOL     OW13426   2.904   6.329   1.978
 4176SOL    HW113427   2.930   6.319   1.882
 4176SOL    HW213428   2.820   6.383   1.985
 4177SOL     OW13429   6.082   4.474   5.357
 4177SOL    HW113430   6.169   4.523   5.357
 4177SOL    HW213431   6.011   4.534   5.321
 4178SOL     OW13432   4.975   0.659   4.384
 4178SOL    HW113433   5.057   0.604   4.371
 4178SOL    HW213434   4.930   0.674   4.295
 4179SOL     OW13435   4.909   2.604   3.485
 4179SOL    HW113436   4.983   2.545   3.452
 4179SOL    HW213437   4.843   2.549   3.536
 4180SOL     OW13438   5.224   4.416   1.165
 4180SOL    HW113439   5.138   4.424   1.115
 4180SOL    HW213440   5.249   4.506   1.202
 4181SOL     OW13441   2.493   1.692   1.019
 4181SOL    HW113442   2.562   1.638   0.971
 4181SOL    HW213443   2.466   1.770   0.962
 4182SOL     OW13444   0.740   6.792   3.335
 4182SOL    HW113445   0.827   6.832   3.307
 4182SOL    HW213446   0.702   6.844   3.412
 4183SOL     OW13447   4.224   1.235   7.015
 4183SOL    HW113448   4.197   1.331   7.005
 4183SOL    HW213449   4.218   1.209   0.089
 4184SOL     OW13450   4.978   5.128   1.384
 4184SOL    HW113451   4.964   5.036   1.422
 4184SOL    HW213452   4.909   5.146   1.314
 4185SOL     OW13453   0.815   5.453   2.068
 4185SOL    HW113454   0.787   5.367   2.026
 4185SOL    HW213455   0.735   5.503   2.101
 4186SOL     OW13456   2.374   4.969   0.154
 4186SOL    HW113457   2.451   5.001   0.209
 4186SOL    HW213458   2.406   4.901   0.089
 4187SOL     OW13459   3.439   3.334   5.833
 4187SOL    HW113460   3.341   3.317   5.847
 4187SOL    HW213461   3.486   3.248   5.811
 4188SOL     OW13462   4.499   0.197   4.556
 4188SOL    HW113463   4.417   0.252   4.566
 4188SOL    HW213464   4.565   0.245   4.498
 4189SOL     OW13465   3.925   6.965   5.494
 4189SOL    HW113466   3.872   6.890   5.455
 4189SOL    HW213467   3.868   0.025   5.499
 4190SOL     OW13468   0.753   0.623   6.873
 4190SOL    HW113469   0.830   0.683   6.894
 4190SOL    HW213470   0.786   0.529   6.862
 4191SOL     OW13471   5.181   3.798   3.013
 4191SOL    HW113472   5.158   3.894   3.030
 4191SOL    HW213473   5.098   3.743   3.013
 4192SOL     OW13474   0.637   1.284   4.165
 4192SOL    HW113475   0.596   1.302   4.254
 4192SOL    HW213476   0.650   1.186   4.152
 4193SOL     OW13477   1.193   0.512   2.479
 4193SOL    HW113478   1.177   0.437   2.544
 4193SOL    HW213479   1.279   0.558   2.501
 4194SOL     OW13480   5.619   0.924   4.990
 4194SOL    HW113481   5.615   0.947   5.087
 4194SOL    HW213482   5.714   0.909   4.964
 4195SOL     OW13483   4.198   6.589   1.974
 4195SOL    HW113484   4.195   6.674   2.027
 4195SOL    HW213485   4.247   6.519   2.026
 4196SOL     OW13486   5.413   1.983   3.752
 4196SOL    HW113487   5.412   1.883   3.759
 4196SOL    HW213488   5.424   2.022   3.844
 4197SOL     OW13489   4.869   5.984   5.733
 4197SOL    HW113490   4.884   5.997   5.635
 4197SOL    HW213491   4.949   6.015   5.784
 4198SOL     OW13492   5.948   3.618   0.414
 4198SOL    HW113493   5.920   3.570   0.331
 4198SOL    HW213494   5.917   3.713   0.411
 4199SOL     OW13495   2.118   3.044   6.489
 4199SOL    HW113496   2.099   3.110   6.562
 4199SOL    HW213497   2.037   2.986   6.475
 4200SOL     OW13498   3.346   6.629   6.007
 4200SOL    HW113499   3.322   6.724   6.026
 4200SOL    HW213500   3.291   6.595   5.930
 4201SOL     OW13501   6.297   5.976   3.905
 4201SOL    HW113502   6.316   5.946   3.812
 4201SOL    HW213503   6.262   6.069   3.903
 4202SOL     OW13504   4.075   5.226   5.710
 4202SOL    HW113505   3.997   5.221   5.647
 4202SOL    HW213506   4.130   5.144   5.702
 4203SOL     OW13507   4.816   5.059   0.331
 4203SOL    HW113508   4.870   5.094   0.407
 4203SOL    HW213509   4.831   5.117   0.251
 4204SOL     OW13510   4.040   3.227   2.480
 4204SOL    HW113511   4.096   3.279   2.414
 4204SOL    HW213512   4.062   3.257   2.573
 4205SOL     OW13513   4.159   5.532   3.213
 4205SOL    HW113514   4.072   5.528   3.163
 4205SOL    HW213515   4.177   5.626   3.241
 4206SOL     OW13516   6.620   0.765   5.847
 4206SOL    HW113517   6.611   0.676   5.802
 4206SOL    HW213518   6.689   0.819   5.800
 4207SOL     OW13519   1.725   1.275   1.741
 4207SOL    HW113520   1.651   1.271   1.809
 4207SOL    HW213521   1.726   1.366   1.699
 4208SOL     OW13522   0.709   3.893   6.548
 4208SOL    HW113523   0.651   3.880   6.628
 4208SOL    HW213524   0.805   3.884   6.573
 4209SOL     OW13525   0.588   1.249   5.822
 4209SOL    HW113526   0.669   1.207   5.863
 4209SOL    HW213527   0.612   1.340   5.788
 4210SOL     OW13528   2.894   3.288   2.307
 4210SOL    HW113529   2.965   3.279   2.377
 4210SOL    HW213530   2.848   3.377   2.318
 4211SOL     OW13531   3.927   5.529   5.591
 4211SOL    HW113532   3.958   5.487   5.506
 4211SOL    HW213533   3.945   5.467   5.667
 4212SOL     OW13534   6.022   2.587   2.636
 4212SOL    HW113535   5.930   2.549   2.638
 4212SOL    HW213536   6.066   2.574   2.725
 4213SOL     OW13537   2.413   0.737   1.959
 4213SOL    HW113538   2.455   0.752   1.869
 4213SOL    HW213539   2.408   0.823   2.008
 4214SOL     OW13540   1.836   4.624   5.367
 4214SOL    HW113541   1.780   4.599   5.289
 4214SOL    HW213542   1.875   4.542   5.408
 4215SOL     OW13543   6.722   6.394   4.721
 4215SOL    HW113544   6.754   6.489   4.718
 4215SOL    HW213545   6.765   6.343   4.647
 4216SOL     OW13546   1.015   1.613   3.278
 4216SOL    HW113547   0.998   1.554   3.356
 4216SOL    HW213548   0.992   1.707   3.301
 4217SOL     OW13549   6.789   0.305   2.854
 4217SOL    HW113550   6.806   0.277   2.759
 4217SOL    HW213551   6.859   0.264   2.914
 4218SOL     OW13552   4.653   0.706   1.791
 4218SOL    HW113553   4.576   0.667   1.741
 4218SOL    HW213554   4.637   0.804   1.806
 4219SOL     OW13555   2.984   5.117   3.605
 4219SOL    HW113556   2.973   5.053   3.681
 4219SOL    HW213557   2.908   5.182   3.606
 4220SOL     OW13558   5.578   2.612   3.578
 4220SOL    HW113559   5.486   2.642   3.555
 4220SOL    HW213560   5.620   2.570   3.498
 4221SOL     OW13561   6.162   5.674   6.524
 4221SOL    HW113562   6.158   5.755   6.583
 4221SOL    HW213563   6.177   5.593   6.580
 4222SOL     OW13564   5.810   2.265   2.796
 4222SOL    HW113565   5.753   2.195   2.752
 4222SOL    HW213566   5.817   2.246   2.893
 4223SOL     OW13567   3.107   3.269   5.609
 4223SOL    HW113568   3.010   3.242   5.610
 4223SOL    HW213569   3.143   3.258   5.516
 4224SOL     OW13570   4.921   3.241   3.186
 4224SOL    HW113571   4.993   3.310   3.190
 4224SOL    HW213572   4.894   3.226   3.091
 4225SOL     OW13573   3.906   0.570   5.561
 4225SOL    HW113574   3.859   0.550   5.475
 4225SOL    HW213575   3.932   0.667   5.563
 4226SOL     OW13576   0.704   0.739   2.686
 4226SOL    HW113577   0.775   0.809   2.693
 4226SOL    HW213578   0.646   0.757   2.606
 4227SOL     OW13579   3.759   5.012   6.849
 4227SOL    HW113580   3.858   5.026   6.847
 4227SOL    HW213581   3.715   5.076   6.786
 4228SOL     OW13582   0.733   3.551   4.246
 4228SOL    HW113583   0.778   3.521   4.330
 4228SOL    HW213584   0.765   3.643   4.222
 4229SOL     OW13585   4.857   5.229   5.054
 4229SOL    HW113586   4.950   5.211   5.085
 4229SOL    HW213587   4.847   5.199   4.959
 4230SOL     OW13588   1.854   0.343   4.098
 4230SOL    HW113589   1.803   0.428   4.106
 4230SOL    HW213590   1.841   0.304   4.007
 4231SOL     OW13591   5.763   6.277   4.949
 4231SOL    HW113592   5.808   6.200   4.903
 4231SOL    HW213593   5.692   6.243   5.010
 4232SOL     OW13594   0.253   4.390   2.843
 4232SOL    HW113595   0.310   4.472   2.841
 4232SOL    HW213596   0.297   4.318   2.789
 4233SOL     OW13597   6.785   0.455   6.898
 4233SOL    HW113598   6.775   0.365   6.855
 4233SOL    HW213599   6.760   0.526   6.833
 4234SOL     OW13600   1.492   0.149   5.905
 4234SOL    HW113601   1.433   0.110   5.976
 4234SOL    HW213602   1.465   0.111   5.816
 4235SOL     OW13603   5.466   4.172   5.976
 4235SOL    HW113604   5.494   4.184   5.880
 4235SOL    HW213605   5.396   4.101   5.982
 4236SOL     OW13606   0.252   3.488   3.055
 4236SOL    HW113607   0.194   3.563   3.023
 4236SOL    HW213608   0.334   3.485   2.999
 4237SOL     OW13609   6.655   5.334   3.334
 4237SOL    HW113610   6.645   5.432   3.354
 4237SOL    HW213611   6.688   5.323   3.240
 4238SOL     OW13612   3.433   4.934   2.634
 4238SOL    HW113613   3.346   4.899   2.668
 4238SOL    HW213614   3.488   4.967   2.710
 4239SOL     OW13615   5.564   1.669   3.630
 4239SOL    HW113616   5.486   1.706   3.581
 4239SOL    HW213617   5.644   1.669   3.570
 4240SOL     OW13618   2.442   6.934   0.100
 4240SOL    HW113619   2.386   6.868   0.050
 4240SOL    HW213620   2.538   6.905   0.098
 4241SOL     OW13621   6.468   0.727   1.207
 4241SOL    HW113622   6.425   0.653   1.258
 4241SOL    HW213623   6.470   0.703   1.109
 4242SOL     OW13624   2.251   0.641   3.445
 4242SOL    HW113625   2.276   0.547   3.421
 4242SOL    HW213626   2.177   0.672   3.387
 4243SOL     OW13627   6.826   4.176   3.764
 4243SOL    HW113628   6.851   4.085   3.731
 4243SOL    HW213629   6.764   4.220   3.700
 4244SOL     OW13630   5.635   5.092   0.941
 4244SOL    HW113631   5.610   5.143   1.024
 4244SOL    HW213632   5.675   5.154   0.874
 4245SOL     OW13633   6.258   1.108   6.416
 4245SOL    HW113634   6.221   1.189   6.461
 4245SOL    HW213635   6.305   1.134   6.332
 4246SOL     OW13636   5.806   3.114   3.766
 4246SOL    HW113637   5.856   3.087   3.848
 4246SOL    HW213638   5.794   3.214   3.766
 4247SOL     OW13639   2.252   4.942   3.516
 4247SOL    HW113640   2.227   5.006   3.444
 4247SOL    HW213641   2.351   4.948   3.532
 4248SOL     OW13642   1.594   1.443   3.503
 4248SOL    HW113643   1.691   1.458   3.486
 4248SOL    HW213644   1.557   1.380   3.435
 4249SOL     OW13645   4.907   1.199   3.984
 4249SOL    HW113646   4.926   1.202   4.082
 4249SOL    HW213647   4.811   1.176   3.969
 4250SOL     OW13648   5.847   6.262   4.595
 4250SOL    HW113649   5.781   6.318   4.544
 4250SOL    HW213650   5.823   6.165   4.584
 4251SOL     OW13651   6.018   3.264   1.215
 4251SOL    HW113652   6.057   3.335   1.155
 4251SOL    HW213653   6.036   3.288   1.311
 4252SOL     OW13654   5.458   5.926   6.575
 4252SOL    HW113655   5.417   5.852   6.521
 4252SOL    HW213656   5.475   6.005   6.516
 4253SOL     OW13657   3.439   6.942   1.301
 4253SOL    HW113658   3.465   6.937   1.205
 4253SOL    HW213659   3.363   6.879   1.318
 4254SOL     OW13660   1.734   3.914   2.173
 4254SOL    HW113661   1.688   3.929   2.085
 4254SOL    HW213662   1.703   3.983   2.239
 4255SOL     OW13663   6.541   4.216   3.878
 4255SOL    HW113664   6.632   4.173   3.876
 4255SOL    HW213665   6.543   4.300   3.824
 4256SOL     OW13666   1.121   5.884   0.975
 4256SOL    HW113667   1.191   5.826   0.933
 4256SOL    HW213668   1.074   5.936   0.904
 4257SOL     OW13669   3.747   1.051   4.993
 4257SOL    HW113670   3.681   1.033   4.920
 4257SOL    HW213671   3.702   1.040   5.081
 4258SOL     OW13672   3.183   6.239   0.726
 4258SOL    HW113673   3.117   6.305   0.689
 4258SOL    HW213674   3.261   6.288   0.764
 4259SOL     OW13675   1.254   6.689   1.227
 4259SOL    HW113676   1.187   6.763   1.220
 4259SOL    HW213677   1.336   6.712   1.174
 4260SOL     OW13678   5.795   0.616   3.056
 4260SOL    HW113679   5.734   0.547   3.095
 4260SOL    HW213680   5.758   0.707   3.072
 4261SOL     OW13681   2.272   0.377   2.772
 4261SOL    HW113682   2.252   0.406   2.678
 4261SOL    HW213683   2.204   0.310   2.801
 4262SOL     OW13684   0.635   3.827   6.155
 4262SOL    HW113685   0.720   3.797   6.199
 4262SOL    HW213686   0.558   3.801   6.213
 4263SOL     OW13687   2.650   0.147   3.217
 4263SOL    HW113688   2.559   0.106   3.224
 4263SOL    HW213689   2.667   0.176   3.123
 4264SOL     OW13690   0.036   2.283   4.760
 4264SOL    HW113691   0.113   2.240   4.713
 4264SOL    HW213692   0.060   2.299   4.856
 4265SOL     OW13693   3.678   1.243   0.646
 4265SOL    HW113694   3.600   1.297   0.678
 4265SOL    HW213695   3.656   1.146   0.649
 4266SOL     OW13696   1.879   6.280   6.525
 4266SOL    HW113697   1.958   6.241   6.478
 4266SOL    HW213698   1.911   6.332   6.605
 4267SOL     OW13699   2.172   3.905   4.525
 4267SOL    HW113700   2.243   3.837   4.540
 4267SOL    HW213701   2.186   3.949   4.436
 4268SOL     OW13702   1.195   5.728   6.701
 4268SOL    HW113703   1.205   5.815   6.653
 4268SOL    HW213704   1.282   5.678   6.697
 4269SOL     OW13705   2.860   6.839   2.958
 4269SOL    HW113706   2.868   6.747   2.922
 4269SOL    HW213707   2.770   6.853   2.998
 4270SOL     OW13708   4.017   3.051   2.004
 4270SOL    HW113709   4.010   3.008   2.094
 4270SOL    HW213710   3.953   3.128   1.998
 4271SOL     OW13711   0.170   0.572   0.477
 4271SOL    HW113712   0.096   0.620   0.524
 4271SOL    HW213713   0.158   0.581   0.378
 4272SOL     OW13714   6.480   2.769   4.516
 4272SOL    HW113715   6.440   2.728   4.597
 4272SOL    HW213716   6.414   2.831   4.474
 4273SOL     OW13717   4.532   6.548   4.336
 4273SOL    HW113718   4.444   6.507   4.360
 4273SOL    HW213719   4.590   6.479   4.292
 4274SOL     OW13720   1.627   6.719   1.999
 4274SOL    HW113721   1.720   6.755   1.990
 4274SOL    HW213722   1.597   6.683   1.912
 4275SOL     OW13723   6.624   2.206   4.119
 4275SOL    HW113724   6.689   2.184   4.191
 4275SOL    HW213725   6.672   2.241   4.039
 4276SOL     OW13726   2.885   5.416   4.186
 4276SOL    HW113727   2.869   5.318   4.193
 4276SOL    HW213728   2.798   5.463   4.172
 4277SOL     OW13729   6.686   4.677   2.952
 4277SOL    HW113730   6.665   4.674   2.854
 4277SOL    HW213731   6.693   4.772   2.981
 4278SOL     OW13732   0.148   6.822   4.757
 4278SOL    HW113733   0.156   6.833   4.856
 4278SOL    HW213734   0.069   6.765   4.736
 4279SOL     OW13735   2.188   1.173   3.307
 4279SOL    HW113736   2.096   1.205   3.331
 4279SOL    HW213737   2.243   1.165   3.390
 4280SOL     OW13738   5.748   6.979   5.643
 4280SOL    HW113739   5.789   0.026   5.703
 4280SOL    HW213740   5.761   6.889   5.683
 4281SOL     OW13741   5.948   4.704   3.480
 4281SOL    HW113742   5.899   4.688   3.566
 4281SOL    HW213743   6.017   4.775   3.494
 4282SOL     OW13744   3.227   4.668   0.283
 4282SOL    HW113745   3.235   4.709   0.374
 4282SOL    HW213746   3.163   4.722   0.228
 4283SOL     OW13747   2.494   0.789   3.374
 4283SOL    HW113748   2.567   0.793   3.441
 4283SOL    HW213749   2.427   0.721   3.402
 4284SOL     OW13750   3.841   4.372   1.050
 4284SOL    HW113751   3.807   4.316   1.126
 4284SOL    HW213752   3.890   4.314   0.985
 4285SOL     OW13753   2.468   1.096   5.918
 4285SOL    HW113754   2.527   1.021   5.888
 4285SOL    HW213755   2.511   1.183   5.897
 4286SOL     OW13756   5.943   0.158   6.074
 4286SOL    HW113757   5.928   0.161   5.976
 4286SOL    HW213758   5.856   0.171   6.121
 4287SOL     OW13759   4.879   0.921   6.084
 4287SOL    HW113760   4.966   0.959   6.114
 4287SOL    HW213761   4.883   0.821   6.087
 4288SOL     OW13762   0.904   5.687   3.754
 4288SOL    HW113763   0.868   5.619   3.817
 4288SOL    HW213764   0.988   5.727   3.792
 4289SOL     OW13765   0.538   2.331   5.749
 4289SOL    HW113766   0.526   2.257   5.683
 4289SOL    HW213767   0.577   2.411   5.703
 4290SOL     OW13768   1.177   5.902   4.644
 4290SOL    HW113769   1.153   5.882   4.549
 4290SOL    HW213770   1.127   5.982   4.675
 4291SOL     OW13771   4.832   3.800   7.007
 4291SOL    HW113772   4.778   3.850   0.053
 4291SOL    HW213773   4.839   3.854   6.924
 4292SOL     OW13774   6.582   3.307   0.038
 4292SOL    HW113775   6.675   3.281   0.063
 4292SOL    HW213776   6.529   3.325   0.121
 4293SOL     OW13777   3.330   4.472   0.436
 4293SOL    HW113778   3.283   4.535   0.374
 4293SOL    HW213779   3.429   4.488   0.431
 4294SOL     OW13780   1.851   1.422   6.481
 4294SOL    HW113781   1.897   1.474   6.409
 4294SOL    HW213782   1.920   1.387   6.545
 4295SOL     OW13783   5.352   5.649   4.058
 4295SOL    HW113784   5.385   5.560   4.025
 4295SOL    HW213785   5.410   5.680   4.133
 4296SOL     OW13786   3.347   6.866   0.278
 4296SOL    HW113787   3.311   6.794   0.337
 4296SOL    HW213788   3.374   6.945   0.334
 4297SOL     OW13789   5.833   0.217   1.813
 4297SOL    HW113790   5.768   0.265   1.871
 4297SOL    HW213791   5.899   0.282   1.776
 4298SOL     OW13792   3.709   5.958   1.039
 4298SOL    HW113793   3.721   5.894   0.963
 4298SOL    HW213794   3.798   5.977   1.081
 4299SOL     OW13795   1.643   2.426   6.868
 4299SOL    HW113796   1.601   2.410   6.957
 4299SOL    HW213797   1.735   2.464   6.880
 4300SOL     OW13798   2.699   7.004   0.481
 4300SOL    HW113799   2.681   0.012   0.575
 4300SOL    HW213800   2.679   0.056   0.418
 4301SOL     OW13801   4.932   0.100   1.284
 4301SOL    HW113802   4.897   0.007   1.287
 4301SOL    HW213803   5.020   0.101   1.236
 4302SOL     OW13804   6.759   0.285   6.052
 4302SOL    HW113805   6.839   0.229   6.071
 4302SOL    HW213806   6.693   0.232   5.999
 4303SOL     OW13807   0.316   4.314   4.393
 4303SOL    HW113808   0.362   4.225   4.390
 4303SOL    HW213809   0.250   4.319   4.318
 4304SOL     OW13810   3.117   3.289   2.435
 4304SOL    HW113811   3.129   3.229   2.514
 4304SOL    HW213812   3.207   3.314   2.399
 4305SOL     OW13813   1.165   6.843   5.657
 4305SOL    HW113814   1.119   6.926   5.688
 4305SOL    HW213815   1.223   6.864   5.578
 4306SOL     OW13816   4.478   4.814   4.598
 4306SOL    HW113817   4.479   4.714   4.604
 4306SOL    HW213818   4.444   4.842   4.508
 4307SOL     OW13819   6.415   4.160   5.208
 4307SOL    HW113820   6.448   4.243   5.254
 4307SOL    HW213821   6.491   4.096   5.197
 4308SOL     OW13822   6.241   5.840   1.362
 4308SOL    HW113823   6.307   5.852   1.436
 4308SOL    HW213824   6.234   5.742   1.341
 4309SOL     OW13825   1.257   1.371   0.920
 4309SOL    HW113826   1.230   1.299   0.984
 4309SOL    HW213827   1.200   1.452   0.934
 4310SOL     OW13828   1.486   2.718   1.428
 4310SOL    HW113829   1.419   2.786   1.457
 4310SOL    HW213830   1.442   2.650   1.370
 4311SOL     OW13831   0.292   6.187   2.682
 4311SOL    HW113832   0.321   6.269   2.631
 4311SOL    HW213833   0.203   6.204   2.725
 4312SOL     OW13834   1.484   5.754   2.264
 4312SOL    HW113835   1.525   5.667   2.236
 4312SOL    HW213836   1.498   5.767   2.362
 4313SOL     OW13837   5.084   2.282   0.900
 4313SOL    HW113838   5.144   2.336   0.841
 4313SOL    HW213839   5.026   2.343   0.954
 4314SOL     OW13840   5.559   1.857   5.075
 4314SOL    HW113841   5.605   1.769   5.067
 4314SOL    HW213842   5.513   1.862   5.164
 4315SOL     OW13843   2.237   0.918   3.674
 4315SOL    HW113844   2.168   0.863   3.627
 4315SOL    HW213845   2.328   0.883   3.654
 4316SOL     OW13846   5.056   0.661   1.627
 4316SOL    HW113847   5.148   0.628   1.648
 4316SOL    HW213848   5.004   0.589   1.583
 4317SOL     OW13849   5.453   1.922   5.576
 4317SOL    HW113850   5.421   2.017   5.575
 4317SOL    HW213851   5.431   1.878   5.489
 4318SOL     OW13852   1.488   1.779   4.765
 4318SOL    HW113853   1.510   1.841   4.840
 4318SOL    HW213854   1.469   1.688   4.801
 4319SOL     OW13855   2.248   1.875   0.892
 4319SOL    HW113856   2.290   1.908   0.976
 4319SOL    HW213857   2.304   1.903   0.814
 4320SOL     OW13858   3.573   5.400   0.991
 4320SOL    HW113859   3.631   5.329   1.031
 4320SOL    HW213860   3.478   5.385   1.018
 4321SOL     OW13861   6.955   4.463   4.523
 4321SOL    HW113862   6.983   4.477   4.618
 4321SOL    HW213863   6.855   4.465   4.516
 4322SOL     OW13864   6.249   2.975   6.931
 4322SOL    HW113865   6.340   2.935   6.919
 4322SOL    HW213866   6.200   2.971   6.844
 4323SOL     OW13867   4.408   4.562   0.882
 4323SOL    HW113868   4.350   4.635   0.920
 4323SOL    HW213869   4.356   4.511   0.814
 4324SOL     OW13870   5.681   4.622   5.768
 4324SOL    HW113871   5.648   4.697   5.711
 4324SOL    HW213872   5.670   4.646   5.865
 4325SOL     OW13873   3.034   1.121   1.954
 4325SOL    HW113874   3.049   1.034   2.001
 4325SOL    HW213875   2.975   1.106   1.874
 4326SOL     OW13876   4.749   4.677   2.210
 4326SOL    HW113877   4.710   4.643   2.124
 4326SOL    HW213878   4.814   4.610   2.245
 4327SOL     OW13879   5.548   5.709   1.465
 4327SOL    HW113880   5.577   5.623   1.424
 4327SOL    HW213881   5.483   5.691   1.539
 4328SOL     OW13882   5.363   4.504   5.677
 4328SOL    HW113883   5.384   4.421   5.728
 4328SOL    HW213884   5.444   4.535   5.628
 4329SOL     OW13885   4.425   2.881   6.031
 4329SOL    HW113886   4.402   2.958   6.090
 4329SOL    HW213887   4.341   2.837   5.999
 4330SOL     OW13888   2.281   6.258   4.233
 4330SOL    HW113889   2.378   6.251   4.257
 4330SOL    HW213890   2.227   6.272   4.317
 4331SOL     OW13891   5.605   0.813   2.348
 4331SOL    HW113892   5.648   0.901   2.330
 4331SOL    HW213893   5.510   0.828   2.375
 4332SOL     OW13894   5.222   3.400   2.496
 4332SOL    HW113895   5.266   3.487   2.516
 4332SOL    HW213896   5.225   3.342   2.577
 4333SOL     OW13897   4.378   1.764   5.429
 4333SOL    HW113898   4.335   1.835   5.485
 4333SOL    HW213899   4.450   1.719   5.483
 4334SOL     OW13900   2.238   2.628   2.447
 4334SOL    HW113901   2.230   2.695   2.373
 4334SOL    HW213902   2.293   2.550   2.415
 4335SOL     OW13903   3.498   3.475   1.553
 4335SOL    HW113904   3.482   3.394   1.496
 4335SOL    HW213905   3.529   3.447   1.644
 4336SOL     OW13906   2.636   6.600   6.099
 4336SOL    HW113907   2.628   6.509   6.058
 4336SOL    HW213908   2.644   6.668   6.027
 4337SOL     OW13909   2.098   4.337   1.371
 4337SOL    HW113910   2.132   4.252   1.331
 4337SOL    HW213911   1.999   4.342   1.358
 4338SOL     OW13912   6.071   6.705   5.679
 4338SOL    HW113913   6.154   6.759   5.693
 4338SOL    HW213914   6.079   6.617   5.726
 4339SOL     OW13915   4.105   2.897   6.293
 4339SOL    HW113916   4.193   2.851   6.305
 4339SOL    HW213917   4.063   2.911   6.382
 4340SOL     OW13918   6.386   3.823   1.737
 4340SOL    HW113919   6.453   3.834   1.665
 4340SOL    HW213920   6.363   3.912   1.777
 4341SOL     OW13921   1.133   5.234   1.400
 4341SOL    HW113922   1.208   5.168   1.410
 4341SOL    HW213923   1.053   5.188   1.362
 4342SOL     OW13924   5.388   4.205   3.090
 4342SOL    HW113925   5.483   4.223   3.066
 4342SOL    HW213926   5.383   4.171   3.184
 4343SOL     OW13927   2.989   5.982   4.954
 4343SOL    HW113928   2.997   6.075   4.919
 4343SOL    HW213929   3.059   5.924   4.913
 4344SOL     OW13930   0.857   3.913   2.788
 4344SOL    HW113931   0.889   3.906   2.693
 4344SOL    HW213932   0.900   3.992   2.831
 4345SOL     OW13933   3.680   4.161   4.716
 4345SOL    HW113934   3.661   4.200   4.625
 4345SOL    HW213935   3.598   4.170   4.773
 4346SOL     OW13936   2.095   3.295   2.862
 4346SOL    HW113937   2.114   3.343   2.947
 4346SOL    HW213938   2.035   3.351   2.805
 4347SOL     OW13939   5.294   6.707   3.070
 4347SOL    HW113940   5.345   6.793   3.059
 4347SOL    HW213941   5.322   6.663   3.155
 4348SOL     OW13942   0.200   5.498   3.909
 4348SOL    HW113943   0.108   5.525   3.881
 4348SOL    HW213944   0.206   5.398   3.914
 4349SOL     OW13945   6.520   1.890   3.206
 4349SOL    HW113946   6.603   1.840   3.227
 4349SOL    HW213947   6.461   1.893   3.287
 4350SOL     OW13948   3.859   1.817   4.121
 4350SOL    HW113949   3.809   1.753   4.179
 4350SOL    HW213950   3.827   1.910   4.137
 4351SOL     OW13951   0.995   6.191   1.477
 4351SOL    HW113952   1.053   6.123   1.522
 4351SOL    HW213953   1.043   6.228   1.398
 4352SOL     OW13954   6.263   4.310   2.264
 4352SOL    HW113955   6.192   4.374   2.232
 4352SOL    HW213956   6.260   4.304   2.363
 4353SOL     OW13957   3.584   3.079   6.610
 4353SOL    HW113958   3.529   3.089   6.694
 4353SOL    HW213959   3.528   3.036   6.540
 4354SOL     OW13960   2.167   1.448   6.430
 4354SOL    HW113961   2.259   1.489   6.422
 4354SOL    HW213962   2.154   1.383   6.356
 4355SOL     OW13963   2.280   6.673   2.687
 4355SOL    HW113964   2.253   6.744   2.751
 4355SOL    HW213965   2.219   6.594   2.697
 4356SOL     OW13966   4.707   3.819   6.460
 4356SOL    HW113967   4.643   3.791   6.532
 4356SOL    HW213968   4.694   3.761   6.380
 4357SOL     OW13969   0.175   0.875   1.545
 4357SOL    HW113970   0.098   0.813   1.536
 4357SOL    HW213971   0.215   0.867   1.637
 4358SOL     OW13972   6.165   1.019   1.005
 4358SOL    HW113973   6.129   0.925   1.011
 4358SOL    HW213974   6.188   1.039   0.910
 4359SOL     OW13975   1.396   1.424   6.778
 4359SOL    HW113976   1.318   1.383   6.826
 4359SOL    HW213977   1.467   1.355   6.765
 4360SOL     OW13978   0.659   3.342   3.595
 4360SOL    HW113979   0.685   3.261   3.543
 4360SOL    HW213980   0.668   3.323   3.693
 4361SOL     OW13981   2.158   3.989   1.377
 4361SOL    HW113982   2.258   3.992   1.377
 4361SOL    HW213983   2.123   4.016   1.467
 4362SOL     OW13984   6.890   5.854   4.012
 4362SOL    HW113985   6.843   5.940   3.989
 4362SOL    HW213986   6.967   5.840   3.950
 4363SOL     OW13987   4.243   1.811   0.853
 4363SOL    HW113988   4.144   1.820   0.858
 4363SOL    HW213989   4.281   1.887   0.799
 4364SOL     OW13990   3.179   4.027   3.710
 4364SOL    HW113991   3.225   4.086   3.643
 4364SOL    HW213992   3.184   3.932   3.680
 4365SOL     OW13993   2.685   0.238   1.960
 4365SOL    HW113994   2.600   0.190   1.983
 4365SOL    HW213995   2.754   0.218   2.029
 4366SOL     OW13996   6.029   6.627   6.273
 4366SOL    HW113997   6.028   6.702   6.207
 4366SOL    HW213998   6.099   6.560   6.248
 4367SOL     OW13999   2.879   4.888   4.149
 4367SOL    HW114000   2.803   4.851   4.095
 4367SOL    HW214001   2.884   4.840   4.236
 4368SOL     OW14002   3.666   5.710   1.776
 4368SOL    HW114003   3.589   5.693   1.838
 4368SOL    HW214004   3.633   5.758   1.695
 4369SOL     OW14005   4.662   4.881   2.885
 4369SOL    HW114006   4.733   4.898   2.954
 4369SOL    HW214007   4.634   4.785   2.889
 4370SOL     OW14008   3.608   4.716   1.407
 4370SOL    HW114009   3.687   4.773   1.386
 4370SOL    HW214010   3.571   4.742   1.496
 4371SOL     OW14011   1.894   2.047   2.534
 4371SOL    HW114012   1.868   2.066   2.629
 4371SOL    HW214013   1.955   1.968   2.532
 4372SOL     OW14014   2.526   2.470   4.249
 4372SOL    HW114015   2.477   2.557   4.240
 4372SOL    HW214016   2.462   2.394   4.234
 4373SOL     OW14017   4.351   1.433   0.345
 4373SOL    HW114018   4.420   1.504   0.362
 4373SOL    HW214019   4.277   1.443   0.412
 4374SOL     OW14020   1.067   1.602   1.365
 4374SOL    HW114021   1.068   1.579   1.462
 4374SOL    HW214022   1.145   1.560   1.319
 4375SOL     OW14023   4.397   5.987   3.032
 4375SOL    HW114024   4.367   5.991   2.937
 4375SOL    HW214025   4.494   5.962   3.035
 4376SOL     OW14026   6.107   0.259   2.787
 4376SOL    HW114027   6.185   0.197   2.788
 4376SOL    HW214028   6.055   0.249   2.872
 4377SOL     OW14029   5.745   5.516   6.991
 4377SOL    HW114030   5.817   5.468   0.018
 4377SOL    HW214031   5.672   5.540   0.033
 4378SOL     OW14032   1.747   2.940   2.558
 4378SOL    HW114033   1.789   2.895   2.637
 4378SOL    HW214034   1.712   3.030   2.586
 4379SOL     OW14035   2.614   1.368   1.881
 4379SOL    HW114036   2.602   1.321   1.794
 4379SOL    HW214037   2.710   1.393   1.893
 4380SOL     OW14038   1.960   6.523   4.146
 4380SOL    HW114039   1.986   6.427   4.141
 4380SOL    HW214040   1.863   6.530   4.171
 4381SOL     OW14041   2.186   4.234   5.179
 4381SOL    HW114042   2.231   4.277   5.258
 4381SOL    HW214043   2.243   4.161   5.143
 4382SOL     OW14044   6.082   3.224   6.140
 4382SOL    HW114045   6.004   3.190   6.193
 4382SOL    HW214046   6.118   3.150   6.083
 4383SOL     OW14047   0.850   3.076   5.553
 4383SOL    HW114048   0.928   3.036   5.506
 4383SOL    HW214049   0.766   3.056   5.503
 4384SOL     OW14050   5.440   1.568   6.790
 4384SOL    HW114051   5.351   1.572   6.745
 4384SOL    HW214052   5.449   1.646   6.852
 4385SOL     OW14053   6.938   2.852   4.673
 4385SOL    HW114054   6.873   2.843   4.748
 4385SOL    HW214055   6.986   2.940   4.682
 4386SOL     OW14056   1.886   3.901   6.505
 4386SOL    HW114057   1.973   3.939   6.537
 4386SOL    HW214058   1.897   3.866   6.412
 4387SOL     OW14059   0.442   1.162   1.523
 4387SOL    HW114060   0.403   1.233   1.464
 4387SOL    HW214061   0.433   1.189   1.618
 4388SOL     OW14062   5.003   1.045   6.411
 4388SOL    HW114063   5.070   1.016   6.343
 4388SOL    HW214064   4.978   1.140   6.397
 4389SOL     OW14065   5.942   2.172   0.828
 4389SOL    HW114066   5.882   2.121   0.766
 4389SOL    HW214067   6.030   2.125   0.835
 4390SOL     OW14068   3.948   1.618   2.084
 4390SOL    HW114069   3.938   1.572   1.996
 4390SOL    HW214070   3.882   1.582   2.149
 4391SOL     OW14071   1.676   5.896   6.101
 4391SOL    HW114072   1.681   5.910   6.200
 4391SOL    HW214073   1.580   5.897   6.073
 4392SOL     OW14074   6.651   3.602   5.641
 4392SOL    HW114075   6.582   3.544   5.684
 4392SOL    HW214076   6.706   3.546   5.578
 4393SOL     OW14077   5.335   0.104   2.760
 4393SOL    HW114078   5.369   0.198   2.757
 4393SOL    HW214079   5.285   0.085   2.676
 4394SOL     OW14080   5.758   5.782   2.938
 4394SOL    HW114081   5.759   5.818   2.845
 4394SOL    HW214082   5.848   5.744   2.959
 4395SOL     OW14083   3.944   0.828   1.888
 4395SOL    HW114084   3.852   0.829   1.927
 4395SOL    HW214085   3.943   0.875   1.799
 4396SOL     OW14086   2.705   2.418   4.037
 4396SOL    HW114087   2.654   2.397   4.120
 4396SOL    HW214088   2.687   2.348   3.968
 4397SOL     OW14089   0.325   1.340   4.772
 4397SOL    HW114090   0.307   1.284   4.853
 4397SOL    HW214091   0.412   1.388   4.782
 4398SOL     OW14092   0.875   4.408   5.057
 4398SOL    HW114093   0.926   4.338   5.007
 4398SOL    HW214094   0.876   4.493   5.005
 4399SOL     OW14095   1.772   0.965   1.913
 4399SOL    HW114096   1.761   1.052   1.962
 4399SOL    HW214097   1.764   0.982   1.815
 4400SOL     OW14098   2.479   0.265   4.925
 4400SOL    HW114099   2.400   0.270   4.864
 4400SOL    HW214100   2.546   0.200   4.889
 4401SOL     OW14101   4.932   0.258   6.844
 4401SOL    HW114102   4.982   0.243   6.758
 4401SOL    HW214103   4.897   0.170   6.877
 4402SOL     OW14104   2.310   6.565   1.404
 4402SOL    HW114105   2.299   6.499   1.329
 4402SOL    HW214106   2.345   6.651   1.367
 4403SOL     OW14107   0.539   6.772   3.790
 4403SOL    HW114108   0.486   6.723   3.721
 4403SOL    HW214109   0.523   6.870   3.783
 4404SOL     OW14110   0.357   4.294   5.916
 4404SOL    HW114111   0.354   4.376   5.973
 4404SOL    HW214112   0.436   4.238   5.942
 4405SOL     OW14113   2.844   4.705   0.861
 4405SOL    HW114114   2.812   4.621   0.818
 4405SOL    HW214115   2.836   4.697   0.960
 4406SOL     OW14116   6.653   4.425   0.600
 4406SOL    HW114117   6.592   4.500   0.625
 4406SOL    HW214118   6.748   4.456   0.606
 4407SOL     OW14119   0.557   4.033   0.661
 4407SOL    HW114120   0.512   3.972   0.727
 4407SOL    HW214121   0.495   4.050   0.584
 4408SOL     OW14122   4.116   1.180   1.312
 4408SOL    HW114123   4.186   1.146   1.374
 4408SOL    HW214124   4.157   1.244   1.247
 4409SOL     OW14125   4.456   6.637   1.491
 4409SOL    HW114126   4.392   6.649   1.567
 4409SOL    HW214127   4.518   6.715   1.489
 4410SOL     OW14128   1.350   5.692   0.187
 4410SOL    HW114129   1.365   5.709   0.090
 4410SOL    HW214130   1.398   5.609   0.214
 4411SOL     OW14131   3.124   3.076   3.542
 4411SOL    HW114132   3.068   3.149   3.503
 4411SOL    HW214133   3.068   3.016   3.598
 4412SOL     OW14134   3.593   0.440   4.582
 4412SOL    HW114135   3.523   0.505   4.552
 4412SOL    HW214136   3.593   0.361   4.521
 4413SOL     OW14137   5.176   5.836   4.859
 4413SOL    HW114138   5.126   5.749   4.850
 4413SOL    HW214139   5.251   5.838   4.793
 4414SOL     OW14140   3.808   5.118   1.590
 4414SOL    HW114141   3.774   5.205   1.554
 4414SOL    HW214142   3.800   5.047   1.521
 4415SOL     OW14143   3.953   3.768   6.386
 4415SOL    HW114144   3.994   3.719   6.309
 4415SOL    HW214145   3.994   3.736   6.471
 4416SOL     OW14146   2.638   0.098   4.383
 4416SOL    HW114147   2.664   0.012   4.427
 4416SOL    HW214148   2.591   0.156   4.449
 4417SOL     OW14149   5.896   4.375   3.260
 4417SOL    HW114150   5.902   4.321   3.344
 4417SOL    HW214151   5.830   4.449   3.273
 4418SOL     OW14152   5.415   0.752   3.122
 4418SOL    HW114153   5.369   0.762   3.210
 4418SOL    HW214154   5.378   0.819   3.057
 4419SOL     OW14155   5.594   5.963   0.542
 4419SOL    HW114156   5.531   5.985   0.617
 4419SOL    HW214157   5.685   5.997   0.564
 4420SOL     OW14158   5.385   1.317   1.422
 4420SOL    HW114159   5.461   1.380   1.409
 4420SOL    HW214160   5.374   1.261   1.340
 4421SOL     OW14161   1.999   1.427   4.206
 4421SOL    HW114162   1.978   1.506   4.148
 4421SOL    HW214163   2.076   1.449   4.266
 4422SOL     OW14164   3.233   4.221   5.792
 4422SOL    HW114165   3.146   4.173   5.793
 4422SOL    HW214166   3.232   4.294   5.861
 4423SOL     OW14167   1.041   2.659   5.683
 4423SOL    HW114168   1.015   2.567   5.711
 4423SOL    HW214169   1.039   2.665   5.583
 4424SOL     OW14170   5.453   0.078   4.337
 4424SOL    HW114171   5.449   7.004   4.312
 4424SOL    HW214172   5.362   0.111   4.361
 4425SOL     OW14173   3.264   5.598   6.481
 4425SOL    HW114174   3.254   5.697   6.476
 4425SOL    HW214175   3.351   5.575   6.525
 4426SOL     OW14176   0.686   1.981   4.858
 4426SOL    HW114177   0.681   1.893   4.811
 4426SOL    HW214178   0.763   1.981   4.922
 4427SOL     OW14179   6.959   6.069   2.595
 4427SOL    HW114180   6.994   5.997   2.534
 4427SOL    HW214181   6.934   6.029   2.683
 4428SOL     OW14182   3.306   5.472   2.143
 4428SOL    HW114183   3.236   5.474   2.215
 4428SOL    HW214184   3.380   5.536   2.166
 4429SOL     OW14185   3.117   0.096   3.267
 4429SOL    HW114186   3.125   0.142   3.179
 4429SOL    HW214187   3.022   0.070   3.283
 4430SOL     OW14188   4.973   3.463   4.790
 4430SOL    HW114189   5.072   3.452   4.790
 4430SOL    HW214190   4.944   3.511   4.872
 4431SOL     OW14191   1.762   0.733   2.054
 4431SOL    HW114192   1.700   0.747   2.131
 4431SOL    HW214193   1.781   0.822   2.011
 4432SOL     OW14194   3.515   4.102   4.156
 4432SOL    HW114195   3.590   4.119   4.091
 4432SOL    HW214196   3.429   4.094   4.106
 4433SOL     OW14197   5.887   0.411   4.748
 4433SOL    HW114198   5.862   0.314   4.741
 4433SOL    HW214199   5.804   0.466   4.758
 4434SOL     OW14200   3.515   2.030   3.852
 4434SOL    HW114201   3.605   2.072   3.856
 4434SOL    HW214202   3.524   1.930   3.853
 4435SOL     OW14203   4.182   3.991   1.069
 4435SOL    HW114204   4.219   3.982   0.976
 4435SOL    HW214205   4.083   4.002   1.064
 4436SOL     OW14206   3.689   2.016   1.117
 4436SOL    HW114207   3.656   1.922   1.125
 4436SOL    HW214208   3.699   2.040   1.021
 4437SOL     OW14209   5.553   1.545   4.151
 4437SOL    HW114210   5.650   1.532   4.130
 4437SOL    HW214211   5.535   1.520   4.246
 4438SOL     OW14212   4.885   0.942   0.442
 4438SOL    HW114213   4.797   0.910   0.408
 4438SOL    HW214214   4.959   0.891   0.398
 4439SOL     OW14215   0.526   6.023   1.387
 4439SOL    HW114216   0.540   5.941   1.330
 4439SOL    HW214217   0.525   5.996   1.483
 4440SOL     OW14218   2.236   4.860   0.363
 4440SOL    HW114219   2.300   4.898   0.298
 4440SOL    HW214220   2.160   4.924   0.377
 4441SOL     OW14221   6.940   1.774   2.835
 4441SOL    HW114222   6.847   1.802   2.809
 4441SOL    HW214223   7.007   1.826   2.781
 4442SOL     OW14224   2.615   6.250   5.392
 4442SOL    HW114225   2.567   6.337   5.404
 4442SOL    HW214226   2.616   6.199   5.478
 4443SOL     OW14227   6.842   2.959   1.215
 4443SOL    HW114228   6.805   2.908   1.292
 4443SOL    HW214229   6.897   2.899   1.158
 4444SOL     OW14230   3.980   5.250   5.976
 4444SOL    HW114231   4.007   5.252   5.880
 4444SOL    HW214232   4.015   5.166   6.018
 4445SOL     OW14233   6.359   0.623   0.960
 4445SOL    HW114234   6.262   0.599   0.957
 4445SOL    HW214235   6.377   0.697   0.894
 4446SOL     OW14236   6.002   1.307   1.990
 4446SOL    HW114237   6.037   1.284   1.899
 4446SOL    HW214238   5.910   1.346   1.982
 4447SOL     OW14239   5.928   3.805   6.351
 4447SOL    HW114240   6.002   3.777   6.289
 4447SOL    HW214241   5.841   3.806   6.300
 4448SOL     OW14242   2.914   3.941   1.259
 4448SOL    HW114243   2.828   3.891   1.252
 4448SOL    HW214244   2.972   3.897   1.328
 4449SOL     OW14245   5.160   0.716   5.946
 4449SOL    HW114246   5.216   0.753   5.872
 4449SOL    HW214247   5.063   0.731   5.925
 4450SOL     OW14248   3.977   3.364   4.314
 4450SOL    HW114249   3.877   3.370   4.312
 4450SOL    HW214250   4.009   3.374   4.408
 4451SOL     OW14251   6.022   3.843   4.127
 4451SOL    HW114252   6.120   3.851   4.146
 4451SOL    HW214253   6.006   3.768   4.064
 4452SOL     OW14254   5.884   6.555   3.902
 4452SOL    HW114255   5.863   6.611   3.982
 4452SOL    HW214256   5.812   6.566   3.833
 4453SOL     OW14257   0.203   2.956   1.161
 4453SOL    HW114258   0.299   2.950   1.134
 4453SOL    HW214259   0.158   3.028   1.108
 4454SOL     OW14260   6.818   1.922   6.825
 4454SOL    HW114261   6.758   1.992   6.785
 4454SOL    HW214262   6.864   1.872   6.752
 4455SOL     OW14263   3.531   6.242   6.331
 4455SOL    HW114264   3.605   6.181   6.304
 4455SOL    HW214265   3.465   6.250   6.256
 4456SOL     OW14266   2.998   5.358   2.179
 4456SOL    HW114267   2.903   5.358   2.146
 4456SOL    HW214268   3.032   5.264   2.183
 4457SOL     OW14269   4.100   2.457   0.934
 4457SOL    HW114270   4.018   2.474   0.988
 4457SOL    HW214271   4.101   2.520   0.856
 4458SOL     OW14272   1.099   3.806   6.572
 4458SOL    HW114273   1.158   3.818   6.493
 4458SOL    HW214274   1.093   3.709   6.595
 4459SOL     OW14275   4.828   0.668   3.570
 4459SOL    HW114276   4.768   0.679   3.649
 4459SOL    HW214277   4.873   0.579   3.574
 4460SOL     OW14278   2.846   2.919   5.586
 4460SOL    HW114279   2.782   2.952   5.517
 4460SOL    HW214280   2.846   2.981   5.665
 4461SOL     OW14281   1.118   0.712   2.123
 4461SOL    HW114282   1.120   0.637   2.189
 4461SOL    HW214283   1.147   0.678   2.034
 4462SOL     OW14284   6.516   4.164   1.996
 4462SOL    HW114285   6.473   4.143   1.907
 4462SOL    HW214286   6.601   4.112   2.005
 4463SOL     OW14287   4.820   3.029   6.845
 4463SOL    HW114288   4.772   3.016   6.758
 4463SOL    HW214289   4.786   2.964   6.912
 4464SOL     OW14290   6.913   4.981   0.499
 4464SOL    HW114291   6.866   5.008   0.415
 4464SOL    HW214292   6.876   5.034   0.576
 4465SOL     OW14293   2.505   5.532   2.388
 4465SOL    HW114294   2.469   5.453   2.438
 4465SOL    HW214295   2.494   5.615   2.444
 4466SOL     OW14296   2.231   1.065   3.060
 4466SOL    HW114297   2.222   1.121   3.142
 4466SOL    HW214298   2.209   0.970   3.081
 4467SOL     OW14299   2.006   0.063   3.256
 4467SOL    HW114300   1.908   0.044   3.247
 4467SOL    HW214301   2.053   7.002   3.285
 4468SOL     OW14302   1.832   3.110   1.170
 4468SOL    HW114303   1.836   3.195   1.118
 4468SOL    HW214304   1.846   3.129   1.267
 4469SOL     OW14305   4.255   0.146   1.324
 4469SOL    HW114306   4.181   0.166   1.259
 4469SOL    HW214307   4.342   0.170   1.283
 4470SOL     OW14308   5.878   3.252   1.852
 4470SOL    HW114309   5.847   3.223   1.942
 4470SOL    HW214310   5.870   3.176   1.788
 4471SOL     OW14311   6.950   1.778   6.628
 4471SOL    HW114312   6.882   1.705   6.629
 4471SOL    HW214313   0.000   1.754   6.563
 4472SOL     OW14314   1.646   2.921   3.642
 4472SOL    HW114315   1.703   2.955   3.717
 4472SOL    HW214316   1.694   2.935   3.555
 4473SOL     OW14317   6.664   2.639   3.936
 4473SOL    HW114318   6.742   2.576   3.937
 4473SOL    HW214319   6.696   2.733   3.928
 4474SOL     OW14320   3.448   0.510   1.602
 4474SOL    HW114321   3.442   0.558   1.690
 4474SOL    HW214322   3.539   0.522   1.563
 4475SOL     OW14323   1.862   3.841   2.566
 4475SOL    HW114324   1.951   3.817   2.526
 4475SOL    HW214325   1.874   3.916   2.631
 4476SOL     OW14326   4.435   6.788   4.240
 4476SOL    HW114327   4.481   6.706   4.275
 4476SOL    HW214328   4.414   6.776   4.143
 4477SOL     OW14329   1.222   0.597   5.716
 4477SOL    HW114330   1.142   0.558   5.761
 4477SOL    HW214331   1.305   0.554   5.753
 4478SOL     OW14332   3.411   6.623   2.604
 4478SOL    HW114333   3.337   6.598   2.667
 4478SOL    HW214334   3.477   6.682   2.650
 4479SOL     OW14335   1.334   0.629   1.534
 4479SOL    HW114336   1.344   0.640   1.435
 4479SOL    HW214337   1.420   0.653   1.579
 4480SOL     OW14338   2.402   3.364   6.006
 4480SOL    HW114339   2.387   3.267   6.024
 4480SOL    HW214340   2.342   3.394   5.932
 4481SOL     OW14341   2.649   6.535   5.703
 4481SOL    HW114342   2.628   6.595   5.779
 4481SOL    HW214343   2.745   6.507   5.708
 4482SOL     OW14344   0.814   4.543   4.344
 4482SOL    HW114345   0.805   4.573   4.439
 4482SOL    HW214346   0.726   4.507   4.312
 4483SOL     OW14347   4.867   3.655   1.941
 4483SOL    HW114348   4.965   3.643   1.926
 4483SOL    HW214349   4.822   3.566   1.943
 4484SOL     OW14350   3.273   3.027   5.529
 4484SOL    HW114351   3.285   3.117   5.487
 4484SOL    HW214352   3.226   2.966   5.464
 4485SOL     OW14353   4.674   1.982   5.241
 4485SOL    HW114354   4.654   2.065   5.293
 4485SOL    HW214355   4.743   1.928   5.290
 4486SOL     OW14356   4.902   4.457   4.649
 4486SOL    HW114357   4.979   4.395   4.660
 4486SOL    HW214358   4.828   4.429   4.710
 4487SOL     OW14359   2.709   2.825   6.213
 4487SOL    HW114360   2.617   2.789   6.193
 4487SOL    HW214361   2.718   2.916   6.172
 4488SOL     OW14362   6.348   3.511   5.871
 4488SOL    HW114363   6.311   3.584   5.814
 4488SOL    HW214364   6.388   3.441   5.813
 4489SOL     OW14365   6.012   5.520   4.564
 4489SOL    HW114366   6.097   5.523   4.512
 4489SOL    HW214367   5.954   5.597   4.538
 4490SOL     OW14368   6.185   2.509   3.102
 4490SOL    HW114369   6.145   2.430   3.055
 4490SOL    HW214370   6.113   2.563   3.144
 4491SOL     OW14371   0.242   2.636   4.603
 4491SOL    HW114372   0.330   2.601   4.572
 4491SOL    HW214373   0.208   2.704   4.538
 4492SOL     OW14374   5.356   4.388   1.944
 4492SOL    HW114375   5.448   4.364   1.975
 4492SOL    HW214376   5.297   4.308   1.949
 4493SOL     OW14377   4.820   6.469   5.460
 4493SOL    HW114378   4.767   6.533   5.516
 4493SOL    HW214379   4.879   6.414   5.520
 4494SOL     OW14380   6.919   1.405   5.877
 4494SOL    HW114381   6.977   1.409   5.796
 4494SOL    HW214382   6.901   1.309   5.901
 4495SOL     OW14383   4.184   6.254   4.444
 4495SOL    HW114384   4.129   6.239   4.526
 4495SOL    HW214385   4.275   6.285   4.470
 4496SOL     OW14386   5.451   5.340   1.070
 4496SOL    HW114387   5.432   5.335   1.168
 4496SOL    HW214388   5.423   5.255   1.026
 4497SOL     OW14389   4.598   0.917   6.799
 4497SOL    HW114390   4.566   0.828   6.831
 4497SOL    HW214391   4.520   0.970   6.765
 4498SOL     OW14392   6.654   3.548   6.306
 4498SOL    HW114393   6.556   3.568   6.298
 4498SOL    HW214394   6.702   3.631   6.335
 4499SOL     OW14395   0.076   3.479   4.049
 4499SOL    HW114396   0.114   3.410   3.987
 4499SOL    HW214397   7.000   3.463   4.061
 4500SOL     OW14398   2.990   3.578   3.602
 4500SOL    HW114399   2.942   3.530   3.676
 4500SOL    HW214400   3.065   3.632   3.639
 4501SOL     OW14401   0.042   3.083   5.418
 4501SOL    HW114402   6.989   3.133   5.459
 4501SOL    HW214403   0.042   2.989   5.453
 4502SOL     OW14404   0.849   2.318   6.589
 4502SOL    HW114405   0.928   2.314   6.650
 4502SOL    HW214406   0.881   2.318   6.494
 4503SOL     OW14407   3.338   6.987   2.150
 4503SOL    HW114408   3.319   6.977   2.248
 4503SOL    HW214409   3.407   6.920   2.123
 4504SOL     OW14410   6.561   1.903   4.736
 4504SOL    HW114411   6.607   1.852   4.808
 4504SOL    HW214412   6.565   1.852   4.651
 4505SOL     OW14413   6.074   5.913   2.696
 4505SOL    HW114414   6.117   5.928   2.786
 4505SOL    HW214415   5.983   5.873   2.709
 4506SOL     OW14416   4.182   2.289   3.749
 4506SOL    HW114417   4.244   2.354   3.705
 4506SOL    HW214418   4.136   2.235   3.678
 4507SOL     OW14419   5.938   5.106   2.457
 4507SOL    HW114420   5.894   5.194   2.438
 4507SOL    HW214421   5.872   5.046   2.502
 4508SOL     OW14422   0.996   4.673   6.032
 4508SOL    HW114423   0.983   4.712   5.941
 4508SOL    HW214424   1.064   4.726   6.082
 4509SOL     OW14425   4.971   2.620   2.545
 4509SOL    HW114426   4.991   2.524   2.565
 4509SOL    HW214427   4.872   2.634   2.540
 4510SOL     OW14428   4.800   0.775   4.577
 4510SOL    HW114429   4.809   0.873   4.558
 4510SOL    HW214430   4.868   0.724   4.525
 4511SOL     OW14431   6.773   3.371   6.497
 4511SOL    HW114432   6.722   3.434   6.439
 4511SOL    HW214433   6.724   3.284   6.503
 4512SOL     OW14434   2.349   0.059   5.784
 4512SOL    HW114435   2.312   0.103   5.866
 4512SOL    HW214436   2.300   0.094   5.704
 4513SOL     OW14437   5.545   6.291   0.406
 4513SOL    HW114438   5.462   6.234   0.411
 4513SOL    HW214439   5.543   6.345   0.322
 4514SOL     OW14440   4.409   1.500   5.842
 4514SOL    HW114441   4.471   1.456   5.907
 4514SOL    HW214442   4.331   1.537   5.891
 4515SOL     OW14443   0.127   3.074   5.832
 4515SOL    HW114444   0.204   3.010   5.832
 4515SOL    HW214445   0.140   3.142   5.760
 4516SOL     OW14446   1.521   0.323   0.184
 4516SOL    HW114447   1.570   0.409   0.169
 4516SOL    HW214448   1.462   0.331   0.265
 4517SOL     OW14449   2.909   1.244   6.783
 4517SOL    HW114450   2.996   1.276   6.746
 4517SOL    HW214451   2.895   1.284   6.874
 4518SOL     OW14452   6.651   1.061   3.319
 4518SOL    HW114453   6.702   1.029   3.399
 4518SOL    HW214454   6.715   1.086   3.247
 4519SOL     OW14455   5.642   0.366   1.943
 4519SOL    HW114456   5.588   0.446   1.971
 4519SOL    HW214457   5.589   0.283   1.961
 4520SOL     OW14458   4.773   6.077   3.928
 4520SOL    HW114459   4.685   6.121   3.948
 4520SOL    HW214460   4.835   6.090   4.006
 4521SOL     OW14461   5.778   2.222   3.498
 4521SOL    HW114462   5.827   2.259   3.577
 4521SOL    HW214463   5.721   2.146   3.528
 4522SOL     OW14464   6.059   6.966   3.304
 4522SOL    HW114465   6.086   6.907   3.380
 4522SOL    HW214466   6.092   0.036   3.322
 4523SOL     OW14467   1.825   4.542   0.225
 4523SOL    HW114468   1.880   4.615   0.184
 4523SOL    HW214469   1.847   4.455   0.182
 4524SOL     OW14470   5.533   2.795   3.809
 4524SOL    HW114471   5.598   2.762   3.877
 4524SOL    HW214472   5.506   2.721   3.748
 4525SOL     OW14473   5.241   1.056   3.172
 4525SOL    HW114474   5.178   1.008   3.233
 4525SOL    HW214475   5.252   1.003   3.088
 4526SOL     OW14476   5.836   0.344   1.339
 4526SOL    HW114477   5.845   0.424   1.280
 4526SOL    HW214478   5.755   0.355   1.398
 4527SOL     OW14479   3.959   1.376   3.462
 4527SOL    HW114480   4.053   1.411   3.451
 4527SOL    HW214481   3.952   1.324   3.546
 4528SOL     OW14482   4.412   0.100   0.192
 4528SOL    HW114483   4.420   0.184   0.246
 4528SOL    HW214484   4.487   0.096   0.126
 4529SOL     OW14485   3.411   1.343   5.338
 4529SOL    HW114486   3.361   1.261   5.308
 4529SOL    HW214487   3.414   1.409   5.263
 4530SOL     OW14488   1.084   3.653   6.243
 4530SOL    HW114489   1.045   3.648   6.151
 4530SOL    HW214490   1.045   3.581   6.300
 4531SOL     OW14491   0.381   3.863   3.981
 4531SOL    HW114492   0.292   3.826   3.956
 4531SOL    HW214493   0.432   3.794   4.033
 4532SOL     OW14494   5.910   2.134   3.278
 4532SOL    HW114495   5.852   2.168   3.352
 4532SOL    HW214496   5.972   2.064   3.313
 4533SOL     OW14497   1.454   0.628   2.214
 4533SOL    HW114498   1.470   0.538   2.174
 4533SOL    HW214499   1.456   0.620   2.314
 4534SOL     OW14500   4.684   4.253   4.849
 4534SOL    HW114501   4.644   4.162   4.843
 4534SOL    HW214502   4.624   4.312   4.903
 4535SOL     OW14503   4.872   1.525   2.342
 4535SOL    HW114504   4.812   1.450   2.368
 4535SOL    HW214505   4.966   1.492   2.332
 4536SOL     OW14506   3.927   1.501   3.813
 4536SOL    HW114507   3.852   1.515   3.877
 4536SOL    HW214508   4.014   1.512   3.861
 4537SOL     OW14509   3.765   3.196   5.682
 4537SOL    HW114510   3.751   3.163   5.776
 4537SOL    HW214511   3.861   3.189   5.658
 4538SOL     OW14512   2.623   0.204   4.087
 4538SOL    HW114513   2.530   0.236   4.070
 4538SOL    HW214514   2.650   0.229   4.180
 4539SOL     OW14515   2.314   0.962   4.543
 4539SOL    HW114516   2.286   0.878   4.495
 4539SOL    HW214517   2.258   0.973   4.625
 4540SOL     OW14518   3.080   3.561   4.785
 4540SOL    HW114519   3.056   3.511   4.868
 4540SOL    HW214520   3.029   3.523   4.708
 4541SOL     OW14521   5.879   1.597   0.981
 4541SOL    HW114522   5.781   1.616   0.982
 4541SOL    HW214523   5.921   1.635   0.899
 4542SOL     OW14524   6.339   0.956   3.108
 4542SOL    HW114525   6.299   1.045   3.130
 4542SOL    HW214526   6.280   0.907   3.043
 4543SOL     OW14527   4.786   1.810   1.677
 4543SOL    HW114528   4.849   1.740   1.642
 4543SOL    HW214529   4.696   1.797   1.636
 4544SOL     OW14530   3.296   6.413   6.184
 4544SOL    HW114531   3.225   6.458   6.238
 4544SOL    HW214532   3.319   6.471   6.105
 4545SOL     OW14533   5.301   3.966   5.212
 4545SOL    HW114534   5.393   3.960   5.174
 4545SOL    HW214535   5.273   3.876   5.245
 4546SOL     OW14536   2.446   1.437   6.479
 4546SOL    HW114537   2.421   1.380   6.558
 4546SOL    HW214538   2.429   1.385   6.395
 4547SOL     OW14539   5.924   2.678   3.087
 4547SOL    HW114540   5.870   2.723   3.158
 4547SOL    HW214541   5.864   2.624   3.028
 4548SOL     OW14542   1.000   4.236   4.871
 4548SOL    HW114543   1.096   4.255   4.853
 4548SOL    HW214544   0.950   4.230   4.784
 4549SOL     OW14545   6.010   4.475   2.232
 4549SOL    HW114546   5.976   4.567   2.213
 4549SOL    HW214547   5.983   4.448   2.325
 4550SOL     OW14548   1.632   5.758   3.129
 4550SOL    HW114549   1.671   5.838   3.175
 4550SOL    HW214550   1.704   5.693   3.108
 4551SOL     OW14551   6.202   1.759   5.879
 4551SOL    HW114552   6.136   1.689   5.906
 4551SOL    HW214553   6.154   1.840   5.846
 4552SOL     OW14554   6.313   2.795   1.036
 4552SOL    HW114555   6.394   2.808   0.978
 4552SOL    HW214556   6.247   2.868   1.018
 4553SOL     OW14557   3.989   4.469   6.366
 4553SOL    HW114558   3.949   4.392   6.416
 4553SOL    HW214559   4.089   4.459   6.363
 4554SOL     OW14560   4.742   0.172   1.108
 4554SOL    HW114561   4.757   0.087   1.056
 4554SOL    HW214562   4.806   0.175   1.184
 4555SOL     OW14563   3.137   1.149   5.744
 4555SOL    HW114564   3.120   1.207   5.664
 4555SOL    HW214565   3.229   1.110   5.738
 4556SOL     OW14566   4.634   2.626   4.101
 4556SOL    HW114567   4.709   2.566   4.073
 4556SOL    HW214568   4.547   2.579   4.090
 4557SOL     OW14569   4.722   6.806   4.809
 4557SOL    HW114570   4.714   6.769   4.717
 4557SOL    HW214571   4.783   6.885   4.808
 4558SOL     OW14572   0.457   3.429   5.600
 4558SOL    HW114573   0.419   3.496   5.536
 4558SOL    HW214574   0.535   3.383   5.558
 4559SOL     OW14575   1.050   3.959   1.622
 4559SOL    HW114576   1.072   3.959   1.720
 4559SOL    HW214577   1.092   3.879   1.579
 4560SOL     OW14578   5.556   5.055   2.528
 4560SOL    HW114579   5.531   5.081   2.621
 4560SOL    HW214580   5.577   5.137   2.475
 4561SOL     OW14581   2.368   0.572   1.514
 4561SOL    HW114582   2.342   0.577   1.418
 4561SOL    HW214583   2.379   0.665   1.550
 4562SOL     OW14584   3.597   6.338   5.074
 4562SOL    HW114585   3.497   6.344   5.068
 4562SOL    HW214586   3.623   6.255   5.124
 4563SOL     OW14587   0.886   4.076   1.010
 4563SOL    HW114588   0.816   4.094   1.079
 4563SOL    HW214589   0.964   4.032   1.053
 4564SOL     OW14590   6.894   0.164   0.863
 4564SOL    HW114591   6.903   0.135   0.767
 4564SOL    HW214592   6.889   0.264   0.867
 4565SOL     OW14593   6.998   1.174   5.338
 4565SOL    HW114594   0.037   1.143   5.411
 4565SOL    HW214595   0.022   1.243   5.283
 4566SOL     OW14596   6.814   1.184   0.109
 4566SOL    HW114597   6.791   1.248   0.037
 4566SOL    HW214598   6.887   1.123   0.078
 4567SOL     OW14599   6.946   0.563   0.056
 4567SOL    HW114600   6.878   0.597   0.121
 4567SOL    HW214601   6.900   0.536   6.994
 4568SOL     OW14602   1.469   4.062   5.409
 4568SOL    HW114603   1.448   4.119   5.488
 4568SOL    HW214604   1.527   3.986   5.437
 4569SOL     OW14605   2.000   0.866   3.497
 4569SOL    HW114606   1.998   0.957   3.538
 4569SOL    HW214607   2.059   0.867   3.416
 4570SOL     OW14608   1.178   6.398   2.899
 4570SOL    HW114609   1.227   6.430   2.980
 4570SOL    HW214610   1.209   6.450   2.819
 4571SOL     OW14611   3.771   3.074   6.173
 4571SOL    HW114612   3.686   3.126   6.178
 4571SOL    HW214613   3.750   2.978   6.153
 4572SOL     OW14614   1.072   6.687   0.250
 4572SOL    HW114615   1.167   6.676   0.220
 4572SOL    HW214616   1.020   6.737   0.181
 4573SOL     OW14617   6.553   6.478   0.549
 4573SOL    HW114618   6.506   6.566   0.556
 4573SOL    HW214619   6.565   6.439   0.640
 4574SOL     OW14620   6.792   3.854   1.240
 4574SOL    HW114621   6.836   3.932   1.197
 4574SOL    HW214622   6.693   3.860   1.227
 4575SOL     OW14623   5.935   1.878   6.402
 4575SOL    HW114624   5.945   1.778   6.406
 4575SOL    HW214625   5.994   1.915   6.331
 4576SOL     OW14626   2.039   5.857   6.686
 4576SOL    HW114627   1.997   5.934   6.734
 4576SOL    HW214628   2.020   5.863   6.588
 4577SOL     OW14629   0.840   1.862   4.285
 4577SOL    HW114630   0.780   1.919   4.228
 4577SOL    HW214631   0.922   1.838   4.234
 4578SOL     OW14632   0.840   3.518   4.492
 4578SOL    HW114633   0.842   3.596   4.554
 4578SOL    HW214634   0.817   3.435   4.543
 4579SOL     OW14635   5.021   2.169   3.421
 4579SOL    HW114636   4.923   2.169   3.438
 4579SOL    HW214637   5.069   2.127   3.498
 4580SOL     OW14638   4.636   4.740   0.104
 4580SOL    HW114639   4.721   4.744   0.157
 4580SOL    HW214640   4.561   4.777   0.159
 4581SOL     OW14641   2.909   4.808   3.122
 4581SOL    HW114642   3.008   4.808   3.113
 4581SOL    HW214643   2.884   4.801   3.219
 4582SOL     OW14644   5.595   6.365   4.749
 4582SOL    HW114645   5.640   6.419   4.678
 4582SOL    HW214646   5.661   6.344   4.822
 4583SOL     OW14647   2.647   1.985   5.486
 4583SOL    HW114648   2.614   1.894   5.459
 4583SOL    HW214649   2.698   2.026   5.411
 4584SOL     OW14650   0.347   5.384   5.810
 4584SOL    HW114651   0.276   5.338   5.863
 4584SOL    HW214652   0.308   5.466   5.767
 4585SOL     OW14653   2.617   6.409   3.359
 4585SOL    HW114654   2.684   6.335   3.359
 4585SOL    HW214655   2.525   6.371   3.356
 4586SOL     OW14656   3.561   4.729   0.381
 4586SOL    HW114657   3.597   4.637   0.364
 4586SOL    HW214658   3.532   4.736   0.477
 4587SOL     OW14659   4.108   3.950   1.837
 4587SOL    HW114660   4.084   3.907   1.924
 4587SOL    HW214661   4.146   3.880   1.776
 4588SOL     OW14662   3.757   3.927   5.418
 4588SOL    HW114663   3.724   4.021   5.415
 4588SOL    HW214664   3.848   3.925   5.459
 4589SOL     OW14665   5.558   0.960   2.667
 4589SOL    HW114666   5.524   1.053   2.651
 4589SOL    HW214667   5.496   0.894   2.624
 4590SOL     OW14668   4.742   5.669   0.279
 4590SOL    HW114669   4.762   5.723   0.197
 4590SOL    HW214670   4.699   5.582   0.253
 4591SOL     OW14671   1.023   6.160   4.682
 4591SOL    HW114672   0.987   6.246   4.647
 4591SOL    HW214673   0.948   6.095   4.696
 4592SOL     OW14674   3.369   1.503   1.868
 4592SOL    HW114675   3.457   1.536   1.835
 4592SOL    HW214676   3.298   1.568   1.843
 4593SOL     OW14677   4.289   5.648   3.649
 4593SOL    HW114678   4.191   5.660   3.636
 4593SOL    HW214679   4.336   5.736   3.635
 4594SOL     OW14680   3.054   0.226   1.811
 4594SOL    HW114681   3.036   0.288   1.887
 4594SOL    HW214682   3.084   0.138   1.846
 4595SOL     OW14683   3.646   2.291   6.189
 4595SOL    HW114684   3.743   2.306   6.205
 4595SOL    HW214685   3.626   2.298   6.091
 4596SOL     OW14686   5.838   6.780   2.919
 4596SOL    HW114687   5.842   6.817   3.012
 4596SOL    HW214688   5.752   6.731   2.907
 4597SOL     OW14689   4.466   4.202   6.782
 4597SOL    HW114690   4.496   4.256   6.703
 4597SOL    HW214691   4.505   4.111   6.777
 4598SOL     OW14692   2.057   5.407   0.024
 4598SOL    HW114693   2.105   5.490   0.053
 4598SOL    HW214694   2.086   5.382   6.954
 4599SOL     OW14695   1.159   5.153   0.351
 4599SOL    HW114696   1.240   5.102   0.323
 4599SOL    HW214697   1.077   5.102   0.327
 4600SOL     OW14698   1.079   4.799   5.447
 4600SOL    HW114699   1.160   4.741   5.444
 4600SOL    HW214700   1.009   4.755   5.504
 4601SOL     OW14701   1.496   6.835   5.577
 4601SOL    HW114702   1.595   6.824   5.586
 4601SOL    HW214703   1.463   6.901   5.645
 4602SOL     OW14704   1.064   5.622   1.590
 4602SOL    HW114705   0.995   5.576   1.646
 4602SOL    HW214706   1.023   5.701   1.544
 4603SOL     OW14707   3.044   6.206   0.975
 4603SOL    HW114708   3.110   6.200   0.900
 4603SOL    HW214709   2.961   6.251   0.942
 4604SOL     OW14710   4.561   0.394   1.675
 4604SOL    HW114711   4.577   0.323   1.743
 4604SOL    HW214712   4.633   0.391   1.606
 4605SOL     OW14713   3.286   0.963   3.497
 4605SOL    HW114714   3.379   0.958   3.534
 4605SOL    HW214715   3.290   0.956   3.397
 4606SOL     OW14716   0.725   0.384   1.758
 4606SOL    HW114717   0.822   0.395   1.780
 4606SOL    HW214718   0.696   0.460   1.700
 4607SOL     OW14719   2.477   2.300   0.762
 4607SOL    HW114720   2.438   2.355   0.836
 4607SOL    HW214721   2.574   2.324   0.752
 4608SOL     OW14722   1.176   5.989   3.687
 4608SOL    HW114723   1.155   6.057   3.618
 4608SOL    HW214724   1.251   6.021   3.745
 4609SOL     OW14725   4.623   4.853   6.117
 4609SOL    HW114726   4.711   4.846   6.070
 4609SOL    HW214727   4.595   4.949   6.120
 4610SOL     OW14728   5.230   2.722   0.929
 4610SOL    HW114729   5.243   2.796   0.863
 4610SOL    HW214730   5.189   2.643   0.883
 4611SOL     OW14731   0.417   6.158   5.791
 4611SOL    HW114732   0.351   6.222   5.830
 4611SOL    HW214733   0.439   6.087   5.858
 4612SOL     OW14734   0.887   5.779   0.126
 4612SOL    HW114735   0.850   5.687   0.141
 4612SOL    HW214736   0.941   5.807   0.205
 4613SOL     OW14737   2.231   5.825   2.255
 4613SOL    HW114738   2.185   5.736   2.252
 4613SOL    HW214739   2.306   5.827   2.189
 4614SOL     OW14740   6.865   3.789   4.354
 4614SOL    HW114741   6.855   3.863   4.420
 4614SOL    HW214742   6.927   3.719   4.390
 4615SOL     OW14743   1.940   0.792   0.334
 4615SOL    HW114744   1.995   0.709   0.327
 4615SOL    HW214745   2.000   0.872   0.336
 4616SOL     OW14746   6.358   0.854   5.824
 4616SOL    HW114747   6.447   0.811   5.836
 4616SOL    HW214748   6.361   0.916   5.746
 4617SOL     OW14749   0.688   2.675   2.124
 4617SOL    HW114750   0.602   2.628   2.143
 4617SOL    HW214751   0.762   2.630   2.172
 4618SOL     OW14752   2.042   2.695   5.234
 4618SOL    HW114753   2.075   2.787   5.210
 4618SOL    HW214754   1.942   2.695   5.232
 4619SOL     OW14755   3.300   6.203   2.984
 4619SOL    HW114756   3.344   6.140   2.920
 4619SOL    HW214757   3.363   6.278   3.005
 4620SOL     OW14758   2.944   4.592   0.331
 4620SOL    HW114759   2.971   4.646   0.411
 4620SOL    HW214760   2.848   4.608   0.311
 4621SOL     OW14761   5.041   1.223   2.576
 4621SOL    HW114762   4.965   1.163   2.550
 4621SOL    HW214763   5.062   1.284   2.500
 4622SOL     OW14764   2.461   4.030   0.329
 4622SOL    HW114765   2.426   4.026   0.423
 4622SOL    HW214766   2.542   3.972   0.321
 4623SOL     OW14767   6.242   6.270   0.683
 4623SOL    HW114768   6.317   6.228   0.632
 4623SOL    HW214769   6.250   6.370   0.678
 4624SOL     OW14770   5.526   0.374   3.357
 4624SOL    HW114771   5.587   0.428   3.299
 4624SOL    HW214772   5.577   0.337   3.435
 4625SOL     OW14773   1.539   4.060   0.137
 4625SOL    HW114774   1.629   4.017   0.147
 4625SOL    HW214775   1.476   3.995   0.093
 4626SOL     OW14776   5.502   5.606   2.172
 4626SOL    HW114777   5.467   5.689   2.216
 4626SOL    HW214778   5.433   5.570   2.109
 4627SOL     OW14779   2.864   5.138   4.237
 4627SOL    HW114780   2.888   5.057   4.183
 4627SOL    HW214781   2.797   5.112   4.307
 4628SOL     OW14782   5.692   4.139   4.165
 4628SOL    HW114783   5.666   4.056   4.214
 4628SOL    HW214784   5.785   4.128   4.129
 4629SOL     OW14785   2.270   5.249   5.703
 4629SOL    HW114786   2.189   5.197   5.677
 4629SOL    HW214787   2.330   5.259   5.624
 4630SOL     OW14788   3.828   5.535   2.275
 4630SOL    HW114789   3.835   5.631   2.304
 4630SOL    HW214790   3.920   5.495   2.271
 4631SOL     OW14791   2.332   6.570   3.195
 4631SOL    HW114792   2.374   6.494   3.145
 4631SOL    HW214793   2.305   6.539   3.286
 4632SOL     OW14794   4.016   5.165   2.588
 4632SOL    HW114795   4.076   5.134   2.514
 4632SOL    HW214796   3.980   5.256   2.566
 4633SOL     OW14797   5.331   1.354   3.608
 4633SOL    HW114798   5.349   1.290   3.683
 4633SOL    HW214799   5.251   1.324   3.556
 4634SOL     OW14800   2.665   4.758   6.072
 4634SOL    HW114801   2.643   4.661   6.063
 4634SOL    HW214802   2.584   4.807   6.106
 4635SOL     OW14803   5.516   3.850   1.323
 4635SOL    HW114804   5.435   3.865   1.265
 4635SOL    HW214805   5.489   3.852   1.419
 4636SOL     OW14806   2.268   4.640   0.063
 4636SOL    HW114807   2.293   4.543   0.063
 4636SOL    HW214808   2.342   4.694   0.024
 4637SOL     OW14809   1.030   0.418   6.970
 4637SOL    HW114810   1.118   0.410   7.017
 4637SOL    HW214811   0.956   0.414   0.015
 4638SOL     OW14812   4.971   3.206   0.131
 4638SOL    HW114813   5.067   3.178   0.129
 4638SOL    HW214814   4.917   3.134   0.176
 4639SOL     OW14815   2.362   4.393   5.339
 4639SOL    HW114816   2.450   4.438   5.356
 4639SOL    HW214817   2.290   4.462   5.335
 4640SOL     OW14818   5.056   4.857   3.497
 4640SOL    HW114819   5.082   4.895   3.409
 4640SOL    HW214820   5.078   4.923   3.570
 4641SOL     OW14821   2.488   6.298   4.877
 4641SOL    HW114822   2.464   6.236   4.952
 4641SOL    HW214823   2.445   6.387   4.892
 4642SOL     OW14824   0.181   5.236   3.907
 4642SOL    HW114825   0.163   5.163   3.973
 4642SOL    HW214826   0.272   5.223   3.867
 4643SOL     OW14827   5.927   2.848   1.277
 4643SOL    HW114828   5.926   2.935   1.326
 4643SOL    HW214829   6.015   2.802   1.291
 4644SOL     OW14830   0.562   4.640   5.036
 4644SOL    HW114831   0.481   4.582   5.024
 4644SOL    HW214832   0.550   4.725   4.985
 4645SOL     OW14833   0.856   1.480   4.510
 4645SOL    HW114834   0.834   1.496   4.414
 4645SOL    HW214835   0.891   1.387   4.521
 4646SOL     OW14836   2.468   5.374   3.907
 4646SOL    HW114837   2.512   5.344   3.823
 4646SOL    HW214838   2.436   5.468   3.896
 4647SOL     OW14839   1.507   1.142   3.813
 4647SOL    HW114840   1.550   1.134   3.903
 4647SOL    HW214841   1.517   1.236   3.780
 4648SOL     OW14842   4.604   1.100   2.207
 4648SOL    HW114843   4.512   1.070   2.232
 4648SOL    HW214844   4.601   1.142   2.116
 4649SOL     OW14845   5.541   0.329   6.369
 4649SOL    HW114846   5.554   0.251   6.430
 4649SOL    HW214847   5.613   0.397   6.387
 4650SOL     OW14848   4.875   5.491   3.598
 4650SOL    HW114849   4.929   5.574   3.612
 4650SOL    HW214850   4.809   5.482   3.672
 4651SOL     OW14851   6.817   1.310   0.937
 4651SOL    HW114852   6.806   1.350   0.846
 4651SOL    HW214853   6.893   1.245   0.936
 4652SOL     OW14854   0.140   0.190   4.390
 4652SOL    HW114855   0.217   0.196   4.326
 4652SOL    HW214856   0.144   0.104   4.440
 4653SOL     OW14857   5.779   5.184   0.133
 4653SOL    HW114858   5.691   5.139   0.148
 4653SOL    HW214859   5.815   5.159   0.043
 4654SOL     OW14860   0.584   6.569   0.396
 4654SOL    HW114861   0.497   6.565   0.346
 4654SOL    HW214862   0.614   6.664   0.403
 4655SOL     OW14863   6.511   4.931   1.907
 4655SOL    HW114864   6.441   4.898   1.844
 4655SOL    HW214865   6.490   5.025   1.933
 4656SOL     OW14866   1.233   0.387   3.871
 4656SOL    HW114867   1.291   0.356   3.946
 4656SOL    HW214868   1.192   0.308   3.826
 4657SOL     OW14869   5.539   6.185   1.410
 4657SOL    HW114870   5.591   6.207   1.492
 4657SOL    HW214871   5.522   6.086   1.406
 4658SOL     OW14872   4.263   1.549   2.660
 4658SOL    HW114873   4.260   1.449   2.653
 4658SOL    HW214874   4.215   1.590   2.582
 4659SOL     OW14875   3.089   4.277   5.283
 4659SOL    HW114876   3.041   4.363   5.262
 4659SOL    HW214877   3.028   4.200   5.265
 4660SOL     OW14878   1.138   4.040   5.559
 4660SOL    HW114879   1.189   4.010   5.479
 4660SOL    HW214880   1.048   3.996   5.561
 4661SOL     OW14881   3.284   3.790   5.636
 4661SOL    HW114882   3.310   3.701   5.674
 4661SOL    HW214883   3.365   3.834   5.597
 4662SOL     OW14884   3.891   6.958   4.985
 4662SOL    HW114885   3.903   6.917   4.895
 4662SOL    HW214886   3.939   0.023   4.988
 4663SOL     OW14887   0.766   1.423   2.721
 4663SOL    HW114888   0.728   1.339   2.683
 4663SOL    HW214889   0.802   1.405   2.812
 4664SOL     OW14890   1.549   1.344   0.443
 4664SOL    HW114891   1.526   1.293   0.360
 4664SOL    HW214892   1.580   1.436   0.417
 4665SOL     OW14893   3.564   6.993   0.404
 4665SOL    HW114894   3.607   6.913   0.364
 4665SOL    HW214895   3.541   0.036   0.332
 4666SOL     OW14896   1.404   2.144   1.158
 4666SOL    HW114897   1.498   2.118   1.137
 4666SOL    HW214898   1.389   2.240   1.134
 4667SOL     OW14899   6.317   3.853   2.007
 4667SOL    HW114900   6.245   3.786   2.028
 4667SOL    HW214901   6.311   3.929   2.072
 4668SOL     OW14902   5.055   2.038   2.983
 4668SOL    HW114903   5.062   2.025   3.082
 4668SOL    HW214904   5.096   1.960   2.936
 4669SOL     OW14905   4.308   6.726   6.661
 4669SOL    HW114906   4.317   6.678   6.748
 4669SOL    HW214907   4.216   6.762   6.651
 4670SOL     OW14908   3.163   2.216   5.371
 4670SOL    HW114909   3.185   2.251   5.279
 4670SOL    HW214910   3.084   2.265   5.407
 4671SOL     OW14911   6.661   2.708   2.479
 4671SOL    HW114912   6.622   2.676   2.565
 4671SOL    HW214913   6.596   2.690   2.405
 4672SOL     OW14914   2.773   4.113   6.191
 4672SOL    HW114915   2.843   4.067   6.136
 4672SOL    HW214916   2.815   4.191   6.239
 4673SOL     OW14917   5.167   6.582   1.354
 4673SOL    HW114918   5.079   6.623   1.379
 4673SOL    HW214919   5.219   6.561   1.437
 4674SOL     OW14920   4.849   0.074   6.557
 4674SOL    HW114921   4.752   0.071   6.583
 4674SOL    HW214922   4.858   0.053   6.460
 4675SOL     OW14923   0.436   1.380   6.414
 4675SOL    HW114924   0.368   1.307   6.421
 4675SOL    HW214925   0.424   1.428   6.327
 4676SOL     OW14926   6.884   6.271   3.836
 4676SOL    HW114927   6.848   6.188   3.879
 4676SOL    HW214928   6.854   6.275   3.741
 4677SOL     OW14929   2.841   1.133   0.178
 4677SOL    HW114930   2.779   1.127   0.256
 4677SOL    HW214931   2.799   1.089   0.099
 4678SOL     OW14932   1.903   4.805   3.220
 4678SOL    HW114933   1.980   4.750   3.190
 4678SOL    HW214934   1.823   4.785   3.164
 4679SOL     OW14935   3.465   0.537   0.994
 4679SOL    HW114936   3.479   0.622   1.045
 4679SOL    HW214937   3.538   0.473   1.016
 4680SOL     OW14938   3.145   1.692   6.828
 4680SOL    HW114939   3.132   1.770   6.768
 4680SOL    HW214940   3.185   1.616   6.776
 4681SOL     OW14941   5.553   5.029   0.122
 4681SOL    HW114942   5.582   4.936   0.142
 4681SOL    HW214943   5.508   5.032   0.033
 4682SOL     OW14944   4.824   4.683   5.270
 4682SOL    HW114945   4.840   4.584   5.272
 4682SOL    HW214946   4.810   4.716   5.363
 4683SOL     OW14947   5.304   5.191   2.514
 4683SOL    HW114948   5.328   5.108   2.463
 4683SOL    HW214949   5.292   5.266   2.450
 4684SOL     OW14950   5.763   0.958   5.442
 4684SOL    HW114951   5.838   0.981   5.380
 4684SOL    HW214952   5.755   0.858   5.448
 4685SOL     OW14953   1.407   5.102   5.691
 4685SOL    HW114954   1.401   5.024   5.630
 4685SOL    HW214955   1.404   5.187   5.638
 4686SOL     OW14956   4.319   5.118   6.823
 4686SOL    HW114957   4.374   5.164   6.753
 4686SOL    HW214958   4.371   5.041   6.861
 4687SOL     OW14959   4.980   3.402   4.508
 4687SOL    HW114960   4.997   3.331   4.577
 4687SOL    HW214961   4.932   3.479   4.551
 4688SOL     OW14962   5.919   4.321   5.515
 4688SOL    HW114963   6.008   4.285   5.544
 4688SOL    HW214964   5.933   4.406   5.464
 4689SOL     OW14965   4.753   0.918   0.106
 4689SOL    HW114966   4.751   1.005   0.056
 4689SOL    HW214967   4.840   0.871   0.087
 4690SOL     OW14968   0.818   0.362   0.081
 4690SOL    HW114969   0.725   0.326   0.068
 4690SOL    HW214970   0.840   0.361   0.178
 4691SOL     OW14971   2.938   4.315   0.988
 4691SOL    HW114972   2.984   4.266   1.061
 4691SOL    HW214973   3.002   4.330   0.912
 4692SOL     OW14974   5.763   5.604   2.210
 4692SOL    HW114975   5.664   5.598   2.204
 4692SOL    HW214976   5.793   5.698   2.196
 4693SOL     OW14977   1.007   1.906   3.323
 4693SOL    HW114978   0.978   1.946   3.410
 4693SOL    HW214979   1.096   1.945   3.297
 4694SOL     OW14980   2.124   1.032   6.964
 4694SOL    HW114981   2.097   0.954   7.022
 4694SOL    HW214982   2.062   1.108   6.981
 4695SOL     OW14983   1.228   4.526   2.386
 4695SOL    HW114984   1.175   4.543   2.469
 4695SOL    HW214985   1.200   4.590   2.315
 4696SOL     OW14986   0.345   3.859   0.470
 4696SOL    HW114987   0.334   3.821   0.378
 4696SOL    HW214988   0.397   3.795   0.527
 4697SOL     OW14989   1.572   3.677   1.240
 4697SOL    HW114990   1.543   3.758   1.188
 4697SOL    HW214991   1.603   3.606   1.177
 4698SOL     OW14992   4.394   5.806   2.591
 4698SOL    HW114993   4.432   5.742   2.525
 4698SOL    HW214994   4.303   5.775   2.620
 4699SOL     OW14995   0.896   6.738   2.254
 4699SOL    HW114996   0.956   6.660   2.240
 4699SOL    HW214997   0.950   6.816   2.287
 4700SOL     OW14998   6.908   1.014   2.896
 4700SOL    HW114999   6.825   0.975   2.856
 4700SOL    HW215000   6.967   1.047   2.822
 4701SOL     OW15001   2.641   2.270   0.450
 4701SOL    HW115002   2.736   2.239   0.454
 4701SOL    HW215003   2.636   2.354   0.394
 4702SOL     OW15004   4.870   4.793   0.263
 4702SOL    HW115005   4.952   4.796   0.206
 4702SOL    HW215006   4.852   4.884   0.301
 4703SOL     OW15007   0.180   1.537   2.496
 4703SOL    HW115008   0.144   1.627   2.474
 4703SOL    HW215009   0.134   1.502   2.578
 4704SOL     OW15010   6.400   6.357   6.468
 4704SOL    HW115011   6.400   6.428   6.539
 4704SOL    HW215012   6.416   6.400   6.379
 4705SOL     OW15013   4.002   2.766   1.100
 4705SOL    HW115014   4.003   2.748   1.198
 4705SOL    HW215015   4.092   2.801   1.072
 4706SOL     OW15016   2.481   0.129   0.719
 4706SOL    HW115017   2.467   0.164   0.811
 4706SOL    HW215018   2.532   0.043   0.722
 4707SOL     OW15019   0.902   6.836   0.419
 4707SOL    HW115020   0.844   6.851   0.339
 4707SOL    HW215021   0.976   6.773   0.395
 4708SOL     OW15022   1.365   2.426   6.183
 4708SOL    HW115023   1.299   2.398   6.252
 4708SOL    HW215024   1.458   2.419   6.220
 4709SOL     OW15025   4.613   5.726   5.323
 4709SOL    HW115026   4.595   5.642   5.270
 4709SOL    HW215027   4.584   5.805   5.269
 4710SOL     OW15028   4.853   0.031   5.960
 4710SOL    HW115029   4.947   0.016   5.991
 4710SOL    HW215030   4.853   0.094   5.883
 4711SOL     OW15031   6.148   0.930   1.428
 4711SOL    HW115032   6.150   0.875   1.511
 4711SOL    HW215033   6.242   0.950   1.399
 4712SOL     OW15034   3.087   5.071   6.506
 4712SOL    HW115035   3.101   5.065   6.407
 4712SOL    HW215036   3.015   5.007   6.533
 4713SOL     OW15037   3.608   4.514   0.887
 4713SOL    HW115038   3.685   4.478   0.940
 4713SOL    HW215039   3.606   4.472   0.797
 4714SOL     OW15040   0.776   1.865   6.361
 4714SOL    HW115041   0.778   1.945   6.420
 4714SOL    HW215042   0.785   1.782   6.416
 4715SOL     OW15043   5.940   3.436   2.281
 4715SOL    HW115044   5.942   3.536   2.282
 4715SOL    HW215045   6.034   3.401   2.275
 4716SOL     OW15046   4.302   6.794   6.143
 4716SOL    HW115047   4.335   6.701   6.124
 4716SOL    HW215048   4.235   6.791   6.217
 4717SOL     OW15049   0.571   6.108   3.989
 4717SOL    HW115050   0.535   6.180   4.048
 4717SOL    HW215051   0.495   6.050   3.958
 4718SOL     OW15052   6.117   2.104   1.286
 4718SOL    HW115053   6.040   2.147   1.238
 4718SOL    HW215054   6.194   2.168   1.289
 4719SOL     OW15055   4.711   3.205   1.674
 4719SOL    HW115056   4.676   3.140   1.742
 4719SOL    HW215057   4.708   3.298   1.712
 4720SOL     OW15058   2.216   5.119   6.057
 4720SOL    HW115059   2.298   5.118   5.999
 4720SOL    HW215060   2.186   5.213   6.070
 4721SOL     OW15061   6.603   2.041   2.389
 4721SOL    HW115062   6.652   1.992   2.318
 4721SOL    HW215063   6.659   2.046   2.472
 4722SOL     OW15064   1.222   6.306   6.676
 4722SOL    HW115065   1.291   6.342   6.613
 4722SOL    HW215066   1.236   6.208   6.688
 4723SOL     OW15067   2.946   3.052   5.815
 4723SOL    HW115068   2.915   3.142   5.784
 4723SOL    HW215069   2.895   3.025   5.897
 4724SOL     OW15070   6.337   6.812   3.577
 4724SOL    HW115071   6.278   6.731   3.577
 4724SOL    HW215072   6.364   6.834   3.484
 4725SOL     OW15073   6.834   5.051   1.093
 4725SOL    HW115074   6.831   5.002   1.006
 4725SOL    HW215075   6.843   5.149   1.076
 4726SOL     OW15076   0.958   3.182   6.203
 4726SOL    HW115077   1.031   3.227   6.152
 4726SOL    HW215078   0.869   3.209   6.165
 4727SOL     OW15079   1.134   6.315   1.293
 4727SOL    HW115080   1.091   6.386   1.237
 4727SOL    HW215081   1.208   6.272   1.240
 4728SOL     OW15082   5.682   1.378   1.697
 4728SOL    HW115083   5.770   1.396   1.654
 4728SOL    HW215084   5.611   1.375   1.627
 4729SOL     OW15085   4.323   1.652   0.576
 4729SOL    HW115086   4.272   1.626   0.658
 4729SOL    HW215087   4.292   1.742   0.545
 4730SOL     OW15088   3.272   5.832   5.270
 4730SOL    HW115089   3.174   5.823   5.248
 4730SOL    HW215090   3.284   5.907   5.335
 4731SOL     OW15091   3.166   0.383   0.116
 4731SOL    HW115092   3.113   0.369   0.033
 4731SOL    HW215093   3.256   0.418   0.092
 4732SOL     OW15094   1.678   4.524   5.173
 4732SOL    HW115095   1.580   4.522   5.193
 4732SOL    HW215096   1.693   4.508   5.076
 4733SOL     OW15097   1.648   4.325   3.398
 4733SOL    HW115098   1.609   4.393   3.336
 4733SOL    HW215099   1.624   4.233   3.366
 4734SOL     OW15100   4.494   3.584   0.076
 4734SOL    HW115101   4.425   3.525   0.119
 4734SOL    HW215102   4.460   3.678   0.074
 4735SOL     OW15103   0.041   5.133   4.536
 4735SOL    HW115104   0.083   5.210   4.584
 4735SOL    HW215105   0.023   5.159   4.441
 4736SOL     OW15106   5.921   1.877   5.775
 4736SOL    HW115107   5.906   1.901   5.871
 4736SOL    HW215108   5.852   1.810   5.747
 4737SOL     OW15109   2.972   4.274   1.630
 4737SOL    HW115110   2.954   4.363   1.673
 4737SOL    HW215111   2.892   4.245   1.578
 4738SOL     OW15112   2.014   6.134   3.088
 4738SOL    HW115113   1.983   6.123   3.183
 4738SOL    HW215114   1.986   6.054   3.035
 4739SOL     OW15115   4.893   1.662   2.879
 4739SOL    HW115116   4.802   1.702   2.866
 4739SOL    HW215117   4.963   1.732   2.866
 4740SOL     OW15118   7.019   1.896   0.844
 4740SOL    HW115119   0.083   1.871   0.886
 4740SOL    HW215120   6.953   1.919   0.915
 4741SOL     OW15121   5.536   3.773   0.658
 4741SOL    HW115122   5.627   3.813   0.651
 4741SOL    HW215123   5.529   3.695   0.595
 4742SOL     OW15124   3.399   6.686   6.822
 4742SOL    HW115125   3.430   6.751   6.891
 4742SOL    HW215126   3.301   6.670   6.832
 4743SOL     OW15127   1.850   3.586   5.318
 4743SOL    HW115128   1.855   3.506   5.258
 4743SOL    HW215129   1.767   3.638   5.298
 4744SOL     OW15130   2.602   3.993   6.350
 4744SOL    HW115131   2.526   3.957   6.296
 4744SOL    HW215132   2.664   4.044   6.290
 4745SOL     OW15133   3.440   5.116   6.053
 4745SOL    HW115134   3.476   5.031   6.093
 4745SOL    HW215135   3.458   5.117   5.955
 4746SOL     OW15136   5.238   6.239   2.307
 4746SOL    HW115137   5.234   6.169   2.379
 4746SOL    HW215138   5.296   6.314   2.337
 4747SOL     OW15139   1.743   4.203   6.049
 4747SOL    HW115140   1.765   4.183   6.144
 4747SOL    HW215141   1.680   4.134   6.014
 4748SOL     OW15142   1.102   4.714   0.731
 4748SOL    HW115143   1.137   4.762   0.812
 4748SOL    HW215144   1.039   4.641   0.760
 4749SOL     OW15145   3.096   6.546   5.440
 4749SOL    HW115146   3.063   6.641   5.446
 4749SOL    HW215147   3.024   6.489   5.401
 4750SOL     OW15148   0.322   4.001   3.700
 4750SOL    HW115149   0.255   3.927   3.696
 4750SOL    HW215150   0.318   4.044   3.791
 4751SOL     OW15151   3.290   2.228   1.323
 4751SOL    HW115152   3.203   2.268   1.353
 4751SOL    HW215153   3.353   2.224   1.400
 4752SOL     OW15154   3.746   0.815   6.630
 4752SOL    HW115155   3.835   0.771   6.643
 4752SOL    HW215156   3.673   0.752   6.657
 4753SOL     OW15157   5.407   0.197   3.736
 4753SOL    HW115158   5.348   0.166   3.661
 4753SOL    HW215159   5.449   0.117   3.780
 4754SOL     OW15160   6.015   6.707   4.593
 4754SOL    HW115161   5.976   6.716   4.685
 4754SOL    HW215162   6.006   6.793   4.544
 4755SOL     OW15163   2.101   0.573   1.044
 4755SOL    HW115164   2.021   0.514   1.048
 4755SOL    HW215165   2.164   0.538   0.974
 4756SOL     OW15166   6.356   3.364   1.243
 4756SOL    HW115167   6.344   3.320   1.154
 4756SOL    HW215168   6.375   3.295   1.312
 4757SOL     OW15169   2.488   1.845   0.734
 4757SOL    HW115170   2.578   1.847   0.778
 4757SOL    HW215171   2.497   1.809   0.641
 4758SOL     OW15172   2.530   6.810   4.487
 4758SOL    HW115173   2.602   6.741   4.481
 4758SOL    HW215174   2.468   6.801   4.409
 4759SOL     OW15175   5.364   4.931   4.701
 4759SOL    HW115176   5.270   4.902   4.682
 4759SOL    HW215177   5.420   4.851   4.720
 4760SOL     OW15178   2.923   1.979   0.454
 4760SOL    HW115179   2.975   1.923   0.519
 4760SOL    HW215180   2.908   2.070   0.493
 4761SOL     OW15181   0.637   6.220   0.235
 4761SOL    HW115182   0.704   6.146   0.226
 4761SOL    HW215183   0.581   6.225   0.153
 4762SOL     OW15184   1.844   5.828   2.470
 4762SOL    HW115185   1.747   5.851   2.479
 4762SOL    HW215186   1.862   5.793   2.378
 4763SOL     OW15187   6.557   6.553   3.353
 4763SOL    HW115188   6.579   6.586   3.445
 4763SOL    HW215189   6.459   6.558   3.338
 4764SOL     OW15190   4.907   3.857   5.003
 4764SOL    HW115191   4.858   3.922   4.945
 4764SOL    HW215192   4.871   3.765   4.988
 4765SOL     OW15193   4.428   0.952   3.959
 4765SOL    HW115194   4.373   0.904   3.891
 4765SOL    HW215195   4.372   0.975   4.038
 4766SOL     OW15196   5.241   5.318   4.334
 4766SOL    HW115197   5.184   5.248   4.290
 4766SOL    HW215198   5.200   5.408   4.320
 4767SOL     OW15199   3.718   5.073   5.780
 4767SOL    HW115200   3.742   5.126   5.699
 4767SOL    HW215201   3.619   5.076   5.794
 4768SOL     OW15202   4.329   1.286   5.404
 4768SOL    HW115203   4.421   1.264   5.373
 4768SOL    HW215204   4.301   1.374   5.367
 4769SOL     OW15205   5.075   4.101   0.182
 4769SOL    HW115206   4.997   4.121   0.123
 4769SOL    HW215207   5.136   4.037   0.135
 4770SOL     OW15208   1.076   0.653   4.538
 4770SOL    HW115209   1.053   0.672   4.443
 4770SOL    HW215210   0.992   0.645   4.592
 4771SOL     OW15211   3.604   5.564   5.252
 4771SOL    HW115212   3.676   5.507   5.213
 4771SOL    HW215213   3.645   5.639   5.304
 4772SOL     OW15214   3.341   4.624   1.267
 4772SOL    HW115215   3.245   4.609   1.242
 4772SOL    HW215216   3.379   4.699   1.213
 4773SOL     OW15217   0.089   5.352   4.347
 4773SOL    HW115218   0.136   5.411   4.413
 4773SOL    HW215219   0.027   5.408   4.291
 4774SOL     OW15220   1.239   2.812   2.036
 4774SOL    HW115221   1.195   2.724   2.017
 4774SOL    HW215222   1.329   2.796   2.076
 4775SOL     OW15223   5.000   6.332   2.594
 4775SOL    HW115224   5.096   6.326   2.622
 4775SOL    HW215225   4.941   6.317   2.674
 4776SOL     OW15226   1.523   6.489   5.250
 4776SOL    HW115227   1.505   6.536   5.337
 4776SOL    HW215228   1.469   6.532   5.178
 4777SOL     OW15229   2.373   4.768   0.828
 4777SOL    HW115230   2.397   4.782   0.924
 4777SOL    HW215231   2.390   4.672   0.804
 4778SOL     OW15232   6.877   2.674   3.272
 4778SOL    HW115233   6.806   2.744   3.262
 4778SOL    HW215234   6.948   2.689   3.204
 4779SOL     OW15235   6.328   6.505   2.925
 4779SOL    HW115236   6.352   6.453   2.843
 4779SOL    HW215237   6.283   6.590   2.899
 4780SOL     OW15238   5.547   0.778   6.910
 4780SOL    HW115239   5.509   0.870   6.912
 4780SOL    HW215240   5.562   0.746   7.004
 4781SOL     OW15241   2.306   6.099   1.954
 4781SOL    HW115242   2.303   6.196   1.931
 4781SOL    HW215243   2.216   6.058   1.940
 4782SOL     OW15244   4.298   5.737   6.994
 4782SOL    HW115245   4.375   5.786   6.953
 4782SOL    HW215246   4.312   5.731   0.070
 4783SOL     OW15247   4.416   4.180   0.451
 4783SOL    HW115248   4.405   4.096   0.399
 4783SOL    HW215249   4.513   4.198   0.466
 4784SOL     OW15250   6.127   4.464   0.091
 4784SOL    HW115251   6.116   4.434   7.018
 4784SOL    HW215252   6.082   4.399   0.151
 4785SOL     OW15253   0.290   6.528   2.169
 4785SOL    HW115254   0.372   6.581   2.191
 4785SOL    HW215255   0.219   6.546   2.237
 4786SOL     OW15256   2.783   1.738   0.340
 4786SOL    HW115257   2.819   1.762   0.430
 4786SOL    HW215258   2.776   1.820   0.283
 4787SOL     OW15259   4.119   1.979   2.485
 4787SOL    HW115260   4.153   1.945   2.397
 4787SOL    HW215261   4.174   1.940   2.559
 4788SOL     OW15262   0.495   5.517   5.251
 4788SOL    HW115263   0.491   5.438   5.190
 4788SOL    HW215264   0.575   5.509   5.311
 4789SOL     OW15265   5.148   1.555   1.174
 4789SOL    HW115266   5.123   1.481   1.111
 4789SOL    HW215267   5.247   1.552   1.190
 4790SOL     OW15268   6.536   2.115   5.317
 4790SOL    HW115269   6.541   2.143   5.412
 4790SOL    HW215270   6.452   2.063   5.302
 4791SOL     OW15271   6.379   2.595   1.816
 4791SOL    HW115272   6.292   2.638   1.837
 4791SOL    HW215273   6.401   2.526   1.886
 4792SOL     OW15274   2.015   4.123   3.263
 4792SOL    HW115275   1.944   4.054   3.280
 4792SOL    HW215276   1.975   4.199   3.212
 4793SOL     OW15277   1.758   2.679   5.648
 4793SOL    HW115278   1.813   2.714   5.572
 4793SOL    HW215279   1.707   2.754   5.689
 4794SOL     OW15280   4.557   0.408   3.442
 4794SOL    HW115281   4.542   0.432   3.538
 4794SOL    HW215282   4.500   0.467   3.384
 4795SOL     OW15283   5.737   2.938   4.191
 4795SOL    HW115284   5.747   2.843   4.221
 4795SOL    HW215285   5.663   2.981   4.242
 4796SOL     OW15286   5.073   1.675   5.427
 4796SOL    HW115287   5.046   1.665   5.522
 4796SOL    HW215288   5.049   1.592   5.377
 4797SOL     OW15289   1.316   6.172   5.633
 4797SOL    HW115290   1.259   6.227   5.694
 4797SOL    HW215291   1.314   6.212   5.541
 4798SOL     OW15292   0.020   3.628   4.450
 4798SOL    HW115293   7.007   3.566   4.520
 4798SOL    HW215294   0.120   3.625   4.450
 4799SOL     OW15295   5.353   2.441   0.028
 4799SOL    HW115296   5.329   2.382   0.106
 4799SOL    HW215297   5.366   2.385   6.969
 4800SOL     OW15298   3.464   3.059   5.917
 4800SOL    HW115299   3.371   3.054   5.881
 4800SOL    HW215300   3.461   3.087   6.013
 4801SOL     OW15301   2.758   2.450   6.350
 4801SOL    HW115302   2.664   2.483   6.346
 4801SOL    HW215303   2.761   2.362   6.396
 4802SOL     OW15304   0.993   6.502   2.179
 4802SOL    HW115305   1.008   6.458   2.268
 4802SOL    HW215306   0.925   6.450   2.127
 4803SOL     OW15307   0.777   5.191   0.983
 4803SOL    HW115308   0.777   5.230   0.891
 4803SOL    HW215309   0.800   5.094   0.978
 4804SOL     OW15310   5.340   6.061   0.424
 4804SOL    HW115311   5.359   6.101   0.334
 4804SOL    HW215312   5.408   5.990   0.444
 4805SOL     OW15313   5.290   1.523   2.566
 4805SOL    HW115314   5.300   1.563   2.658
 4805SOL    HW215315   5.362   1.559   2.506
 4806SOL     OW15316   1.350   4.745   2.927
 4806SOL    HW115317   1.335   4.648   2.940
 4806SOL    HW215318   1.284   4.798   2.980
 4807SOL     OW15319   0.724   4.956   0.391
 4807SOL    HW115320   0.633   4.964   0.350
 4807SOL    HW215321   0.792   4.990   0.326
 4808SOL     OW15322   5.404   4.188   6.912
 4808SOL    HW115323   5.352   4.264   6.872
 4808SOL    HW215324   5.439   4.129   6.839
 4809SOL     OW15325   3.526   4.155   0.053
 4809SOL    HW115326   3.553   4.157   0.149
 4809SOL    HW215327   3.429   4.178   0.044
 4810SOL     OW15328   1.393   4.984   2.709
 4810SOL    HW115329   1.310   4.958   2.758
 4810SOL    HW215330   1.372   5.056   2.642
 4811SOL     OW15331   2.812   3.817   1.788
 4811SOL    HW115332   2.887   3.877   1.759
 4811SOL    HW215333   2.825   3.726   1.748
 4812SOL     OW15334   6.552   5.285   3.725
 4812SOL    HW115335   6.502   5.239   3.797
 4812SOL    HW215336   6.597   5.217   3.667
 4813SOL     OW15337   5.472   2.497   1.798
 4813SOL    HW115338   5.521   2.504   1.710
 4813SOL    HW215339   5.501   2.572   1.858
 4814SOL     OW15340   6.705   4.025   1.002
 4814SOL    HW115341   6.661   3.947   1.047
 4814SOL    HW215342   6.636   4.095   0.980
 4815SOL     OW15343   5.607   4.539   2.895
 4815SOL    HW115344   5.638   4.592   2.974
 4815SOL    HW215345   5.522   4.493   2.918
 4816SOL     OW15346   1.781   4.410   0.704
 4816SOL    HW115347   1.772   4.342   0.630
 4816SOL    HW215348   1.846   4.376   0.772
 4817SOL     OW15349   0.225   2.122   6.450
 4817SOL    HW115350   0.252   2.217   6.438
 4817SOL    HW215351   0.125   2.116   6.447
 4818SOL     OW15352   1.389   6.355   3.849
 4818SOL    HW115353   1.485   6.376   3.832
 4818SOL    HW215354   1.371   6.260   3.822
 4819SOL     OW15355   1.612   1.618   0.376
 4819SOL    HW115356   1.541   1.664   0.429
 4819SOL    HW215357   1.617   1.658   0.285
 4820SOL     OW15358   5.837   2.279   2.133
 4820SOL    HW115359   5.809   2.221   2.210
 4820SOL    HW215360   5.916   2.334   2.159
 4821SOL     OW15361   1.199   6.262   2.607
 4821SOL    HW115362   1.280   6.208   2.633
 4821SOL    HW215363   1.222   6.359   2.608
 4822SOL     OW15364   2.378   2.268   5.054
 4822SOL    HW115365   2.335   2.359   5.050
 4822SOL    HW215366   2.413   2.244   4.963
 4823SOL     OW15367   1.600   1.014   4.413
 4823SOL    HW115368   1.664   0.946   4.375
 4823SOL    HW215369   1.574   1.078   4.341
 4824SOL     OW15370   4.865   2.057   4.821
 4824SOL    HW115371   4.908   2.050   4.911
 4824SOL    HW215372   4.887   1.975   4.768
 4825SOL     OW15373   1.959   3.140   5.081
 4825SOL    HW115374   1.912   3.125   4.994
 4825SOL    HW215375   2.004   3.056   5.110
 4826SOL     OW15376   5.598   1.741   0.033
 4826SOL    HW115377   5.537   1.696   0.099
 4826SOL    HW215378   5.618   1.834   0.065
 4827SOL     OW15379   6.385   1.580   0.964
 4827SOL    HW115380   6.313   1.555   0.900
 4827SOL    HW215381   6.459   1.513   0.959
 4828SOL     OW15382   4.845   2.903   1.110
 4828SOL    HW115383   4.795   2.816   1.102
 4828SOL    HW215384   4.911   2.897   1.184
 4829SOL     OW15385   3.966   6.367   5.882
 4829SOL    HW115386   3.978   6.269   5.867
 4829SOL    HW215387   3.937   6.382   5.977
 4830SOL     OW15388   4.227   6.569   4.387
 4830SOL    HW115389   4.145   6.538   4.339
 4830SOL    HW215390   4.252   6.660   4.355
 4831SOL     OW15391   1.115   4.214   6.253
 4831SOL    HW115392   1.075   4.125   6.232
 4831SOL    HW215393   1.127   4.266   6.169
 4832SOL     OW15394   4.017   3.557   4.103
 4832SOL    HW115395   4.012   3.487   4.174
 4832SOL    HW215396   4.058   3.640   4.141
 4833SOL     OW15397   4.907   2.215   2.821
 4833SOL    HW115398   4.981   2.156   2.855
 4833SOL    HW215399   4.877   2.276   2.894
 4834SOL     OW15400   3.237   6.540   1.032
 4834SOL    HW115401   3.247   6.621   0.975
 4834SOL    HW215402   3.141   6.513   1.034
 4835SOL     OW15403   5.819   2.032   6.941
 4835SOL    HW115404   5.754   2.029   7.017
 4835SOL    HW215405   5.826   1.942   6.899
 4836SOL     OW15406   4.968   2.314   4.701
 4836SOL    HW115407   4.870   2.327   4.713
 4836SOL    HW215408   4.991   2.218   4.718
 4837SOL     OW15409   6.895   3.594   2.986
 4837SOL    HW115410   6.841   3.657   2.931
 4837SOL    HW215411   6.843   3.568   3.068
 4838SOL     OW15412   1.141   5.396   0.286
 4838SOL    HW115413   1.090   5.409   0.201
 4838SOL    HW215414   1.150   5.298   0.305
 4839SOL     OW15415   1.853   3.372   0.178
 4839SOL    HW115416   1.788   3.320   0.235
 4839SOL    HW215417   1.807   3.401   0.094
 4840SOL     OW15418   6.605   4.561   6.602
 4840SOL    HW115419   6.543   4.495   6.560
 4840SOL    HW215420   6.577   4.654   6.578
 4841SOL     OW15421   2.293   5.287   2.320
 4841SOL    HW115422   2.203   5.262   2.358
 4841SOL    HW215423   2.365   5.254   2.380
 4842SOL     OW15424   3.649   5.297   2.281
 4842SOL    HW115425   3.656   5.261   2.188
 4842SOL    HW215426   3.702   5.382   2.287
 4843SOL     OW15427   6.404   3.447   1.613
 4843SOL    HW115428   6.419   3.349   1.602
 4843SOL    HW215429   6.370   3.466   1.705
 4844SOL     OW15430   0.712   3.130   6.711
 4844SOL    HW115431   0.637   3.082   6.756
 4844SOL    HW215432   0.674   3.192   6.642
 4845SOL     OW15433   4.937   5.339   6.434
 4845SOL    HW115434   4.853   5.285   6.426
 4845SOL    HW215435   4.952   5.389   6.349
 4846SOL     OW15436   6.439   2.495   3.919
 4846SOL    HW115437   6.418   2.463   3.827
 4846SOL    HW215438   6.518   2.557   3.916
 4847SOL     OW15439   2.357   0.083   6.489
 4847SOL    HW115440   2.290   0.135   6.543
 4847SOL    HW215441   2.323   7.012   6.475
 4848SOL     OW15442   1.765   1.205   4.551
 4848SOL    HW115443   1.722   1.137   4.491
 4848SOL    HW215444   1.863   1.208   4.532
 4849SOL     OW15445   0.860   6.244   6.626
 4849SOL    HW115446   0.947   6.197   6.611
 4849SOL    HW215447   0.873   6.342   6.611
 4850SOL     OW15448   4.146   1.186   1.785
 4850SOL    HW115449   4.173   1.105   1.838
 4850SOL    HW215450   4.199   1.265   1.817
 4851SOL     OW15451   3.523   6.832   5.717
 4851SOL    HW115452   3.564   6.822   5.807
 4851SOL    HW215453   3.472   6.749   5.693
 4852SOL     OW15454   2.086   5.839   5.242
 4852SOL    HW115455   1.999   5.806   5.280
 4852SOL    HW215456   2.101   5.799   5.152
 4853SOL     OW15457   2.984   1.277   3.653
 4853SOL    HW115458   2.954   1.364   3.615
 4853SOL    HW215459   3.063   1.243   3.601
 4854SOL     OW15460   4.687   6.134   1.958
 4854SOL    HW115461   4.588   6.128   1.951
 4854SOL    HW215462   4.714   6.229   1.976
 4855SOL     OW15463   5.748   2.749   3.985
 4855SOL    HW115464   5.785   2.841   4.000
 4855SOL    HW215465   5.733   2.705   4.074
 4856SOL     OW15466   1.665   3.266   2.928
 4856SOL    HW115467   1.670   3.351   2.875
 4856SOL    HW215468   1.570   3.249   2.954
 4857SOL     OW15469   3.094   2.109   3.966
 4857SOL    HW115470   3.024   2.167   4.006
 4857SOL    HW215471   3.093   2.119   3.866
 4858SOL     OW15472   0.206   0.195   5.111
 4858SOL    HW115473   0.175   0.220   5.020
 4858SOL    HW215474   0.128   0.192   5.174
 4859SOL     OW15475   0.951   5.760   2.793
 4859SOL    HW115476   1.037   5.721   2.825
 4859SOL    HW215477   0.926   5.838   2.850
 4860SOL     OW15478   4.330   4.901   0.764
 4860SOL    HW115479   4.256   4.842   0.731
 4860SOL    HW215480   4.418   4.863   0.736
 4861SOL     OW15481   5.870   5.071   6.915
 4861SOL    HW115482   5.801   5.080   6.843
 4861SOL    HW215483   5.899   4.976   6.922
 4862SOL     OW15484   1.671   4.491   4.886
 4862SOL    HW115485   1.637   4.537   4.803
 4862SOL    HW215486   1.671   4.392   4.871
 4863SOL     OW15487   5.143   3.940   1.918
 4863SOL    HW115488   5.129   3.904   2.010
 4863SOL    HW215489   5.134   3.867   1.851
 4864SOL     OW15490   3.532   1.874   2.247
 4864SOL    HW115491   3.469   1.949   2.229
 4864SOL    HW215492   3.572   1.842   2.161
 4865SOL     OW15493   2.191   6.425   4.468
 4865SOL    HW115494   2.099   6.387   4.457
 4865SOL    HW215495   2.236   6.381   4.546
 4866SOL     OW15496   6.536   4.112   1.251
 4866SOL    HW115497   6.505   4.196   1.206
 4866SOL    HW215498   6.631   4.123   1.279
 4867SOL     OW15499   4.958   5.625   2.316
 4867SOL    HW115500   4.955   5.551   2.383
 4867SOL    HW215501   4.987   5.710   2.360
 4868SOL     OW15502   0.106   5.152   2.041
 4868SOL    HW115503   0.092   5.060   2.006
 4868SOL    HW215504   0.126   5.214   1.965
 4869SOL     OW15505   0.239   1.934   1.796
 4869SOL    HW115506   0.202   1.934   1.703
 4869SOL    HW215507   0.339   1.935   1.793
 4870SOL     OW15508   6.743   5.689   1.837
 4870SOL    HW115509   6.653   5.685   1.794
 4870SOL    HW215510   6.813   5.705   1.767
 4871SOL     OW15511   0.605   1.729   4.794
 4871SOL    HW115512   0.506   1.741   4.803
 4871SOL    HW215513   0.624   1.639   4.754
 4872SOL     OW15514   6.841   5.748   4.278
 4872SOL    HW115515   6.779   5.806   4.331
 4872SOL    HW215516   6.864   5.794   4.192
 4873SOL     OW15517   6.620   4.945   4.050
 4873SOL    HW115518   6.588   4.911   4.138
 4873SOL    HW215519   6.663   4.870   3.999
 4874SOL     OW15520   5.811   3.257   3.396
 4874SOL    HW115521   5.872   3.261   3.475
 4874SOL    HW215522   5.853   3.306   3.319
 4875SOL     OW15523   5.467   3.507   1.551
 4875SOL    HW115524   5.473   3.459   1.463
 4875SOL    HW215525   5.472   3.441   1.626
 4876SOL     OW15526   5.510   1.023   4.017
 4876SOL    HW115527   5.471   1.040   3.927
 4876SOL    HW215528   5.454   1.069   4.086
 4877SOL     OW15529   0.042   1.836   0.154
 4877SOL    HW115530   7.007   1.754   0.151
 4877SOL    HW215531   0.066   1.855   0.249
 4878SOL     OW15532   6.038   0.918   2.979
 4878SOL    HW115533   6.031   0.970   2.893
 4878SOL    HW215534   6.037   0.820   2.959
 4879SOL     OW15535   4.665   5.499   3.400
 4879SOL    HW115536   4.574   5.463   3.424
 4879SOL    HW215537   4.730   5.473   3.471
 4880SOL     OW15538   5.675   3.316   6.570
 4880SOL    HW115539   5.624   3.267   6.640
 4880SOL    HW215540   5.612   3.366   6.511
 4881SOL     OW15541   2.326   6.721   7.020
 4881SOL    HW115542   2.287   6.729   6.929
 4881SOL    HW215543   2.419   6.684   7.013
 4882SOL     OW15544   5.451   1.364   3.982
 4882SOL    HW115545   5.491   1.395   4.068
 4882SOL    HW215546   5.498   1.407   3.906
 4883SOL     OW15547   4.992   4.935   2.517
 4883SOL    HW115548   5.047   4.869   2.567
 4883SOL    HW215549   4.917   4.967   2.575
 4884SOL     OW15550   3.982   0.222   0.885
 4884SOL    HW115551   4.018   0.305   0.841
 4884SOL    HW215552   3.884   0.232   0.899
 4885SOL     OW15553   2.437   5.895   2.055
 4885SOL    HW115554   2.368   5.965   2.033
 4885SOL    HW215555   2.500   5.886   1.978
 4886SOL     OW15556   6.973   5.893   0.222
 4886SOL    HW115557   6.993   5.976   0.274
 4886SOL    HW215558   6.944   5.821   0.285
 4887SOL     OW15559   6.988   0.488   3.301
 4887SOL    HW115560   0.045   0.429   3.283
 4887SOL    HW215561   6.904   0.434   3.299
 4888SOL     OW15562   2.362   6.383   4.016
 4888SOL    HW115563   2.309   6.337   4.087
 4888SOL    HW215564   2.459   6.370   4.032
 4889SOL     OW15565   6.220   0.774   6.770
 4889SOL    HW115566   6.217   0.829   6.853
 4889SOL    HW215567   6.143   0.710   6.770
 4890SOL     OW15568   0.447   1.748   5.940
 4890SOL    HW115569   0.402   1.665   5.904
 4890SOL    HW215570   0.457   1.814   5.866
 4891SOL     OW15571   1.510   5.754   0.636
 4891SOL    HW115572   1.600   5.758   0.594
 4891SOL    HW215573   1.440   5.779   0.568
 4892SOL     OW15574   2.505   6.106   1.533
 4892SOL    HW115575   2.544   6.151   1.614
 4892SOL    HW215576   2.419   6.151   1.508
 4893SOL     OW15577   0.089   4.538   1.058
 4893SOL    HW115578   0.040   4.541   1.145
 4893SOL    HW215579   0.111   4.443   1.035
 4894SOL     OW15580   2.343   2.088   2.351
 4894SOL    HW115581   2.280   2.091   2.429
 4894SOL    HW215582   2.292   2.106   2.266
 4895SOL     OW15583   0.735   5.250   2.732
 4895SOL    HW115584   0.814   5.269   2.675
 4895SOL    HW215585   0.746   5.296   2.820
 4896SOL     OW15586   2.321   5.079   1.866
 4896SOL    HW115587   2.383   5.157   1.868
 4896SOL    HW215588   2.272   5.073   1.953
 4897SOL     OW15589   2.039   4.845   5.757
 4897SOL    HW115590   1.983   4.777   5.711
 4897SOL    HW215591   2.120   4.801   5.795
 4898SOL     OW15592   4.483   0.912   4.352
 4898SOL    HW115593   4.416   0.951   4.289
 4898SOL    HW215594   4.489   0.970   4.434
 4899SOL     OW15595   6.240   4.850   3.066
 4899SOL    HW115596   6.270   4.760   3.035
 4899SOL    HW215597   6.140   4.857   3.058
 4900SOL     OW15598   2.178   5.442   4.987
 4900SOL    HW115599   2.164   5.344   4.982
 4900SOL    HW215600   2.101   5.485   5.035
 4901SOL     OW15601   2.945   6.791   5.408
 4901SOL    HW115602   2.864   6.733   5.420
 4901SOL    HW215603   2.920   6.873   5.357
 4902SOL     OW15604   2.513   2.572   4.647
 4902SOL    HW115605   2.450   2.630   4.698
 4902SOL    HW215606   2.607   2.587   4.679
 4903SOL     OW15607   3.012   6.089   6.609
 4903SOL    HW115608   2.981   5.997   6.632
 4903SOL    HW215609   3.102   6.084   6.566
 4904SOL     OW15610   1.366   0.255   4.074
 4904SOL    HW115611   1.323   0.318   4.139
 4904SOL    HW215612   1.369   0.164   4.114
 4905SOL     OW15613   4.340   1.023   2.209
 4905SOL    HW115614   4.291   1.111   2.205
 4905SOL    HW215615   4.280   0.953   2.249
 4906SOL     OW15616   4.222   1.703   6.804
 4906SOL    HW115617   4.138   1.719   6.752
 4906SOL    HW215618   4.300   1.738   6.753
 4907SOL     OW15619   5.143   6.056   1.143
 4907SOL    HW115620   5.048   6.023   1.148
 4907SOL    HW215621   5.170   6.092   1.232
 4908SOL     OW15622   4.719   5.199   6.407
 4908SOL    HW115623   4.702   5.153   6.494
 4908SOL    HW215624   4.636   5.194   6.351
 4909SOL     OW15625   6.970   0.145   5.193
 4909SOL    HW115626   6.894   0.176   5.136
 4909SOL    HW215627   6.945   0.155   5.290
 4910SOL     OW15628   5.285   6.516   4.277
 4910SOL    HW115629   5.208   6.576   4.301
 4910SOL    HW215630   5.285   6.436   4.337
 4911SOL     OW15631   6.850   3.217   5.493
 4911SOL    HW115632   6.859   3.312   5.464
 4911SOL    HW215633   6.806   3.213   5.583
 4912SOL     OW15634   5.286   2.821   1.390
 4912SOL    HW115635   5.353   2.798   1.320
 4912SOL    HW215636   5.322   2.796   1.480
 4913SOL     OW15637   3.600   3.412   3.554
 4913SOL    HW115638   3.510   3.437   3.588
 4913SOL    HW215639   3.594   3.392   3.456
 4914SOL     OW15640   3.320   6.988   4.905
 4914SOL    HW115641   3.373   0.032   4.853
 4914SOL    HW215642   3.295   6.911   4.846
 4915SOL     OW15643   4.380   0.642   4.301
 4915SOL    HW115644   4.393   0.581   4.379
 4915SOL    HW215645   4.428   0.728   4.317
 4916SOL     OW15646   2.096   1.652   3.839
 4916SOL    HW115647   2.051   1.714   3.775
 4916SOL    HW215648   2.038   1.641   3.920
 4917SOL     OW15649   1.655   4.741   0.676
 4917SOL    HW115650   1.634   4.765   0.771
 4917SOL    HW215651   1.703   4.654   0.673
 4918SOL     OW15652   3.005   6.537   2.271
 4918SOL    HW115653   3.065   6.552   2.350
 4918SOL    HW215654   3.031   6.452   2.225
 4919SOL     OW15655   1.838   1.653   6.826
 4919SOL    HW115656   1.784   1.644   6.910
 4919SOL    HW215657   1.814   1.738   6.780
 4920SOL     OW15658   4.911   0.592   5.885
 4920SOL    HW115659   4.945   0.498   5.892
 4920SOL    HW215660   4.817   0.591   5.850
 4921SOL     OW15661   1.975   4.146   0.667
 4921SOL    HW115662   1.957   4.142   0.568
 4921SOL    HW215663   2.046   4.215   0.685
 4922SOL     OW15664   2.050   3.044   4.559
 4922SOL    HW115665   2.097   3.021   4.645
 4922SOL    HW215666   2.002   2.964   4.524
 4923SOL     OW15667   3.424   1.310   0.749
 4923SOL    HW115668   3.377   1.226   0.778
 4923SOL    HW215669   3.465   1.354   0.828
 4924SOL     OW15670   1.924   2.430   6.082
 4924SOL    HW115671   1.924   2.338   6.122
 4924SOL    HW215672   2.008   2.478   6.107
 4925SOL     OW15673   6.028   6.762   1.832
 4925SOL    HW115674   5.953   6.803   1.884
 4925SOL    HW215675   6.041   6.812   1.747
 4926SOL     OW15676   5.468   2.532   0.623
 4926SOL    HW115677   5.511   2.606   0.676
 4926SOL    HW215678   5.528   2.506   0.548
 4927SOL     OW15679   3.831   3.716   4.344
 4927SOL    HW115680   3.842   3.811   4.375
 4927SOL    HW215681   3.805   3.658   4.422
 4928SOL     OW15682   6.983   0.407   6.255
 4928SOL    HW115683   6.886   0.392   6.270
 4928SOL    HW215684   6.998   0.501   6.224
 4929SOL     OW15685   1.367   4.654   4.823
 4929SOL    HW115686   1.274   4.624   4.807
 4929SOL    HW215687   1.400   4.617   4.910
 4930SOL     OW15688   5.171   1.095   1.751
 4930SOL    HW115689   5.098   1.125   1.813
 4930SOL    HW215690   5.134   1.033   1.682
 4931SOL     OW15691   6.570   0.049   1.665
 4931SOL    HW115692   6.511   0.123   1.631
 4931SOL    HW215693   6.651   0.042   1.608
 4932SOL     OW15694   2.203   2.741   1.956
 4932SOL    HW115695   2.187   2.837   1.937
 4932SOL    HW215696   2.293   2.714   1.919
 4933SOL     OW15697   2.479   6.801   3.562
 4933SOL    HW115698   2.433   6.876   3.609
 4933SOL    HW215699   2.462   6.807   3.464
 4934SOL     OW15700   1.662   4.771   3.071
 4934SOL    HW115701   1.565   4.771   3.095
 4934SOL    HW215702   1.682   4.692   3.013
 4935SOL     OW15703   1.102   1.286   6.659
 4935SOL    HW115704   1.096   1.370   6.712
 4935SOL    HW215705   1.182   1.290   6.598
 4936SOL     OW15706   2.209   5.025   1.605
 4936SOL    HW115707   2.150   4.947   1.626
 4936SOL    HW215708   2.254   5.056   1.689
 4937SOL     OW15709   6.492   3.290   6.056
 4937SOL    HW115710   6.504   3.320   5.961
 4937SOL    HW215711   6.418   3.342   6.098
 4938SOL     OW15712   2.540   5.907   7.006
 4938SOL    HW115713   2.546   5.841   6.930
 4938SOL    HW215714   2.581   5.867   0.065
 4939SOL     OW15715   0.406   1.725   3.999
 4939SOL    HW115716   0.471   1.740   4.075
 4939SOL    HW215717   0.397   1.810   3.947
 4940SOL     OW15718   0.482   1.464   5.570
 4940SOL    HW115719   0.497   1.555   5.610
 4940SOL    HW215720   0.569   1.428   5.536
 4941SOL     OW15721   4.483   2.524   5.170
 4941SOL    HW115722   4.397   2.505   5.123
 4941SOL    HW215723   4.488   2.622   5.190
 4942SOL     OW15724   5.278   2.999   5.458
 4942SOL    HW115725   5.263   3.035   5.365
 4942SOL    HW215726   5.373   2.972   5.468
 4943SOL     OW15727   5.334   4.423   6.018
 4943SOL    HW115728   5.276   4.411   5.937
 4943SOL    HW215729   5.383   4.338   6.036
 4944SOL     OW15730   2.684   4.145   1.643
 4944SOL    HW115731   2.625   4.219   1.676
 4944SOL    HW215732   2.642   4.057   1.664
 4945SOL     OW15733   1.120   6.942   4.648
 4945SOL    HW115734   1.128   6.845   4.670
 4945SOL    HW215735   1.119   6.954   4.549
 4946SOL     OW15736   1.036   5.521   6.623
 4946SOL    HW115737   1.063   5.615   6.639
 4946SOL    HW215738   1.040   5.470   6.709
 4947SOL     OW15739   2.263   0.443   0.875
 4947SOL    HW115740   2.362   0.431   0.873
 4947SOL    HW215741   2.227   0.441   0.782
 4948SOL     OW15742   2.227   2.455   3.018
 4948SOL    HW115743   2.143   2.445   3.072
 4948SOL    HW215744   2.225   2.541   2.968
 4949SOL     OW15745   6.424   4.739   5.467
 4949SOL    HW115746   6.456   4.829   5.437
 4949SOL    HW215747   6.399   4.743   5.563
 4950SOL     OW15748   2.137   4.492   5.000
 4950SOL    HW115749   2.120   4.525   4.907
 4950SOL    HW215750   2.167   4.397   4.997
 4951SOL     OW15751   5.970   1.418   3.789
 4951SOL    HW115752   6.011   1.409   3.699
 4951SOL    HW215753   5.887   1.474   3.783
 4952SOL     OW15754   0.069   6.892   6.126
 4952SOL    HW115755   0.106   6.984   6.113
 4952SOL    HW215756   0.121   6.828   6.070
 4953SOL     OW15757   1.798   6.763   3.406
 4953SOL    HW115758   1.732   6.770   3.482
 4953SOL    HW215759   1.751   6.728   3.325
 4954SOL     OW15760   2.848   3.278   6.996
 4954SOL    HW115761   2.750   3.262   7.010
 4954SOL    HW215762   2.862   3.372   6.966
 4955SOL     OW15763   3.465   6.851   0.013
 4955SOL    HW115764   3.555   6.881   0.043
 4955SOL    HW215765   3.409   6.829   0.093
 4956SOL     OW15766   2.559   0.151   5.666
 4956SOL    HW115767   2.606   0.208   5.733
 4956SOL    HW215768   2.479   0.109   5.709
 4957SOL     OW15769   5.934   2.185   1.833
 4957SOL    HW115770   5.957   2.282   1.826
 4957SOL    HW215771   5.872   2.159   1.760
 4958SOL     OW15772   0.717   5.077   5.558
 4958SOL    HW115773   0.717   5.003   5.625
 4958SOL    HW215774   0.646   5.143   5.582
 4959SOL     OW15775   6.188   1.988   0.861
 4959SOL    HW115776   6.188   1.948   0.953
 4959SOL    HW215777   6.253   2.064   0.858
 4960SOL     OW15778   4.022   4.866   3.289
 4960SOL    HW115779   3.948   4.908   3.238
 4960SOL    HW215780   4.093   4.835   3.225
 4961SOL     OW15781   4.005   0.829   5.567
 4961SOL    HW115782   4.005   0.875   5.656
 4961SOL    HW215783   4.097   0.835   5.527
 4962SOL     OW15784   5.956   2.971   0.313
 4962SOL    HW115785   5.976   2.952   0.409
 4962SOL    HW215786   6.040   2.998   0.267
 4963SOL     OW15787   0.690   6.631   0.703
 4963SOL    HW115788   0.702   6.667   0.610
 4963SOL    HW215789   0.640   6.697   0.758
 4964SOL     OW15790   2.608   6.814   4.940
 4964SOL    HW115791   2.693   6.854   4.907
 4964SOL    HW215792   2.585   6.853   5.029
 4965SOL     OW15793   0.574   0.458   2.284
 4965SOL    HW115794   0.510   0.385   2.262
 4965SOL    HW215795   0.540   0.545   2.249
 4966SOL     OW15796   2.790   6.591   5.153
 4966SOL    HW115797   2.696   6.627   5.161
 4966SOL    HW215798   2.835   6.596   5.243
 4967SOL     OW15799   3.959   4.933   5.214
 4967SOL    HW115800   3.897   4.915   5.138
 4967SOL    HW215801   4.052   4.943   5.179
 4968SOL     OW15802   0.532   1.039   3.269
 4968SOL    HW115803   0.517   1.137   3.262
 4968SOL    HW215804   0.453   0.996   3.313
 4969SOL     OW15805   1.678   5.422   2.725
 4969SOL    HW115806   1.768   5.381   2.716
 4969SOL    HW215807   1.620   5.364   2.781
 4970SOL     OW15808   2.582   2.114   1.668
 4970SOL    HW115809   2.551   2.024   1.699
 4970SOL    HW215810   2.610   2.168   1.747
 4971SOL     OW15811   5.444   5.272   3.039
 4971SOL    HW115812   5.491   5.360   3.029
 4971SOL    HW215813   5.511   5.200   3.056
 4972SOL     OW15814   0.779   3.629   1.520
 4972SOL    HW115815   0.768   3.537   1.482
 4972SOL    HW215816   0.750   3.630   1.616
 4973SOL     OW15817   1.112   6.883   1.995
 4973SOL    HW115818   1.131   6.891   2.092
 4973SOL    HW215819   1.039   6.817   1.980
 4974SOL     OW15820   6.982   4.540   1.282
 4974SOL    HW115821   6.907   4.594   1.321
 4974SOL    HW215822   7.006   4.466   1.345
 4975SOL     OW15823   5.906   4.175   5.923
 4975SOL    HW115824   6.001   4.188   5.951
 4975SOL    HW215825   5.879   4.249   5.861
 4976SOL     OW15826   2.290   1.618   4.042
 4976SOL    HW115827   2.241   1.649   3.961
 4976SOL    HW215828   2.382   1.657   4.042
 4977SOL     OW15829   4.396   4.509   0.118
 4977SOL    HW115830   4.491   4.481   0.129
 4977SOL    HW215831   4.380   4.536   0.023
 4978SOL     OW15832   6.331   4.600   5.271
 4978SOL    HW115833   6.402   4.586   5.202
 4978SOL    HW215834   6.371   4.642   5.352
 4979SOL     OW15835   6.884   6.959   5.884
 4979SOL    HW115836   6.867   6.992   5.977
 4979SOL    HW215837   6.823   7.007   5.821
 4980SOL     OW15838   5.364   5.793   3.214
 4980SOL    HW115839   5.451   5.744   3.203
 4980SOL    HW215840   5.380   5.891   3.205
 4981SOL     OW15841   3.851   5.002   0.989
 4981SOL    HW115842   3.831   5.099   1.000
 4981SOL    HW215843   3.918   4.989   0.916
 4982SOL     OW15844   2.832   1.245   5.274
 4982SOL    HW115845   2.906   1.224   5.209
 4982SOL    HW215846   2.815   1.164   5.331
 4983SOL     OW15847   6.180   3.744   5.911
 4983SOL    HW115848   6.195   3.841   5.929
 4983SOL    HW215849   6.101   3.733   5.851
 4984SOL     OW15850   5.612   4.490   3.260
 4984SOL    HW115851   5.554   4.419   3.299
 4984SOL    HW215852   5.564   4.536   3.185
 4985SOL     OW15853   5.313   0.287   3.210
 4985SOL    HW115854   5.326   0.323   3.117
 4985SOL    HW215855   5.390   0.315   3.267
 4986SOL     OW15856   0.119   4.730   1.407
 4986SOL    HW115857   0.082   4.777   1.327
 4986SOL    HW215858   0.123   4.632   1.390
 4987SOL     OW15859   0.307   6.957   2.303
 4987SOL    HW115860   0.303   0.019   2.251
 4987SOL    HW215861   0.330   6.977   2.398
 4988SOL     OW15862   5.103   0.648   2.467
 4988SOL    HW115863   5.017   0.649   2.417
 4988SOL    HW215864   5.090   0.691   2.556
 4989SOL     OW15865   5.385   6.364   2.046
 4989SOL    HW115866   5.407   6.356   1.949
 4989SOL    HW215867   5.313   6.298   2.069
 4990SOL     OW15868   2.767   2.337   5.727
 4990SOL    HW115869   2.755   2.371   5.820
 4990SOL    HW215870   2.704   2.385   5.665
 4991SOL     OW15871   6.412   5.706   3.539
 4991SOL    HW115872   6.354   5.639   3.494
 4991SOL    HW215873   6.482   5.659   3.593
 4992SOL     OW15874   4.929   0.889   2.075
 4992SOL    HW115875   4.910   0.812   2.014
 4992SOL    HW215876   4.911   0.975   2.027
 4993SOL     OW15877   3.432   5.580   4.847
 4993SOL    HW115878   3.372   5.503   4.826
 4993SOL    HW215879   3.426   5.601   4.945
 4994SOL     OW15880   2.129   0.282   4.184
 4994SOL    HW115881   2.044   0.329   4.159
 4994SOL    HW215882   2.112   0.184   4.190
 4995SOL     OW15883   0.503   2.118   5.284
 4995SOL    HW115884   0.580   2.160   5.235
 4995SOL    HW215885   0.466   2.044   5.229
 4996SOL     OW15886   0.529   0.766   3.058
 4996SOL    HW115887   0.505   0.765   2.961
 4996SOL    HW215888   0.448   0.789   3.112
 4997SOL     OW15889   4.682   2.584   2.428
 4997SOL    HW115890   4.726   2.494   2.432
 4997SOL    HW215891   4.599   2.578   2.371
 4998SOL     OW15892   2.108   3.860   5.056
 4998SOL    HW115893   2.029   3.921   5.065
 4998SOL    HW215894   2.192   3.912   5.068
 4999SOL     OW15895   6.833   3.947   6.670
 4999SOL    HW115896   6.820   3.959   6.768
 4999SOL    HW215897   6.825   3.851   6.646
 5000SOL     OW15898   4.224   6.389   3.417
 5000SOL    HW115899   4.195   6.360   3.508
 5000SOL    HW215900   4.324   6.386   3.412
 5001SOL     OW15901   0.403   4.153   2.241
 5001SOL    HW115902   0.376   4.098   2.320
 5001SOL    HW215903   0.378   4.105   2.157
 5002SOL     OW15904   0.522   3.103   1.859
 5002SOL    HW115905   0.476   3.114   1.771
 5002SOL    HW215906   0.473   3.155   1.929
 5003SOL     OW15907   2.807   5.553   2.417
 5003SOL    HW115908   2.711   5.532   2.401
 5003SOL    HW215909   2.826   5.551   2.515
 5004SOL     OW15910   2.636   4.967   5.611
 5004SOL    HW115911   2.554   4.927   5.653
 5004SOL    HW215912   2.618   5.062   5.586
 5005SOL     OW15913   3.114   2.839   0.970
 5005SOL    HW115914   3.061   2.866   1.050
 5005SOL    HW215915   3.055   2.789   0.906
 5006SOL     OW15916   4.919   0.621   0.990
 5006SOL    HW115917   4.870   0.536   0.969
 5006SOL    HW215918   4.871   0.698   0.950
 5007SOL     OW15919   0.920   6.881   0.695
 5007SOL    HW115920   0.822   6.886   0.714
 5007SOL    HW215921   0.935   6.864   0.597
 5008SOL     OW15922   5.743   6.376   1.601
 5008SOL    HW115923   5.690   6.301   1.642
 5008SOL    HW215924   5.840   6.363   1.622
 5009SOL     OW15925   0.534   1.182   0.698
 5009SOL    HW115926   0.563   1.095   0.659
 5009SOL    HW215927   0.485   1.235   0.629
 5010SOL     OW15928   3.981   3.037   2.276
 5010SOL    HW115929   3.976   2.959   2.338
 5010SOL    HW215930   4.000   3.120   2.328
 5011SOL     OW15931   1.566   4.347   2.547
 5011SOL    HW115932   1.476   4.338   2.505
 5011SOL    HW215933   1.556   4.367   2.645
 5012SOL     OW15934   5.720   4.451   6.098
 5012SOL    HW115935   5.694   4.356   6.114
 5012SOL    HW215936   5.812   4.454   6.059
 5013SOL     OW15937   5.073   1.312   0.362
 5013SOL    HW115938   5.124   1.235   0.323
 5013SOL    HW215939   4.978   1.306   0.334
 5014SOL     OW15940   6.518   4.669   0.621
 5014SOL    HW115941   6.420   4.677   0.607
 5014SOL    HW215942   6.567   4.715   0.547
 5015SOL     OW15943   4.490   1.736   4.530
 5015SOL    HW115944   4.397   1.701   4.521
 5015SOL    HW215945   4.494   1.801   4.606
 5016SOL     OW15946   1.602   2.977   6.956
 5016SOL    HW115947   1.695   2.986   6.921
 5016SOL    HW215948   1.604   2.970   0.033
 5017SOL     OW15949   2.040   2.996   1.014
 5017SOL    HW115950   1.976   3.031   1.082
 5017SOL    HW215951   2.050   2.897   1.025
 5018SOL     OW15952   1.116   4.015   1.884
 5018SOL    HW115953   1.196   4.072   1.862
 5018SOL    HW215954   1.062   4.060   1.955
 5019SOL     OW15955   0.991   4.816   5.790
 5019SOL    HW115956   1.025   4.907   5.812
 5019SOL    HW215957   0.902   4.824   5.744
 5020SOL     OW15958   5.209   0.270   6.689
 5020SOL    HW115959   5.189   0.327   6.769
 5020SOL    HW215960   5.302   0.288   6.658
 5021SOL     OW15961   0.665   1.305   0.224
 5021SOL    HW115962   0.590   1.371   0.225
 5021SOL    HW215963   0.739   1.337   0.284
 5022SOL     OW15964   1.319   1.184   0.255
 5022SOL    HW115965   1.280   1.192   0.347
 5022SOL    HW215966   1.339   1.274   0.219
 5023SOL     OW15967   6.848   3.221   1.174
 5023SOL    HW115968   6.755   3.236   1.140
 5023SOL    HW215969   6.865   3.122   1.181
 5024SOL     OW15970   6.425   5.486   1.868
 5024SOL    HW115971   6.498   5.465   1.803
 5024SOL    HW215972   6.396   5.580   1.857
 5025SOL     OW15973   3.552   1.727   1.998
 5025SOL    HW115974   3.589   1.638   1.974
 5025SOL    HW215975   3.568   1.792   1.923
 5026SOL     OW15976   6.274   6.262   5.597
 5026SOL    HW115977   6.332   6.236   5.519
 5026SOL    HW215978   6.265   6.184   5.659
 5027SOL     OW15979   6.991   6.606   2.045
 5027SOL    HW115980   6.993   6.510   2.075
 5027SOL    HW215981   0.037   6.658   2.096
 5028SOL     OW15982   0.355   2.064   2.341
 5028SOL    HW115983   0.290   2.109   2.281
 5028SOL    HW215984   0.348   1.965   2.330
 5029SOL     OW15985   6.861   1.854   1.917
 5029SOL    HW115986   6.897   1.947   1.914
 5029SOL    HW215987   6.829   1.827   1.826
 5030SOL     OW15988   0.332   6.697   0.673
 5030SOL    HW115989   0.320   6.688   0.772
 5030SOL    HW215990   0.414   6.648   0.644
 5031SOL     OW15991   5.961   0.351   5.523
 5031SOL    HW115992   6.015   0.401   5.455
 5031SOL    HW215993   5.992   0.377   5.615
 5032SOL     OW15994   2.084   1.838   0.458
 5032SOL    HW115995   2.096   1.839   0.557
 5032SOL    HW215996   2.111   1.749   0.422
 5033SOL     OW15997   1.919   0.101   5.466
 5033SOL    HW115998   2.017   0.113   5.484
 5033SOL    HW215999   1.882   0.185   5.427
 5034SOL     OW16000   5.844   0.586   3.407
 5034SOL    HW116001   5.810   0.674   3.373
 5034SOL    HW216002   5.804   0.567   3.496
 5035SOL     OW16003   1.035   3.767   0.351
 5035SOL    HW116004   1.098   3.844   0.363
 5035SOL    HW216005   1.079   3.696   0.295
 5036SOL     OW16006   0.603   4.692   6.682
 5036SOL    HW116007   0.564   4.621   6.741
 5036SOL    HW216008   0.703   4.683   6.681
 5037SOL     OW16009   5.190   4.466   2.433
 5037SOL    HW116010   5.270   4.526   2.430
 5037SOL    HW216011   5.199   4.395   2.363
 5038SOL     OW16012   3.526   3.912   5.976
 5038SOL    HW116013   3.427   3.916   5.960
 5038SOL    HW216014   3.565   3.838   5.921
 5039SOL     OW16015   2.969   4.504   5.560
 5039SOL    HW116016   2.979   4.603   5.559
 5039SOL    HW216017   3.055   4.461   5.531
 5040SOL     OW16018   2.018   5.989   5.707
 5040SOL    HW116019   1.935   5.989   5.762
 5040SOL    HW216020   2.042   5.895   5.683
 5041SOL     OW16021   2.454   1.582   2.603
 5041SOL    HW116022   2.497   1.570   2.513
 5041SOL    HW216023   2.375   1.643   2.594
 5042SOL     OW16024   6.582   2.778   0.158
 5042SOL    HW116025   6.632   2.821   0.234
 5042SOL    HW216026   6.488   2.761   0.186
 5043SOL     OW16027   3.308   0.150   6.053
 5043SOL    HW116028   3.290   0.055   6.028
 5043SOL    HW216029   3.344   0.153   6.146
 5044SOL     OW16030   0.576   6.674   0.097
 5044SOL    HW116031   0.506   6.642   0.161
 5044SOL    HW216032   0.631   6.596   0.067
 5045SOL     OW16033   5.008   0.595   6.779
 5045SOL    HW116034   5.039   0.618   6.686
 5045SOL    HW216035   5.082   0.551   6.829
 5046SOL     OW16036   3.356   4.056   2.712
 5046SOL    HW116037   3.446   4.083   2.746
 5046SOL    HW216038   3.355   4.061   2.612
 5047SOL     OW16039   0.583   4.304   2.152
 5047SOL    HW116040   0.658   4.254   2.107
 5047SOL    HW216041   0.522   4.239   2.197
 5048SOL     OW16042   0.589   1.327   2.146
 5048SOL    HW116043   0.520   1.257   2.127
 5048SOL    HW216044   0.673   1.284   2.179
 5049SOL     OW16045   5.619   2.282   6.048
 5049SOL    HW116046   5.676   2.254   5.971
 5049SOL    HW216047   5.618   2.382   6.056
 5050SOL     OW16048   1.450   1.597   1.698
 5050SOL    HW116049   1.433   1.676   1.638
 5050SOL    HW216050   1.365   1.546   1.711
 5051SOL     OW16051   4.980   4.959   0.875
 5051SOL    HW116052   5.035   5.031   0.918
 5051SOL    HW216053   4.890   4.997   0.851
 5052SOL     OW16054   2.460   0.781   6.442
 5052SOL    HW116055   2.539   0.822   6.396
 5052SOL    HW216056   2.399   0.741   6.373
 5053SOL     OW16057   2.323   4.444   3.143
 5053SOL    HW116058   2.318   4.344   3.145
 5053SOL    HW216059   2.233   4.482   3.124
 5054SOL     OW16060   3.616   5.256   5.336
 5054SOL    HW116061   3.568   5.343   5.344
 5054SOL    HW216062   3.566   5.185   5.387
 5055SOL     OW16063   1.696   2.022   5.914
 5055SOL    HW116064   1.793   2.020   5.890
 5055SOL    HW216065   1.647   2.080   5.849
 5056SOL     OW16066   6.596   4.052   6.585
 5056SOL    HW116067   6.580   4.141   6.628
 5056SOL    HW216068   6.691   4.024   6.601
 5057SOL     OW16069   0.443   6.333   4.134
 5057SOL    HW116070   0.523   6.378   4.175
 5057SOL    HW216071   0.368   6.399   4.125
 5058SOL     OW16072   2.817   3.238   5.666
 5058SOL    HW116073   2.743   3.243   5.599
 5058SOL    HW216074   2.824   3.325   5.715
 5059SOL     OW16075   5.627   1.435   3.779
 5059SOL    HW116076   5.685   1.371   3.727
 5059SOL    HW216077   5.617   1.520   3.727
 5060SOL     OW16078   0.620   1.693   5.636
 5060SOL    HW116079   0.632   1.670   5.733
 5060SOL    HW216080   0.581   1.785   5.628
 5061SOL     OW16081   3.923   2.829   1.635
 5061SOL    HW116082   3.989   2.758   1.660
 5061SOL    HW216083   3.935   2.853   1.538
 5062SOL     OW16084   4.857   1.013   2.960
 5062SOL    HW116085   4.930   1.060   2.910
 5062SOL    HW216086   4.888   0.921   2.987
 5063SOL     OW16087   0.760   6.873   2.025
 5063SOL    HW116088   0.787   6.824   2.108
 5063SOL    HW216089   0.807   6.834   1.946
 5064SOL     OW16090   5.171   4.203   1.967
 5064SOL    HW116091   5.090   4.253   1.938
 5064SOL    HW216092   5.161   4.106   1.944
 5065SOL     OW16093   2.026   1.006   3.902
 5065SOL    HW116094   2.088   0.942   3.856
 5065SOL    HW216095   2.079   1.082   3.939
 5066SOL     OW16096   4.493   5.030   2.154
 5066SOL    HW116097   4.498   4.972   2.072
 5066SOL    HW216098   4.522   5.123   2.131
 5067SOL     OW16099   4.572   0.852   1.449
 5067SOL    HW116100   4.528   0.767   1.480
 5067SOL    HW216101   4.590   0.911   1.527
 5068SOL     OW16102   2.695   4.555   0.050
 5068SOL    HW116103   2.673   4.570   0.146
 5068SOL    HW216104   2.648   4.473   0.018
 5069SOL     OW16105   2.285   3.411   5.771
 5069SOL    HW116106   2.321   3.323   5.740
 5069SOL    HW216107   2.189   3.400   5.797
 5070SOL     OW16108   4.230   5.014   3.423
 5070SOL    HW116109   4.161   4.949   3.393
 5070SOL    HW216110   4.281   5.048   3.344
 5071SOL     OW16111   3.988   2.227   3.187
 5071SOL    HW116112   4.083   2.258   3.191
 5071SOL    HW216113   3.958   2.200   3.279
 5072SOL     OW16114   1.021   0.195   1.424
 5072SOL    HW116115   0.977   0.285   1.423
 5072SOL    HW216116   1.114   0.205   1.461
 5073SOL     OW16117   6.932   5.670   1.653
 5073SOL    HW116118   6.973   5.688   1.564
 5073SOL    HW216119   6.956   5.577   1.683
 5074SOL     OW16120   3.318   3.068   1.230
 5074SOL    HW116121   3.290   3.137   1.164
 5074SOL    HW216122   3.372   2.998   1.184
 5075SOL     OW16123   1.125   1.924   6.365
 5075SOL    HW116124   1.166   2.013   6.385
 5075SOL    HW216125   1.194   1.853   6.374
 5076SOL     OW16126   4.459   1.016   0.420
 5076SOL    HW116127   4.529   0.951   0.391
 5076SOL    HW216128   4.450   1.089   0.352
 5077SOL     OW16129   1.982   4.418   5.493
 5077SOL    HW116130   2.050   4.448   5.426
 5077SOL    HW216131   1.981   4.318   5.497
 5078SOL     OW16132   0.710   0.982   4.104
 5078SOL    HW116133   0.749   0.959   4.193
 5078SOL    HW216134   0.717   0.903   4.043
 5079SOL     OW16135   1.757   3.032   5.562
 5079SOL    HW116136   1.796   2.948   5.525
 5079SOL    HW216137   1.750   3.025   5.662
 5080SOL     OW16138   5.957   6.865   6.124
 5080SOL    HW116139   6.049   6.871   6.083
 5080SOL    HW216140   5.928   6.957   6.152
 5081SOL     OW16141   3.149   3.096   4.434
 5081SOL    HW116142   3.217   3.051   4.376
 5081SOL    HW216143   3.183   3.100   4.528
 5082SOL     OW16144   4.979   5.696   0.442
 5082SOL    HW116145   4.944   5.704   0.536
 5082SOL    HW216146   4.902   5.690   0.379
 5083SOL     OW16147   2.396   6.396   1.869
 5083SOL    HW116148   2.298   6.378   1.864
 5083SOL    HW216149   2.414   6.491   1.842
 5084SOL     OW16150   0.340   4.753   4.422
 5084SOL    HW116151   0.280   4.792   4.353
 5084SOL    HW216152   0.290   4.740   4.507
 5085SOL     OW16153   5.247   3.211   6.409
 5085SOL    HW116154   5.282   3.155   6.484
 5085SOL    HW216155   5.155   3.180   6.384
 5086SOL     OW16156   1.241   5.762   3.248
 5086SOL    HW116157   1.236   5.730   3.343
 5086SOL    HW216158   1.153   5.747   3.203
 5087SOL     OW16159   2.039   5.212   2.378
 5087SOL    HW116160   1.965   5.245   2.436
 5087SOL    HW216161   2.044   5.112   2.384
 5088SOL     OW16162   6.156   1.441   4.911
 5088SOL    HW116163   6.194   1.351   4.885
 5088SOL    HW216164   6.174   1.506   4.837
 5089SOL     OW16165   5.110   4.023   4.016
 5089SOL    HW116166   5.039   3.970   3.968
 5089SOL    HW216167   5.068   4.073   4.092
 5090SOL     OW16168   2.213   4.008   2.774
 5090SOL    HW116169   2.221   3.924   2.720
 5090SOL    HW216170   2.275   4.077   2.737
 5091SOL     OW16171   0.811   0.363   2.382
 5091SOL    HW116172   0.806   0.411   2.470
 5091SOL    HW216173   0.725   0.377   2.332
 5092SOL     OW16174   3.242   3.565   1.705
 5092SOL    HW116175   3.306   3.604   1.772
 5092SOL    HW216176   3.261   3.604   1.615
 5093SOL     OW16177   2.879   1.126   1.483
 5093SOL    HW116178   2.976   1.138   1.461
 5093SOL    HW216179   2.825   1.198   1.439
 5094SOL     OW16180   2.543   5.407   6.055
 5094SOL    HW116181   2.450   5.414   6.020
 5094SOL    HW216182   2.604   5.377   5.982
 5095SOL     OW16183   6.052   2.195   4.926
 5095SOL    HW116184   6.145   2.166   4.901
 5095SOL    HW216185   6.018   2.137   5.000
 5096SOL     OW16186   3.988   4.458   0.440
 5096SOL    HW116187   4.055   4.489   0.373
 5096SOL    HW216188   3.946   4.537   0.484
 5097SOL     OW16189   1.502   0.877   6.570
 5097SOL    HW116190   1.492   0.781   6.543
 5097SOL    HW216191   1.505   0.934   6.488
 5098SOL     OW16192   1.883   0.309   1.838
 5098SOL    HW116193   1.846   0.401   1.828
 5098SOL    HW216194   1.977   0.307   1.804
 5099SOL     OW16195   0.464   6.670   6.654
 5099SOL    HW116196   0.529   6.654   6.728
 5099SOL    HW216197   0.404   6.591   6.644
 5100SOL     OW16198   3.828   5.316   5.142
 5100SOL    HW116199   3.757   5.279   5.203
 5100SOL    HW216200   3.916   5.276   5.165
 5101SOL     OW16201   4.935   6.322   0.208
 5101SOL    HW116202   4.982   6.331   0.296
 5101SOL    HW216203   4.926   6.412   0.165
 5102SOL     OW16204   5.155   0.079   4.393
 5102SOL    HW116205   5.118   0.082   4.300
 5102SOL    HW216206   5.083   0.054   4.457
 5103SOL     OW16207   0.053   1.367   4.122
 5103SOL    HW116208   0.106   1.451   4.129
 5103SOL    HW216209   0.115   1.289   4.112
 5104SOL     OW16210   1.598   6.450   2.750
 5104SOL    HW116211   1.532   6.388   2.706
 5104SOL    HW216212   1.634   6.514   2.682
 5105SOL     OW16213   3.702   2.671   0.312
 5105SOL    HW116214   3.756   2.621   0.244
 5105SOL    HW216215   3.631   2.724   0.266
 5106SOL     OW16216   3.479   1.052   0.428
 5106SOL    HW116217   3.494   1.150   0.441
 5106SOL    HW216218   3.567   1.005   0.420
 5107SOL     OW16219   3.158   0.821   0.159
 5107SOL    HW116220   3.255   0.839   0.145
 5107SOL    HW216221   3.133   0.735   0.114
 5108SOL     OW16222   2.881   3.488   4.536
 5108SOL    HW116223   2.796   3.476   4.587
 5108SOL    HW216224   2.902   3.585   4.529
 5109SOL     OW16225   1.211   0.986   0.604
 5109SOL    HW116226   1.253   0.961   0.691
 5109SOL    HW216227   1.236   1.080   0.581
 5110SOL     OW16228   0.480   0.335   6.236
 5110SOL    HW116229   0.389   0.299   6.256
 5110SOL    HW216230   0.483   0.432   6.261
 5111SOL     OW16231   2.522   1.093   5.244
 5111SOL    HW116232   2.588   1.076   5.171
 5111SOL    HW216233   2.489   1.187   5.238
 5112SOL     OW16234   1.063   0.189   2.861
 5112SOL    HW116235   1.104   0.183   2.952
 5112SOL    HW216236   1.067   0.099   2.816
 5113SOL     OW16237   2.279   6.789   0.843
 5113SOL    HW116238   2.373   6.761   0.861
 5113SOL    HW216239   2.279   6.867   0.780
 5114SOL     OW16240   2.917   1.345   0.022
 5114SOL    HW116241   3.012   1.341   0.054
 5114SOL    HW216242   2.865   1.270   0.063
 5115SOL     OW16243   1.986   5.168   4.471
 5115SOL    HW116244   2.001   5.264   4.493
 5115SOL    HW216245   1.923   5.128   4.537
 5116SOL     OW16246   6.261   6.836   6.987
 5116SOL    HW116247   6.310   6.820   0.050
 5116SOL    HW216248   6.214   6.924   6.990
 5117SOL     OW16249   2.685   4.685   4.802
 5117SOL    HW116250   2.765   4.693   4.860
 5117SOL    HW216251   2.622   4.617   4.840
 5118SOL     OW16252   4.654   0.808   0.331
 5118SOL    HW116253   4.674   0.843   0.239
 5118SOL    HW216254   4.618   0.715   0.323
 5119SOL     OW16255   5.338   0.654   1.658
 5119SOL    HW116256   5.341   0.665   1.758
 5119SOL    HW216257   5.386   0.730   1.615
 5120SOL     OW16258   3.851   1.269   4.058
 5120SOL    HW116259   3.930   1.238   4.005
 5120SOL    HW216260   3.851   1.369   4.061
 5121SOL     OW16261   2.914   1.936   0.019
 5121SOL    HW116262   2.920   1.836   0.018
 5121SOL    HW216263   2.899   1.970   6.949
 5122SOL     OW16264   3.009   6.760   2.575
 5122SOL    HW116265   2.941   6.770   2.502
 5122SOL    HW216266   2.965   6.771   2.664
 5123SOL     OW16267   4.841   1.811   5.337
 5123SOL    HW116268   4.799   1.782   5.423
 5123SOL    HW216269   4.914   1.746   5.313
 5124SOL     OW16270   3.284   5.002   5.037
 5124SOL    HW116271   3.311   4.994   4.941
 5124SOL    HW216272   3.197   4.956   5.051
 5125SOL     OW16273   6.610   3.361   3.923
 5125SOL    HW116274   6.583   3.455   3.944
 5125SOL    HW216275   6.530   3.307   3.899
 5126SOL     OW16276   6.588   5.566   5.579
 5126SOL    HW116277   6.566   5.590   5.485
 5126SOL    HW216278   6.644   5.638   5.620
 5127SOL     OW16279   0.669   3.646   0.373
 5127SOL    HW116280   0.707   3.560   0.339
 5127SOL    HW216281   0.609   3.686   0.303
 5128SOL     OW16282   6.627   0.503   6.636
 5128SOL    HW116283   6.646   0.405   6.642
 5128SOL    HW216284   6.545   0.517   6.582
 5129SOL     OW16285   5.035   0.477   2.985
 5129SOL    HW116286   5.022   0.383   2.955
 5129SOL    HW216287   4.950   0.510   3.027
 5130SOL     OW16288   1.994   5.049   3.842
 5130SOL    HW116289   1.976   4.964   3.792
 5130SOL    HW216290   2.057   5.031   3.917
 5131SOL     OW16291   2.716   5.179   3.973
 5131SOL    HW116292   2.727   5.244   4.048
 5131SOL    HW216293   2.660   5.102   4.003
 5132SOL     OW16294   3.335   2.234   5.900
 5132SOL    HW116295   3.388   2.218   5.817
 5132SOL    HW216296   3.393   2.283   5.966
 5133SOL     OW16297   1.905   5.251   6.500
 5133SOL    HW116298   1.874   5.159   6.477
 5133SOL    HW216299   1.850   5.287   6.576
 5134SOL     OW16300   6.907   1.007   2.155
 5134SOL    HW116301   6.857   1.065   2.090
 5134SOL    HW216302   7.003   1.000   2.126
 5135SOL     OW16303   5.109   3.812   4.627
 5135SOL    HW116304   5.028   3.754   4.635
 5135SOL    HW216305   5.137   3.843   4.718
 5136SOL     OW16306   5.595   0.685   6.642
 5136SOL    HW116307   5.579   0.725   6.732
 5136SOL    HW216308   5.508   0.669   6.596
 5137SOL     OW16309   4.817   3.544   5.513
 5137SOL    HW116310   4.844   3.639   5.525
 5137SOL    HW216311   4.779   3.531   5.421
 5138SOL     OW16312   3.871   2.988   4.334
 5138SOL    HW116313   3.885   3.081   4.367
 5138SOL    HW216314   3.861   2.926   4.413
 5139SOL     OW16315   0.979   0.107   3.938
 5139SOL    HW116316   1.012   0.158   3.859
 5139SOL    HW216317   1.046   0.036   3.962
 5140SOL     OW16318   3.898   1.942   5.617
 5140SOL    HW116319   3.956   1.907   5.543
 5140SOL    HW216320   3.814   1.980   5.578
 5141SOL     OW16321   6.449   4.074   0.704
 5141SOL    HW116322   6.436   4.123   0.617
 5141SOL    HW216323   6.461   4.140   0.778
 5142SOL     OW16324   5.410   6.246   3.657
 5142SOL    HW116325   5.484   6.210   3.600
 5142SOL    HW216326   5.356   6.170   3.695
 5143SOL     OW16327   0.306   4.654   4.134
 5143SOL    HW116328   0.246   4.732   4.118
 5143SOL    HW216329   0.263   4.571   4.100
 5144SOL     OW16330   1.042   5.064   5.565
 5144SOL    HW116331   0.944   5.077   5.581
 5144SOL    HW216332   1.061   4.968   5.547
 5145SOL     OW16333   3.320   5.864   6.510
 5145SOL    HW116334   3.279   5.939   6.459
 5145SOL    HW216335   3.327   5.889   6.607
 5146SOL     OW16336   3.413   3.392   5.068
 5146SOL    HW116337   3.512   3.399   5.072
 5146SOL    HW216338   3.384   3.307   5.111
 5147SOL     OW16339   6.688   5.683   3.906
 5147SOL    HW116340   6.620   5.673   3.979
 5147SOL    HW216341   6.766   5.737   3.940
 5148SOL     OW16342   0.166   1.015   2.082
 5148SOL    HW116343   0.146   1.113   2.075
 5148SOL    HW216344   0.163   0.974   1.990
 5149SOL     OW16345   6.453   5.303   4.067
 5149SOL    HW116346   6.550   5.290   4.046
 5149SOL    HW216347   6.444   5.369   4.142
 5150SOL     OW16348   2.448   5.499   3.534
 5150SOL    HW116349   2.359   5.477   3.574
 5150SOL    HW216350   2.462   5.598   3.537
 5151SOL     OW16351   6.928   3.679   2.180
 5151SOL    HW116352   6.898   3.769   2.150
 5151SOL    HW216353   6.901   3.665   2.275
 5152SOL     OW16354   1.554   5.325   0.069
 5152SOL    HW116355   1.586   5.240   0.111
 5152SOL    HW216356   1.512   5.383   0.139
 5153SOL     OW16357   0.566   2.308   0.678
 5153SOL    HW116358   0.544   2.212   0.660
 5153SOL    HW216359   0.606   2.349   0.597
 5154SOL     OW16360   0.879   2.848   6.065
 5154SOL    HW116361   0.789   2.891   6.073
 5154SOL    HW216362   0.935   2.901   6.001
 5155SOL     OW16363   3.852   6.527   2.022
 5155SOL    HW116364   3.887   6.535   2.115
 5155SOL    HW216365   3.877   6.608   1.969
 5156SOL     OW16366   5.399   4.775   5.769
 5156SOL    HW116367   5.362   4.687   5.740
 5156SOL    HW216368   5.478   4.799   5.713
 5157SOL     OW16369   3.175   1.564   2.979
 5157SOL    HW116370   3.164   1.577   2.880
 5157SOL    HW216371   3.178   1.466   3.000
 5158SOL     OW16372   4.059   2.023   1.151
 5158SOL    HW116373   4.004   2.102   1.122
 5158SOL    HW216374   4.049   1.949   1.085
 5159SOL     OW16375   5.509   3.453   5.681
 5159SOL    HW116376   5.465   3.374   5.724
 5159SOL    HW216377   5.597   3.469   5.724
 5160SOL     OW16378   0.206   4.843   3.136
 5160SOL    HW116379   0.118   4.821   3.094
 5160SOL    HW216380   0.272   4.867   3.065
 5161SOL     OW16381   1.873   3.438   6.896
 5161SOL    HW116382   1.845   3.534   6.897
 5161SOL    HW216383   1.957   3.427   6.949
 5162SOL     OW16384   0.796   5.706   2.598
 5162SOL    HW116385   0.743   5.789   2.581
 5162SOL    HW216386   0.860   5.722   2.672
 5163SOL     OW16387   2.996   6.982   1.063
 5163SOL    HW116388   2.994   0.052   1.027
 5163SOL    HW216389   3.084   6.940   1.043
 5164SOL     OW16390   3.669   2.466   0.110
 5164SOL    HW116391   3.588   2.524   0.120
 5164SOL    HW216392   3.651   2.376   0.150
 5165SOL     OW16393   0.666   3.889   5.891
 5165SOL    HW116394   0.625   3.863   5.979
 5165SOL    HW216395   0.609   3.856   5.817
 5166SOL     OW16396   1.713   5.559   2.496
 5166SOL    HW116397   1.795   5.616   2.504
 5166SOL    HW216398   1.688   5.524   2.586
 5167SOL     OW16399   6.233   5.046   5.820
 5167SOL    HW116400   6.318   5.012   5.780
 5167SOL    HW216401   6.169   4.969   5.830
 5168SOL     OW16402   5.482   3.624   1.947
 5168SOL    HW116403   5.469   3.602   2.044
 5168SOL    HW216404   5.546   3.558   1.907
 5169SOL     OW16405   3.744   2.157   3.849
 5169SOL    HW116406   3.775   2.248   3.822
 5169SOL    HW216407   3.822   2.095   3.855
 5170SOL     OW16408   1.524   3.477   4.690
 5170SOL    HW116409   1.613   3.461   4.733
 5170SOL    HW216410   1.533   3.544   4.616
 5171SOL     OW16411   0.111   4.145   5.819
 5171SOL    HW116412   0.153   4.056   5.800
 5171SOL    HW216413   0.183   4.211   5.842
 5172SOL     OW16414   1.658   3.332   2.382
 5172SOL    HW116415   1.724   3.363   2.314
 5172SOL    HW216416   1.621   3.411   2.431
 5173SOL     OW16417   4.826   5.152   4.772
 5173SOL    HW116418   4.734   5.185   4.748
 5173SOL    HW216419   4.886   5.161   4.692
 5174SOL     OW16420   2.488   4.667   3.506
 5174SOL    HW116421   2.569   4.671   3.448
 5174SOL    HW216422   2.468   4.758   3.543
 5175SOL     OW16423   3.195   3.877   6.598
 5175SOL    HW116424   3.210   3.975   6.616
 5175SOL    HW216425   3.115   3.866   6.538
 5176SOL     OW16426   5.485   3.760   0.242
 5176SOL    HW116427   5.518   3.666   0.248
 5176SOL    HW216428   5.387   3.762   0.262
 5177SOL     OW16429   5.714   6.865   0.809
 5177SOL    HW116430   5.628   6.839   0.853
 5177SOL    HW216431   5.787   6.805   0.841
 5178SOL     OW16432   1.068   3.523   2.809
 5178SOL    HW116433   1.032   3.535   2.717
 5178SOL    HW216434   1.019   3.448   2.854
 5179SOL     OW16435   4.718   4.576   4.215
 5179SOL    HW116436   4.666   4.504   4.169
 5179SOL    HW216437   4.703   4.663   4.169
 5180SOL     OW16438   2.936   1.256   1.135
 5180SOL    HW116439   2.839   1.260   1.110
 5180SOL    HW216440   2.992   1.252   1.053
 5181SOL     OW16441   5.116   1.403   2.368
 5181SOL    HW116442   5.164   1.471   2.423
 5181SOL    HW216443   5.161   1.394   2.280
 5182SOL     OW16444   4.160   4.785   2.000
 5182SOL    HW116445   4.199   4.872   1.972
 5182SOL    HW216446   4.233   4.725   2.035
 5183SOL     OW16447   3.683   1.647   2.880
 5183SOL    HW116448   3.614   1.602   2.936
 5183SOL    HW216449   3.639   1.707   2.814
 5184SOL     OW16450   0.480   2.333   3.665
 5184SOL    HW116451   0.477   2.433   3.660
 5184SOL    HW216452   0.483   2.305   3.761
 5185SOL     OW16453   5.390   0.972   2.936
 5185SOL    HW116454   5.341   1.045   2.888
 5185SOL    HW216455   5.472   0.947   2.885
 5186SOL     OW16456   5.939   1.708   0.236
 5186SOL    HW116457   6.001   1.630   0.231
 5186SOL    HW216458   5.844   1.675   0.233
 5187SOL     OW16459   1.406   6.013   4.753
 5187SOL    HW116460   1.491   5.963   4.769
 5187SOL    HW216461   1.355   5.968   4.680
 5188SOL     OW16462   6.588   5.641   1.530
 5188SOL    HW116463   6.645   5.651   1.449
 5188SOL    HW216464   6.598   5.548   1.567
 5189SOL     OW16465   4.207   5.252   0.926
 5189SOL    HW116466   4.190   5.163   0.970
 5189SOL    HW216467   4.159   5.323   0.975
 5190SOL     OW16468   0.380   3.153   4.579
 5190SOL    HW116469   0.441   3.162   4.657
 5190SOL    HW216470   0.434   3.143   4.495
 5191SOL     OW16471   3.882   6.615   2.280
 5191SOL    HW116472   3.827   6.622   2.363
 5191SOL    HW216473   3.979   6.615   2.303
 5192SOL     OW16474   1.793   5.372   1.136
 5192SOL    HW116475   1.813   5.393   1.040
 5192SOL    HW216476   1.779   5.458   1.187
 5193SOL     OW16477   5.526   5.439   5.530
 5193SOL    HW116478   5.542   5.356   5.476
 5193SOL    HW216479   5.429   5.463   5.527
 5194SOL     OW16480   4.109   2.147   0.118
 5194SOL    HW116481   4.145   2.087   0.047
 5194SOL    HW216482   4.114   2.242   0.088
 5195SOL     OW16483   6.982   0.393   4.439
 5195SOL    HW116484   0.048   0.346   4.439
 5195SOL    HW216485   6.909   0.326   4.428
 5196SOL     OW16486   4.647   6.764   1.887
 5196SOL    HW116487   4.742   6.782   1.913
 5196SOL    HW216488   4.590   6.840   1.916
 5197SOL     OW16489   2.102   4.009   6.211
 5197SOL    HW116490   2.180   4.072   6.214
 5197SOL    HW216491   2.098   3.956   6.295
 5198SOL     OW16492   4.576   5.977   3.325
 5198SOL    HW116493   4.540   5.884   3.323
 5198SOL    HW216494   4.669   5.978   3.287
 5199SOL     OW16495   1.147   6.256   0.223
 5199SOL    HW116496   1.077   6.324   0.204
 5199SOL    HW216497   1.157   6.245   0.322
 5200SOL     OW16498   0.366   3.645   5.465
 5200SOL    HW116499   0.291   3.699   5.428
 5200SOL    HW216500   0.453   3.685   5.436
 5201SOL     OW16501   0.397   0.049   2.708
 5201SOL    HW116502   0.343   0.107   2.768
 5201SOL    HW216503   0.357   6.980   2.705
 5202SOL     OW16504   5.490   2.873   6.445
 5202SOL    HW116505   5.469   2.942   6.514
 5202SOL    HW216506   5.584   2.843   6.456
 5203SOL     OW16507   2.012   2.473   6.760
 5203SOL    HW116508   1.939   2.500   6.824
 5203SOL    HW216509   1.971   2.430   6.680
 5204SOL     OW16510   3.407   5.307   6.424
 5204SOL    HW116511   3.460   5.237   6.376
 5204SOL    HW216512   3.432   5.397   6.389
 5205SOL     OW16513   0.494   6.319   0.833
 5205SOL    HW116514   0.412   6.311   0.777
 5205SOL    HW216515   0.571   6.276   0.785
 5206SOL     OW16516   0.574   4.139   5.965
 5206SOL    HW116517   0.607   4.058   5.915
 5206SOL    HW216518   0.636   4.216   5.947
 5207SOL     OW16519   1.131   5.741   3.865
 5207SOL    HW116520   1.163   5.832   3.841
 5207SOL    HW216521   1.124   5.734   3.965
 5208SOL     OW16522   3.624   1.999   6.038
 5208SOL    HW116523   3.592   1.924   5.979
 5208SOL    HW216524   3.550   2.029   6.097
 5209SOL     OW16525   5.582   5.585   3.475
 5209SOL    HW116526   5.568   5.489   3.499
 5209SOL    HW216527   5.619   5.591   3.382
 5210SOL     OW16528   4.648   3.016   5.497
 5210SOL    HW116529   4.671   3.100   5.546
 5210SOL    HW216530   4.558   2.983   5.526
 5211SOL     OW16531   3.021   3.360   4.986
 5211SOL    HW116532   3.011   3.282   4.924
 5211SOL    HW216533   3.117   3.368   5.013
 5212SOL     OW16534   6.602   2.214   0.697
 5212SOL    HW116535   6.590   2.172   0.607
 5212SOL    HW216536   6.647   2.303   0.687
 5213SOL     OW16537   4.264   3.801   6.612
 5213SOL    HW116538   4.214   3.791   6.526
 5213SOL    HW216539   4.362   3.802   6.593
 5214SOL     OW16540   4.613   1.929   5.798
 5214SOL    HW116541   4.701   1.920   5.751
 5214SOL    HW216542   4.565   2.010   5.763
 5215SOL     OW16543   6.230   4.900   3.552
 5215SOL    HW116544   6.234   4.990   3.596
 5215SOL    HW216545   6.269   4.905   3.460
 5216SOL     OW16546   4.749   4.959   1.586
 5216SOL    HW116547   4.746   5.052   1.622
 5216SOL    HW216548   4.662   4.913   1.604
 5217SOL     OW16549   3.773   5.541   4.648
 5217SOL    HW116550   3.852   5.592   4.613
 5217SOL    HW216551   3.700   5.605   4.672
 5218SOL     OW16552   0.739   0.670   3.951
 5218SOL    HW116553   0.747   0.570   3.952
 5218SOL    HW216554   0.830   0.711   3.958
 5219SOL     OW16555   3.975   0.900   5.848
 5219SOL    HW116556   4.042   0.827   5.862
 5219SOL    HW216557   3.890   0.877   5.894
 5220SOL     OW16558   1.948   5.951   2.686
 5220SOL    HW116559   2.027   6.003   2.653
 5220SOL    HW216560   1.910   5.897   2.611
 5221SOL     OW16561   5.564   2.450   4.095
 5221SOL    HW116562   5.484   2.446   4.036
 5221SOL    HW216563   5.647   2.462   4.040
 5222SOL     OW16564   3.133   6.079   3.476
 5222SOL    HW116565   3.230   6.064   3.455
 5222SOL    HW216566   3.081   6.083   3.390
 5223SOL     OW16567   6.319   2.233   0.837
 5223SOL    HW116568   6.419   2.238   0.834
 5223SOL    HW216569   6.282   2.317   0.877
 5224SOL     OW16570   0.103   2.838   4.176
 5224SOL    HW116571   0.128   2.778   4.101
 5224SOL    HW216572   0.019   2.888   4.154
 5225SOL     OW16573   0.226   0.161   3.606
 5225SOL    HW116574   0.145   0.218   3.616
 5225SOL    HW216575   0.199   0.069   3.576
 5226SOL     OW16576   0.489   6.047   4.610
 5226SOL    HW116577   0.431   6.077   4.534
 5226SOL    HW216578   0.435   6.044   4.694
 5227SOL     OW16579   1.314   3.604   4.304
 5227SOL    HW116580   1.251   3.526   4.301
 5227SOL    HW216581   1.334   3.634   4.211
 5228SOL     OW16582   6.342   2.388   1.558
 5228SOL    HW116583   6.391   2.475   1.559
 5228SOL    HW216584   6.318   2.362   1.652
 5229SOL     OW16585   1.640   5.702   6.989
 5229SOL    HW116586   1.542   5.692   7.001
 5229SOL    HW216587   1.684   5.612   6.995
 5230SOL     OW16588   0.899   6.543   0.866
 5230SOL    HW116589   0.822   6.606   0.861
 5230SOL    HW216590   0.865   6.453   0.894
 5231SOL     OW16591   4.017   3.373   5.794
 5231SOL    HW116592   3.939   3.358   5.854
 5231SOL    HW216593   4.030   3.294   5.735
 5232SOL     OW16594   3.491   2.215   5.681
 5232SOL    HW116595   3.437   2.160   5.618
 5232SOL    HW216596   3.582   2.176   5.690
 5233SOL     OW16597   5.081   1.054   2.230
 5233SOL    HW116598   5.081   1.142   2.183
 5233SOL    HW216599   5.033   0.986   2.175
 5234SOL     OW16600   2.440   0.803   6.950
 5234SOL    HW116601   2.488   0.783   6.866
 5234SOL    HW216602   2.358   0.745   6.957
 5235SOL     OW16603   1.755   2.890   1.020
 5235SOL    HW116604   1.782   2.974   1.067
 5235SOL    HW216605   1.700   2.834   1.081
 5236SOL     OW16606   5.752   3.942   2.646
 5236SOL    HW116607   5.659   3.919   2.617
 5236SOL    HW216608   5.774   3.892   2.730
 5237SOL     OW16609   2.136   1.017   5.134
 5237SOL    HW116610   2.104   0.923   5.147
 5237SOL    HW216611   2.064   1.071   5.091
 5238SOL     OW16612   1.248   4.366   0.553
 5238SOL    HW116613   1.211   4.414   0.474
 5238SOL    HW216614   1.299   4.430   0.610
 5239SOL     OW16615   3.563   2.984   3.931
 5239SOL    HW116616   3.588   2.929   4.011
 5239SOL    HW216617   3.636   3.048   3.910
 5240SOL     OW16618   3.312   1.807   6.466
 5240SOL    HW116619   3.320   1.885   6.528
 5240SOL    HW216620   3.271   1.838   6.380
 5241SOL     OW16621   0.822   5.410   5.581
 5241SOL    HW116622   0.874   5.495   5.574
 5241SOL    HW216623   0.810   5.371   5.489
 5242SOL     OW16624   0.117   5.947   6.382
 5242SOL    HW116625   0.127   5.848   6.374
 5242SOL    HW216626   0.183   5.982   6.448
 5243SOL     OW16627   1.276   5.453   1.529
 5243SOL    HW116628   1.205   5.520   1.550
 5243SOL    HW216629   1.234   5.362   1.520
 5244SOL     OW16630   3.595   4.435   6.466
 5244SOL    HW116631   3.654   4.411   6.389
 5244SOL    HW216632   3.514   4.377   6.465
 5245SOL     OW16633   4.661   4.625   0.748
 5245SOL    HW116634   4.578   4.569   0.751
 5245SOL    HW216635   4.669   4.677   0.833
 5246SOL     OW16636   5.740   4.222   2.784
 5246SOL    HW116637   5.651   4.268   2.786
 5246SOL    HW216638   5.729   4.128   2.753
 5247SOL     OW16639   0.978   0.254   0.353
 5247SOL    HW116640   1.005   0.272   0.448
 5247SOL    HW216641   1.042   0.190   0.311
 5248SOL     OW16642   5.796   0.743   4.122
 5248SOL    HW116643   5.832   0.650   4.122
 5248SOL    HW216644   5.846   0.798   4.056
 5249SOL     OW16645   6.814   4.392   5.053
 5249SOL    HW116646   6.887   4.432   4.999
 5249SOL    HW216647   6.770   4.318   5.001
 5250SOL     OW16648   1.162   0.626   5.441
 5250SOL    HW116649   1.234   0.563   5.411
 5250SOL    HW216650   1.172   0.645   5.538
 5251SOL     OW16651   0.645   3.122   0.456
 5251SOL    HW116652   0.550   3.152   0.448
 5251SOL    HW216653   0.658   3.080   0.546
 5252SOL     OW16654   2.173   5.934   0.333
 5252SOL    HW116655   2.097   5.872   0.310
 5252SOL    HW216656   2.250   5.880   0.367
 5253SOL     OW16657   5.647   3.893   4.321
 5253SOL    HW116658   5.744   3.869   4.326
 5253SOL    HW216659   5.591   3.813   4.347
 5254SOL     OW16660   4.493   1.631   2.766
 5254SOL    HW116661   4.545   1.553   2.731
 5254SOL    HW216662   4.401   1.629   2.726
 5255SOL     OW16663   4.681   0.542   5.753
 5255SOL    HW116664   4.680   0.457   5.700
 5255SOL    HW216665   4.587   0.576   5.762
 5256SOL     OW16666   4.446   0.857   3.396
 5256SOL    HW116667   4.461   0.951   3.366
 5256SOL    HW216668   4.432   0.855   3.495
 5257SOL     OW16669   4.816   6.273   2.374
 5257SOL    HW116670   4.825   6.350   2.311
 5257SOL    HW216671   4.870   6.291   2.457
 5258SOL     OW16672   5.666   3.634   1.403
 5258SOL    HW116673   5.643   3.716   1.350
 5258SOL    HW216674   5.585   3.600   1.449
 5259SOL     OW16675   4.841   6.373   0.673
 5259SOL    HW116676   4.767   6.306   0.670
 5259SOL    HW216677   4.806   6.464   0.650
 5260SOL     OW16678   5.722   3.984   1.040
 5260SOL    HW116679   5.785   3.972   1.116
 5260SOL    HW216680   5.669   3.901   1.026
 5261SOL     OW16681   1.130   3.550   6.653
 5261SOL    HW116682   1.179   3.490   6.590
 5261SOL    HW216683   1.189   3.571   6.732
 5262SOL     OW16684   2.690   0.416   3.215
 5262SOL    HW116685   2.652   0.329   3.248
 5262SOL    HW216686   2.786   0.404   3.191
 5263SOL     OW16687   2.138   1.406   5.240
 5263SOL    HW116688   2.122   1.424   5.144
 5263SOL    HW216689   2.087   1.472   5.296
 5264SOL     OW16690   5.783   1.507   2.273
 5264SOL    HW116691   5.702   1.452   2.293
 5264SOL    HW216692   5.865   1.457   2.301
 5265SOL     OW16693   5.491   4.036   3.589
 5265SOL    HW116694   5.444   3.998   3.670
 5265SOL    HW216695   5.563   3.973   3.560
 5266SOL     OW16696   2.689   6.451   1.578
 5266SOL    HW116697   2.718   6.539   1.617
 5266SOL    HW216698   2.717   6.377   1.638
 5267SOL     OW16699   4.708   4.183   5.438
 5267SOL    HW116700   4.662   4.100   5.406
 5267SOL    HW216701   4.722   4.177   5.537
 5268SOL     OW16702   6.179   0.471   6.236
 5268SOL    HW116703   6.101   0.521   6.272
 5268SOL    HW216704   6.248   0.536   6.204
 5269SOL     OW16705   2.101   0.006   4.167
 5269SOL    HW116706   2.166   6.953   4.179
 5269SOL    HW216707   2.068   0.007   4.073
 5270SOL     OW16708   5.268   1.693   1.503
 5270SOL    HW116709   5.202   1.693   1.428
 5270SOL    HW216710   5.317   1.780   1.504
 5271SOL     OW16711   5.851   5.701   4.868
 5271SOL    HW116712   5.847   5.671   4.963
 5271SOL    HW216713   5.903   5.635   4.814
 5272SOL     OW16714   2.148   5.968   1.778
 5272SOL    HW116715   2.049   5.978   1.768
 5272SOL    HW216716   2.194   6.043   1.732
 5273SOL     OW16717   6.677   2.865   3.254
 5273SOL    HW116718   6.683   2.947   3.197
 5273SOL    HW216719   6.587   2.822   3.241
 5274SOL     OW16720   6.795   6.083   1.947
 5274SOL    HW116721   6.788   6.008   1.881
 5274SOL    HW216722   6.822   6.046   2.036
 5275SOL     OW16723   3.622   1.890   6.449
 5275SOL    HW116724   3.671   1.921   6.368
 5275SOL    HW216725   3.640   1.793   6.464
 5276SOL     OW16726   1.295   0.475   0.967
 5276SOL    HW116727   1.272   0.475   0.869
 5276SOL    HW216728   1.326   0.566   0.994
 5277SOL     OW16729   1.736   2.252   3.193
 5277SOL    HW116730   1.769   2.161   3.216
 5277SOL    HW216731   1.655   2.245   3.135
 5278SOL     OW16732   4.459   0.303   4.223
 5278SOL    HW116733   4.366   0.314   4.189
 5278SOL    HW216734   4.524   0.329   4.152
 5279SOL     OW16735   1.556   5.224   6.643
 5279SOL    HW116736   1.641   5.267   6.672
 5279SOL    HW216737   1.538   5.246   6.547
 5280SOL     OW16738   3.341   6.459   5.329
 5280SOL    HW116739   3.258   6.483   5.378
 5280SOL    HW216740   3.406   6.415   5.391
 5281SOL     OW16741   0.766   1.684   2.795
 5281SOL    HW116742   0.758   1.586   2.778
 5281SOL    HW216743   0.844   1.702   2.855
 5282SOL     OW16744   2.271   1.850   3.284
 5282SOL    HW116745   2.294   1.779   3.217
 5282SOL    HW216746   2.293   1.940   3.246
 5283SOL     OW16747   3.934   6.743   1.869
 5283SOL    HW116748   4.026   6.781   1.861
 5283SOL    HW216749   3.870   6.816   1.895
 5284SOL     OW16750   5.440   3.812   3.110
 5284SOL    HW116751   5.466   3.726   3.154
 5284SOL    HW216752   5.345   3.806   3.077
 5285SOL     OW16753   2.198   4.035   4.250
 5285SOL    HW116754   2.118   4.089   4.275
 5285SOL    HW216755   2.176   3.975   4.173
 5286SOL     OW16756   0.465   3.638   1.040
 5286SOL    HW116757   0.473   3.576   0.962
 5286SOL    HW216758   0.379   3.622   1.087
 5287SOL     OW16759   1.532   5.673   1.553
 5287SOL    HW116760   1.586   5.591   1.536
 5287SOL    HW216761   1.593   5.752   1.563
 5288SOL     OW16762   3.967   0.397   2.430
 5288SOL    HW116763   4.017   0.463   2.486
 5288SOL    HW216764   3.898   0.444   2.376
 5289SOL     OW16765   1.959   5.644   6.058
 5289SOL    HW116766   1.998   5.734   6.077
 5289SOL    HW216767   1.979   5.618   5.963
 5290SOL     OW16768   1.574   4.684   5.446
 5290SOL    HW116769   1.673   4.693   5.454
 5290SOL    HW216770   1.547   4.592   5.474
 5291SOL     OW16771   2.900   4.971   5.493
 5291SOL    HW116772   2.881   4.930   5.404
 5291SOL    HW216773   2.817   4.972   5.548
 5292SOL     OW16774   6.509   4.576   0.273
 5292SOL    HW116775   6.519   4.557   0.175
 5292SOL    HW216776   6.414   4.561   0.301
 5293SOL     OW16777   0.999   0.776   3.967
 5293SOL    HW116778   0.997   0.873   3.943
 5293SOL    HW216779   1.064   0.729   3.908
 5294SOL     OW16780   5.459   2.992   5.030
 5294SOL    HW116781   5.438   2.894   5.029
 5294SOL    HW216782   5.535   3.010   4.968
 5295SOL     OW16783   4.144   0.960   2.583
 5295SOL    HW116784   4.218   0.916   2.633
 5295SOL    HW216785   4.146   0.931   2.487
 5296SOL     OW16786   1.769   5.661   0.484
 5296SOL    HW116787   1.700   5.589   0.495
 5296SOL    HW216788   1.854   5.632   0.527
 5297SOL     OW16789   3.148   1.725   0.842
 5297SOL    HW116790   3.097   1.748   0.924
 5297SOL    HW216791   3.115   1.778   0.765
 5298SOL     OW16792   1.332   5.997   6.351
 5298SOL    HW116793   1.254   6.037   6.399
 5298SOL    HW216794   1.374   5.927   6.409
 5299SOL     OW16795   2.832   2.373   0.908
 5299SOL    HW116796   2.891   2.437   0.957
 5299SOL    HW216797   2.801   2.415   0.823
 5300SOL     OW16798   0.502   5.937   1.669
 5300SOL    HW116799   0.449   5.999   1.727
 5300SOL    HW216800   0.598   5.941   1.695
 5301SOL     OW16801   3.938   2.610   6.496
 5301SOL    HW116802   3.865   2.669   6.460
 5301SOL    HW216803   3.937   2.612   6.596
 5302SOL     OW16804   5.788   5.122   3.495
 5302SOL    HW116805   5.833   5.209   3.476
 5302SOL    HW216806   5.842   5.069   3.560
 5303SOL     OW16807   6.864   5.929   2.799
 5303SOL    HW116808   6.913   5.917   2.885
 5303SOL    HW216809   6.885   5.851   2.738
 5304SOL     OW16810   5.680   1.547   6.663
 5304SOL    HW116811   5.615   1.555   6.738
 5304SOL    HW216812   5.646   1.598   6.584
 5305SOL     OW16813   1.487   5.086   4.007
 5305SOL    HW116814   1.540   5.030   3.943
 5305SOL    HW216815   1.455   5.169   3.959
 5306SOL     OW16816   0.650   4.995   5.063
 5306SOL    HW116817   0.690   4.920   5.116
 5306SOL    HW216818   0.679   4.988   4.968
 5307SOL     OW16819   3.891   6.982   0.717
 5307SOL    HW116820   3.978   6.933   0.716
 5307SOL    HW216821   3.883   0.015   0.633
 5308SOL     OW16822   1.134   6.431   3.589
 5308SOL    HW116823   1.048   6.451   3.540
 5308SOL    HW216824   1.131   6.474   3.679
 5309SOL     OW16825   3.812   4.666   1.681
 5309SOL    HW116826   3.731   4.637   1.733
 5309SOL    HW216827   3.856   4.742   1.729
 5310SOL     OW16828   6.179   3.663   1.856
 5310SOL    HW116829   6.261   3.709   1.823
 5310SOL    HW216830   6.182   3.566   1.831
 5311SOL     OW16831   0.366   6.549   0.239
 5311SOL    HW116832   0.306   6.577   0.164
 5311SOL    HW216833   0.326   6.471   0.286
 5312SOL     OW16834   0.638   4.755   1.787
 5312SOL    HW116835   0.663   4.694   1.863
 5312SOL    HW216836   0.543   4.738   1.762
 5313SOL     OW16837   1.340   4.738   6.806
 5313SOL    HW116838   1.370   4.644   6.795
 5313SOL    HW216839   1.240   4.742   6.808
 5314SOL     OW16840   3.648   6.542   6.974
 5314SOL    HW116841   3.587   6.470   7.009
 5314SOL    HW216842   3.632   6.627   0.002
 5315SOL     OW16843   4.697   3.466   1.749
 5315SOL    HW116844   4.772   3.478   1.683
 5315SOL    HW216845   4.668   3.556   1.782
 5316SOL     OW16846   0.122   4.637   5.115
 5316SOL    HW116847   0.160   4.687   5.193
 5316SOL    HW216848   0.124   4.539   5.134
 5317SOL     OW16849   6.924   0.098   4.801
 5317SOL    HW116850   6.992   0.074   4.870
 5317SOL    HW216851   6.878   0.183   4.826
 5318SOL     OW16852   6.728   2.398   6.086
 5318SOL    HW116853   6.763   2.433   6.173
 5318SOL    HW216854   6.719   2.474   6.021
 5319SOL     OW16855   4.914   6.929   6.774
 5319SOL    HW116856   4.833   6.872   6.788
 5319SOL    HW216857   4.894   7.000   6.706
 5320SOL     OW16858   5.736   4.755   0.353
 5320SOL    HW116859   5.775   4.664   0.360
 5320SOL    HW216860   5.699   4.768   0.260
 5321SOL     OW16861   0.984   4.074   3.238
 5321SOL    HW116862   1.069   4.125   3.230
 5321SOL    HW216863   1.002   3.976   3.232
 5322SOL     OW16864   4.014   5.937   6.255
 5322SOL    HW116865   4.056   5.996   6.186
 5322SOL    HW216866   4.081   5.915   6.326
 5323SOL     OW16867   3.985   3.370   6.836
 5323SOL    HW116868   4.011   3.309   6.911
 5323SOL    HW216869   3.885   3.382   6.836
 5324SOL     OW16870   4.137   2.726   1.363
 5324SOL    HW116871   4.104   2.650   1.419
 5324SOL    HW216872   4.178   2.796   1.423
 5325SOL     OW16873   5.074   0.431   4.261
 5325SOL    HW116874   4.989   0.378   4.266
 5325SOL    HW216875   5.076   0.482   4.175
 5326SOL     OW16876   0.039   5.322   3.665
 5326SOL    HW116877   0.016   5.282   3.753
 5326SOL    HW216878   0.136   5.350   3.666
 5327SOL     OW16879   5.552   4.233   5.189
 5327SOL    HW116880   5.474   4.257   5.132
 5327SOL    HW216881   5.588   4.144   5.161
 5328SOL     OW16882   4.025   3.191   5.595
 5328SOL    HW116883   4.110   3.139   5.594
 5328SOL    HW216884   3.972   3.169   5.513
 5329SOL     OW16885   6.844   4.283   0.436
 5329SOL    HW116886   6.840   4.225   0.518
 5329SOL    HW216887   6.759   4.335   0.430
 5330SOL     OW16888   3.680   3.720   5.793
 5330SOL    HW116889   3.616   3.723   5.716
 5330SOL    HW216890   3.758   3.781   5.773
 5331SOL     OW16891   5.403   0.899   1.366
 5331SOL    HW116892   5.428   0.936   1.456
 5331SOL    HW216893   5.325   0.837   1.375
 5332SOL     OW16894   0.719   3.766   1.045
 5332SOL    HW116895   0.700   3.770   0.947
 5332SOL    HW216896   0.635   3.745   1.095
 5333SOL     OW16897   0.929   0.551   3.464
 5333SOL    HW116898   1.026   0.569   3.481
 5333SOL    HW216899   0.899   0.474   3.521
 5334SOL     OW16900   3.926   6.825   4.729
 5334SOL    HW116901   3.989   6.750   4.707
 5334SOL    HW216902   3.836   6.805   4.691
 5335SOL     OW16903   6.685   5.578   2.735
 5335SOL    HW116904   6.627   5.652   2.768
 5335SOL    HW216905   6.742   5.612   2.660
 5336SOL     OW16906   2.002   1.774   3.300
 5336SOL    HW116907   2.009   1.678   3.272
 5336SOL    HW216908   2.089   1.819   3.286
 5337SOL     OW16909   5.345   4.911   1.866
 5337SOL    HW116910   5.278   4.867   1.806
 5337SOL    HW216911   5.401   4.841   1.910
 5338SOL     OW16912   6.027   0.775   6.058
 5338SOL    HW116913   5.941   0.734   6.090
 5338SOL    HW216914   6.008   0.843   5.987
 5339SOL     OW16915   5.842   2.061   3.032
 5339SOL    HW116916   5.859   1.965   3.010
 5339SOL    HW216917   5.879   2.081   3.123
 5340SOL     OW16918   5.864   3.565   1.253
 5340SOL    HW116919   5.900   3.652   1.221
 5340SOL    HW216920   5.793   3.581   1.322
 5341SOL     OW16921   3.413   5.100   5.776
 5341SOL    HW116922   3.346   5.162   5.735
 5341SOL    HW216923   3.369   5.013   5.797
 5342SOL     OW16924   4.583   0.090   4.795
 5342SOL    HW116925   4.542   0.111   4.706
 5342SOL    HW216926   4.663   0.149   4.809
 5343SOL     OW16927   4.008   3.702   5.194
 5343SOL    HW116928   4.072   3.700   5.117
 5343SOL    HW216929   4.019   3.618   5.248
 5344SOL     OW16930   1.733   1.672   0.740
 5344SOL    HW116931   1.645   1.628   0.755
 5344SOL    HW216932   1.806   1.612   0.772
 5345SOL     OW16933   4.251   6.191   0.293
 5345SOL    HW116934   4.215   6.194   0.386
 5345SOL    HW216935   4.208   6.115   0.244
 5346SOL     OW16936   3.476   5.221   3.773
 5346SOL    HW116937   3.463   5.162   3.853
 5346SOL    HW216938   3.570   5.212   3.740
 5347SOL     OW16939   6.972   2.969   2.399
 5347SOL    HW116940   7.008   2.883   2.435
 5347SOL    HW216941   6.874   2.975   2.420
 5348SOL     OW16942   6.813   1.461   0.680
 5348SOL    HW116943   6.856   1.498   0.598
 5348SOL    HW216944   6.781   1.536   0.738
 5349SOL     OW16945   2.059   2.885   0.167
 5349SOL    HW116946   2.156   2.909   0.181
 5349SOL    HW216947   2.052   2.788   0.143
 5350SOL     OW16948   1.397   6.925   4.698
 5350SOL    HW116949   1.309   6.924   4.650
 5350SOL    HW216950   1.465   6.878   4.641
 5351SOL     OW16951   6.685   5.270   2.116
 5351SOL    HW116952   6.699   5.369   2.112
 5351SOL    HW216953   6.749   5.225   2.053
 5352SOL     OW16954   2.062   5.213   3.080
 5352SOL    HW116955   2.013   5.142   3.029
 5352SOL    HW216956   2.100   5.173   3.164
 5353SOL     OW16957   4.088   5.238   4.265
 5353SOL    HW116958   4.148   5.261   4.188
 5353SOL    HW216959   4.043   5.151   4.247
 5354SOL     OW16960   2.150   4.346   0.725
 5354SOL    HW116961   2.105   4.387   0.805
 5354SOL    HW216962   2.174   4.418   0.660
 5355SOL     OW16963   5.951   4.738   4.845
 5355SOL    HW116964   5.878   4.760   4.910
 5355SOL    HW216965   5.962   4.638   4.840
 5356SOL     OW16966   6.559   3.531   2.350
 5356SOL    HW116967   6.529   3.438   2.329
 5356SOL    HW216968   6.493   3.596   2.312
 5357SOL     OW16969   2.856   5.811   0.095
 5357SOL    HW116970   2.890   5.800   0.188
 5357SOL    HW216971   2.815   5.725   0.064
 5358SOL     OW16972   4.642   1.690   0.808
 5358SOL    HW116973   4.688   1.740   0.881
 5358SOL    HW216974   4.555   1.653   0.841
 5359SOL     OW16975   2.597   1.137   6.190
 5359SOL    HW116976   2.649   1.219   6.213
 5359SOL    HW216977   2.547   1.152   6.105
 5360SOL     OW16978   3.407   6.028   3.429
 5360SOL    HW116979   3.458   6.030   3.343
 5360SOL    HW216980   3.471   6.022   3.506
 5361SOL     OW16981   2.183   0.486   4.912
 5361SOL    HW116982   2.160   0.424   4.987
 5361SOL    HW216983   2.269   0.456   4.870
 5362SOL     OW16984   6.062   6.494   2.642
 5362SOL    HW116985   6.130   6.426   2.615
 5362SOL    HW216986   5.971   6.454   2.636
 5363SOL     OW16987   6.129   6.440   5.786
 5363SOL    HW116988   6.116   6.352   5.740
 5363SOL    HW216989   6.226   6.456   5.800
 5364SOL     OW16990   6.620   0.125   2.212
 5364SOL    HW116991   6.594   0.221   2.201
 5364SOL    HW216992   6.605   0.076   2.126
 5365SOL     OW16993   3.709   3.190   1.406
 5365SOL    HW116994   3.738   3.285   1.404
 5365SOL    HW216995   3.616   3.184   1.443
 5366SOL     OW16996   6.169   6.048   0.824
 5366SOL    HW116997   6.187   6.136   0.779
 5366SOL    HW216998   6.087   6.007   0.784
 5367SOL     OW16999   0.137   0.197   1.343
 5367SOL    HW117000   0.069   0.142   1.296
 5367SOL    HW217001   0.093   0.251   1.415
 5368SOL     OW17002   5.887   6.998   2.296
 5368SOL    HW117003   5.902   0.071   2.269
 5368SOL    HW217004   5.790   6.976   2.288
 5369SOL     OW17005   2.398   6.547   0.696
 5369SOL    HW117006   2.314   6.493   0.686
 5369SOL    HW217007   2.385   6.637   0.653
 5370SOL     OW17008   5.019   2.699   0.613
 5370SOL    HW117009   4.956   2.777   0.613
 5370SOL    HW217010   5.102   2.724   0.562
 5371SOL     OW17011   0.522   4.037   5.479
 5371SOL    HW117012   0.459   4.102   5.437
 5371SOL    HW217013   0.603   4.086   5.512
 5372SOL     OW17014   1.230   5.729   2.846
 5372SOL    HW117015   1.306   5.689   2.897
 5372SOL    HW217016   1.255   5.820   2.814
 5373SOL     OW17017   4.221   6.696   5.357
 5373SOL    HW117018   4.148   6.653   5.409
 5373SOL    HW217019   4.184   6.734   5.272
 5374SOL     OW17020   2.227   3.807   0.358
 5374SOL    HW117021   2.220   3.783   0.261
 5374SOL    HW217022   2.137   3.835   0.391
 5375SOL     OW17023   0.515   6.301   4.698
 5375SOL    HW117024   0.500   6.373   4.630
 5375SOL    HW217025   0.539   6.216   4.651
 5376SOL     OW17026   0.986   2.304   1.414
 5376SOL    HW117027   1.057   2.275   1.478
 5376SOL    HW217028   1.027   2.332   1.328
 5377SOL     OW17029   0.026   0.099   2.488
 5377SOL    HW117030   0.085   0.173   2.518
 5377SOL    HW217031   0.042   0.018   2.545
 5378SOL     OW17032   6.790   0.186   2.582
 5378SOL    HW117033   6.871   0.165   2.528
 5378SOL    HW217034   6.708   0.168   2.527
 5379SOL     OW17035   0.613   4.022   4.902
 5379SOL    HW117036   0.539   4.009   4.837
 5379SOL    HW217037   0.605   4.114   4.943
 5380SOL     OW17038   3.201   0.130   2.593
 5380SOL    HW117039   3.108   0.095   2.604
 5380SOL    HW217040   3.198   0.228   2.576
 5381SOL     OW17041   6.328   5.136   2.180
 5381SOL    HW117042   6.325   5.042   2.214
 5381SOL    HW217043   6.409   5.149   2.123
 5382SOL     OW17044   2.902   1.386   1.887
 5382SOL    HW117045   2.947   1.371   1.799
 5382SOL    HW217046   2.939   1.322   1.955
 5383SOL     OW17047   1.929   2.465   4.784
 5383SOL    HW117048   1.971   2.458   4.694
 5383SOL    HW217049   1.836   2.498   4.775
 5384SOL     OW17050   5.487   0.300   5.007
 5384SOL    HW117051   5.508   0.375   4.945
 5384SOL    HW217052   5.523   0.321   5.098
 5385SOL     OW17053   3.880   3.572   4.908
 5385SOL    HW117054   3.965   3.545   4.954
 5385SOL    HW217055   3.855   3.503   4.840
 5386SOL     OW17056   4.608   1.166   3.915
 5386SOL    HW117057   4.595   1.203   4.007
 5386SOL    HW217058   4.541   1.094   3.898
 5387SOL     OW17059   2.024   6.509   3.457
 5387SOL    HW117060   1.959   6.493   3.383
 5387SOL    HW217061   2.019   6.434   3.522
 5388SOL     OW17062   0.921   1.091   2.916
 5388SOL    HW117063   0.889   1.023   2.850
 5388SOL    HW217064   0.851   1.106   2.986
 5389SOL     OW17065   3.495   1.595   3.439
 5389SOL    HW117066   3.488   1.584   3.538
 5389SOL    HW217067   3.483   1.691   3.415
 5390SOL     OW17068   5.037   4.053   3.682
 5390SOL    HW117069   5.117   4.095   3.725
 5390SOL    HW217070   4.982   4.007   3.752
 5391SOL     OW17071   2.666   1.548   0.847
 5391SOL    HW117072   2.715   1.616   0.792
 5391SOL    HW217073   2.574   1.535   0.809
 5392SOL     OW17074   6.192   3.562   1.124
 5392SOL    HW117075   6.209   3.531   1.031
 5392SOL    HW217076   6.261   3.524   1.185
 5393SOL     OW17077   5.376   0.542   5.403
 5393SOL    HW117078   5.384   0.468   5.336
 5393SOL    HW217079   5.292   0.530   5.456
 5394SOL     OW17080   0.529   5.817   1.206
 5394SOL    HW117081   0.574   5.744   1.257
 5394SOL    HW217082   0.548   5.805   1.108
 5395SOL     OW17083   4.930   0.925   1.209
 5395SOL    HW117084   4.834   0.948   1.197
 5395SOL    HW217085   4.950   0.913   1.306
 5396SOL     OW17086   5.662   4.537   1.463
 5396SOL    HW117087   5.649   4.496   1.554
 5396SOL    HW217088   5.609   4.487   1.396
 5397SOL     OW17089   6.840   2.704   1.339
 5397SOL    HW117090   6.911   2.659   1.284
 5397SOL    HW217091   6.756   2.651   1.336
 5398SOL     OW17092   2.875   2.260   3.662
 5398SOL    HW117093   2.946   2.295   3.723
 5398SOL    HW217094   2.912   2.182   3.610
 5399SOL     OW17095   2.610   6.507   0.485
 5399SOL    HW117096   2.655   6.420   0.506
 5399SOL    HW217097   2.547   6.530   0.560
 5400SOL     OW17098   3.180   3.331   6.618
 5400SOL    HW117099   3.128   3.415   6.604
 5400SOL    HW217100   3.120   3.252   6.608
 5401SOL     OW17101   6.566   4.421   2.382
 5401SOL    HW117102   6.645   4.376   2.340
 5401SOL    HW217103   6.486   4.411   2.321
 5402SOL     OW17104   2.175   5.858   1.414
 5402SOL    HW117105   2.262   5.873   1.461
 5402SOL    HW217106   2.182   5.892   1.320
 5403SOL     OW17107   5.207   3.573   5.650
 5403SOL    HW117108   5.301   3.559   5.681
 5403SOL    HW217109   5.172   3.487   5.611
 5404SOL     OW17110   0.809   0.290   2.835
 5404SOL    HW117111   0.791   0.309   2.932
 5404SOL    HW217112   0.895   0.241   2.826
 5405SOL     OW17113   5.436   5.654   6.814
 5405SOL    HW117114   5.360   5.617   6.760
 5405SOL    HW217115   5.406   5.666   6.909
 5406SOL     OW17116   1.799   0.375   5.452
 5406SOL    HW117117   1.889   0.377   5.494
 5406SOL    HW217118   1.754   0.463   5.464
 5407SOL     OW17119   3.418   1.895   0.688
 5407SOL    HW117120   3.390   1.923   0.780
 5407SOL    HW217121   3.426   1.795   0.685
 5408SOL     OW17122   3.876   0.487   5.996
 5408SOL    HW117123   3.931   0.468   5.915
 5408SOL    HW217124   3.808   0.556   5.975
 5409SOL     OW17125   6.721   1.537   3.392
 5409SOL    HW117126   6.786   1.594   3.341
 5409SOL    HW217127   6.637   1.526   3.338
 5410SOL     OW17128   0.880   2.398   6.301
 5410SOL    HW117129   0.858   2.495   6.310
 5410SOL    HW217130   0.814   2.355   6.240
 5411SOL     OW17131   6.104   5.575   6.061
 5411SOL    HW117132   6.149   5.634   5.994
 5411SOL    HW217133   6.131   5.480   6.045
 5412SOL     OW17134   3.705   1.641   6.729
 5412SOL    HW117135   3.729   1.733   6.759
 5412SOL    HW217136   3.625   1.608   6.780
 5413SOL     OW17137   0.059   0.409   0.771
 5413SOL    HW117138   0.000   0.427   0.692
 5413SOL    HW217139   0.056   0.487   0.833
 5414SOL     OW17140   6.229   4.191   4.721
 5414SOL    HW117141   6.254   4.188   4.818
 5414SOL    HW217142   6.241   4.284   4.687
 5415SOL     OW17143   1.459   6.319   1.978
 5415SOL    HW117144   1.460   6.419   1.989
 5415SOL    HW217145   1.461   6.276   2.068
 5416SOL     OW17146   3.127   5.088   5.512
 5416SOL    HW117147   3.136   5.117   5.607
 5416SOL    HW217148   3.036   5.048   5.498
 5417SOL     OW17149   4.493   6.432   4.702
 5417SOL    HW117150   4.527   6.421   4.795
 5417SOL    HW217151   4.520   6.521   4.666
 5418SOL     OW17152   5.443   0.400   4.598
 5418SOL    HW117153   5.397   0.402   4.509
 5418SOL    HW217154   5.422   0.314   4.645
 5419SOL     OW17155   3.390   5.575   0.266
 5419SOL    HW117156   3.482   5.583   0.228
 5419SOL    HW217157   3.366   5.478   0.272
 5420SOL     OW17158   2.049   2.696   1.701
 5420SOL    HW117159   2.010   2.788   1.696
 5420SOL    HW217160   2.076   2.676   1.795
 5421SOL     OW17161   3.055   5.251   3.063
 5421SOL    HW117162   3.116   5.174   3.043
 5421SOL    HW217163   2.996   5.228   3.140
 5422SOL     OW17164   0.855   5.858   4.494
 5422SOL    HW117165   0.926   5.834   4.427
 5422SOL    HW217166   0.766   5.828   4.460
 5423SOL     OW17167   5.835   4.482   0.390
 5423SOL    HW117168   5.864   4.477   0.486
 5423SOL    HW217169   5.906   4.444   0.331
 5424SOL     OW17170   5.915   3.813   4.376
 5424SOL    HW117171   5.945   3.825   4.281
 5424SOL    HW217172   5.991   3.833   4.437
 5425SOL     OW17173   4.951   2.317   4.398
 5425SOL    HW117174   5.018   2.288   4.465
 5425SOL    HW217175   4.872   2.357   4.445
 5426SOL     OW17176   6.298   5.443   3.584
 5426SOL    HW117177   6.229   5.489   3.640
 5426SOL    HW217178   6.342   5.371   3.637
 5427SOL     OW17179   5.340   3.973   0.717
 5427SOL    HW117180   5.286   3.929   0.788
 5427SOL    HW217181   5.414   3.912   0.688
 5428SOL     OW17182   6.125   6.973   2.434
 5428SOL    HW117183   6.036   6.975   2.389
 5428SOL    HW217184   6.198   6.980   2.366
 5429SOL     OW17185   2.031   1.048   5.650
 5429SOL    HW117186   2.127   1.054   5.677
 5429SOL    HW217187   2.017   1.100   5.565
 5430SOL     OW17188   2.159   2.562   6.114
 5430SOL    HW117189   2.186   2.600   6.025
 5430SOL    HW217190   2.215   2.481   6.134
 5431SOL     OW17191   3.606   4.031   6.189
 5431SOL    HW117192   3.685   4.086   6.160
 5431SOL    HW217193   3.567   3.985   6.109
 5432SOL     OW17194   3.539   5.587   6.605
 5432SOL    HW117195   3.621   5.639   6.629
 5432SOL    HW217196   3.510   5.533   6.684
 5433SOL     OW17197   0.273   0.902   3.079
 5433SOL    HW117198   0.201   0.903   3.148
 5433SOL    HW217199   0.239   0.857   2.996
 5434SOL     OW17200   4.400   0.855   4.676
 5434SOL    HW117201   4.478   0.817   4.725
 5434SOL    HW217202   4.427   0.941   4.633
 5435SOL     OW17203   5.768   1.742   1.311
 5435SOL    HW117204   5.785   1.809   1.383
 5435SOL    HW217205   5.853   1.694   1.289
 5436SOL     OW17206   5.594   4.308   4.442
 5436SOL    HW117207   5.665   4.310   4.372
 5436SOL    HW217208   5.603   4.226   4.498
 5437SOL     OW17209   2.940   5.599   5.643
 5437SOL    HW117210   3.024   5.580   5.693
 5437SOL    HW217211   2.948   5.686   5.594
 5438SOL     OW17212   6.313   3.187   1.814
 5438SOL    HW117213   6.295   3.104   1.761
 5438SOL    HW217214   6.276   3.176   1.906
 5439SOL     OW17215   6.822   2.503   0.221
 5439SOL    HW117216   6.846   2.409   0.245
 5439SOL    HW217217   6.817   2.512   0.121
 5440SOL     OW17218   6.902   7.012   3.841
 5440SOL    HW117219   6.883   0.086   3.863
 5440SOL    HW217220   6.816   6.961   3.841
 5441SOL     OW17221   5.034   2.819   3.530
 5441SOL    HW117222   4.970   2.865   3.592
 5441SOL    HW217223   4.999   2.729   3.505
 5442SOL     OW17224   3.129   6.751   2.995
 5442SOL    HW117225   3.195   6.723   2.924
 5442SOL    HW217226   3.043   6.776   2.951
 5443SOL     OW17227   3.543   5.599   3.809
 5443SOL    HW117228   3.517   5.535   3.736
 5443SOL    HW217229   3.587   5.549   3.883
 5444SOL     OW17230   0.109   0.395   3.684
 5444SOL    HW117231   0.169   0.475   3.681
 5444SOL    HW217232   0.017   0.422   3.655
 5445SOL     OW17233   6.212   4.009   3.846
 5445SOL    HW117234   6.269   3.959   3.911
 5445SOL    HW217235   6.261   4.090   3.814
 5446SOL     OW17236   5.580   5.192   4.884
 5446SOL    HW117237   5.611   5.271   4.937
 5446SOL    HW217238   5.497   5.217   4.834
 5447SOL     OW17239   1.433   1.672   0.721
 5447SOL    HW117240   1.428   1.709   0.629
 5447SOL    HW217241   1.425   1.573   0.718
 5448SOL     OW17242   5.773   4.688   4.599
 5448SOL    HW117243   5.813   4.622   4.663
 5448SOL    HW217244   5.789   4.781   4.633
 5449SOL     OW17245   1.967   1.340   0.734
 5449SOL    HW117246   2.057   1.371   0.765
 5449SOL    HW217247   1.901   1.348   0.809
 5450SOL     OW17248   3.097   0.485   0.815
 5450SOL    HW117249   3.119   0.500   0.911
 5450SOL    HW217250   3.005   0.519   0.796
 5451SOL     OW17251   2.241   6.356   3.775
 5451SOL    HW117252   2.236   6.447   3.734
 5451SOL    HW217253   2.263   6.364   3.872
 5452SOL     OW17254   2.690   3.906   6.738
 5452SOL    HW117255   2.693   3.819   6.687
 5452SOL    HW217256   2.768   3.962   6.711
 5453SOL     OW17257   5.196   4.232   2.247
 5453SOL    HW117258   5.158   4.189   2.164
 5453SOL    HW217259   5.285   4.191   2.268
 5454SOL     OW17260   4.851   5.694   6.705
 5454SOL    HW117261   4.787   5.722   6.634
 5454SOL    HW217262   4.936   5.745   6.695
 5455SOL     OW17263   0.176   2.461   2.682
 5455SOL    HW117264   0.092   2.427   2.725
 5455SOL    HW217265   0.219   2.387   2.631
 5456SOL     OW17266   2.979   0.159   0.189
 5456SOL    HW117267   2.911   0.142   0.118
 5456SOL    HW217268   3.021   0.248   0.175
 5457SOL     OW17269   6.357   1.927   1.696
 5457SOL    HW117270   6.368   1.927   1.596
 5457SOL    HW217271   6.399   2.009   1.735
 5458SOL     OW17272   0.410   5.287   0.334
 5458SOL    HW117273   0.324   5.326   0.367
 5458SOL    HW217274   0.484   5.352   0.350
 5459SOL     OW17275   3.534   3.701   6.198
 5459SOL    HW117276   3.591   3.732   6.273
 5459SOL    HW217277   3.537   3.768   6.124
 5460SOL     OW17278   3.469   6.425   2.992
 5460SOL    HW117279   3.559   6.447   2.956
 5460SOL    HW217280   3.475   6.404   3.090
 5461SOL     OW17281   0.295   0.823   5.312
 5461SOL    HW117282   0.233   0.785   5.243
 5461SOL    HW217283   0.335   0.749   5.366
 5462SOL     OW17284   5.294   6.538   0.017
 5462SOL    HW117285   5.376   6.494   7.003
 5462SOL    HW217286   5.308   6.563   0.113
 5463SOL     OW17287   0.225   1.251   0.133
 5463SOL    HW117288   0.159   1.178   0.152
 5463SOL    HW217289   0.317   1.219   0.154
 5464SOL     OW17290   6.344   0.293   4.697
 5464SOL    HW117291   6.367   0.374   4.642
 5464SOL    HW217292   6.350   0.316   4.794
 5465SOL     OW17293   5.163   0.905   4.467
 5465SOL    HW117294   5.257   0.878   4.444
 5465SOL    HW217295   5.102   0.827   4.451
 5466SOL     OW17296   5.207   3.085   5.203
 5466SOL    HW117297   5.248   3.176   5.195
 5466SOL    HW217298   5.253   3.022   5.140
 5467SOL     OW17299   5.539   3.632   3.692
 5467SOL    HW117300   5.588   3.597   3.613
 5467SOL    HW217301   5.454   3.677   3.662
 5468SOL     OW17302   6.190   2.389   4.343
 5468SOL    HW117303   6.227   2.343   4.424
 5468SOL    HW217304   6.260   2.393   4.272
 5469SOL     OW17305   2.960   6.644   5.861
 5469SOL    HW117306   2.957   6.732   5.812
 5469SOL    HW217307   2.942   6.659   5.958
 5470SOL     OW17308   3.771   5.432   3.499
 5470SOL    HW117309   3.833   5.441   3.576
 5470SOL    HW217310   3.681   5.465   3.524
 5471SOL     OW17311   5.984   0.381   3.260
 5471SOL    HW117312   5.959   0.428   3.345
 5471SOL    HW217313   6.051   0.436   3.210
 5472SOL     OW17314   3.252   3.634   5.988
 5472SOL    HW117315   3.236   3.562   5.920
 5472SOL    HW217316   3.284   3.593   6.073
 5473SOL     OW17317   1.440   3.366   1.733
 5473SOL    HW117318   1.447   3.313   1.817
 5473SOL    HW217319   1.404   3.457   1.754
 5474SOL     OW17320   1.117   4.236   4.262
 5474SOL    HW117321   1.159   4.247   4.352
 5474SOL    HW217322   1.077   4.323   4.232
 5475SOL     OW17323   2.005   2.296   1.007
 5475SOL    HW117324   1.955   2.344   1.079
 5475SOL    HW217325   2.103   2.311   1.018
 5476SOL     OW17326   1.897   4.649   4.971
 5476SOL    HW117327   1.965   4.582   5.001
 5476SOL    HW217328   1.842   4.609   4.897
 5477SOL     OW17329   2.201   4.330   2.412
 5477SOL    HW117330   2.244   4.302   2.497
 5477SOL    HW217331   2.111   4.369   2.432
 5478SOL     OW17332   3.089   6.220   4.867
 5478SOL    HW117333   3.023   6.292   4.888
 5478SOL    HW217334   3.173   6.261   4.831
 5479SOL     OW17335   5.463   1.597   5.899
 5479SOL    HW117336   5.473   1.525   5.967
 5479SOL    HW217337   5.472   1.559   5.807
 5480SOL     OW17338   5.856   6.009   3.950
 5480SOL    HW117339   5.849   5.942   4.023
 5480SOL    HW217340   5.778   6.072   3.955
 5481SOL     OW17341   4.462   1.113   4.554
 5481SOL    HW117342   4.519   1.185   4.514
 5481SOL    HW217343   4.378   1.154   4.591
 5482SOL     OW17344   3.622   4.306   1.455
 5482SOL    HW117345   3.613   4.300   1.555
 5482SOL    HW217346   3.608   4.215   1.415
 5483SOL     OW17347   6.969   2.824   5.543
 5483SOL    HW117348   0.018   2.797   5.479
 5483SOL    HW217349   6.892   2.761   5.534
 5484SOL     OW17350   4.121   1.020   3.449
 5484SOL    HW117351   4.181   1.080   3.396
 5484SOL    HW217352   4.158   1.008   3.541
 5485SOL     OW17353   3.953   0.053   4.557
 5485SOL    HW117354   3.856   0.037   4.578
 5485SOL    HW217355   4.010   7.022   4.620
 5486SOL     OW17356   1.978   6.082   5.259
 5486SOL    HW117357   1.892   6.056   5.215
 5486SOL    HW217358   2.035   6.001   5.272
 5487SOL     OW17359   5.538   3.286   6.803
 5487SOL    HW117360   5.441   3.276   6.781
 5487SOL    HW217361   5.559   3.383   6.818
 5488SOL     OW17362   5.897   0.481   0.681
 5488SOL    HW117363   5.833   0.555   0.705
 5488SOL    HW217364   5.862   0.394   0.715
 5489SOL     OW17365   0.738   3.904   1.707
 5489SOL    HW117366   0.834   3.931   1.720
 5489SOL    HW217367   0.726   3.869   1.614
 5490SOL     OW17368   3.251   6.874   0.973
 5490SOL    HW117369   3.234   6.791   0.920
 5490SOL    HW217370   3.347   6.876   1.002
 5491SOL     OW17371   1.769   4.115   0.846
 5491SOL    HW117372   1.803   4.123   0.940
 5491SOL    HW217373   1.845   4.119   0.782
 5492SOL     OW17374   6.998   3.282   6.057
 5492SOL    HW117375   0.007   3.188   6.054
 5492SOL    HW217376   6.933   3.294   6.132
 5493SOL     OW17377   3.098   3.988   4.164
 5493SOL    HW117378   3.059   3.919   4.103
 5493SOL    HW217379   3.073   3.967   4.258
 5494SOL     OW17380   6.694   2.664   6.360
 5494SOL    HW117381   6.722   2.722   6.284
 5494SOL    HW217382   6.603   2.692   6.391
 5495SOL     OW17383   3.387   1.604   0.587
 5495SOL    HW117384   3.298   1.587   0.545
 5495SOL    HW217385   3.420   1.520   0.630
 5496SOL     OW17386   3.524   0.968   3.697
 5496SOL    HW117387   3.533   0.875   3.660
 5496SOL    HW217388   3.458   0.967   3.772
 5497SOL     OW17389   0.063   2.157   4.322
 5497SOL    HW117390   0.004   2.102   4.382
 5497SOL    HW217391   0.148   2.178   4.370
 5498SOL     OW17392   6.366   5.850   0.819
 5498SOL    HW117393   6.406   5.849   0.911
 5498SOL    HW217394   6.329   5.941   0.801
 5499SOL     OW17395   0.539   0.575   4.899
 5499SOL    HW117396   0.609   0.644   4.883
 5499SOL    HW217397   0.566   0.516   4.975
 5500SOL     OW17398   1.225   0.519   0.688
 5500SOL    HW117399   1.166   0.592   0.652
 5500SOL    HW217400   1.321   0.544   0.672
 5501SOL     OW17401   3.247   0.499   0.459
 5501SOL    HW117402   3.314   0.573   0.449
 5501SOL    HW217403   3.270   0.424   0.397
 5502SOL     OW17404   5.412   3.331   0.479
 5502SOL    HW117405   5.376   3.313   0.388
 5502SOL    HW217406   5.377   3.419   0.512
 5503SOL     OW17407   0.863   4.836   2.336
 5503SOL    HW117408   0.859   4.753   2.281
 5503SOL    HW217409   0.776   4.850   2.383
 5504SOL     OW17410   4.022   0.899   5.199
 5504SOL    HW117411   4.073   0.876   5.117
 5504SOL    HW217412   4.050   0.990   5.231
 5505SOL     OW17413   2.259   5.100   4.410
 5505SOL    HW117414   2.296   5.012   4.438
 5505SOL    HW217415   2.163   5.106   4.436
 5506SOL     OW17416   1.037   2.153   0.147
 5506SOL    HW117417   1.120   2.183   0.193
 5506SOL    HW217418   1.055   2.068   0.098
 5507SOL     OW17419   3.728   1.039   4.478
 5507SOL    HW117420   3.736   1.036   4.379
 5507SOL    HW217421   3.698   0.950   4.512
 5508SOL     OW17422   1.543   1.056   6.386
 5508SOL    HW117423   1.634   1.096   6.373
 5508SOL    HW217424   1.500   1.043   6.297
 5509SOL     OW17425   0.057   6.602   6.863
 5509SOL    HW117426   0.112   6.680   6.832
 5509SOL    HW217427   6.995   6.598   6.809
 5510SOL     OW17428   4.740   5.310   6.915
 5510SOL    HW117429   4.746   5.254   6.832
 5510SOL    HW217430   4.650   5.296   6.958
 5511SOL     OW17431   2.163   1.391   3.769
 5511SOL    HW117432   2.150   1.339   3.853
 5511SOL    HW217433   2.156   1.489   3.789
 5512SOL     OW17434   5.559   2.182   1.324
 5512SOL    HW117435   5.639   2.126   1.299
 5512SOL    HW217436   5.500   2.193   1.244
 5513SOL     OW17437   4.578   4.360   6.295
 5513SOL    HW117438   4.551   4.456   6.298
 5513SOL    HW217439   4.591   4.326   6.388
 5514SOL     OW17440   4.055   6.931   4.155
 5514SOL    HW117441   4.038   6.868   4.079
 5514SOL    HW217442   4.032   6.885   4.241
 5515SOL     OW17443   0.957   5.975   2.107
 5515SOL    HW117444   1.019   6.052   2.103
 5515SOL    HW217445   0.980   5.909   2.035
 5516SOL     OW17446   1.877   4.162   6.259
 5516SOL    HW117447   1.869   4.215   6.344
 5516SOL    HW217448   1.970   4.128   6.250
 5517SOL     OW17449   2.120   3.000   1.881
 5517SOL    HW117450   2.040   2.992   1.820
 5517SOL    HW217451   2.165   3.088   1.865
 5518SOL     OW17452   5.594   6.450   6.585
 5518SOL    HW117453   5.552   6.519   6.526
 5518SOL    HW217454   5.667   6.404   6.534
 5519SOL     OW17455   5.704   3.497   3.491
 5519SOL    HW117456   5.799   3.527   3.498
 5519SOL    HW217457   5.699   3.398   3.505
 5520SOL     OW17458   5.804   6.627   2.462
 5520SOL    HW117459   5.855   6.654   2.544
 5520SOL    HW217460   5.868   6.603   2.389
 5521SOL     OW17461   5.453   5.967   1.763
 5521SOL    HW117462   5.371   5.995   1.813
 5521SOL    HW217463   5.441   5.874   1.728
 5522SOL     OW17464   6.756   5.026   0.279
 5522SOL    HW117465   6.662   5.012   0.248
 5522SOL    HW217466   6.782   5.121   0.261
 5523SOL     OW17467   3.749   0.799   2.124
 5523SOL    HW117468   3.669   0.774   2.178
 5523SOL    HW217469   3.787   0.885   2.159
 5524SOL     OW17470   5.580   0.088   4.773
 5524SOL    HW117471   5.498   0.139   4.747
 5524SOL    HW217472   5.565   0.042   4.861
 5525SOL     OW17473   0.330   1.639   1.158
 5525SOL    HW117474   0.230   1.649   1.164
 5525SOL    HW217475   0.367   1.626   1.249
 5526SOL     OW17476   4.682   5.654   3.760
 5526SOL    HW117477   4.758   5.689   3.705
 5526SOL    HW217478   4.658   5.721   3.831
 5527SOL     OW17479   4.875   3.907   3.878
 5527SOL    HW117480   4.847   3.812   3.868
 5527SOL    HW217481   4.813   3.966   3.826
 5528SOL     OW17482   1.646   1.169   6.986
 5528SOL    HW117483   1.635   1.077   0.000
 5528SOL    HW217484   1.583   1.183   6.910
 5529SOL     OW17485   2.905   6.754   3.449
 5529SOL    HW117486   2.923   6.678   3.512
 5529SOL    HW217487   2.948   6.837   3.483
 5530SOL     OW17488   5.494   2.231   1.849
 5530SOL    HW117489   5.415   2.191   1.801
 5530SOL    HW217490   5.504   2.327   1.823
 5531SOL     OW17491   3.214   3.441   1.974
 5531SOL    HW117492   3.115   3.436   1.975
 5531SOL    HW217493   3.244   3.489   1.891
 5532SOL     OW17494   1.715   2.972   0.478
 5532SOL    HW117495   1.689   2.959   0.382
 5532SOL    HW217496   1.806   3.014   0.482
 5533SOL     OW17497   3.545   1.793   3.170
 5533SOL    HW117498   3.466   1.853   3.165
 5533SOL    HW217499   3.626   1.840   3.135
 5534SOL     OW17500   0.013   1.281   6.460
 5534SOL    HW117501   6.945   1.249   6.432
 5534SOL    HW217502   0.077   1.203   6.460
 5535SOL     OW17503   0.104   2.871   3.243
 5535SOL    HW117504   0.170   2.933   3.200
 5535SOL    HW217505   0.051   2.825   3.172
 5536SOL     OW17506   3.344   1.154   4.410
 5536SOL    HW117507   3.346   1.253   4.391
 5536SOL    HW217508   3.320   1.105   4.326
 5537SOL     OW17509   2.828   0.781   2.555
 5537SOL    HW117510   2.779   0.700   2.588
 5537SOL    HW217511   2.808   0.795   2.458
 5538SOL     OW17512   2.491   6.003   6.026
 5538SOL    HW117513   2.472   6.100   6.011
 5538SOL    HW217514   2.587   5.985   6.005
 5539SOL     OW17515   1.253   3.347   1.359
 5539SOL    HW117516   1.223   3.300   1.276
 5539SOL    HW217517   1.203   3.310   1.438
 5540SOL     OW17518   4.875   4.562   3.394
 5540SOL    HW117519   4.868   4.467   3.363
 5540SOL    HW217520   4.865   4.623   3.316
 5541SOL     OW17521   5.812   0.493   6.062
 5541SOL    HW117522   5.890   0.439   6.032
 5541SOL    HW217523   5.744   0.497   5.989
 5542SOL     OW17524   5.460   3.718   6.222
 5542SOL    HW117525   5.488   3.628   6.255
 5542SOL    HW217526   5.394   3.708   6.147
 5543SOL     OW17527   3.921   4.766   5.644
 5543SOL    HW117528   3.840   4.708   5.646
 5543SOL    HW217529   3.952   4.785   5.737
 5544SOL     OW17530   4.827   5.743   6.212
 5544SOL    HW117531   4.882   5.776   6.289
 5544SOL    HW217532   4.860   5.653   6.185
 5545SOL     OW17533   3.931   1.222   2.176
 5545SOL    HW117534   3.891   1.309   2.202
 5545SOL    HW217535   4.026   1.236   2.148
 5546SOL     OW17536   1.025   5.152   4.577
 5546SOL    HW117537   1.033   5.065   4.626
 5546SOL    HW217538   1.046   5.138   4.480
 5547SOL     OW17539   2.409   6.975   5.197
 5547SOL    HW117540   2.453   0.042   5.194
 5547SOL    HW217541   2.357   6.960   5.112
 5548SOL     OW17542   5.881   2.773   5.081
 5548SOL    HW117543   5.804   2.742   5.024
 5548SOL    HW217544   5.846   2.816   5.164
 5549SOL     OW17545   4.359   4.121   6.415
 5549SOL    HW117546   4.333   4.065   6.336
 5549SOL    HW217547   4.459   4.122   6.423
 5550SOL     OW17548   2.571   5.297   1.958
 5550SOL    HW117549   2.586   5.377   2.016
 5550SOL    HW217550   2.602   5.215   2.006
 5551SOL     OW17551   2.294   0.657   3.061
 5551SOL    HW117552   2.240   0.684   3.142
 5551SOL    HW217553   2.386   0.633   3.089
 5552SOL     OW17554   6.457   0.690   6.970
 5552SOL    HW117555   6.409   0.613   6.926
 5552SOL    HW217556   6.527   0.726   6.908
 5553SOL     OW17557   4.579   6.658   0.020
 5553SOL    HW117558   4.592   6.736   6.982
 5553SOL    HW217559   4.587   6.573   6.990
 5554SOL     OW17560   3.801   0.941   5.418
 5554SOL    HW117561   3.820   1.022   5.361
 5554SOL    HW217562   3.887   0.900   5.448
 5555SOL     OW17563   1.003   4.467   4.171
 5555SOL    HW117564   0.944   4.500   4.245
 5555SOL    HW217565   0.996   4.528   4.092
 5556SOL     OW17566   6.874   2.427   3.887
 5556SOL    HW117567   6.945   2.485   3.846
 5556SOL    HW217568   6.881   2.335   3.849
 5557SOL     OW17569   3.524   6.037   3.196
 5557SOL    HW117570   3.620   6.026   3.171
 5557SOL    HW217571   3.467   6.008   3.119
 5558SOL     OW17572   4.905   3.531   6.456
 5558SOL    HW117573   5.002   3.510   6.468
 5558SOL    HW217574   4.887   3.550   6.359
 5559SOL     OW17575   2.718   6.878   2.109
 5559SOL    HW117576   2.661   6.960   2.111
 5559SOL    HW217577   2.797   6.891   2.170
 5560SOL     OW17578   0.429   6.686   3.428
 5560SOL    HW117579   0.470   6.773   3.455
 5560SOL    HW217580   0.470   6.655   3.343
 5561SOL     OW17581   1.983   2.831   4.297
 5561SOL    HW117582   2.073   2.849   4.337
 5561SOL    HW217583   1.961   2.903   4.232
 5562SOL     OW17584   2.753   2.410   6.713
 5562SOL    HW117585   2.824   2.455   6.658
 5562SOL    HW217586   2.735   2.319   6.676
 5563SOL     OW17587   4.556   6.211   2.799
 5563SOL    HW117588   4.551   6.239   2.703
 5563SOL    HW217589   4.557   6.112   2.805
 5564SOL     OW17590   4.262   1.488   1.743
 5564SOL    HW117591   4.260   1.584   1.770
 5564SOL    HW217592   4.313   1.435   1.812
 5565SOL     OW17593   5.268   1.916   6.591
 5565SOL    HW117594   5.215   1.862   6.656
 5565SOL    HW217595   5.251   1.882   6.498
 5566SOL     OW17596   1.631   5.420   0.521
 5566SOL    HW117597   1.676   5.336   0.491
 5566SOL    HW217598   1.589   5.406   0.610
 5567SOL     OW17599   0.686   4.570   1.975
 5567SOL    HW117600   0.746   4.546   2.051
 5567SOL    HW217601   0.636   4.489   1.945
 5568SOL     OW17602   4.390   2.374   2.943
 5568SOL    HW117603   4.464   2.435   2.973
 5568SOL    HW217604   4.367   2.395   2.848
 5569SOL     OW17605   2.834   1.038   1.734
 5569SOL    HW117606   2.790   0.964   1.683
 5569SOL    HW217607   2.875   1.104   1.671
 5570SOL     OW17608   5.289   5.006   4.992
 5570SOL    HW117609   5.338   4.946   5.055
 5570SOL    HW217610   5.313   4.982   4.898
 5571SOL     OW17611   0.735   6.879   0.203
 5571SOL    HW117612   0.724   6.968   0.159
 5571SOL    HW217613   0.667   6.816   0.167
 5572SOL     OW17614   1.880   2.808   5.455
 5572SOL    HW117615   1.849   2.850   5.369
 5572SOL    HW217616   1.980   2.809   5.458
 5573SOL     OW17617   1.977   3.104   6.982
 5573SOL    HW117618   2.014   3.075   0.048
 5573SOL    HW217619   2.000   3.200   6.966
 5574SOL     OW17620   6.133   1.533   3.971
 5574SOL    HW117621   6.089   1.623   3.971
 5574SOL    HW217622   6.099   1.479   3.893
 5575SOL     OW17623   0.775   1.502   1.778
 5575SOL    HW117624   0.716   1.567   1.731
 5575SOL    HW217625   0.765   1.411   1.736
 5576SOL     OW17626   0.292   6.318   2.005
 5576SOL    HW117627   0.195   6.294   1.995
 5576SOL    HW217628   0.306   6.363   2.094
 5577SOL     OW17629   2.926   2.614   6.199
 5577SOL    HW117630   2.904   2.709   6.177
 5577SOL    HW217631   2.855   2.577   6.260
 5578SOL     OW17632   4.524   3.771   0.753
 5578SOL    HW117633   4.444   3.721   0.720
 5578SOL    HW217634   4.570   3.815   0.676
 5579SOL     OW17635   6.313   4.020   6.784
 5579SOL    HW117636   6.275   4.014   6.877
 5579SOL    HW217637   6.326   4.115   6.759
 5580SOL     OW17638   4.807   1.940   6.404
 5580SOL    HW117639   4.775   2.030   6.434
 5580SOL    HW217640   4.767   1.870   6.462
 5581SOL     OW17641   2.145   0.292   1.088
 5581SOL    HW117642   2.212   0.349   1.041
 5581SOL    HW217643   2.057   0.339   1.090
 5582SOL     OW17644   3.377   3.213   3.463
 5582SOL    HW117645   3.331   3.130   3.495
 5582SOL    HW217646   3.465   3.222   3.510
 5583SOL     OW17647   3.817   6.742   2.846
 5583SOL    HW117648   3.810   6.821   2.908
 5583SOL    HW217649   3.909   6.739   2.807
 5584SOL     OW17650   5.775   3.865   4.718
 5584SOL    HW117651   5.820   3.948   4.752
 5584SOL    HW217652   5.833   3.823   4.648
 5585SOL     OW17653   4.636   0.377   4.011
 5585SOL    HW117654   4.733   0.392   4.028
 5585SOL    HW217655   4.622   0.286   3.971
 5586SOL     OW17656   1.023   2.297   6.773
 5586SOL    HW117657   1.062   2.217   6.820
 5586SOL    HW217658   1.091   2.371   6.771
 5587SOL     OW17659   4.725   6.466   2.141
 5587SOL    HW117660   4.658   6.471   2.215
 5587SOL    HW217661   4.683   6.498   2.056
 5588SOL     OW17662   1.171   6.813   3.714
 5588SOL    HW117663   1.197   6.722   3.746
 5588SOL    HW217664   1.246   6.851   3.660
 5589SOL     OW17665   5.334   3.025   6.621
 5589SOL    HW117666   5.387   3.043   6.704
 5589SOL    HW217667   5.238   3.048   6.638
 5590SOL     OW17668   0.071   5.338   2.827
 5590SOL    HW117669   0.072   5.240   2.806
 5590SOL    HW217670   6.999   5.370   2.832
 5591SOL     OW17671   5.884   1.024   6.502
 5591SOL    HW117672   5.808   0.966   6.532
 5591SOL    HW217673   5.863   1.063   6.413
 5592SOL     OW17674   2.140   4.888   2.865
 5592SOL    HW117675   2.232   4.924   2.850
 5592SOL    HW217676   2.130   4.801   2.818
 5593SOL     OW17677   6.649   2.444   5.672
 5593SOL    HW117678   6.549   2.447   5.660
 5593SOL    HW217679   6.678   2.349   5.683
 5594SOL     OW17680   2.661   1.186   6.689
 5594SOL    HW117681   2.671   1.119   6.615
 5594SOL    HW217682   2.750   1.229   6.707
 5595SOL     OW17683   6.174   1.016   4.992
 5595SOL    HW117684   6.242   1.083   4.962
 5595SOL    HW217685   6.154   0.953   4.916
 5596SOL     OW17686   5.062   0.154   2.267
 5596SOL    HW117687   4.984   0.216   2.257
 5596SOL    HW217688   5.137   0.184   2.208
 5597SOL     OW17689   5.621   2.130   5.062
 5597SOL    HW117690   5.632   2.176   4.974
 5597SOL    HW217691   5.590   2.036   5.047
 5598SOL     OW17692   4.987   2.488   3.863
 5598SOL    HW117693   4.997   2.401   3.816
 5598SOL    HW217694   4.999   2.474   3.962
 5599SOL     OW17695   6.220   3.354   2.256
 5599SOL    HW117696   6.234   3.340   2.354
 5599SOL    HW217697   6.303   3.330   2.206
 5600SOL     OW17698   1.773   0.142   2.642
 5600SOL    HW117699   1.852   0.152   2.581
 5600SOL    HW217700   1.743   0.233   2.672
 5601SOL     OW17701   4.245   2.258   5.811
 5601SOL    HW117702   4.314   2.322   5.778
 5601SOL    HW217703   4.228   2.189   5.741
 5602SOL     OW17704   0.076   0.784   2.910
 5602SOL    HW117705   0.033   0.698   2.938
 5602SOL    HW217706   0.005   0.849   2.882
 5603SOL     OW17707   5.092   2.237   5.154
 5603SOL    HW117708   4.998   2.245   5.119
 5603SOL    HW217709   5.154   2.282   5.090
 5604SOL     OW17710   0.725   2.151   4.524
 5604SOL    HW117711   0.803   2.090   4.541
 5604SOL    HW217712   0.676   2.166   4.610
 5605SOL     OW17713   1.405   6.965   5.197
 5605SOL    HW117714   1.446   6.911   5.123
 5605SOL    HW217715   1.346   0.013   5.157
 5606SOL     OW17716   4.203   0.900   0.472
 5606SOL    HW117717   4.213   0.857   0.562
 5606SOL    HW217718   4.268   0.976   0.464
 5607SOL     OW17719   5.088   2.240   3.805
 5607SOL    HW117720   5.105   2.164   3.742
 5607SOL    HW217721   5.050   2.205   3.890
 5608SOL     OW17722   5.713   1.483   3.328
 5608SOL    HW117723   5.625   1.435   3.336
 5608SOL    HW217724   5.744   1.480   3.233
 5609SOL     OW17725   4.846   5.890   0.161
 5609SOL    HW117726   4.813   5.892   0.256
 5609SOL    HW217727   4.940   5.856   0.159
 5610SOL     OW17728   5.943   3.857   1.191
 5610SOL    HW117729   6.035   3.838   1.226
 5610SOL    HW217730   5.902   3.931   1.244
 5611SOL     OW17731   0.712   4.956   2.146
 5611SOL    HW117732   0.742   4.970   2.240
 5611SOL    HW217733   0.745   4.867   2.113
 5612SOL     OW17734   3.411   2.770   0.685
 5612SOL    HW117735   3.474   2.803   0.755
 5612SOL    HW217736   3.318   2.773   0.720
 5613SOL     OW17737   6.985   4.724   5.370
 5613SOL    HW117738   6.955   4.646   5.316
 5613SOL    HW217739   6.956   4.809   5.325
 5614SOL     OW17740   5.994   2.557   4.621
 5614SOL    HW117741   5.926   2.519   4.559
 5614SOL    HW217742   5.971   2.652   4.641
 5615SOL     OW17743   0.126   1.163   3.041
 5615SOL    HW117744   0.213   1.183   2.995
 5615SOL    HW217745   0.109   1.065   3.041
 5616SOL     OW17746   2.367   2.728   4.834
 5616SOL    HW117747   2.268   2.715   4.844
 5616SOL    HW217748   2.397   2.800   4.897
 5617SOL     OW17749   1.759   3.777   5.080
 5617SOL    HW117750   1.814   3.793   4.998
 5617SOL    HW217751   1.711   3.690   5.071
 5618SOL     OW17752   6.614   4.895   3.264
 5618SOL    HW117753   6.520   4.922   3.285
 5618SOL    HW217754   6.642   4.936   3.177
 5619SOL     OW17755   3.634   3.292   3.305
 5619SOL    HW117756   3.716   3.316   3.251
 5619SOL    HW217757   3.591   3.212   3.264
 5620SOL     OW17758   4.998   3.837   6.452
 5620SOL    HW117759   5.037   3.879   6.370
 5620SOL    HW217760   4.903   3.813   6.434
 5621SOL     OW17761   1.067   2.966   6.339
 5621SOL    HW117762   1.009   2.941   6.416
 5621SOL    HW217763   1.024   3.039   6.286
 5622SOL     OW17764   5.138   6.604   5.471
 5622SOL    HW117765   5.103   6.673   5.535
 5622SOL    HW217766   5.238   6.601   5.478
 5623SOL     OW17767   4.928   6.100   5.485
 5623SOL    HW117768   4.829   6.108   5.476
 5623SOL    HW217769   4.964   6.180   5.533
 5624SOL     OW17770   0.720   5.201   3.858
 5624SOL    HW117771   0.754   5.161   3.943
 5624SOL    HW217772   0.758   5.151   3.780
 5625SOL     OW17773   0.525   4.881   5.425
 5625SOL    HW117774   0.516   4.812   5.354
 5625SOL    HW217775   0.564   4.965   5.385
 5626SOL     OW17776   2.700   5.270   4.626
 5626SOL    HW117777   2.744   5.208   4.560
 5626SOL    HW217778   2.602   5.275   4.606
 5627SOL     OW17779   0.113   5.687   5.970
 5627SOL    HW117780   0.071   5.620   5.909
 5627SOL    HW217781   0.069   5.684   6.059
 5628SOL     OW17782   2.711   2.782   1.326
 5628SOL    HW117783   2.802   2.812   1.299
 5628SOL    HW217784   2.709   2.764   1.424
 5629SOL     OW17785   4.375   2.639   1.619
 5629SOL    HW117786   4.421   2.638   1.708
 5629SOL    HW217787   4.366   2.733   1.587
 5630SOL     OW17788   1.736   3.927   6.070
 5630SOL    HW117789   1.766   3.929   5.974
 5630SOL    HW217790   1.774   4.006   6.118
 5631SOL     OW17791   5.519   1.578   1.469
 5631SOL    HW117792   5.565   1.646   1.526
 5631SOL    HW217793   5.423   1.604   1.458
 5632SOL     OW17794   5.400   1.916   5.298
 5632SOL    HW117795   5.437   2.003   5.332
 5632SOL    HW217796   5.300   1.918   5.304
 5633SOL     OW17797   6.699   5.212   4.756
 5633SOL    HW117798   6.728   5.253   4.669
 5633SOL    HW217799   6.666   5.119   4.740
 5634SOL     OW17800   2.099   4.573   3.823
 5634SOL    HW117801   2.180   4.593   3.877
 5634SOL    HW217802   2.075   4.654   3.768
 5635SOL     OW17803   2.716   6.207   6.931
 5635SOL    HW117804   2.624   6.201   6.968
 5635SOL    HW217805   2.757   6.116   6.928
 5636SOL     OW17806   6.217   0.947   5.381
 5636SOL    HW117807   6.239   0.911   5.290
 5636SOL    HW217808   6.149   1.019   5.372
 5637SOL     OW17809   4.492   6.952   3.954
 5637SOL    HW117810   4.539   6.864   3.954
 5637SOL    HW217811   4.407   6.945   3.902
 5638SOL     OW17812   6.211   5.417   0.738
 5638SOL    HW117813   6.176   5.475   0.664
 5638SOL    HW217814   6.142   5.348   0.761
 5639SOL     OW17815   1.924   0.605   1.581
 5639SOL    HW117816   1.973   0.662   1.647
 5639SOL    HW217817   1.982   0.587   1.502
 5640SOL     OW17818   2.949   6.945   2.266
 5640SOL    HW117819   2.881   6.939   2.340
 5640SOL    HW217820   3.013   7.019   2.285
 5641SOL     OW17821   0.115   4.480   6.095
 5641SOL    HW117822   0.082   4.388   6.118
 5641SOL    HW217823   0.212   4.475   6.072
 5642SOL     OW17824   1.243   5.213   5.384
 5642SOL    HW117825   1.188   5.171   5.457
 5642SOL    HW217826   1.199   5.298   5.355
 5643SOL     OW17827   3.914   0.895   4.838
 5643SOL    HW117828   3.861   0.959   4.894
 5643SOL    HW217829   3.983   0.946   4.786
 5644SOL     OW17830   3.869   0.329   3.821
 5644SOL    HW117831   3.885   0.340   3.723
 5644SOL    HW217832   3.775   0.299   3.836
 5645SOL     OW17833   6.522   4.236   3.045
 5645SOL    HW117834   6.445   4.175   3.056
 5645SOL    HW217835   6.516   4.311   3.111
 5646SOL     OW17836   2.361   5.848   3.438
 5646SOL    HW117837   2.434   5.852   3.370
 5646SOL    HW217838   2.273   5.838   3.391
 5647SOL     OW17839   6.473   6.323   0.334
 5647SOL    HW117840   6.472   6.376   0.249
 5647SOL    HW217841   6.503   6.380   0.409
 5648SOL     OW17842   1.779   1.456   2.622
 5648SOL    HW117843   1.731   1.368   2.619
 5648SOL    HW217844   1.867   1.447   2.575
 5649SOL     OW17845   0.307   6.537   5.699
 5649SOL    HW117846   0.255   6.513   5.617
 5649SOL    HW217847   0.359   6.621   5.682
 5650SOL     OW17848   0.667   5.965   0.769
 5650SOL    HW117849   0.703   5.907   0.696
 5650SOL    HW217850   0.628   5.909   0.841
 5651SOL     OW17851   0.734   1.246   1.697
 5651SOL    HW117852   0.802   1.191   1.746
 5651SOL    HW217853   0.644   1.232   1.738
 5652SOL     OW17854   5.620   6.433   2.268
 5652SOL    HW117855   5.646   6.442   2.172
 5652SOL    HW217856   5.656   6.511   2.320
 5653SOL     OW17857   0.295   6.203   6.468
 5653SOL    HW117858   0.376   6.263   6.472
 5653SOL    HW217859   0.286   6.167   6.375
 5654SOL     OW17860   6.668   6.732   5.446
 5654SOL    HW117861   6.618   6.818   5.436
 5654SOL    HW217862   6.660   6.699   5.540
 5655SOL     OW17863   1.038   3.391   4.764
 5655SOL    HW117864   1.125   3.379   4.716
 5655SOL    HW217865   0.964   3.353   4.709
 5656SOL     OW17866   1.580   3.380   0.070
 5656SOL    HW117867   1.596   3.477   0.086
 5656SOL    HW217868   1.580   3.361   6.995
 5657SOL     OW17869   5.665   0.648   0.985
 5657SOL    HW117870   5.574   0.660   0.946
 5657SOL    HW217871   5.710   0.737   0.993
 5658SOL     OW17872   3.140   5.449   5.808
 5658SOL    HW117873   3.152   5.477   5.903
 5658SOL    HW217874   3.206   5.498   5.751
 5659SOL     OW17875   3.866   4.028   3.624
 5659SOL    HW117876   3.850   3.930   3.639
 5659SOL    HW217877   3.789   4.080   3.661
 5660SOL     OW17878   5.691   0.245   5.526
 5660SOL    HW117879   5.672   0.266   5.622
 5660SOL    HW217880   5.774   0.292   5.498
 5661SOL     OW17881   0.180   3.893   5.471
 5661SOL    HW117882   0.111   3.950   5.427
 5661SOL    HW217883   0.144   3.855   5.556
 5662SOL     OW17884   3.122   5.505   3.194
 5662SOL    HW117885   3.137   5.423   3.139
 5662SOL    HW217886   3.026   5.513   3.219
 5663SOL     OW17887   2.148   3.538   6.619
 5663SOL    HW117888   2.176   3.626   6.660
 5663SOL    HW217889   2.221   3.471   6.633
 5664SOL     OW17890   7.013   4.236   4.393
 5664SOL    HW117891   6.945   4.241   4.320
 5664SOL    HW217892   6.994   4.307   4.461
 5665SOL     OW17893   1.210   2.090   6.840
 5665SOL    HW117894   1.265   2.043   6.771
 5665SOL    HW217895   1.256   2.086   6.928
 5666SOL     OW17896   5.949   5.867   0.880
 5666SOL    HW117897   5.871   5.805   0.888
 5666SOL    HW217898   6.029   5.816   0.850
 5667SOL     OW17899   1.130   4.477   3.549
 5667SOL    HW117900   1.114   4.575   3.565
 5667SOL    HW217901   1.077   4.424   3.615
 5668SOL     OW17902   5.067   1.760   5.045
 5668SOL    HW117903   5.155   1.779   5.001
 5668SOL    HW217904   5.019   1.846   5.062
 5669SOL     OW17905   0.749   2.612   6.761
 5669SOL    HW117906   0.659   2.623   6.804
 5669SOL    HW217907   0.798   2.538   6.805
 5670SOL     OW17908   0.131   2.406   3.703
 5670SOL    HW117909   0.216   2.364   3.673
 5670SOL    HW217910   0.053   2.352   3.671
 5671SOL     OW17911   0.825   6.413   6.276
 5671SOL    HW117912   0.914   6.458   6.274
 5671SOL    HW217913   0.753   6.482   6.287
 5672SOL     OW17914   4.285   4.547   6.571
 5672SOL    HW117915   4.217   4.620   6.575
 5672SOL    HW217916   4.274   4.496   6.486
 5673SOL     OW17917   0.871   6.154   1.804
 5673SOL    HW117918   0.934   6.214   1.852
 5673SOL    HW217919   0.777   6.184   1.822
 5674SOL     OW17920   6.505   4.582   4.060
 5674SOL    HW117921   6.516   4.552   3.965
 5674SOL    HW217922   6.591   4.568   4.110
 5675SOL     OW17923   4.662   2.539   5.830
 5675SOL    HW117924   4.669   2.532   5.930
 5675SOL    HW217925   4.744   2.582   5.794
 5676SOL     OW17926   2.030   2.270   2.475
 5676SOL    HW117927   2.098   2.272   2.548
 5676SOL    HW217928   1.972   2.189   2.485
 5677SOL     OW17929   0.600   2.219   3.014
 5677SOL    HW117930   0.664   2.224   2.938
 5677SOL    HW217931   0.528   2.153   2.993
 5678SOL     OW17932   3.175   6.304   2.564
 5678SOL    HW117933   3.146   6.397   2.541
 5678SOL    HW217934   3.125   6.238   2.507
 5679SOL     OW17935   1.427   0.788   3.567
 5679SOL    HW117936   1.513   0.743   3.543
 5679SOL    HW217937   1.350   0.730   3.541
 5680SOL     OW17938   1.276   5.416   0.798
 5680SOL    HW117939   1.206   5.430   0.868
 5680SOL    HW217940   1.256   5.332   0.748
 5681SOL     OW17941   0.357   3.706   0.230
 5681SOL    HW117942   0.392   3.751   0.148
 5681SOL    HW217943   0.341   3.609   0.212
 5682SOL     OW17944   2.371   4.723   5.510
 5682SOL    HW117945   2.366   4.773   5.596
 5682SOL    HW217946   2.398   4.628   5.528
 5683SOL     OW17947   3.265   1.251   0.121
 5683SOL    HW117948   3.200   1.198   0.175
 5683SOL    HW217949   3.242   1.348   0.127
 5684SOL     OW17950   3.417   2.978   4.748
 5684SOL    HW117951   3.450   3.072   4.741
 5684SOL    HW217952   3.393   2.944   4.657
 5685SOL     OW17953   1.662   3.351   2.101
 5685SOL    HW117954   1.739   3.287   2.105
 5685SOL    HW217955   1.687   3.431   2.048
 5686SOL     OW17956   2.838   6.902   6.395
 5686SOL    HW117957   2.753   6.934   6.354
 5686SOL    HW217958   2.836   6.803   6.403
 5687SOL     OW17959   0.686   4.255   5.581
 5687SOL    HW117960   0.752   4.306   5.636
 5687SOL    HW217961   0.715   4.256   5.485
 5688SOL     OW17962   6.813   1.977   0.066
 5688SOL    HW117963   6.907   1.947   0.084
 5688SOL    HW217964   6.788   1.954   6.995
 5689SOL     OW17965   4.379   0.634   0.586
 5689SOL    HW117966   4.353   0.624   0.490
 5689SOL    HW217967   4.364   0.548   0.634
 5690SOL     OW17968   2.041   6.122   0.540
 5690SOL    HW117969   1.969   6.076   0.592
 5690SOL    HW217970   2.130   6.086   0.565
 5691SOL     OW17971   2.786   5.993   1.739
 5691SOL    HW117972   2.745   6.084   1.731
 5691SOL    HW217973   2.721   5.932   1.783
 5692SOL     OW17974   6.744   3.307   6.203
 5692SOL    HW117975   6.667   3.288   6.142
 5692SOL    HW217976   6.738   3.401   6.235
 5693SOL     OW17977   6.038   2.496   2.232
 5693SOL    HW117978   6.055   2.594   2.221
 5693SOL    HW217979   6.123   2.448   2.251
 5694SOL     OW17980   1.403   1.976   3.640
 5694SOL    HW117981   1.426   1.884   3.607
 5694SOL    HW217982   1.476   2.039   3.617
 5695SOL     OW17983   1.181   2.527   3.142
 5695SOL    HW117984   1.109   2.466   3.177
 5695SOL    HW217985   1.243   2.551   3.216
 5696SOL     OW17986   1.596   0.522   3.284
 5696SOL    HW117987   1.497   0.541   3.281
 5696SOL    HW217988   1.638   0.582   3.352
 5697SOL     OW17989   6.329   2.280   1.287
 5697SOL    HW117990   6.307   2.368   1.245
 5697SOL    HW217991   6.338   2.292   1.386
 5698SOL     OW17992   0.477   3.234   2.711
 5698SOL    HW117993   0.436   3.215   2.622
 5698SOL    HW217994   0.576   3.218   2.705
 5699SOL     OW17995   6.441   1.802   2.918
 5699SOL    HW117996   6.454   1.874   2.986
 5699SOL    HW217997   6.369   1.828   2.854
 5700SOL     OW17998   6.474   6.491   4.216
 5700SOL    HW117999   6.416   6.570   4.198
 5700SOL    HW218000   6.534   6.511   4.293
 5701SOL     OW18001   1.393   6.506   3.520
 5701SOL    HW118002   1.304   6.488   3.562
 5701SOL    HW218003   1.407   6.441   3.444
 5702SOL     OW18004   1.783   6.846   5.561
 5702SOL    HW118005   1.821   6.753   5.563
 5702SOL    HW218006   1.850   6.909   5.522
 5703SOL     OW18007   5.390   4.751   1.523
 5703SOL    HW118008   5.480   4.720   1.552
 5703SOL    HW218009   5.387   4.760   1.424
 5704SOL     OW18010   4.123   5.777   2.062
 5704SOL    HW118011   4.198   5.843   2.062
 5704SOL    HW218012   4.069   5.788   1.978
 5705SOL     OW18013   5.074   1.027   0.961
 5705SOL    HW118014   5.025   0.990   1.040
 5705SOL    HW218015   5.015   1.024   0.881
 5706SOL     OW18016   0.417   2.620   0.428
 5706SOL    HW118017   0.365   2.540   0.456
 5706SOL    HW218018   0.485   2.594   0.360
 5707SOL     OW18019   0.099   0.052   0.011
 5707SOL    HW118020   0.181   0.034   0.065
 5707SOL    HW218021   0.083   0.151   0.008
 5708SOL     OW18022   5.235   6.469   1.115
 5708SOL    HW118023   5.225   6.530   1.194
 5708SOL    HW218024   5.293   6.392   1.139
 5709SOL     OW18025   1.694   0.095   3.647
 5709SOL    HW118026   1.686   7.017   3.648
 5709SOL    HW218027   1.649   0.131   3.566
 5710SOL     OW18028   2.331   3.056   6.308
 5710SOL    HW118029   2.402   3.112   6.350
 5710SOL    HW218030   2.249   3.055   6.366
 5711SOL     OW18031   4.516   1.033   2.899
 5711SOL    HW118032   4.435   1.085   2.928
 5711SOL    HW218033   4.599   1.082   2.925
 5712SOL     OW18034   0.884   5.328   5.836
 5712SOL    HW118035   0.885   5.350   5.738
 5712SOL    HW218036   0.950   5.385   5.884
 5713SOL     OW18037   1.882   2.141   1.650
 5713SOL    HW118038   1.828   2.098   1.722
 5713SOL    HW218039   1.978   2.141   1.676
 5714SOL     OW18040   0.675   6.124   6.138
 5714SOL    HW118041   0.761   6.088   6.102
 5714SOL    HW218042   0.691   6.215   6.178
 5715SOL     OW18043   1.358   6.721   3.367
 5715SOL    HW118044   1.357   6.646   3.433
 5715SOL    HW218045   1.405   6.692   3.284
 5716SOL     OW18046   1.324   5.032   7.017
 5716SOL    HW118047   1.409   5.069   0.031
 5716SOL    HW218048   1.284   5.097   6.952
 5717SOL     OW18049   1.751   6.208   0.960
 5717SOL    HW118050   1.693   6.177   0.885
 5717SOL    HW218051   1.742   6.307   0.970
 5718SOL     OW18052   1.592   3.666   6.016
 5718SOL    HW118053   1.605   3.590   6.080
 5718SOL    HW218054   1.639   3.747   6.051
 5719SOL     OW18055   2.423   1.405   6.194
 5719SOL    HW118056   2.392   1.407   6.099
 5719SOL    HW218057   2.522   1.422   6.197
 5720SOL     OW18058   1.335   4.978   4.506
 5720SOL    HW118059   1.314   5.035   4.585
 5720SOL    HW218060   1.374   5.034   4.433
 5721SOL     OW18061   0.448   3.525   0.802
 5721SOL    HW118062   0.490   3.435   0.801
 5721SOL    HW218063   0.493   3.584   0.735
 5722SOL     OW18064   6.380   1.871   4.978
 5722SOL    HW118065   6.436   1.866   4.895
 5722SOL    HW218066   6.395   1.790   5.033
 5723SOL     OW18067   4.662   3.243   6.799
 5723SOL    HW118068   4.705   3.295   6.725
 5723SOL    HW218069   4.717   3.162   6.819
 5724SOL     OW18070   4.074   2.764   5.392
 5724SOL    HW118071   4.063   2.714   5.478
 5724SOL    HW218072   4.077   2.699   5.316
 5725SOL     OW18073   6.483   5.985   4.110
 5725SOL    HW118074   6.422   6.000   4.187
 5725SOL    HW218075   6.431   5.987   4.025
 5726SOL     OW18076   6.843   4.298   4.203
 5726SOL    HW118077   6.833   4.220   4.142
 5726SOL    HW218078   6.777   4.369   4.177
 5727SOL     OW18079   0.850   2.740   3.956
 5727SOL    HW118080   0.876   2.644   3.968
 5727SOL    HW218081   0.932   2.795   3.938
 5728SOL     OW18082   4.504   1.671   6.942
 5728SOL    HW118083   4.583   1.636   6.993
 5728SOL    HW218084   4.422   1.663   6.998
 5729SOL     OW18085   1.184   1.559   0.397
 5729SOL    HW118086   1.149   1.596   0.311
 5729SOL    HW218087   1.111   1.560   0.466
 5730SOL     OW18088   4.253   5.462   5.675
 5730SOL    HW118089   4.269   5.452   5.577
 5730SOL    HW218090   4.185   5.396   5.705
 5731SOL     OW18091   2.206   6.626   4.089
 5731SOL    HW118092   2.111   6.598   4.098
 5731SOL    HW218093   2.264   6.545   4.078
 5732SOL     OW18094   6.733   4.936   5.546
 5732SOL    HW118095   6.783   5.020   5.526
 5732SOL    HW218096   6.798   4.863   5.565
 5733SOL     OW18097   3.717   0.413   5.691
 5733SOL    HW118098   3.781   0.475   5.646
 5733SOL    HW218099   3.710   0.436   5.788
 5734SOL     OW18100   1.798   6.003   5.889
 5734SOL    HW118101   1.731   5.956   5.946
 5734SOL    HW218102   1.750   6.064   5.825
 5735SOL     OW18103   4.110   1.602   2.443
 5735SOL    HW118104   4.164   1.641   2.368
 5735SOL    HW218105   4.082   1.509   2.420
 5736SOL     OW18106   6.513   4.352   1.134
 5736SOL    HW118107   6.582   4.422   1.117
 5736SOL    HW218108   6.445   4.388   1.199
 5737SOL     OW18109   4.879   5.555   6.991
 5737SOL    HW118110   4.869   5.629   6.924
 5737SOL    HW218111   4.860   5.468   6.947
 5738SOL     OW18112   3.164   2.408   6.676
 5738SOL    HW118113   3.115   2.493   6.694
 5738SOL    HW218114   3.145   2.378   6.583
 5739SOL     OW18115   1.206   6.566   5.381
 5739SOL    HW118116   1.277   6.568   5.451
 5739SOL    HW218117   1.132   6.629   5.407
 5740SOL     OW18118   3.704   3.812   1.286
 5740SOL    HW118119   3.790   3.823   1.237
 5740SOL    HW218120   3.722   3.779   1.379
 5741SOL     OW18121   6.482   3.784   4.904
 5741SOL    HW118122   6.559   3.757   4.846
 5741SOL    HW218123   6.397   3.750   4.865
 5742SOL     OW18124   4.537   6.492   2.348
 5742SOL    HW118125   4.544   6.415   2.413
 5742SOL    HW218126   4.555   6.578   2.397
 5743SOL     OW18127   2.554   5.820   5.697
 5743SOL    HW118128   2.513   5.909   5.676
 5743SOL    HW218129   2.498   5.772   5.764
 5744SOL     OW18130   4.861   1.479   1.032
 5744SOL    HW118131   4.842   1.551   1.098
 5744SOL    HW218132   4.927   1.414   1.071
 5745SOL     OW18133   2.264   1.428   3.427
 5745SOL    HW118134   2.286   1.357   3.359
 5745SOL    HW218135   2.227   1.385   3.509
 5746SOL     OW18136   4.942   0.208   1.843
 5746SOL    HW118137   5.026   0.165   1.875
 5746SOL    HW218138   4.944   0.216   1.744
 5747SOL     OW18139   1.341   5.137   1.968
 5747SOL    HW118140   1.378   5.208   2.027
 5747SOL    HW218141   1.243   5.153   1.955
 5748SOL     OW18142   1.080   0.460   1.134
 5748SOL    HW118143   1.159   0.491   1.081
 5748SOL    HW218144   1.018   0.410   1.074
 5749SOL     OW18145   1.116   6.255   4.936
 5749SOL    HW118146   1.033   6.288   4.980
 5749SOL    HW218147   1.092   6.197   4.859
 5750SOL     OW18148   6.487   6.507   4.818
 5750SOL    HW118149   6.481   6.579   4.748
 5750SOL    HW218150   6.568   6.451   4.802
 5751SOL     OW18151   2.188   3.028   4.823
 5751SOL    HW118152   2.279   2.992   4.845
 5751SOL    HW218153   2.195   3.127   4.809
 5752SOL     OW18154   5.965   0.128   0.214
 5752SOL    HW118155   6.006   0.107   0.303
 5752SOL    HW218156   5.872   0.091   0.211
 5753SOL     OW18157   3.773   4.047   4.376
 5753SOL    HW118158   3.697   4.112   4.382
 5753SOL    HW218159   3.803   4.024   4.468
 5754SOL     OW18160   0.561   5.501   2.240
 5754SOL    HW118161   0.527   5.503   2.335
 5754SOL    HW218162   0.483   5.503   2.177
 5755SOL     OW18163   2.131   2.133   6.719
 5755SOL    HW118164   2.192   2.137   6.799
 5755SOL    HW218165   2.095   2.040   6.709
 5756SOL     OW18166   6.440   0.429   3.512
 5756SOL    HW118167   6.507   0.503   3.510
 5756SOL    HW218168   6.429   0.396   3.605
 5757SOL     OW18169   0.450   5.807   3.091
 5757SOL    HW118170   0.368   5.834   3.142
 5757SOL    HW218171   0.478   5.716   3.122
 5758SOL     OW18172   2.606   1.420   4.302
 5758SOL    HW118173   2.598   1.500   4.362
 5758SOL    HW218174   2.529   1.358   4.319
 5759SOL     OW18175   4.823   1.118   6.765
 5759SOL    HW118176   4.910   1.069   6.757
 5759SOL    HW218177   4.750   1.052   6.782
 5760SOL     OW18178   6.815   3.208   0.477
 5760SOL    HW118179   6.750   3.240   0.546
 5760SOL    HW218180   6.902   3.188   0.521
 5761SOL     OW18181   6.081   5.266   6.024
 5761SOL    HW118182   6.005   5.308   5.975
 5761SOL    HW218183   6.069   5.167   6.026
 5762SOL     OW18184   4.958   4.282   0.930
 5762SOL    HW118185   5.008   4.293   0.844
 5762SOL    HW218186   4.906   4.196   0.927
 5763SOL     OW18187   6.414   6.134   0.517
 5763SOL    HW118188   6.423   6.207   0.450
 5763SOL    HW218189   6.505   6.101   0.544
 5764SOL     OW18190   5.193   4.990   5.391
 5764SOL    HW118191   5.184   4.894   5.417
 5764SOL    HW218192   5.149   5.048   5.460
 5765SOL     OW18193   6.370   2.592   0.725
 5765SOL    HW118194   6.412   2.678   0.756
 5765SOL    HW218195   6.316   2.609   0.643
 5766SOL     OW18196   1.820   1.392   5.907
 5766SOL    HW118197   1.910   1.429   5.930
 5766SOL    HW218198   1.763   1.389   5.989
 5767SOL     OW18199   1.766   0.719   0.525
 5767SOL    HW118200   1.828   0.777   0.472
 5767SOL    HW218201   1.819   0.661   0.586
 5768SOL     OW18202   1.323   5.969   4.114
 5768SOL    HW118203   1.231   6.005   4.100
 5768SOL    HW218204   1.352   5.986   4.209
 5769SOL     OW18205   2.604   5.867   4.740
 5769SOL    HW118206   2.609   5.918   4.825
 5769SOL    HW218207   2.696   5.846   4.708
 5770SOL     OW18208   6.413   5.756   6.744
 5770SOL    HW118209   6.337   5.804   6.701
 5770SOL    HW218210   6.495   5.767   6.687
 5771SOL     OW18211   1.431   7.021   4.149
 5771SOL    HW118212   1.373   6.954   4.103
 5771SOL    HW218213   1.499   6.974   4.204
 5772SOL     OW18214   5.140   1.664   1.751
 5772SOL    HW118215   5.195   1.694   1.673
 5772SOL    HW218216   5.057   1.618   1.718
 5773SOL     OW18217   4.256   0.524   3.145
 5773SOL    HW118218   4.201   0.598   3.183
 5773SOL    HW218219   4.268   0.452   3.213
 5774SOL     OW18220   2.800   6.076   3.993
 5774SOL    HW118221   2.826   6.171   4.007
 5774SOL    HW218222   2.875   6.016   4.024
 5775SOL     OW18223   1.753   0.730   2.498
 5775SOL    HW118224   1.831   0.668   2.509
 5775SOL    HW218225   1.723   0.763   2.588
 5776SOL     OW18226   0.052   0.606   4.260
 5776SOL    HW118227   7.015   0.649   4.193
 5776SOL    HW218228   0.007   0.525   4.297
 5777SOL     OW18229   6.764   0.626   5.115
 5777SOL    HW118230   6.819   0.602   5.035
 5777SOL    HW218231   6.795   0.712   5.154
 5778SOL     OW18232   1.475   1.203   1.416
 5778SOL    HW118233   1.491   1.259   1.498
 5778SOL    HW218234   1.562   1.185   1.370
 5779SOL     OW18235   4.437   3.208   0.942
 5779SOL    HW118236   4.412   3.223   0.846
 5779SOL    HW218237   4.484   3.290   0.976
 5780SOL     OW18238   6.016   5.897   3.732
 5780SOL    HW118239   5.981   5.965   3.797
 5780SOL    HW218240   6.084   5.840   3.776
 5781SOL     OW18241   6.703   4.577   4.242
 5781SOL    HW118242   6.698   4.563   4.340
 5781SOL    HW218243   6.797   4.600   4.216
 5782SOL     OW18244   1.372   1.464   0.211
 5782SOL    HW118245   1.452   1.523   0.202
 5782SOL    HW218246   1.316   1.494   0.289
 5783SOL     OW18247   2.061   0.323   1.579
 5783SOL    HW118248   2.133   0.347   1.644
 5783SOL    HW218249   2.022   0.406   1.540
 5784SOL     OW18250   7.000   5.699   6.897
 5784SOL    HW118251   7.012   5.763   6.821
 5784SOL    HW218252   6.910   5.713   6.939
 5785SOL     OW18253   2.417   1.551   0.719
 5785SOL    HW118254   2.397   1.648   0.731
 5785SOL    HW218255   2.435   1.532   0.622
 5786SOL     OW18256   0.836   3.365   0.487
 5786SOL    HW118257   0.775   3.293   0.519
 5786SOL    HW218258   0.804   3.398   0.398
 5787SOL     OW18259   4.052   1.606   5.143
 5787SOL    HW118260   4.011   1.646   5.225
 5787SOL    HW218261   4.063   1.676   5.073
 5788SOL     OW18262   3.094   1.423   1.295
 5788SOL    HW118263   3.032   1.490   1.336
 5788SOL    HW218264   3.051   1.385   1.212
 5789SOL     OW18265   2.896   4.393   0.002
 5789SOL    HW118266   2.850   4.479   0.025
 5789SOL    HW218267   2.949   4.362   0.081
 5790SOL     OW18268   0.818   4.643   4.899
 5790SOL    HW118269   0.733   4.631   4.951
 5790SOL    HW218270   0.807   4.603   4.808
 5791SOL     OW18271   3.022   1.150   2.586
 5791SOL    HW118272   3.110   1.159   2.632
 5791SOL    HW218273   3.018   1.212   2.507
 5792SOL     OW18274   5.948   2.992   2.726
 5792SOL    HW118275   5.998   2.940   2.796
 5792SOL    HW218276   5.970   2.954   2.636
 5793SOL     OW18277   5.157   0.779   3.816
 5793SOL    HW118278   5.228   0.731   3.867
 5793SOL    HW218279   5.108   0.714   3.757
 5794SOL     OW18280   2.306   0.987   6.784
 5794SOL    HW118281   2.248   1.021   6.858
 5794SOL    HW218282   2.388   0.944   6.823
 5795SOL     OW18283   6.602   6.967   6.712
 5795SOL    HW118284   6.535   6.912   6.663
 5795SOL    HW218285   6.555   0.017   6.763
 5796SOL     OW18286   5.134   1.381   6.082
 5796SOL    HW118287   5.183   1.333   6.155
 5796SOL    HW218288   5.061   1.323   6.047
 5797SOL     OW18289   4.538   2.413   0.207
 5797SOL    HW118290   4.508   2.339   0.147
 5797SOL    HW218291   4.475   2.421   0.284
 5798SOL     OW18292   0.864   5.584   4.344
 5798SOL    HW118293   0.791   5.621   4.402
 5798SOL    HW218294   0.884   5.648   4.270
 5799SOL     OW18295   0.492   0.573   3.756
 5799SOL    HW118296   0.419   0.587   3.689
 5799SOL    HW218297   0.536   0.485   3.739
 5800SOL     OW18298   6.358   6.310   1.763
 5800SOL    HW118299   6.329   6.379   1.830
 5800SOL    HW218300   6.397   6.231   1.812
 5801SOL     OW18301   1.576   2.550   3.158
 5801SOL    HW118302   1.635   2.524   3.082
 5801SOL    HW218303   1.607   2.637   3.196
 5802SOL     OW18304   0.423   3.650   2.081
 5802SOL    HW118305   0.453   3.670   2.175
 5802SOL    HW218306   0.327   3.622   2.082
 5803SOL     OW18307   2.395   5.399   1.528
 5803SOL    HW118308   2.416   5.414   1.625
 5803SOL    HW218309   2.320   5.334   1.520
 5804SOL     OW18310   0.451   5.482   3.701
 5804SOL    HW118311   0.356   5.490   3.671
 5804SOL    HW218312   0.475   5.560   3.759
 5805SOL     OW18313   2.443   3.159   0.572
 5805SOL    HW118314   2.431   3.079   0.514
 5805SOL    HW218315   2.442   3.242   0.516
 5806SOL     OW18316   7.002   5.130   4.934
 5806SOL    HW118317   0.062   5.185   4.927
 5806SOL    HW218318   6.925   5.187   4.962
 5807SOL     OW18319   1.105   3.646   0.789
 5807SOL    HW118320   1.035   3.628   0.719
 5807SOL    HW218321   1.065   3.637   0.880
 5808SOL     OW18322   6.048   5.451   4.249
 5808SOL    HW118323   6.067   5.396   4.330
 5808SOL    HW218324   5.949   5.454   4.233
 5809SOL     OW18325   6.605   2.421   4.713
 5809SOL    HW118326   6.688   2.427   4.768
 5809SOL    HW218327   6.568   2.328   4.716
 5810SOL     OW18328   4.141   1.278   5.035
 5810SOL    HW118329   4.235   1.245   5.050
 5810SOL    HW218330   4.091   1.275   5.121
 5811SOL     OW18331   3.172   0.657   5.322
 5811SOL    HW118332   3.238   0.638   5.249
 5811SOL    HW218333   3.088   0.694   5.282
 5812SOL     OW18334   6.344   2.964   4.981
 5812SOL    HW118335   6.380   2.930   5.068
 5812SOL    HW218336   6.419   2.972   4.916
 5813SOL     OW18337   1.873   1.474   0.967
 5813SOL    HW118338   1.944   1.543   0.980
 5813SOL    HW218339   1.843   1.440   1.056
 5814SOL     OW18340   6.391   4.049   2.203
 5814SOL    HW118341   6.328   4.118   2.238
 5814SOL    HW218342   6.443   4.087   2.127
 5815SOL     OW18343   4.228   1.218   4.641
 5815SOL    HW118344   4.143   1.165   4.643
 5815SOL    HW218345   4.227   1.286   4.714
 5816SOL     OW18346   4.594   4.888   0.645
 5816SOL    HW118347   4.652   4.945   0.704
 5816SOL    HW218348   4.633   4.797   0.637
 5817SOL     OW18349   5.773   4.364   5.748
 5817SOL    HW118350   5.754   4.462   5.740
 5817SOL    HW218351   5.779   4.324   5.657
 5818SOL     OW18352   6.810   5.686   5.095
 5818SOL    HW118353   6.754   5.763   5.124
 5818SOL    HW218354   6.900   5.691   5.139
 5819SOL     OW18355   3.312   0.108   6.588
 5819SOL    HW118356   3.268   0.172   6.651
 5819SOL    HW218357   3.404   0.086   6.621
 5820SOL     OW18358   4.592   5.155   3.460
 5820SOL    HW118359   4.507   5.126   3.416
 5820SOL    HW218360   4.585   5.250   3.488
 5821SOL     OW18361   6.965   0.047   1.217
 5821SOL    HW118362   6.941   6.976   1.243
 5821SOL    HW218363   6.920   0.071   1.131
 5822SOL     OW18364   1.526   3.019   1.192
 5822SOL    HW118365   1.597   2.953   1.214
 5822SOL    HW218366   1.438   2.986   1.226
 5823SOL     OW18367   2.517   0.247   5.199
 5823SOL    HW118368   2.548   0.333   5.239
 5823SOL    HW218369   2.524   0.251   5.100
 5824SOL     OW18370   0.336   5.649   2.352
 5824SOL    HW118371   0.335   5.563   2.404
 5824SOL    HW218372   0.371   5.723   2.409
 5825SOL     OW18373   6.693   1.471   5.375
 5825SOL    HW118374   6.683   1.463   5.275
 5825SOL    HW218375   6.767   1.535   5.395
 5826SOL     OW18376   7.020   5.047   5.936
 5826SOL    HW118377   0.032   5.076   5.847
 5826SOL    HW218378   0.074   5.032   5.999
 5827SOL     OW18379   1.919   4.278   4.812
 5827SOL    HW118380   1.923   4.330   4.727
 5827SOL    HW218381   2.012   4.261   4.845
 5828SOL     OW18382   6.256   1.371   1.472
 5828SOL    HW118383   6.338   1.424   1.496
 5828SOL    HW218384   6.252   1.290   1.529
 5829SOL     OW18385   1.273   0.435   3.513
 5829SOL    HW118386   1.363   0.433   3.557
 5829SOL    HW218387   1.229   0.523   3.531
 5830SOL     OW18388   5.154   6.601   5.996
 5830SOL    HW118389   5.107   6.602   6.084
 5830SOL    HW218390   5.089   6.574   5.924
 5831SOL     OW18391   1.222   1.477   5.606
 5831SOL    HW118392   1.298   1.537   5.634
 5831SOL    HW218393   1.198   1.498   5.511
 5832SOL     OW18394   2.697   4.349   6.611
 5832SOL    HW118395   2.681   4.310   6.702
 5832SOL    HW218396   2.629   4.314   6.547
 5833SOL     OW18397   3.553   3.988   5.068
 5833SOL    HW118398   3.622   3.955   5.133
 5833SOL    HW218399   3.473   3.927   5.070
 5834SOL     OW18400   6.691   2.773   0.573
 5834SOL    HW118401   6.772   2.721   0.599
 5834SOL    HW218402   6.612   2.742   0.626
 5835SOL     OW18403   5.570   3.132   3.346
 5835SOL    HW118404   5.614   3.053   3.302
 5835SOL    HW218405   5.640   3.189   3.388
 5836SOL     OW18406   2.585   6.786   1.588
 5836SOL    HW118407   2.617   6.880   1.583
 5836SOL    HW218408   2.533   6.763   1.506
 5837SOL     OW18409   3.574   4.159   6.669
 5837SOL    HW118410   3.578   4.060   6.657
 5837SOL    HW218411   3.488   4.193   6.632
 5838SOL     OW18412   3.169   1.892   0.571
 5838SOL    HW118413   3.182   1.798   0.540
 5838SOL    HW218414   3.250   1.921   0.622
 5839SOL     OW18415   0.593   2.106   2.509
 5839SOL    HW118416   0.616   2.022   2.558
 5839SOL    HW218417   0.529   2.084   2.435
 5840SOL     OW18418   0.883   4.988   6.665
 5840SOL    HW118419   0.841   4.918   6.608
 5840SOL    HW218420   0.982   4.988   6.651
 5841SOL     OW18421   5.150   1.909   2.146
 5841SOL    HW118422   5.076   1.949   2.200
 5841SOL    HW218423   5.198   1.982   2.097
 5842SOL     OW18424   5.023   3.347   1.732
 5842SOL    HW118425   5.071   3.276   1.680
 5842SOL    HW218426   4.974   3.407   1.668
 5843SOL     OW18427   1.232   3.939   2.952
 5843SOL    HW118428   1.172   3.862   2.972
 5843SOL    HW218429   1.184   4.003   2.892
 5844SOL     OW18430   2.170   5.854   6.015
 5844SOL    HW118431   2.191   5.947   5.987
 5844SOL    HW218432   2.244   5.793   5.986
 5845SOL     OW18433   0.718   0.417   2.632
 5845SOL    HW118434   0.743   0.359   2.710
 5845SOL    HW218435   0.718   0.513   2.661
 5846SOL     OW18436   6.498   2.875   5.192
 5846SOL    HW118437   6.430   2.814   5.233
 5846SOL    HW218438   6.589   2.835   5.200
 5847SOL     OW18439   3.064   2.247   1.732
 5847SOL    HW118440   3.016   2.310   1.792
 5847SOL    HW218441   3.127   2.191   1.787
 5848SOL     OW18442   1.421   5.646   3.036
 5848SOL    HW118443   1.506   5.697   3.043
 5848SOL    HW218444   1.354   5.685   3.099
 5849SOL     OW18445   0.882   0.836   5.756
 5849SOL    HW118446   0.959   0.890   5.789
 5849SOL    HW218447   0.830   0.800   5.834
 5850SOL     OW18448   6.615   3.804   1.587
 5850SOL    HW118449   6.638   3.806   1.684
 5850SOL    HW218450   6.693   3.766   1.536
 5851SOL     OW18451   5.020   3.621   2.739
 5851SOL    HW118452   5.090   3.568   2.789
 5851SOL    HW218453   4.968   3.560   2.679
 5852SOL     OW18454   5.814   6.538   3.405
 5852SOL    HW118455   5.821   6.624   3.454
 5852SOL    HW218456   5.780   6.555   3.312
 5853SOL     OW18457   3.382   5.300   4.764
 5853SOL    HW118458   3.473   5.306   4.723
 5853SOL    HW218459   3.355   5.205   4.774
 5854SOL     OW18460   4.922   4.644   6.190
 5854SOL    HW118461   4.901   4.599   6.277
 5854SOL    HW218462   4.987   4.718   6.206
 5855SOL     OW18463   0.961   1.704   4.954
 5855SOL    HW118464   0.996   1.766   4.883
 5855SOL    HW218465   0.867   1.678   4.933
 5856SOL     OW18466   1.955   5.744   3.963
 5856SOL    HW118467   1.895   5.701   4.031
 5856SOL    HW218468   2.045   5.760   4.003
 5857SOL     OW18469   5.925   2.397   6.035
 5857SOL    HW118470   5.938   2.378   6.133
 5857SOL    HW218471   5.975   2.330   5.981
 5858SOL     OW18472   2.861   1.945   2.832
 5858SOL    HW118473   2.923   2.016   2.795
 5858SOL    HW218474   2.913   1.884   2.892
 5859SOL     OW18475   5.968   6.150   1.670
 5859SOL    HW118476   5.962   6.100   1.756
 5859SOL    HW218477   5.890   6.126   1.611
 5860SOL     OW18478   0.158   3.310   2.174
 5860SOL    HW118479   0.141   3.228   2.119
 5860SOL    HW218480   0.147   3.288   2.271
 5861SOL     OW18481   4.470   1.405   4.494
 5861SOL    HW118482   4.379   1.435   4.525
 5861SOL    HW218483   4.500   1.463   4.418
 5862SOL     OW18484   6.279   5.419   1.122
 5862SOL    HW118485   6.329   5.336   1.097
 5862SOL    HW218486   6.345   5.490   1.147
 5863SOL     OW18487   3.459   2.216   5.249
 5863SOL    HW118488   3.392   2.221   5.175
 5863SOL    HW218489   3.458   2.302   5.300
 5864SOL     OW18490   4.012   3.846   2.102
 5864SOL    HW118491   4.005   3.921   2.168
 5864SOL    HW218492   3.991   3.759   2.149
 5865SOL     OW18493   6.069   0.348   4.998
 5865SOL    HW118494   6.024   0.412   4.936
 5865SOL    HW218495   6.048   0.254   4.971
 5866SOL     OW18496   3.916   4.345   7.013
 5866SOL    HW118497   4.006   4.306   6.997
 5866SOL    HW218498   3.845   4.284   6.976
 5867SOL     OW18499   2.113   3.388   0.877
 5867SOL    HW118500   2.168   3.446   0.816
 5867SOL    HW218501   2.030   3.437   0.903
 5868SOL     OW18502   0.644   1.772   5.319
 5868SOL    HW118503   0.743   1.786   5.326
 5868SOL    HW218504   0.608   1.745   5.409
 5869SOL     OW18505   1.773   6.310   3.880
 5869SOL    HW118506   1.713   6.277   3.808
 5869SOL    HW218507   1.805   6.402   3.858
 5870SOL     OW18508   4.442   6.286   4.481
 5870SOL    HW118509   4.528   6.247   4.447
 5870SOL    HW218510   4.458   6.328   4.570
 5871SOL     OW18511   3.427   3.178   1.436
 5871SOL    HW118512   3.390   3.126   1.359
 5871SOL    HW218513   3.353   3.199   1.500
 5872SOL     OW18514   4.123   5.916   1.345
 5872SOL    HW118515   4.052   5.958   1.289
 5872SOL    HW218516   4.111   5.943   1.441
 5873SOL     OW18517   3.457   1.706   1.483
 5873SOL    HW118518   3.390   1.780   1.483
 5873SOL    HW218519   3.476   1.678   1.389
 5874SOL     OW18520   3.346   4.264   6.469
 5874SOL    HW118521   3.269   4.327   6.458
 5874SOL    HW218522   3.332   4.184   6.412
 5875SOL     OW18523   4.461   1.215   6.886
 5875SOL    HW118524   4.367   1.209   6.918
 5875SOL    HW218525   4.467   1.177   6.793
 5876SOL     OW18526   3.642   3.141   0.449
 5876SOL    HW118527   3.619   3.219   0.390
 5876SOL    HW218528   3.601   3.154   0.539
 5877SOL     OW18529   0.558   0.659   1.185
 5877SOL    HW118530   0.590   0.698   1.099
 5877SOL    HW218531   0.627   0.675   1.256
 5878SOL     OW18532   5.894   5.063   4.460
 5878SOL    HW118533   5.909   5.131   4.531
 5878SOL    HW218534   5.817   5.091   4.402
 5879SOL     OW18535   1.904   4.110   6.730
 5879SOL    HW118536   1.913   4.054   6.648
 5879SOL    HW218537   1.830   4.075   6.787
 5880SOL     OW18538   5.205   4.683   6.606
 5880SOL    HW118539   5.207   4.584   6.616
 5880SOL    HW218540   5.229   4.708   6.512
 5881SOL     OW18541   0.846   6.967   2.661
 5881SOL    HW118542   0.793   6.886   2.632
 5881SOL    HW218543   0.833   0.017   2.594
 5882SOL     OW18544   0.424   5.584   0.063
 5882SOL    HW118545   0.484   5.636   0.003
 5882SOL    HW218546   0.430   5.487   0.040
 5883SOL     OW18547   0.368   1.497   6.665
 5883SOL    HW118548   0.386   1.595   6.656
 5883SOL    HW218549   0.419   1.448   6.594
 5884SOL     OW18550   4.614   0.838   4.133
 5884SOL    HW118551   4.559   0.878   4.060
 5884SOL    HW218552   4.560   0.830   4.216
 5885SOL     OW18553   0.502   6.016   2.360
 5885SOL    HW118554   0.573   6.014   2.289
 5885SOL    HW218555   0.430   6.080   2.333
 5886SOL     OW18556   6.997   1.947   3.853
 5886SOL    HW118557   7.019   1.918   3.760
 5886SOL    HW218558   0.007   1.878   3.918
 5887SOL     OW18559   2.690   2.204   1.912
 5887SOL    HW118560   2.781   2.240   1.935
 5887SOL    HW218561   2.643   2.176   1.996
 5888SOL     OW18562   1.645   0.515   1.061
 5888SOL    HW118563   1.610   0.590   1.005
 5888SOL    HW218564   1.643   0.542   1.157
 5889SOL     OW18565   0.382   0.718   0.294
 5889SOL    HW118566   0.465   0.664   0.279
 5889SOL    HW218567   0.302   0.661   0.277
 5890SOL     OW18568   2.462   1.002   2.905
 5890SOL    HW118569   2.391   1.011   2.975
 5890SOL    HW218570   2.447   1.069   2.833
 5891SOL     OW18571   3.175   3.374   0.143
 5891SOL    HW118572   3.076   3.376   0.159
 5891SOL    HW218573   3.204   3.460   0.103
 5892SOL     OW18574   1.135   4.894   2.343
 5892SOL    HW118575   1.138   4.937   2.252
 5892SOL    HW218576   1.054   4.836   2.350
 5893SOL     OW18577   1.851   4.000   3.656
 5893SOL    HW118578   1.884   4.066   3.589
 5893SOL    HW218579   1.751   4.002   3.659
 5894SOL     OW18580   0.246   5.949   4.341
 5894SOL    HW118581   0.147   5.943   4.358
 5894SOL    HW218582   0.268   5.905   4.255
 5895SOL     OW18583   4.875   3.528   3.931
 5895SOL    HW118584   4.975   3.530   3.935
 5895SOL    HW218585   4.847   3.484   3.846
 5896SOL     OW18586   3.690   1.042   1.592
 5896SOL    HW118587   3.688   1.069   1.495
 5896SOL    HW218588   3.612   0.983   1.612
 5897SOL     OW18589   4.219   0.127   1.635
 5897SOL    HW118590   4.131   0.173   1.625
 5897SOL    HW218591   4.257   0.107   1.545
 5898SOL     OW18592   2.788   0.324   4.662
 5898SOL    HW118593   2.861   0.388   4.636
 5898SOL    HW218594   2.731   0.304   4.583
 5899SOL     OW18595   6.548   5.171   6.903
 5899SOL    HW118596   6.620   5.193   6.838
 5899SOL    HW218597   6.464   5.150   6.855
 5900SOL     OW18598   6.380   5.258   3.374
 5900SOL    HW118599   6.477   5.284   3.371
 5900SOL    HW218600   6.339   5.293   3.458
 5901SOL     OW18601   2.664   0.835   0.359
 5901SOL    HW118602   2.688   0.931   0.370
 5901SOL    HW218603   2.656   0.792   0.449
 5902SOL     OW18604   6.055   2.333   5.596
 5902SOL    HW118605   6.002   2.260   5.552
 5902SOL    HW218606   6.054   2.319   5.695
 5903SOL     OW18607   4.815   3.634   6.714
 5903SOL    HW118608   4.857   3.615   6.625
 5903SOL    HW218609   4.887   3.644   6.783
 5904SOL     OW18610   1.622   4.783   0.933
 5904SOL    HW118611   1.719   4.784   0.909
 5904SOL    HW218612   1.584   4.875   0.921
 5905SOL     OW18613   6.184   0.576   4.260
 5905SOL    HW118614   6.168   0.527   4.346
 5905SOL    HW218615   6.264   0.537   4.214
 5906SOL     OW18616   3.966   2.015   3.797
 5906SOL    HW118617   4.042   1.951   3.806
 5906SOL    HW218618   3.969   2.059   3.707
 5907SOL     OW18619   1.012   5.963   0.440
 5907SOL    HW118620   1.074   5.885   0.435
 5907SOL    HW218621   1.061   6.041   0.480
 5908SOL     OW18622   6.819   3.315   0.214
 5908SOL    HW118623   6.811   3.415   0.216
 5908SOL    HW218624   6.798   3.278   0.304
 5909SOL     OW18625   6.787   5.147   0.683
 5909SOL    HW118626   6.695   5.139   0.722
 5909SOL    HW218627   6.811   5.244   0.675
 5910SOL     OW18628   0.569   4.179   3.102
 5910SOL    HW118629   0.472   4.200   3.111
 5910SOL    HW218630   0.613   4.180   3.192
 5911SOL     OW18631   6.842   5.202   6.132
 5911SOL    HW118632   6.854   5.104   6.148
 5911SOL    HW218633   6.899   5.253   6.196
 5912SOL     OW18634   5.792   2.938   6.638
 5912SOL    HW118635   5.748   2.858   6.595
 5912SOL    HW218636   5.794   2.925   6.737
 5913SOL     OW18637   4.921   2.935   6.452
 5913SOL    HW118638   4.953   2.934   6.357
 5913SOL    HW218639   4.923   2.842   6.489
 5914SOL     OW18640   1.799   5.331   6.750
 5914SOL    HW118641   1.874   5.287   6.800
 5914SOL    HW218642   1.790   5.426   6.781
 5915SOL     OW18643   5.163   5.322   1.459
 5915SOL    HW118644   5.097   5.248   1.451
 5915SOL    HW218645   5.114   5.409   1.467
 5916SOL     OW18646   4.241   5.245   4.790
 5916SOL    HW118647   4.331   5.200   4.790
 5916SOL    HW218648   4.190   5.217   4.709
 5917SOL     OW18649   3.240   3.361   3.709
 5917SOL    HW118650   3.219   3.363   3.612
 5917SOL    HW218651   3.334   3.331   3.723
 5918SOL     OW18652   1.715   3.519   5.569
 5918SOL    HW118653   1.717   3.587   5.643
 5918SOL    HW218654   1.787   3.540   5.503
 5919SOL     OW18655   3.816   3.441   1.428
 5919SOL    HW118656   3.848   3.471   1.338
 5919SOL    HW218657   3.781   3.520   1.479
 5920SOL     OW18658   3.995   0.715   6.626
 5920SOL    HW118659   3.980   0.665   6.540
 5920SOL    HW218660   4.092   0.711   6.651
 5921SOL     OW18661   4.006   5.597   6.022
 5921SOL    HW118662   3.914   5.558   6.012
 5921SOL    HW218663   4.068   5.528   6.057
 5922SOL     OW18664   6.829   5.384   2.818
 5922SOL    HW118665   6.778   5.468   2.796
 5922SOL    HW218666   6.792   5.308   2.764
 5923SOL     OW18667   5.482   0.906   1.634
 5923SOL    HW118668   5.482   0.935   1.730
 5923SOL    HW218669   5.572   0.870   1.610
 5924SOL     OW18670   0.237   1.276   3.649
 5924SOL    HW118671   0.280   1.342   3.587
 5924SOL    HW218672   0.180   1.214   3.597
 5925SOL     OW18673   3.806   5.511   1.667
 5925SOL    HW118674   3.807   5.437   1.734
 5925SOL    HW218675   3.745   5.583   1.699
 5926SOL     OW18676   4.217   5.545   1.537
 5926SOL    HW118677   4.250   5.528   1.629
 5926SOL    HW218678   4.148   5.618   1.539
 5927SOL     OW18679   1.047   4.028   2.492
 5927SOL    HW118680   1.145   4.010   2.493
 5927SOL    HW218681   1.029   4.120   2.459
 5928SOL     OW18682   3.315   0.312   0.786
 5928SOL    HW118683   3.343   0.312   0.882
 5928SOL    HW218684   3.236   0.372   0.774
 5929SOL     OW18685   0.653   6.861   6.572
 5929SOL    HW118686   0.700   6.867   6.660
 5929SOL    HW218687   0.575   6.798   6.579
 5930SOL     OW18688   6.409   2.676   3.649
 5930SOL    HW118689   6.309   2.674   3.645
 5930SOL    HW218690   6.445   2.586   3.626
 5931SOL     OW18691   6.877   5.561   3.205
 5931SOL    HW118692   6.860   5.532   3.111
 5931SOL    HW218693   6.795   5.602   3.243
 5932SOL     OW18694   2.159   0.155   0.702
 5932SOL    HW118695   2.225   0.225   0.675
 5932SOL    HW218696   2.186   0.067   0.664
 5933SOL     OW18697   0.293   6.108   3.651
 5933SOL    HW118698   0.277   6.126   3.748
 5933SOL    HW218699   0.358   6.175   3.615
 5934SOL     OW18700   3.981   3.150   4.116
 5934SOL    HW118701   3.957   3.074   4.176
 5934SOL    HW218702   4.002   3.231   4.172
 5935SOL     OW18703   4.858   4.493   6.446
 5935SOL    HW118704   4.841   4.397   6.425
 5935SOL    HW218705   4.801   4.521   6.524
 5936SOL     OW18706   3.517   3.106   0.725
 5936SOL    HW118707   3.539   3.203   0.740
 5936SOL    HW218708   3.427   3.087   0.764
 5937SOL     OW18709   0.823   4.512   2.805
 5937SOL    HW118710   0.872   4.592   2.841
 5937SOL    HW218711   0.776   4.465   2.879
 5938SOL     OW18712   0.729   5.553   3.585
 5938SOL    HW118713   0.773   5.609   3.655
 5938SOL    HW218714   0.635   5.534   3.613
 5939SOL     OW18715   2.906   6.425   3.154
 5939SOL    HW118716   2.860   6.514   3.151
 5939SOL    HW218717   2.944   6.409   3.245
 5940SOL     OW18718   4.545   5.771   0.675
 5940SOL    HW118719   4.592   5.799   0.758
 5940SOL    HW218720   4.493   5.848   0.638
 5941SOL     OW18721   5.756   3.466   1.784
 5941SOL    HW118722   5.821   3.541   1.791
 5941SOL    HW218723   5.805   3.379   1.780
 5942SOL     OW18724   5.114   3.334   0.634
 5942SOL    HW118725   5.153   3.290   0.716
 5942SOL    HW218726   5.129   3.274   0.555
 5943SOL     OW18727   3.540   5.325   0.384
 5943SOL    HW118728   3.611   5.359   0.446
 5943SOL    HW218729   3.545   5.226   0.377
 5944SOL     OW18730   6.415   2.706   1.434
 5944SOL    HW118731   6.430   2.768   1.356
 5944SOL    HW218732   6.464   2.741   1.514
 5945SOL     OW18733   6.239   5.333   5.411
 5945SOL    HW118734   6.227   5.322   5.510
 5945SOL    HW218735   6.306   5.266   5.378
 5946SOL     OW18736   3.617   3.294   6.202
 5946SOL    HW118737   3.535   3.238   6.191
 5946SOL    HW218738   3.614   3.372   6.140
 5947SOL     OW18739   3.900   3.658   1.736
 5947SOL    HW118740   3.868   3.746   1.771
 5947SOL    HW218741   3.969   3.672   1.666
 5948SOL     OW18742   4.381   5.095   3.209
 5948SOL    HW118743   4.384   5.046   3.122
 5948SOL    HW218744   4.369   5.193   3.192
 5949SOL     OW18745   4.694   3.787   1.610
 5949SOL    HW118746   4.679   3.834   1.697
 5949SOL    HW218747   4.719   3.853   1.539
 5950SOL     OW18748   4.491   2.371   5.699
 5950SOL    HW118749   4.545   2.451   5.725
 5950SOL    HW218750   4.552   2.295   5.679
 5951SOL     OW18751   0.824   5.839   4.204
 5951SOL    HW118752   0.838   5.938   4.208
 5951SOL    HW218753   0.875   5.801   4.127
 5952SOL     OW18754   5.667   4.425   4.162
 5952SOL    HW118755   5.672   4.327   4.140
 5952SOL    HW218756   5.757   4.458   4.189
 5953SOL     OW18757   6.528   3.091   5.334
 5953SOL    HW118758   6.501   3.007   5.288
 5953SOL    HW218759   6.624   3.110   5.315
 5954SOL     OW18760   0.883   4.405   5.693
 5954SOL    HW118761   0.976   4.381   5.666
 5954SOL    HW218762   0.876   4.406   5.792
 5955SOL     OW18763   5.265   6.265   2.760
 5955SOL    HW118764   5.218   6.203   2.823
 5955SOL    HW218765   5.346   6.304   2.804
 5956SOL     OW18766   4.685   1.107   5.987
 5956SOL    HW118767   4.595   1.069   5.966
 5956SOL    HW218768   4.748   1.032   6.010
 5957SOL     OW18769   4.046   0.622   5.292
 5957SOL    HW118770   4.128   0.628   5.349
 5957SOL    HW218771   4.012   0.714   5.272
 5958SOL     OW18772   5.818   6.929   3.150
 5958SOL    HW118773   5.830   6.988   3.070
 5958SOL    HW218774   5.884   6.955   3.220
 5959SOL     OW18775   4.041   2.399   5.478
 5959SOL    HW118776   3.964   2.418   5.418
 5959SOL    HW218777   4.047   2.470   5.548
 5960SOL     OW18778   3.605   5.302   4.589
 5960SOL    HW118779   3.657   5.220   4.611
 5960SOL    HW218780   3.654   5.383   4.623
 5961SOL     OW18781   5.408   1.415   2.918
 5961SOL    HW118782   5.501   1.449   2.926
 5961SOL    HW218783   5.384   1.366   3.002
 5962SOL     OW18784   5.317   6.351   0.870
 5962SOL    HW118785   5.288   6.413   0.943
 5962SOL    HW218786   5.375   6.400   0.806
 5963SOL     OW18787   3.635   3.446   5.263
 5963SOL    HW118788   3.593   3.536   5.252
 5963SOL    HW218789   3.721   3.455   5.313
 5964SOL     OW18790   0.239   5.514   5.367
 5964SOL    HW118791   0.173   5.557   5.304
 5964SOL    HW218792   0.332   5.533   5.335
 5965SOL     OW18793   0.855   2.299   6.981
 5965SOL    HW118794   0.878   2.305   6.884
 5965SOL    HW218795   0.934   2.265   0.009
 5966SOL     OW18796   2.670   6.098   5.626
 5966SOL    HW118797   2.637   6.038   5.553
 5966SOL    HW218798   2.732   6.048   5.686
 5967SOL     OW18799   4.128   6.915   6.965
 5967SOL    HW118800   4.037   6.874   6.973
 5967SOL    HW218801   4.188   6.876   0.013
 5968SOL     OW18802   4.697   1.447   1.503
 5968SOL    HW118803   4.704   1.362   1.451
 5968SOL    HW218804   4.607   1.453   1.546
 5969SOL     OW18805   0.268   6.865   6.494
 5969SOL    HW118806   0.320   6.895   6.414
 5969SOL    HW218807   0.326   6.808   6.552
 5970SOL     OW18808   0.625   4.581   2.563
 5970SOL    HW118809   0.670   4.523   2.495
 5970SOL    HW218810   0.651   4.677   2.548
 5971SOL     OW18811   1.344   0.888   2.614
 5971SOL    HW118812   1.389   0.934   2.691
 5971SOL    HW218813   1.274   0.949   2.575
 5972SOL     OW18814   5.293   5.566   0.031
 5972SOL    HW118815   5.369   5.596   0.089
 5972SOL    HW218816   5.256   5.481   0.067
 5973SOL     OW18817   1.990   3.453   2.622
 5973SOL    HW118818   1.999   3.364   2.578
 5973SOL    HW218819   1.893   3.474   2.636
 5974SOL     OW18820   5.774   5.227   6.487
 5974SOL    HW118821   5.768   5.134   6.450
 5974SOL    HW218822   5.841   5.280   6.434
 5975SOL     OW18823   3.360   1.338   0.456
 5975SOL    HW118824   3.351   1.307   0.551
 5975SOL    HW218825   3.270   1.336   0.412
 5976SOL     OW18826   3.179   3.313   5.324
 5976SOL    HW118827   3.197   3.234   5.266
 5976SOL    HW218828   3.084   3.343   5.312
 5977SOL     OW18829   2.790   5.549   0.070
 5977SOL    HW118830   2.692   5.537   0.088
 5977SOL    HW218831   2.839   5.467   0.099
 5978SOL     OW18832   5.285   5.700   2.799
 5978SOL    HW118833   5.301   5.606   2.829
 5978SOL    HW218834   5.357   5.759   2.836
 5979SOL     OW18835   5.444   0.631   2.764
 5979SOL    HW118836   5.442   0.544   2.714
 5979SOL    HW218837   5.518   0.629   2.831
 5980SOL     OW18838   3.748   4.146   0.691
 5980SOL    HW118839   3.731   4.084   0.614
 5980SOL    HW218840   3.711   4.107   0.775
 5981SOL     OW18841   5.731   1.997   1.167
 5981SOL    HW118842   5.637   1.993   1.134
 5981SOL    HW218843   5.749   1.917   1.226
 5982SOL     OW18844   6.858   3.323   1.933
 5982SOL    HW118845   6.923   3.257   1.971
 5982SOL    HW218846   6.766   3.301   1.963
 5983SOL     OW18847   0.673   2.037   4.116
 5983SOL    HW118848   0.624   2.122   4.135
 5983SOL    HW218849   0.696   2.033   4.019
 5984SOL     OW18850   6.465   5.473   4.310
 5984SOL    HW118851   6.557   5.486   4.348
 5984SOL    HW218852   6.398   5.515   4.370
 5985SOL     OW18853   6.911   2.936   4.049
 5985SOL    HW118854   6.870   2.897   3.966
 5985SOL    HW218855   6.865   3.022   4.072
 5986SOL     OW18856   3.173   3.806   4.853
 5986SOL    HW118857   3.147   3.713   4.828
 5986SOL    HW218858   3.244   3.803   4.924
 5987SOL     OW18859   4.659   0.422   4.452
 5987SOL    HW118860   4.666   0.401   4.354
 5987SOL    HW218861   4.571   0.466   4.470
 5988SOL     OW18862   5.035   6.809   5.633
 5988SOL    HW118863   5.055   6.894   5.682
 5988SOL    HW218864   4.960   6.825   5.568
 5989SOL     OW18865   2.750   6.490   6.895
 5989SOL    HW118866   2.705   6.407   6.928
 5989SOL    HW218867   2.832   6.507   6.950
 5990SOL     OW18868   3.788   4.561   0.185
 5990SOL    HW118869   3.758   4.516   0.269
 5990SOL    HW218870   3.832   4.494   0.125
 5991SOL     OW18871   3.340   4.867   6.954
 5991SOL    HW118872   3.327   4.864   6.855
 5991SOL    HW218873   3.404   4.796   6.982
 5992SOL     OW18874   3.392   0.336   2.796
 5992SOL    HW118875   3.316   0.371   2.743
 5992SOL    HW218876   3.366   0.249   2.839
 5993SOL     OW18877   2.882   6.317   6.688
 5993SOL    HW118878   2.804   6.285   6.742
 5993SOL    HW218879   2.939   6.238   6.663
 5994SOL     OW18880   6.054   2.428   1.836
 5994SOL    HW118881   6.147   2.464   1.846
 5994SOL    HW218882   5.989   2.496   1.872
 5995SOL     OW18883   5.452   4.853   3.344
 5995SOL    HW118884   5.473   4.792   3.268
 5995SOL    HW218885   5.516   4.835   3.420
 5996SOL     OW18886   1.163   6.538   0.773
 5996SOL    HW118887   1.071   6.520   0.809
 5996SOL    HW218888   1.156   6.579   0.683
 5997SOL     OW18889   0.992   5.478   2.298
 5997SOL    HW118890   0.917   5.481   2.233
 5997SOL    HW218891   1.065   5.540   2.269
 5998SOL     OW18892   5.906   1.793   2.968
 5998SOL    HW118893   6.004   1.776   2.959
 5998SOL    HW218894   5.862   1.786   2.879
 5999SOL     OW18895   1.711   1.745   2.518
 5999SOL    HW118896   1.640   1.815   2.509
 5999SOL    HW218897   1.675   1.669   2.574
 6000SOL     OW18898   4.479   6.739   0.983
 6000SOL    HW118899   4.462   6.640   0.986
 6000SOL    HW218900   4.392   6.787   0.996
 6001SOL     OW18901   0.913   3.765   0.035
 6001SOL    HW118902   0.861   3.681   0.017
 6001SOL    HW218903   1.006   3.741   0.062
 6002SOL     OW18904   6.225   0.168   0.984
 6002SOL    HW118905   6.160   0.100   1.017
 6002SOL    HW218906   6.282   0.127   0.912
 6003SOL     OW18907   6.379   2.400   4.153
 6003SOL    HW118908   6.457   2.358   4.199
 6003SOL    HW218909   6.410   2.445   4.069
 6004SOL     OW18910   0.657   3.615   2.959
 6004SOL    HW118911   0.640   3.711   2.935
 6004SOL    HW218912   0.586   3.557   2.919
 6005SOL     OW18913   5.145   5.700   4.492
 6005SOL    HW118914   5.052   5.717   4.526
 6005SOL    HW218915   5.212   5.739   4.555
 6006SOL     OW18916   3.219   0.978   6.202
 6006SOL    HW118917   3.229   0.979   6.301
 6006SOL    HW218918   3.309   0.968   6.159
 6007SOL     OW18919   5.042   3.485   5.289
 6007SOL    HW118920   5.010   3.518   5.200
 6007SOL    HW218921   4.983   3.411   5.320
 6008SOL     OW18922   1.881   4.613   5.694
 6008SOL    HW118923   1.893   4.569   5.784
 6008SOL    HW218924   1.910   4.550   5.622
 6009SOL     OW18925   3.658   0.677   3.828
 6009SOL    HW118926   3.624   0.681   3.734
 6009SOL    HW218927   3.593   0.625   3.884
 6010SOL     OW18928   1.164   4.383   3.941
 6010SOL    HW118929   1.228   4.459   3.928
 6010SOL    HW218930   1.123   4.389   4.032
 6011SOL     OW18931   4.960   3.403   2.278
 6011SOL    HW118932   4.958   3.342   2.198
 6011SOL    HW218933   5.049   3.395   2.323
 6012SOL     OW18934   5.257   1.374   0.085
 6012SOL    HW118935   5.221   1.382   7.014
 6012SOL    HW218936   5.218   1.293   0.128
 6013SOL     OW18937   5.107   1.990   3.228
 6013SOL    HW118938   5.113   1.900   3.270
 6013SOL    HW218939   5.076   2.057   3.297
 6014SOL     OW18940   3.954   3.790   1.171
 6014SOL    HW118941   4.028   3.803   1.237
 6014SOL    HW218942   3.980   3.830   1.083
 6015SOL     OW18943   5.434   2.880   4.097
 6015SOL    HW118944   5.457   2.906   4.003
 6015SOL    HW218945   5.471   2.947   4.161
 6016SOL     OW18946   5.940   1.999   6.017
 6016SOL    HW118947   5.842   2.005   6.035
 6016SOL    HW218948   5.986   1.955   6.094
 6017SOL     OW18949   6.907   4.142   2.771
 6017SOL    HW118950   6.869   4.107   2.857
 6017SOL    HW218951   6.873   4.086   2.695
 6018SOL     OW18952   3.067   0.707   6.543
 6018SOL    HW118953   2.988   0.661   6.584
 6018SOL    HW218954   3.054   0.715   6.445
 6019SOL     OW18955   6.540   2.302   4.431
 6019SOL    HW118956   6.459   2.358   4.448
 6019SOL    HW218957   6.618   2.361   4.410
 6020SOL     OW18958   1.611   4.448   1.123
 6020SOL    HW118959   1.566   4.490   1.202
 6020SOL    HW218960   1.612   4.514   1.047
 6021SOL     OW18961   4.757   0.705   2.469
 6021SOL    HW118962   4.659   0.686   2.466
 6021SOL    HW218963   4.791   0.689   2.562
 6022SOL     OW18964   4.377   2.305   3.948
 6022SOL    HW118965   4.355   2.372   4.019
 6022SOL    HW218966   4.301   2.300   3.883
 6023SOL     OW18967   6.522   0.104   2.452
 6023SOL    HW118968   6.524   0.203   2.467
 6023SOL    HW218969   6.534   0.086   2.354
 6024SOL     OW18970   1.205   5.099   3.336
 6024SOL    HW118971   1.148   5.118   3.257
 6024SOL    HW218972   1.252   5.183   3.365
 6025SOL     OW18973   3.512   1.445   2.564
 6025SOL    HW118974   3.521   1.391   2.480
 6025SOL    HW218975   3.567   1.528   2.555
 6026SOL     OW18976   0.308   3.976   5.242
 6026SOL    HW118977   0.303   4.076   5.248
 6026SOL    HW218978   0.282   3.936   5.330
 6027SOL     OW18979   1.574   4.263   6.525
 6027SOL    HW118980   1.511   4.295   6.454
 6027SOL    HW218981   1.657   4.317   6.523
 6028SOL     OW18982   0.420   5.149   6.800
 6028SOL    HW118983   0.505   5.151   6.747
 6028SOL    HW218984   0.416   5.229   6.859
 6029SOL     OW18985   2.304   6.063   5.246
 6029SOL    HW118986   2.348   6.018   5.324
 6029SOL    HW218987   2.244   5.998   5.200
 6030SOL     OW18988   3.779   6.134   3.102
 6030SOL    HW118989   3.780   6.231   3.127
 6030SOL    HW218990   3.781   6.125   3.002
 6031SOL     OW18991   3.464   5.356   3.192
 6031SOL    HW118992   3.506   5.305   3.117
 6031SOL    HW218993   3.428   5.293   3.260
 6032SOL     OW18994   2.107   4.669   3.085
 6032SOL    HW118995   2.164   4.715   3.154
 6032SOL    HW218996   2.142   4.689   2.994
 6033SOL     OW18997   3.203   1.682   2.714
 6033SOL    HW118998   3.214   1.646   2.622
 6033SOL    HW218999   3.237   1.776   2.718
 6034SOL     OW19000   0.691   5.148   4.801
 6034SOL    HW119001   0.594   5.170   4.794
 6034SOL    HW219002   0.736   5.215   4.859
 6035SOL     OW19003   6.912   0.846   2.559
 6035SOL    HW119004   6.847   0.871   2.631
 6035SOL    HW219005   6.865   0.846   2.471
 6036SOL     OW19006   6.114   5.703   3.939
 6036SOL    HW119007   6.145   5.608   3.941
 6036SOL    HW219008   6.126   5.745   4.029
 6037SOL     OW19009   4.471   4.617   6.225
 6037SOL    HW119010   4.387   4.665   6.251
 6037SOL    HW219011   4.541   4.684   6.201
 6038SOL     OW19012   1.686   2.540   6.162
 6038SOL    HW119013   1.780   2.525   6.131
 6038SOL    HW219014   1.628   2.563   6.084
 6039SOL     OW19015   2.950   3.772   2.428
 6039SOL    HW119016   2.916   3.799   2.518
 6039SOL    HW219017   3.006   3.689   2.437
 6040SOL     OW19018   0.651   2.149   6.450
 6040SOL    HW119019   0.569   2.130   6.504
 6040SOL    HW219020   0.720   2.191   6.509
 6041SOL     OW19021   1.967   0.510   5.213
 6041SOL    HW119022   1.987   0.589   5.154
 6041SOL    HW219023   1.995   0.426   5.167
 6042SOL     OW19024   5.334   5.719   1.694
 6042SOL    HW119025   5.355   5.649   1.763
 6042SOL    HW219026   5.260   5.777   1.727
 6043SOL     OW19027   0.649   4.418   5.946
 6043SOL    HW119028   0.623   4.502   5.897
 6043SOL    HW219029   0.748   4.417   5.961
 6044SOL     OW19030   1.281   1.815   1.945
 6044SOL    HW119031   1.317   1.907   1.956
 6044SOL    HW219032   1.341   1.749   1.990
 6045SOL     OW19033   6.673   4.760   2.056
 6045SOL    HW119034   6.637   4.826   1.989
 6045SOL    HW219035   6.760   4.793   2.092
 6046SOL     OW19036   4.244   2.133   0.356
 6046SOL    HW119037   4.206   2.134   0.264
 6046SOL    HW219038   4.282   2.223   0.378
 6047SOL     OW19039   5.313   2.340   2.118
 6047SOL    HW119040   5.285   2.395   2.039
 6047SOL    HW219041   5.330   2.400   2.196
 6048SOL     OW19042   4.849   5.929   4.430
 6048SOL    HW119043   4.856   5.832   4.407
 6048SOL    HW219044   4.867   5.942   4.528
 6049SOL     OW19045   5.886   3.733   5.996
 6049SOL    HW119046   5.975   3.738   6.040
 6049SOL    HW219047   5.817   3.774   6.056
 6050SOL     OW19048   3.430   5.785   4.448
 6050SOL    HW119049   3.386   5.832   4.371
 6050SOL    HW219050   3.393   5.693   4.456
 6051SOL     OW19051   2.843   1.039   4.274
 6051SOL    HW119052   2.842   1.097   4.355
 6051SOL    HW219053   2.835   1.095   4.192
 6052SOL     OW19054   6.086   0.161   0.739
 6052SOL    HW119055   6.095   0.149   0.838
 6052SOL    HW219056   6.177   0.163   0.698
 6053SOL     OW19057   4.160   1.445   6.447
 6053SOL    HW119058   4.190   1.516   6.383
 6053SOL    HW219059   4.212   1.361   6.429
 6054SOL     OW19060   3.170   3.433   0.722
 6054SOL    HW119061   3.204   3.340   0.733
 6054SOL    HW219062   3.148   3.449   0.626
 6055SOL     OW19063   4.962   0.878   5.779
 6055SOL    HW119064   4.867   0.887   5.808
 6055SOL    HW219065   4.967   0.873   5.679
 6056SOL     OW19066   4.721   2.491   4.450
 6056SOL    HW119067   4.676   2.448   4.372
 6056SOL    HW219068   4.724   2.590   4.436
 6057SOL     OW19069   5.205   2.666   3.829
 6057SOL    HW119070   5.128   2.602   3.830
 6057SOL    HW219071   5.194   2.732   3.903
 6058SOL     OW19072   4.834   3.183   1.107
 6058SOL    HW119073   4.746   3.174   1.153
 6058SOL    HW219074   4.860   3.095   1.068
 6059SOL     OW19075   5.200   5.332   4.926
 6059SOL    HW119076   5.200   5.394   5.004
 6059SOL    HW219077   5.201   5.237   4.959
 6060SOL     OW19078   2.780   3.806   6.434
 6060SOL    HW119079   2.855   3.861   6.473
 6060SOL    HW219080   2.698   3.862   6.426
 6061SOL     OW19081   3.577   2.448   1.207
 6061SOL    HW119082   3.615   2.362   1.242
 6061SOL    HW219083   3.482   2.457   1.236
 6062SOL     OW19084   2.188   1.717   5.038
 6062SOL    HW119085   2.118   1.789   5.037
 6062SOL    HW219086   2.148   1.632   5.003
 6063SOL     OW19087   3.749   1.612   6.468
 6063SOL    HW119088   3.710   1.616   6.560
 6063SOL    HW219089   3.809   1.533   6.460
 6064SOL     OW19090   1.655   5.809   1.119
 6064SOL    HW119091   1.645   5.730   1.180
 6064SOL    HW219092   1.746   5.849   1.132
 6065SOL     OW19093   6.274   0.207   1.953
 6065SOL    HW119094   6.290   0.246   2.043
 6065SOL    HW219095   6.284   0.107   1.957
 6066SOL     OW19096   4.805   1.992   6.112
 6066SOL    HW119097   4.898   2.013   6.081
 6066SOL    HW219098   4.797   2.012   6.210
 6067SOL     OW19099   5.253   1.792   6.330
 6067SOL    HW119100   5.270   1.715   6.269
 6067SOL    HW219101   5.305   1.872   6.300
 6068SOL     OW19102   5.793   2.760   4.755
 6068SOL    HW119103   5.771   2.668   4.722
 6068SOL    HW219104   5.775   2.827   4.682
 6069SOL     OW19105   6.751   3.435   4.697
 6069SOL    HW119106   6.847   3.416   4.719
 6069SOL    HW219107   6.717   3.365   4.634
 6070SOL     OW19108   2.359   2.458   0.562
 6070SOL    HW119109   2.298   2.407   0.501
 6070SOL    HW219110   2.412   2.393   0.618
 6071SOL     OW19111   6.296   5.561   4.526
 6071SOL    HW119112   6.272   5.647   4.571
 6071SOL    HW219113   6.341   5.501   4.592
 6072SOL     OW19114   0.374   0.041   1.901
 6072SOL    HW119115   0.359   6.966   1.886
 6072SOL    HW219116   0.442   0.075   1.836
 6073SOL     OW19117   6.415   4.152   0.148
 6073SOL    HW119118   6.463   4.066   0.169
 6073SOL    HW219119   6.479   4.216   0.106
 6074SOL     OW19120   1.131   6.086   4.290
 6074SOL    HW119121   1.198   6.155   4.317
 6074SOL    HW219122   1.040   6.118   4.315
 6075SOL     OW19123   6.586   1.055   6.496
 6075SOL    HW119124   6.594   0.964   6.455
 6075SOL    HW219125   6.589   1.047   6.595
 6076SOL     OW19126   2.252   5.525   4.706
 6076SOL    HW119127   2.350   5.537   4.687
 6076SOL    HW219128   2.242   5.475   4.792
 6077SOL     OW19129   5.792   5.808   1.563
 6077SOL    HW119130   5.803   5.906   1.547
 6077SOL    HW219131   5.695   5.786   1.570
 6078SOL     OW19132   3.827   5.266   1.097
 6078SOL    HW119133   3.835   5.250   1.195
 6078SOL    HW219134   3.896   5.332   1.068
 6079SOL     OW19135   3.911   2.973   6.496
 6079SOL    HW119136   3.860   2.961   6.581
 6079SOL    HW219137   3.893   3.064   6.459
 6080SOL     OW19138   0.396   1.271   1.768
 6080SOL    HW119139   0.407   1.326   1.851
 6080SOL    HW219140   0.308   1.225   1.770
 6081SOL     OW19141   6.545   3.291   5.533
 6081SOL    HW119142   6.543   3.193   5.516
 6081SOL    HW219143   6.570   3.340   5.449
 6082SOL     OW19144   2.271   1.862   3.575
 6082SOL    HW119145   2.311   1.945   3.614
 6082SOL    HW219146   2.304   1.850   3.481
 6083SOL     OW19147   0.368   4.595   0.058
 6083SOL    HW119148   0.315   4.594   0.142
 6083SOL    HW219149   0.313   4.633   7.006
 6084SOL     OW19150   0.394   6.285   3.315
 6084SOL    HW119151   0.357   6.368   3.274
 6084SOL    HW219152   0.463   6.246   3.255
 6085SOL     OW19153   0.790   4.358   0.503
 6085SOL    HW119154   0.737   4.294   0.448
 6085SOL    HW219155   0.855   4.308   0.561
 6086SOL     OW19156   3.665   1.246   5.999
 6086SOL    HW119157   3.713   1.246   5.911
 6086SOL    HW219158   3.723   1.288   6.069
 6087SOL     OW19159   4.013   5.663   1.015
 6087SOL    HW119160   3.950   5.650   0.939
 6087SOL    HW219161   4.101   5.695   0.980
 6088SOL     OW19162   5.807   5.889   4.301
 6088SOL    HW119163   5.860   5.967   4.269
 6088SOL    HW219164   5.720   5.884   4.250
 6089SOL     OW19165   6.266   3.293   0.998
 6089SOL    HW119166   6.205   3.218   0.973
 6089SOL    HW219167   6.268   3.360   0.924
 6090SOL     OW19168   2.508   6.486   5.480
 6090SOL    HW119169   2.561   6.486   5.566
 6090SOL    HW219170   2.411   6.489   5.501
 6091SOL     OW19171   1.663   1.808   1.673
 6091SOL    HW119172   1.723   1.839   1.747
 6091SOL    HW219173   1.568   1.807   1.705
 6092SOL     OW19174   3.569   6.781   2.766
 6092SOL    HW119175   3.665   6.766   2.793
 6092SOL    HW219176   3.518   6.818   2.844
 6093SOL     OW19177   1.552   2.905   2.878
 6093SOL    HW119178   1.558   2.987   2.821
 6093SOL    HW219179   1.610   2.833   2.840
 6094SOL     OW19180   4.042   0.922   1.248
 6094SOL    HW119181   3.944   0.902   1.247
 6094SOL    HW219182   4.057   1.019   1.269
 6095SOL     OW19183   4.887   3.549   0.012
 6095SOL    HW119184   4.854   3.641   7.011
 6095SOL    HW219185   4.848   3.521   0.100
 6096SOL     OW19186   6.213   0.826   3.595
 6096SOL    HW119187   6.293   0.815   3.653
 6096SOL    HW219188   6.226   0.905   3.535
 6097SOL     OW19189   1.889   6.806   2.052
 6097SOL    HW119190   1.882   6.905   2.055
 6097SOL    HW219191   1.955   6.780   1.981
 6098SOL     OW19192   1.448   2.725   6.311
 6098SOL    HW119193   1.405   2.700   6.398
 6098SOL    HW219194   1.547   2.733   6.324
 6099SOL     OW19195   6.705   5.953   0.904
 6099SOL    HW119196   6.793   5.906   0.913
 6099SOL    HW219197   6.645   5.924   0.979
 6100SOL     OW19198   4.622   3.859   0.513
 6100SOL    HW119199   4.549   3.905   0.463
 6100SOL    HW219200   4.654   3.780   0.460
 6101SOL     OW19201   6.023   2.126   4.328
 6101SOL    HW119202   6.065   2.210   4.363
 6101SOL    HW219203   5.981   2.144   4.240
 6102SOL     OW19204   3.259   6.511   3.341
 6102SOL    HW119205   3.328   6.448   3.305
 6102SOL    HW219206   3.270   6.601   3.298
 6103SOL     OW19207   6.894   2.504   2.534
 6103SOL    HW119208   6.815   2.553   2.497
 6103SOL    HW219209   6.864   2.416   2.570
 6104SOL     OW19210   5.984   1.414   5.546
 6104SOL    HW119211   6.007   1.485   5.613
 6104SOL    HW219212   6.024   1.438   5.457
 6105SOL     OW19213   1.695   0.227   5.736
 6105SOL    HW119214   1.731   0.134   5.725
 6105SOL    HW219215   1.637   0.231   5.817
 6106SOL     OW19216   2.213   4.010   5.388
 6106SOL    HW119217   2.272   4.032   5.311
 6106SOL    HW219218   2.140   3.948   5.358
 6107SOL     OW19219   2.382   4.494   4.737
 6107SOL    HW119220   2.296   4.544   4.726
 6107SOL    HW219221   2.370   4.420   4.803
 6108SOL     OW19222   0.423   2.540   1.882
 6108SOL    HW119223   0.379   2.547   1.971
 6108SOL    HW219224   0.403   2.623   1.829
 6109SOL     OW19225   5.262   2.865   5.975
 6109SOL    HW119226   5.323   2.942   5.992
 6109SOL    HW219227   5.184   2.896   5.921
 6110SOL     OW19228   4.205   3.333   0.142
 6110SOL    HW119229   4.277   3.371   0.198
 6110SOL    HW219230   4.131   3.399   0.133
 6111SOL     OW19231   2.268   4.135   2.099
 6111SOL    HW119232   2.233   4.060   2.155
 6111SOL    HW219233   2.274   4.105   2.004
 6112SOL     OW19234   3.413   6.898   2.967
 6112SOL    HW119235   3.449   6.916   3.058
 6112SOL    HW219236   3.331   6.953   2.952
 6113SOL     OW19237   1.519   1.537   6.115
 6113SOL    HW119238   1.560   1.585   6.192
 6113SOL    HW219239   1.455   1.597   6.068
 6114SOL     OW19240   5.085   5.196   0.992
 6114SOL    HW119241   5.005   5.232   0.944
 6114SOL    HW219242   5.087   5.232   1.085
 6115SOL     OW19243   4.590   0.150   3.860
 6115SOL    HW119244   4.665   0.122   3.800
 6115SOL    HW219245   4.545   0.069   3.897
 6116SOL     OW19246   2.605   6.910   0.747
 6116SOL    HW119247   2.666   6.837   0.716
 6116SOL    HW219248   2.608   6.916   0.847
 6117SOL     OW19249   0.428   0.563   5.847
 6117SOL    HW119250   0.410   0.495   5.918
 6117SOL    HW219251   0.525   0.561   5.823
 6118SOL     OW19252   5.995   0.405   1.985
 6118SOL    HW119253   6.021   0.501   1.980
 6118SOL    HW219254   6.073   0.348   1.960
 6119SOL     OW19255   1.341   3.817   5.659
 6119SOL    HW119256   1.323   3.783   5.751
 6119SOL    HW219257   1.296   3.905   5.646
 6120SOL     OW19258   3.781   6.695   4.507
 6120SOL    HW119259   3.704   6.727   4.452
 6120SOL    HW219260   3.759   6.607   4.548
 6121SOL     OW19261   0.583   3.003   5.466
 6121SOL    HW119262   0.591   3.039   5.373
 6121SOL    HW219263   0.486   2.992   5.489
 6122SOL     OW19264   4.094   6.774   1.199
 6122SOL    HW119265   4.109   6.745   1.293
 6122SOL    HW219266   3.999   6.754   1.172
 6123SOL     OW19267   6.250   0.038   6.652
 6123SOL    HW119268   6.154   0.048   6.629
 6123SOL    HW219269   6.280   6.967   6.632
 6124SOL     OW19270   2.191   0.904   6.534
 6124SOL    HW119271   2.261   0.887   6.464
 6124SOL    HW219272   2.230   0.959   6.607
 6125SOL     OW19273   1.102   5.703   0.305
 6125SOL    HW119274   1.072   5.620   0.352
 6125SOL    HW219275   1.196   5.693   0.274
 6126SOL     OW19276   0.188   6.766   4.326
 6126SOL    HW119277   0.222   6.674   4.304
 6126SOL    HW219278   0.193   6.823   4.244
 6127SOL     OW19279   3.772   0.141   1.836
 6127SOL    HW119280   3.847   0.199   1.867
 6127SOL    HW219281   3.690   0.196   1.822
 6128SOL     OW19282   6.638   3.112   6.846
 6128SOL    HW119283   6.612   3.019   6.873
 6128SOL    HW219284   6.571   3.177   6.881
 6129SOL     OW19285   6.747   3.784   2.779
 6129SOL    HW119286   6.676   3.718   2.805
 6129SOL    HW219287   6.704   3.870   2.752
 6130SOL     OW19288   6.147   2.371   3.405
 6130SOL    HW119289   6.175   2.395   3.312
 6130SOL    HW219290   6.171   2.275   3.423
 6131SOL     OW19291   6.487   1.093   5.181
 6131SOL    HW119292   6.496   0.995   5.193
 6131SOL    HW219293   6.575   1.137   5.201
 6132SOL     OW19294   4.871   1.448   0.734
 6132SOL    HW119295   4.835   1.507   0.806
 6132SOL    HW219296   4.798   1.388   0.700
 6133SOL     OW19297   1.022   2.433   2.373
 6133SOL    HW119298   1.042   2.337   2.391
 6133SOL    HW219299   1.066   2.490   2.443
 6134SOL     OW19300   3.756   4.472   6.243
 6134SOL    HW119301   3.746   4.559   6.195
 6134SOL    HW219302   3.826   4.481   6.314
 6135SOL     OW19303   0.330   0.192   2.123
 6135SOL    HW119304   0.264   0.265   2.105
 6135SOL    HW219305   0.343   0.138   2.040
 6136SOL     OW19306   0.787   2.196   2.835
 6136SOL    HW119307   0.861   2.240   2.784
 6136SOL    HW219308   0.822   2.114   2.881
 6137SOL     OW19309   5.856   2.597   3.721
 6137SOL    HW119310   5.846   2.665   3.794
 6137SOL    HW219311   5.784   2.609   3.653
 6138SOL     OW19312   4.838   6.291   2.814
 6138SOL    HW119313   4.870   6.207   2.857
 6138SOL    HW219314   4.738   6.293   2.814
 6139SOL     OW19315   1.394   1.941   6.017
 6139SOL    HW119316   1.467   1.954   5.951
 6139SOL    HW219317   1.416   1.991   6.101
 6140SOL     OW19318   0.396   6.523   1.551
 6140SOL    HW119319   0.386   6.530   1.451
 6140SOL    HW219320   0.308   6.543   1.594
 6141SOL     OW19321   6.588   5.697   6.163
 6141SOL    HW119322   6.544   5.735   6.082
 6141SOL    HW219323   6.565   5.752   6.243
 6142SOL     OW19324   0.613   5.731   0.938
 6142SOL    HW119325   0.694   5.692   0.983
 6142SOL    HW219326   0.594   5.681   0.854
 6143SOL     OW19327   6.933   4.142   0.949
 6143SOL    HW119328   6.841   4.122   0.983
 6143SOL    HW219329   6.937   4.237   0.918
 6144SOL     OW19330   6.501   4.338   3.338
 6144SOL    HW119331   6.415   4.287   3.333
 6144SOL    HW219332   6.483   4.433   3.362
 6145SOL     OW19333   4.472   5.417   3.568
 6145SOL    HW119334   4.440   5.509   3.591
 6145SOL    HW219335   4.428   5.351   3.629
 6146SOL     OW19336   3.164   6.888   3.977
 6146SOL    HW119337   3.065   6.888   3.992
 6146SOL    HW219338   3.183   6.876   3.880
 6147SOL     OW19339   1.277   3.306   4.599
 6147SOL    HW119340   1.266   3.329   4.503
 6147SOL    HW219341   1.366   3.338   4.632
 6148SOL     OW19342   6.668   0.495   4.267
 6148SOL    HW119343   6.575   0.531   4.257
 6148SOL    HW219344   6.665   0.408   4.316
 6149SOL     OW19345   3.522   5.417   1.310
 6149SOL    HW119346   3.458   5.390   1.239
 6149SOL    HW219347   3.472   5.457   1.387
 6150SOL     OW19348   4.404   5.234   6.597
 6150SOL    HW119349   4.405   5.148   6.547
 6150SOL    HW219350   4.470   5.297   6.556
 6151SOL     OW19351   5.853   4.779   5.525
 6151SOL    HW119352   5.878   4.747   5.434
 6151SOL    HW219353   5.762   4.820   5.522
 6152SOL     OW19354   6.499   5.894   5.104
 6152SOL    HW119355   6.482   5.833   5.181
 6152SOL    HW219356   6.411   5.928   5.069
 6153SOL     OW19357   5.443   3.928   1.589
 6153SOL    HW119358   5.525   3.982   1.569
 6153SOL    HW219359   5.447   3.894   1.683
 6154SOL     OW19360   5.830   2.115   2.338
 6154SOL    HW119361   5.930   2.111   2.337
 6154SOL    HW219362   5.795   2.032   2.383
 6155SOL     OW19363   2.051   2.249   4.328
 6155SOL    HW119364   2.132   2.266   4.273
 6155SOL    HW219365   1.986   2.194   4.274
 6156SOL     OW19366   4.212   4.686   1.744
 6156SOL    HW119367   4.197   4.731   1.832
 6156SOL    HW219368   4.286   4.619   1.753
 6157SOL     OW19369   1.117   1.309   4.286
 6157SOL    HW119370   1.056   1.311   4.365
 6157SOL    HW219371   1.211   1.325   4.315
 6158SOL     OW19372   4.424   1.020   5.944
 6158SOL    HW119373   4.424   1.003   6.043
 6158SOL    HW219374   4.332   1.046   5.915
 6159SOL     OW19375   5.048   2.510   1.515
 6159SOL    HW119376   5.126   2.474   1.567
 6159SOL    HW219377   4.964   2.474   1.554
 6160SOL     OW19378   5.088   0.360   6.278
 6160SOL    HW119379   5.149   0.296   6.231
 6160SOL    HW219380   5.083   0.336   6.375
 6161SOL     OW19381   4.936   1.527   4.467
 6161SOL    HW119382   4.865   1.572   4.521
 6161SOL    HW219383   4.995   1.595   4.424
 6162SOL     OW19384   1.589   6.509   3.693
 6162SOL    HW119385   1.588   6.581   3.763
 6162SOL    HW219386   1.512   6.524   3.631
 6163SOL     OW19387   6.258   6.023   1.097
 6163SOL    HW119388   6.223   6.025   1.003
 6163SOL    HW219389   6.188   5.987   1.158
 6164SOL     OW19390   3.373   2.814   1.891
 6164SOL    HW119391   3.456   2.848   1.847
 6164SOL    HW219392   3.374   2.714   1.891
 6165SOL     OW19393   4.704   0.950   6.483
 6165SOL    HW119394   4.782   0.987   6.533
 6165SOL    HW219395   4.693   1.000   6.397
 6166SOL     OW19396   4.562   1.332   6.082
 6166SOL    HW119397   4.616   1.353   6.163
 6166SOL    HW219398   4.600   1.253   6.035
 6167SOL     OW19399   0.531   3.836   3.643
 6167SOL    HW119400   0.443   3.879   3.665
 6167SOL    HW219401   0.556   3.772   3.716
 6168SOL     OW19402   0.643   3.321   0.742
 6168SOL    HW119403   0.688   3.233   0.727
 6168SOL    HW219404   0.704   3.381   0.794
 6169SOL     OW19405   1.929   2.707   1.247
 6169SOL    HW119406   1.845   2.742   1.206
 6169SOL    HW219407   1.974   2.781   1.298
 6170SOL     OW19408   1.141   3.569   5.068
 6170SOL    HW119409   1.236   3.538   5.066
 6170SOL    HW219410   1.132   3.651   5.011
 6171SOL     OW19411   0.295   2.839   0.573
 6171SOL    HW119412   0.317   2.821   0.669
 6171SOL    HW219413   0.341   2.772   0.515
 6172SOL     OW19414   2.211   2.816   2.260
 6172SOL    HW119415   2.173   2.908   2.252
 6172SOL    HW219416   2.205   2.770   2.171
 6173SOL     OW19417   0.490   5.472   2.774
 6173SOL    HW119418   0.461   5.567   2.779
 6173SOL    HW219419   0.575   5.466   2.721
 6174SOL     OW19420   5.006   5.910   3.979
 6174SOL    HW119421   4.974   5.964   3.901
 6174SOL    HW219422   4.975   5.815   3.969
 6175SOL     OW19423   3.573   0.025   3.329
 6175SOL    HW119424   3.508   0.079   3.382
 6175SOL    HW219425   3.598   0.075   3.246
 6176SOL     OW19426   5.176   4.701   5.426
 6176SOL    HW119427   5.142   4.615   5.464
 6176SOL    HW219428   5.158   4.704   5.328
 6177SOL     OW19429   5.979   1.144   1.529
 6177SOL    HW119430   5.917   1.155   1.451
 6177SOL    HW219431   6.058   1.089   1.501
 6178SOL     OW19432   5.313   4.686   2.202
 6178SOL    HW119433   5.373   4.693   2.122
 6178SOL    HW219434   5.227   4.644   2.174
 6179SOL     OW19435   6.479   4.522   3.793
 6179SOL    HW119436   6.387   4.560   3.783
 6179SOL    HW219437   6.524   4.520   3.704
 6180SOL     OW19438   2.659   4.603   0.311
 6180SOL    HW119439   2.673   4.507   0.335
 6180SOL    HW219440   2.563   4.627   0.326
 6181SOL     OW19441   4.660   6.634   6.139
 6181SOL    HW119442   4.713   6.634   6.223
 6181SOL    HW219443   4.590   6.562   6.143
 6182SOL     OW19444   4.673   2.862   5.099
 6182SOL    HW119445   4.719   2.928   5.158
 6182SOL    HW219446   4.681   2.890   5.004
 6183SOL     OW19447   1.217   2.220   3.742
 6183SOL    HW119448   1.298   2.245   3.689
 6183SOL    HW219449   1.238   2.142   3.801
 6184SOL     OW19450   3.151   6.077   6.964
 6184SOL    HW119451   3.141   6.173   6.989
 6184SOL    HW219452   3.063   6.041   6.932
 6185SOL     OW19453   7.018   4.113   6.558
 6185SOL    HW119454   6.958   4.055   6.612
 6185SOL    HW219455   6.965   4.159   6.486
 6186SOL     OW19456   6.534   0.844   0.205
 6186SOL    HW119457   6.529   0.904   0.284
 6186SOL    HW219458   6.487   0.886   0.127
 6187SOL     OW19459   5.366   4.241   4.247
 6187SOL    HW119460   5.440   4.236   4.315
 6187SOL    HW219461   5.295   4.175   4.271
 6188SOL     OW19462   1.634   1.294   6.096
 6188SOL    HW119463   1.679   1.280   6.185
 6188SOL    HW219464   1.565   1.366   6.104
 6189SOL     OW19465   4.338   4.985   2.371
 6189SOL    HW119466   4.416   4.975   2.310
 6189SOL    HW219467   4.342   4.916   2.443
 6190SOL     OW19468   0.478   3.857   5.704
 6190SOL    HW119469   0.448   3.775   5.656
 6190SOL    HW219470   0.498   3.929   5.638
 6191SOL     OW19471   2.558   2.560   6.822
 6191SOL    HW119472   2.615   2.502   6.764
 6191SOL    HW219473   2.602   2.649   6.834
 6192SOL     OW19474   2.897   2.079   5.988
 6192SOL    HW119475   2.957   2.097   5.910
 6192SOL    HW219476   2.884   1.980   5.998
 6193SOL     OW19477   4.906   5.953   1.426
 6193SOL    HW119478   4.987   5.897   1.442
 6193SOL    HW219479   4.888   5.959   1.328
 6194SOL     OW19480   0.282   0.703   6.611
 6194SOL    HW119481   0.374   0.666   6.610
 6194SOL    HW219482   0.217   0.631   6.586
 6195SOL     OW19483   4.424   5.675   4.612
 6195SOL    HW119484   4.503   5.627   4.575
 6195SOL    HW219485   4.412   5.762   4.565
 6196SOL     OW19486   5.822   4.087   1.316
 6196SOL    HW119487   5.743   4.148   1.326
 6196SOL    HW219488   5.815   4.012   1.381
 6197SOL     OW19489   2.982   5.771   1.208
 6197SOL    HW119490   3.039   5.852   1.222
 6197SOL    HW219491   2.970   5.723   1.295
 6198SOL     OW19492   4.115   6.843   0.738
 6198SOL    HW119493   4.171   6.853   0.820
 6198SOL    HW219494   4.160   6.781   0.674
 6199SOL     OW19495   0.958   1.078   0.238
 6199SOL    HW119496   0.962   1.069   0.337
 6199SOL    HW219497   0.865   1.103   0.211
 6200SOL     OW19498   1.153   1.259   5.763
 6200SOL    HW119499   1.237   1.240   5.814
 6200SOL    HW219500   1.170   1.332   5.697
 6201SOL     OW19501   1.065   3.757   5.932
 6201SOL    HW119502   1.017   3.837   5.896
 6201SOL    HW219503   1.161   3.760   5.905
 6202SOL     OW19504   4.927   1.557   1.595
 6202SOL    HW119505   4.833   1.523   1.591
 6202SOL    HW219506   4.981   1.514   1.522
 6203SOL     OW19507   6.225   5.836   2.168
 6203SOL    HW119508   6.267   5.819   2.257
 6203SOL    HW219509   6.173   5.755   2.140
 6204SOL     OW19510   0.787   6.023   4.691
 6204SOL    HW119511   0.822   5.959   4.623
 6204SOL    HW219512   0.699   5.989   4.727
 6205SOL     OW19513   6.229   5.523   1.468
 6205SOL    HW119514   6.291   5.571   1.530
 6205SOL    HW219515   6.137   5.563   1.475
 6206SOL     OW19516   6.519   1.729   2.523
 6206SOL    HW119517   6.465   1.785   2.460
 6206SOL    HW219518   6.613   1.723   2.489
 6207SOL     OW19519   1.970   5.430   5.179
 6207SOL    HW119520   1.878   5.452   5.149
 6207SOL    HW219521   1.983   5.331   5.178
 6208SOL     OW19522   3.788   2.476   5.308
 6208SOL    HW119523   3.838   2.551   5.264
 6208SOL    HW219524   3.764   2.502   5.401
 6209SOL     OW19525   3.229   5.565   6.854
 6209SOL    HW119526   3.180   5.625   6.918
 6209SOL    HW219527   3.270   5.620   6.781
 6210SOL     OW19528   4.863   3.987   3.237
 6210SOL    HW119529   4.862   3.943   3.147
 6210SOL    HW219530   4.876   4.085   3.226
 6211SOL     OW19531   2.802   6.345   5.993
 6211SOL    HW119532   2.834   6.327   6.086
 6211SOL    HW219533   2.874   6.389   5.940
 6212SOL     OW19534   3.052   5.017   4.820
 6212SOL    HW119535   2.982   5.085   4.842
 6212SOL    HW219536   3.053   4.947   4.892
 6213SOL     OW19537   5.123   0.155   0.322
 6213SOL    HW119538   5.028   0.123   0.324
 6213SOL    HW219539   5.184   0.078   0.304
 6214SOL     OW19540   5.730   5.598   5.414
 6214SOL    HW119541   5.701   5.692   5.396
 6214SOL    HW219542   5.651   5.543   5.440
 6215SOL     OW19543   3.873   2.445   6.945
 6215SOL    HW119544   3.963   2.438   6.988
 6215SOL    HW219545   3.804   2.463   7.016
 6216SOL     OW19546   5.753   2.489   2.658
 6216SOL    HW119547   5.785   2.415   2.718
 6216SOL    HW219548   5.668   2.527   2.694
 6217SOL     OW19549   0.641   3.374   2.179
 6217SOL    HW119550   0.582   3.361   2.260
 6217SOL    HW219551   0.668   3.470   2.173
 6218SOL     OW19552   3.603   0.002   6.609
 6218SOL    HW119553   3.613   6.980   6.698
 6218SOL    HW219554   3.670   0.076   6.601
 6219SOL     OW19555   1.085   1.872   4.781
 6219SOL    HW119556   1.071   1.810   4.704
 6219SOL    HW219557   1.180   1.902   4.783
 6220SOL     OW19558   2.864   1.637   5.290
 6220SOL    HW119559   2.907   1.717   5.333
 6220SOL    HW219560   2.813   1.666   5.209
 6221SOL     OW19561   5.490   0.184   0.193
 6221SOL    HW119562   5.424   0.112   0.213
 6221SOL    HW219563   5.583   0.148   0.207
 6222SOL     OW19564   1.045   0.150   2.150
 6222SOL    HW119565   0.974   0.180   2.087
 6222SOL    HW219566   1.080   0.228   2.202
 6223SOL     OW19567   1.703   5.055   3.358
 6223SOL    HW119568   1.773   5.006   3.306
 6223SOL    HW219569   1.708   5.028   3.454
 6224SOL     OW19570   4.287   1.879   5.846
 6224SOL    HW119571   4.300   1.814   5.921
 6224SOL    HW219572   4.189   1.888   5.827
 6225SOL     OW19573   3.451   2.063   6.260
 6225SOL    HW119574   3.519   2.137   6.261
 6225SOL    HW219575   3.428   2.037   6.353
 6226SOL     OW19576   0.696   1.681   4.045
 6226SOL    HW119577   0.692   1.725   3.956
 6226SOL    HW219578   0.762   1.729   4.104
 6227SOL     OW19579   3.907   4.958   5.469
 6227SOL    HW119580   3.929   4.886   5.536
 6227SOL    HW219581   3.919   4.922   5.377
 6228SOL     OW19582   0.229   2.955   2.585
 6228SOL    HW119583   0.289   2.876   2.582
 6228SOL    HW219584   0.232   2.997   2.676
 6229SOL     OW19585   0.870   2.060   5.311
 6229SOL    HW119586   0.929   1.997   5.261
 6229SOL    HW219587   0.819   2.117   5.246
 6230SOL     OW19588   0.661   2.368   4.102
 6230SOL    HW119589   0.582   2.338   4.048
 6230SOL    HW219590   0.732   2.403   4.040
 6231SOL     OW19591   5.862   5.349   0.330
 6231SOL    HW119592   5.796   5.399   0.386
 6231SOL    HW219593   5.814   5.304   0.255
 6232SOL     OW19594   6.548   1.460   0.557
 6232SOL    HW119595   6.475   1.423   0.614
 6232SOL    HW219596   6.636   1.427   0.591
 6233SOL     OW19597   6.272   2.989   1.635
 6233SOL    HW119598   6.273   3.016   1.539
 6233SOL    HW219599   6.347   2.924   1.652
 6234SOL     OW19600   6.913   6.904   5.516
 6234SOL    HW119601   6.872   6.830   5.463
 6234SOL    HW219602   7.008   6.880   5.537
 6235SOL     OW19603   0.402   0.316   1.211
 6235SOL    HW119604   0.321   0.267   1.179
 6235SOL    HW219605   0.385   0.353   1.302
 6236SOL     OW19606   0.652   4.221   0.851
 6236SOL    HW119607   0.631   4.180   0.763
 6236SOL    HW219608   0.695   4.154   0.911
 6237SOL     OW19609   3.399   0.104   0.006
 6237SOL    HW119610   3.463   0.144   0.071
 6237SOL    HW219611   3.388   0.007   0.026
 6238SOL     OW19612   4.936   6.085   2.947
 6238SOL    HW119613   4.908   6.004   2.998
 6238SOL    HW219614   5.033   6.078   2.922
 6239SOL     OW19615   3.351   1.356   1.329
 6239SOL    HW119616   3.287   1.432   1.330
 6239SOL    HW219617   3.437   1.385   1.372
 6240SOL     OW19618   2.938   3.886   4.988
 6240SOL    HW119619   3.020   3.842   4.953
 6240SOL    HW219620   2.900   3.946   4.917
 6241SOL     OW19621   3.254   0.595   2.953
 6241SOL    HW119622   3.254   0.495   2.964
 6241SOL    HW219623   3.160   0.628   2.952
 6242SOL     OW19624   4.061   6.705   3.198
 6242SOL    HW119625   3.980   6.661   3.238
 6242SOL    HW219626   4.131   6.636   3.180
 6243SOL     OW19627   0.213   6.565   5.419
 6243SOL    HW119628   0.161   6.600   5.341
 6243SOL    HW219629   0.303   6.609   5.421
 6244SOL     OW19630   5.207   3.519   3.433
 6244SOL    HW119631   5.260   3.584   3.487
 6244SOL    HW219632   5.113   3.553   3.422
 6245SOL     OW19633   1.494   3.970   1.676
 6245SOL    HW119634   1.460   3.888   1.631
 6245SOL    HW219635   1.564   4.013   1.619
 6246SOL     OW19636   1.180   1.375   4.913
 6246SOL    HW119637   1.199   1.438   4.989
 6246SOL    HW219638   1.082   1.375   4.895
 6247SOL     OW19639   1.447   6.024   3.444
 6247SOL    HW119640   1.348   6.009   3.449
 6247SOL    HW219641   1.492   5.976   3.520
 6248SOL     OW19642   3.752   3.801   0.200
 6248SOL    HW119643   3.778   3.804   0.297
 6248SOL    HW219644   3.763   3.892   0.160
 6249SOL     OW19645   6.839   3.298   0.828
 6249SOL    HW119646   6.868   3.203   0.831
 6249SOL    HW219647   6.897   3.349   0.764
 6250SOL     OW19648   6.486   6.461   1.096
 6250SOL    HW119649   6.577   6.499   1.079
 6250SOL    HW219650   6.478   6.434   1.192
 6251SOL     OW19651   4.210   5.980   5.246
 6251SOL    HW119652   4.112   6.001   5.245
 6251SOL    HW219653   4.224   5.883   5.266
 6252SOL     OW19654   2.795   4.475   6.181
 6252SOL    HW119655   2.886   4.432   6.180
 6252SOL    HW219656   2.781   4.523   6.267
 6253SOL     OW19657   2.528   4.914   4.285
 6253SOL    HW119658   2.587   4.848   4.332
 6253SOL    HW219659   2.451   4.866   4.243
 6254SOL     OW19660   5.925   0.852   1.263
 6254SOL    HW119661   5.833   0.882   1.286
 6254SOL    HW219662   5.991   0.897   1.324
 6255SOL     OW19663   2.775   1.768   1.233
 6255SOL    HW119664   2.806   1.673   1.238
 6255SOL    HW219665   2.676   1.771   1.244
 6256SOL     OW19666   4.020   5.478   1.920
 6256SOL    HW119667   3.954   5.411   1.886
 6256SOL    HW219668   3.984   5.570   1.906
 6257SOL     OW19669   3.960   2.940   6.920
 6257SOL    HW119670   3.963   3.036   6.948
 6257SOL    HW219671   3.912   2.932   6.832
 6258SOL     OW19672   3.318   6.536   4.390
 6258SOL    HW119673   3.305   6.567   4.296
 6258SOL    HW219674   3.329   6.437   4.391
 6259SOL     OW19675   1.809   0.564   6.436
 6259SOL    HW119676   1.850   0.556   6.527
 6259SOL    HW219677   1.880   0.592   6.371
 6260SOL     OW19678   3.298   6.324   0.064
 6260SOL    HW119679   3.392   6.319   0.031
 6260SOL    HW219680   3.298   6.338   0.163
 6261SOL     OW19681   5.232   0.326   0.159
 6261SOL    HW119682   5.328   0.320   0.186
 6261SOL    HW219683   5.180   0.250   0.200
 6262SOL     OW19684   1.991   5.690   1.993
 6262SOL    HW119685   1.980   5.783   2.026
 6262SOL    HW219686   1.987   5.689   1.893
 6263SOL     OW19687   1.076   6.649   4.652
 6263SOL    HW119688   1.122   6.579   4.706
 6263SOL    HW219689   0.983   6.619   4.629
 6264SOL     OW19690   2.213   0.269   2.067
 6264SOL    HW119691   2.196   0.237   1.974
 6264SOL    HW219692   2.276   0.346   2.064
 6265SOL     OW19693   4.022   3.433   0.779
 6265SOL    HW119694   4.034   3.377   0.697
 6265SOL    HW219695   4.111   3.446   0.824
 6266SOL     OW19696   4.689   0.192   3.382
 6266SOL    HW119697   4.630   0.113   3.366
 6266SOL    HW219698   4.634   0.268   3.418
 6267SOL     OW19699   2.226   6.964   4.977
 6267SOL    HW119700   2.181   0.011   4.921
 6267SOL    HW219701   2.208   6.873   4.939
 6268SOL     OW19702   2.596   0.481   1.866
 6268SOL    HW119703   2.647   0.517   1.788
 6268SOL    HW219704   2.637   0.394   1.895
 6269SOL     OW19705   6.913   0.404   2.389
 6269SOL    HW119706   6.915   0.442   2.481
 6269SOL    HW219707   7.006   0.383   2.359
 6270SOL     OW19708   0.255   0.144   6.658
 6270SOL    HW119709   0.191   0.067   6.657
 6270SOL    HW219710   0.327   0.128   6.591
 6271SOL     OW19711   6.040   2.669   5.620
 6271SOL    HW119712   6.040   2.576   5.657
 6271SOL    HW219713   5.995   2.668   5.530
 6272SOL     OW19714   0.442   2.081   0.573
 6272SOL    HW119715   0.444   1.996   0.625
 6272SOL    HW219716   0.401   2.064   0.483
 6273SOL     OW19717   0.560   6.465   2.774
 6273SOL    HW119718   0.558   6.491   2.677
 6273SOL    HW219719   0.621   6.387   2.786
 6274SOL     OW19720   3.385   6.985   4.379
 6274SOL    HW119721   3.299   6.961   4.334
 6274SOL    HW219722   3.370   6.996   4.477
 6275SOL     OW19723   1.758   6.371   0.082
 6275SOL    HW119724   1.748   6.465   0.116
 6275SOL    HW219725   1.702   6.359   0.000
 6276SOL     OW19726   2.749   5.712   3.098
 6276SOL    HW119727   2.803   5.629   3.081
 6276SOL    HW219728   2.782   5.785   3.037
 6277SOL     OW19729   4.789   3.226   0.767
 6277SOL    HW119730   4.786   3.247   0.864
 6277SOL    HW219731   4.714   3.274   0.720
 6278SOL     OW19732   3.996   0.541   4.683
 6278SOL    HW119733   3.941   0.614   4.641
 6278SOL    HW219734   3.939   0.459   4.694
 6279SOL     OW19735   3.434   6.189   0.408
 6279SOL    HW119736   3.401   6.105   0.452
 6279SOL    HW219737   3.512   6.225   0.459
 6280SOL     OW19738   0.455   0.932   6.541
 6280SOL    HW119739   0.379   0.871   6.559
 6280SOL    HW219740   0.500   0.955   6.628
 6281SOL     OW19741   6.476   4.941   4.298
 6281SOL    HW119742   6.552   4.902   4.350
 6281SOL    HW219743   6.414   4.868   4.269
 6282SOL     OW19744   6.476   4.372   5.609
 6282SOL    HW119745   6.460   4.456   5.661
 6282SOL    HW219746   6.558   4.327   5.643
 6283SOL     OW19747   0.152   4.111   4.073
 6283SOL    HW119748   0.137   4.036   4.137
 6283SOL    HW219749   0.237   4.096   4.023
 6284SOL     OW19750   1.571   5.187   6.278
 6284SOL    HW119751   1.479   5.147   6.276
 6284SOL    HW219752   1.564   5.286   6.268
 6285SOL     OW19753   1.396   3.246   2.968
 6285SOL    HW119754   1.393   3.240   3.068
 6285SOL    HW219755   1.314   3.203   2.929
 6286SOL     OW19756   0.117   3.188   4.553
 6286SOL    HW119757   0.212   3.157   4.556
 6286SOL    HW219758   0.078   3.168   4.463
 6287SOL     OW19759   3.526   4.822   5.329
 6287SOL    HW119760   3.428   4.824   5.348
 6287SOL    HW219761   3.544   4.867   5.242
 6288SOL     OW19762   5.649   4.774   1.623
 6288SOL    HW119763   5.644   4.695   1.685
 6288SOL    HW219764   5.693   4.746   1.537
 6289SOL     OW19765   2.220   4.764   6.765
 6289SOL    HW119766   2.274   4.683   6.787
 6289SOL    HW219767   2.281   4.842   6.749
 6290SOL     OW19768   5.685   5.384   6.044
 6290SOL    HW119769   5.681   5.480   6.073
 6290SOL    HW219770   5.772   5.368   5.996
 6291SOL     OW19771   3.697   4.135   3.925
 6291SOL    HW119772   3.634   4.124   3.848
 6291SOL    HW219773   3.749   4.050   3.937
 6292SOL     OW19774   2.602   2.376   5.514
 6292SOL    HW119775   2.535   2.303   5.499
 6292SOL    HW219776   2.659   2.385   5.432
 6293SOL     OW19777   4.885   1.713   0.666
 6293SOL    HW119778   4.788   1.733   0.682
 6293SOL    HW219779   4.902   1.616   0.679
 6294SOL     OW19780   4.248   0.307   3.305
 6294SOL    HW119781   4.305   0.225   3.301
 6294SOL    HW219782   4.151   0.281   3.305
 6295SOL     OW19783   5.451   4.044   4.495
 6295SOL    HW119784   5.502   3.985   4.432
 6295SOL    HW219785   5.474   4.019   4.589
 6296SOL     OW19786   0.010   4.592   5.863
 6296SOL    HW119787   0.048   4.530   5.932
 6296SOL    HW219788   0.081   4.656   5.832
 6297SOL     OW19789   6.041   0.500   5.224
 6297SOL    HW119790   6.054   0.481   5.126
 6297SOL    HW219791   5.945   0.521   5.241
 6298SOL     OW19792   0.719   3.437   6.429
 6298SOL    HW119793   0.651   3.411   6.360
 6298SOL    HW219794   0.674   3.453   6.516
 6299SOL     OW19795   6.148   3.207   2.035
 6299SOL    HW119796   6.127   3.295   2.078
 6299SOL    HW219797   6.087   3.136   2.072
 6300SOL     OW19798   6.327   0.938   6.976
 6300SOL    HW119799   6.387   0.859   6.988
 6300SOL    HW219800   6.383   1.020   6.960
 6301SOL     OW19801   2.735   6.637   0.263
 6301SOL    HW119802   2.727   6.592   0.352
 6301SOL    HW219803   2.806   6.708   0.268
 6302SOL     OW19804   1.954   2.147   4.801
 6302SOL    HW119805   1.967   2.211   4.878
 6302SOL    HW219806   1.856   2.141   4.780
 6303SOL     OW19807   0.398   0.171   5.726
 6303SOL    HW119808   0.418   0.211   5.816
 6303SOL    HW219809   0.300   0.152   5.719
 6304SOL     OW19810   3.601   1.398   2.030
 6304SOL    HW119811   3.640   1.363   1.945
 6304SOL    HW219812   3.507   1.426   2.016
 6305SOL     OW19813   6.175   6.006   0.208
 6305SOL    HW119814   6.182   6.105   0.220
 6305SOL    HW219815   6.079   5.981   0.195
 6306SOL     OW19816   0.079   3.863   4.193
 6306SOL    HW119817   7.020   3.824   4.236
 6306SOL    HW219818   0.090   3.825   4.101
 6307SOL     OW19819   3.357   3.555   3.503
 6307SOL    HW119820   3.315   3.493   3.436
 6307SOL    HW219821   3.431   3.605   3.459
 6308SOL     OW19822   1.275   2.384   4.843
 6308SOL    HW119823   1.327   2.422   4.767
 6308SOL    HW219824   1.333   2.378   4.924
 6309SOL     OW19825   6.884   6.418   4.325
 6309SOL    HW119826   6.947   6.451   4.255
 6309SOL    HW219827   6.808   6.482   4.335
 6310SOL     OW19828   1.262   6.539   2.648
 6310SOL    HW119829   1.190   6.604   2.674
 6310SOL    HW219830   1.332   6.586   2.594
 6311SOL     OW19831   5.080   2.097   5.584
 6311SOL    HW119832   5.017   2.174   5.596
 6311SOL    HW219833   5.174   2.131   5.584
 6312SOL     OW19834   0.942   6.814   5.278
 6312SOL    HW119835   0.851   6.778   5.257
 6312SOL    HW219836   0.963   6.796   5.374
 6313SOL     OW19837   6.531   6.335   3.701
 6313SOL    HW119838   6.464   6.400   3.664
 6313SOL    HW219839   6.538   6.347   3.800
 6314SOL     OW19840   3.721   6.910   1.989
 6314SOL    HW119841   3.633   6.885   2.028
 6314SOL    HW219842   3.713   6.998   1.942
 6315SOL     OW19843   3.284   1.952   5.925
 6315SOL    HW119844   3.289   2.051   5.938
 6315SOL    HW219845   3.259   1.931   5.831
 6316SOL     OW19846   5.225   2.362   5.423
 6316SOL    HW119847   5.275   2.296   5.480
 6316SOL    HW219848   5.168   2.313   5.358
 6317SOL     OW19849   5.077   4.559   2.169
 6317SOL    HW119850   5.039   4.513   2.088
 6317SOL    HW219851   5.057   4.506   2.251
 6318SOL     OW19852   4.656   0.671   6.068
 6318SOL    HW119853   4.702   0.719   5.993
 6318SOL    HW219854   4.720   0.609   6.113
 6319SOL     OW19855   6.808   2.418   5.333
 6319SOL    HW119856   6.776   2.372   5.416
 6319SOL    HW219857   6.731   2.437   5.273
 6320SOL     OW19858   0.031   6.575   4.819
 6320SOL    HW119859   0.106   6.514   4.842
 6320SOL    HW219860   6.988   6.527   4.761
 6321SOL     OW19861   4.370   3.191   0.681
 6321SOL    HW119862   4.288   3.238   0.648
 6321SOL    HW219863   4.435   3.181   0.606
 6322SOL     OW19864   2.890   2.717   0.829
 6322SOL    HW119865   2.821   2.729   0.900
 6322SOL    HW219866   2.869   2.776   0.751
 6323SOL     OW19867   1.217   2.138   1.989
 6323SOL    HW119868   1.141   2.190   1.949
 6323SOL    HW219869   1.298   2.150   1.933
 6324SOL     OW19870   3.965   1.024   0.563
 6324SOL    HW119871   3.999   1.026   0.657
 6324SOL    HW219872   4.036   0.987   0.503
 6325SOL     OW19873   1.683   3.194   2.654
 6325SOL    HW119874   1.674   3.254   2.734
 6325SOL    HW219875   1.680   3.250   2.571
 6326SOL     OW19876   5.170   4.887   0.272
 6326SOL    HW119877   5.239   4.948   0.233
 6326SOL    HW219878   5.143   4.819   0.204
 6327SOL     OW19879   6.963   2.135   4.078
 6327SOL    HW119880   7.013   2.095   4.001
 6327SOL    HW219881   7.018   2.124   4.162
 6328SOL     OW19882   4.479   3.368   6.914
 6328SOL    HW119883   4.549   3.303   6.884
 6328SOL    HW219884   4.517   3.426   6.986
 6329SOL     OW19885   1.309   2.661   4.848
 6329SOL    HW119886   1.223   2.613   4.864
 6329SOL    HW219887   1.339   2.704   4.934
 6330SOL     OW19888   5.802   6.800   2.035
 6330SOL    HW119889   5.871   6.873   2.029
 6330SOL    HW219890   5.735   6.824   2.106
 6331SOL     OW19891   0.062   3.991   4.806
 6331SOL    HW119892   0.114   3.917   4.850
 6331SOL    HW219893   0.103   4.011   4.718
 6332SOL     OW19894   0.785   2.467   1.147
 6332SOL    HW119895   0.740   2.457   1.236
 6332SOL    HW219896   0.843   2.549   1.147
 6333SOL     OW19897   5.168   0.232   5.417
 6333SOL    HW119898   5.251   0.224   5.472
 6333SOL    HW219899   5.163   0.155   5.354
 6334SOL     OW19900   3.062   0.523   2.348
 6334SOL    HW119901   2.963   0.511   2.346
 6334SOL    HW219902   3.103   0.456   2.410
 6335SOL     OW19903   4.057   0.655   0.477
 6335SOL    HW119904   4.007   0.655   0.564
 6335SOL    HW219905   4.141   0.707   0.487
 6336SOL     OW19906   0.404   2.094   6.653
 6336SOL    HW119907   0.346   2.090   6.572
 6336SOL    HW219908   0.377   2.172   6.709
 6337SOL     OW19909   4.136   5.135   4.545
 6337SOL    HW119910   4.100   5.048   4.512
 6337SOL    HW219911   4.119   5.206   4.477
 6338SOL     OW19912   2.484   2.621   3.983
 6338SOL    HW119913   2.564   2.567   4.007
 6338SOL    HW219914   2.460   2.681   4.060
 6339SOL     OW19915   0.617   3.312   4.133
 6339SOL    HW119916   0.652   3.402   4.160
 6339SOL    HW219917   0.575   3.269   4.213
 6340SOL     OW19918   2.443   4.419   1.092
 6340SOL    HW119919   2.532   4.386   1.064
 6340SOL    HW219920   2.374   4.349   1.076
 6341SOL     OW19921   6.583   3.236   4.873
 6341SOL    HW119922   6.545   3.164   4.814
 6341SOL    HW219923   6.628   3.304   4.815
 6342SOL     OW19924   3.104   1.249   0.866
 6342SOL    HW119925   3.171   1.270   0.937
 6342SOL    HW219926   3.096   1.326   0.803
 6343SOL     OW19927   3.780   0.464   6.996
 6343SOL    HW119928   3.737   0.551   7.021
 6343SOL    HW219929   3.788   0.458   6.897
 6344SOL     OW19930   4.749   2.374   3.929
 6344SOL    HW119931   4.820   2.318   3.972
 6344SOL    HW219932   4.788   2.461   3.898
 6345SOL     OW19933   5.180   2.790   2.080
 6345SOL    HW119934   5.146   2.760   1.991
 6345SOL    HW219935   5.112   2.771   2.151
 6346SOL     OW19936   0.181   5.323   4.722
 6346SOL    HW119937   0.275   5.317   4.756
 6346SOL    HW219938   0.125   5.376   4.786
 6347SOL     OW19939   1.872   1.444   0.497
 6347SOL    HW119940   1.898   1.391   0.577
 6347SOL    HW219941   1.813   1.520   0.524
 6348SOL     OW19942   1.327   3.140   6.787
 6348SOL    HW119943   1.406   3.168   6.732
 6348SOL    HW219944   1.274   3.221   6.810
 6349SOL     OW19945   2.082   1.071   1.093
 6349SOL    HW119946   2.142   1.083   1.014
 6349SOL    HW219947   2.126   1.108   1.174
 6350SOL     OW19948   0.893   5.373   4.169
 6350SOL    HW119949   0.864   5.418   4.254
 6350SOL    HW219950   0.819   5.314   4.137
 6351SOL     OW19951   6.020   3.248   3.567
 6351SOL    HW119952   6.013   3.346   3.588
 6351SOL    HW219953   6.053   3.200   3.648
 6352SOL     OW19954   2.614   0.515   4.906
 6352SOL    HW119955   2.575   0.429   4.874
 6352SOL    HW219956   2.646   0.503   5.000
 6353SOL     OW19957   1.391   5.928   5.986
 6353SOL    HW119958   1.380   5.922   5.886
 6353SOL    HW219959   1.434   6.015   6.010
 6354SOL     OW19960   3.357   5.926   2.980
 6354SOL    HW119961   3.285   5.859   2.997
 6354SOL    HW219962   3.416   5.895   2.905
 6355SOL     OW19963   3.159   5.312   6.960
 6355SOL    HW119964   3.176   5.401   6.918
 6355SOL    HW219965   3.199   5.240   6.904
 6356SOL     OW19966   5.526   4.661   0.766
 6356SOL    HW119967   5.455   4.641   0.833
 6356SOL    HW219968   5.616   4.643   0.806
 6357SOL     OW19969   5.802   4.077   2.391
 6357SOL    HW119970   5.813   4.040   2.483
 6357SOL    HW219971   5.755   4.010   2.333
 6358SOL     OW19972   0.165   1.775   6.378
 6358SOL    HW119973   0.142   1.688   6.422
 6358SOL    HW219974   0.226   1.827   6.437
 6359SOL     OW19975   6.028   6.595   0.214
 6359SOL    HW119976   5.984   6.662   0.153
 6359SOL    HW219977   5.977   6.590   0.300
 6360SOL     OW19978   0.922   3.646   4.841
 6360SOL    HW119979   0.970   3.713   4.897
 6360SOL    HW219980   0.979   3.565   4.829
 6361SOL     OW19981   0.948   1.026   0.498
 6361SOL    HW119982   1.036   0.986   0.524
 6361SOL    HW219983   0.891   1.038   0.580
 6362SOL     OW19984   0.668   5.666   6.123
 6362SOL    HW119985   0.596   5.604   6.089
 6362SOL    HW219986   0.758   5.628   6.100
 6363SOL     OW19987   2.645   5.718   3.553
 6363SOL    HW119988   2.651   5.749   3.458
 6363SOL    HW219989   2.678   5.790   3.614
 6364SOL     OW19990   2.938   2.183   5.596
 6364SOL    HW119991   2.887   2.248   5.653
 6364SOL    HW219992   2.875   2.116   5.558
 6365SOL     OW19993   5.052   6.240   4.009
 6365SOL    HW119994   5.123   6.299   3.970
 6365SOL    HW219995   5.088   6.193   4.090
 6366SOL     OW19996   0.719   5.744   5.394
 6366SOL    HW119997   0.760   5.724   5.482
 6366SOL    HW219998   0.728   5.841   5.373
 6367SOL     OW19999   3.603   2.124   3.200
 6367SOL    HW120000   3.627   2.102   3.105
 6367SOL    HW220001   3.506   2.105   3.214
 6368SOL     OW20002   3.947   4.917   4.157
 6368SOL    HW120003   4.004   4.843   4.193
 6368SOL    HW220004   3.972   4.934   4.062
 6369SOL     OW20005   1.352   0.679   4.529
 6369SOL    HW120006   1.254   0.662   4.517
 6369SOL    HW220007   1.370   0.708   4.623
 6370SOL     OW20008   5.316   3.720   3.594
 6370SOL    HW120009   5.264   3.748   3.675
 6370SOL    HW220010   5.299   3.785   3.520
 6371SOL     OW20011   5.598   4.764   3.082
 6371SOL    HW120012   5.691   4.743   3.113
 6371SOL    HW220013   5.587   4.863   3.071
 6372SOL     OW20014   1.113   1.214   2.031
 6372SOL    HW120015   1.110   1.150   2.108
 6372SOL    HW220016   1.144   1.303   2.062
 6373SOL     OW20017   5.338   4.493   3.082
 6373SOL    HW120018   5.320   4.553   3.004
 6373SOL    HW220019   5.346   4.398   3.050
 6374SOL     OW20020   4.162   3.422   1.323
 6374SOL    HW120021   4.259   3.400   1.316
 6374SOL    HW220022   4.120   3.366   1.394
 6375SOL     OW20023   0.160   2.762   2.098
 6375SOL    HW120024   0.227   2.765   2.172
 6375SOL    HW220025   0.068   2.772   2.136
 6376SOL     OW20026   4.585   2.457   6.444
 6376SOL    HW120027   4.598   2.526   6.515
 6376SOL    HW220028   4.495   2.469   6.401
 6377SOL     OW20029   6.303   1.330   5.157
 6377SOL    HW120030   6.268   1.358   5.067
 6377SOL    HW220031   6.377   1.263   5.145
 6378SOL     OW20032   5.576   5.033   3.768
 6378SOL    HW120033   5.612   5.038   3.675
 6378SOL    HW220034   5.621   5.100   3.826
 6379SOL     OW20035   0.605   4.289   5.034
 6379SOL    HW120036   0.659   4.364   5.071
 6379SOL    HW220037   0.510   4.319   5.023
 6380SOL     OW20038   0.372   1.977   5.088
 6380SOL    HW120039   0.332   1.989   4.997
 6380SOL    HW220040   0.452   1.918   5.081
 6381SOL     OW20041   4.199   3.012   0.841
 6381SOL    HW120042   4.287   3.044   0.806
 6381SOL    HW220043   4.196   2.912   0.836
 6382SOL     OW20044   3.158   1.566   0.153
 6382SOL    HW120045   3.080   1.576   0.091
 6382SOL    HW220046   3.234   1.623   0.122
 6383SOL     OW20047   2.400   2.431   2.351
 6383SOL    HW120048   2.484   2.481   2.334
 6383SOL    HW220049   2.421   2.344   2.397
 6384SOL     OW20050   5.713   3.718   2.961
 6384SOL    HW120051   5.712   3.689   2.865
 6384SOL    HW220052   5.644   3.789   2.976
 6385SOL     OW20053   6.573   3.629   3.458
 6385SOL    HW120054   6.558   3.539   3.417
 6385SOL    HW220055   6.641   3.622   3.530
 6386SOL     OW20056   2.513   3.252   6.396
 6386SOL    HW120057   2.450   3.315   6.442
 6386SOL    HW220058   2.580   3.305   6.343
 6387SOL     OW20059   6.391   1.783   6.739
 6387SOL    HW120060   6.376   1.876   6.706
 6387SOL    HW220061   6.454   1.785   6.816
 6388SOL     OW20062   5.259   5.740   1.086
 6388SOL    HW120063   5.227   5.664   1.144
 6388SOL    HW220064   5.184   5.804   1.071
 6389SOL     OW20065   0.675   0.093   0.738
 6389SOL    HW120066   0.600   0.033   0.709
 6389SOL    HW220067   0.662   0.119   0.833
 6390SOL     OW20068   6.174   0.556   5.445
 6390SOL    HW120069   6.124   0.534   5.360
 6390SOL    HW220070   6.261   0.507   5.446
 6391SOL     OW20071   1.760   0.894   6.485
 6391SOL    HW120072   1.819   0.960   6.532
 6391SOL    HW220073   1.677   0.880   6.538
 6392SOL     OW20074   2.772   4.709   2.906
 6392SOL    HW120075   2.736   4.630   2.957
 6392SOL    HW220076   2.817   4.772   2.969
 6393SOL     OW20077   0.083   5.898   2.139
 6393SOL    HW120078   0.101   5.997   2.145
 6393SOL    HW220079   7.013   5.879   2.173
 6394SOL     OW20080   1.561   5.343   0.784
 6394SOL    HW120081   1.571   5.244   0.772
 6394SOL    HW220082   1.466   5.364   0.805
 6395SOL     OW20083   6.561   3.276   1.856
 6395SOL    HW120084   6.467   3.248   1.836
 6395SOL    HW220085   6.592   3.341   1.787
 6396SOL     OW20086   6.492   3.722   6.050
 6396SOL    HW120087   6.433   3.665   5.994
 6396SOL    HW220088   6.437   3.791   6.098
 6397SOL     OW20089   5.696   0.735   1.542
 6397SOL    HW120090   5.694   0.654   1.482
 6397SOL    HW220091   5.692   0.705   1.637
 6398SOL     OW20092   2.875   6.856   1.886
 6398SOL    HW120093   2.953   6.910   1.919
 6398SOL    HW220094   2.818   6.830   1.964
 6399SOL     OW20095   1.533   0.330   6.726
 6399SOL    HW120096   1.523   0.429   6.731
 6399SOL    HW220097   1.616   0.303   6.776
 6400SOL     OW20098   2.038   4.930   2.423
 6400SOL    HW120099   1.960   4.892   2.472
 6400SOL    HW220100   2.055   4.875   2.341
 6401SOL     OW20101   5.342   5.450   2.844
 6401SOL    HW120102   5.304   5.378   2.902
 6401SOL    HW220103   5.390   5.409   2.767
 6402SOL     OW20104   2.072   3.253   3.588
 6402SOL    HW120105   2.084   3.342   3.632
 6402SOL    HW220106   1.978   3.246   3.554
 6403SOL     OW20107   5.722   6.323   5.707
 6403SOL    HW120108   5.694   6.394   5.643
 6403SOL    HW220109   5.678   6.339   5.796
 6404SOL     OW20110   4.720   1.473   2.671
 6404SOL    HW120111   4.711   1.375   2.653
 6404SOL    HW220112   4.814   1.502   2.653
 6405SOL     OW20113   3.936   0.592   4.180
 6405SOL    HW120114   4.008   0.661   4.181
 6405SOL    HW220115   3.921   0.562   4.086
 6406SOL     OW20116   0.529   2.789   2.764
 6406SOL    HW120117   0.467   2.862   2.792
 6406SOL    HW220118   0.569   2.746   2.845
 6407SOL     OW20119   2.334   0.224   4.711
 6407SOL    HW120120   2.394   0.152   4.675
 6407SOL    HW220121   2.239   0.196   4.699
 6408SOL     OW20122   5.093   1.369   1.442
 6408SOL    HW120123   5.072   1.415   1.355
 6408SOL    HW220124   5.187   1.334   1.437
 6409SOL     OW20125   6.641   4.291   3.577
 6409SOL    HW120126   6.579   4.296   3.499
 6409SOL    HW220127   6.687   4.379   3.589
 6410SOL     OW20128   2.048   1.070   6.313
 6410SOL    HW120129   2.057   1.050   6.411
 6410SOL    HW220130   2.118   1.136   6.286
 6411SOL     OW20131   0.445   2.463   2.508
 6411SOL    HW120132   0.387   2.381   2.509
 6411SOL    HW220133   0.541   2.435   2.515
 6412SOL     OW20134   1.699   1.064   5.984
 6412SOL    HW120135   1.650   1.040   5.900
 6412SOL    HW220136   1.660   1.147   6.023
 6413SOL     OW20137   3.609   4.960   3.818
 6413SOL    HW120138   3.509   4.964   3.816
 6413SOL    HW220139   3.639   4.933   3.910
 6414SOL     OW20140   5.054   0.955   6.755
 6414SOL    HW120141   5.051   0.901   6.672
 6414SOL    HW220142   5.098   0.902   6.828
 6415SOL     OW20143   1.528   3.265   4.107
 6415SOL    HW120144   1.514   3.299   4.200
 6415SOL    HW220145   1.529   3.341   4.043
 6416SOL     OW20146   2.480   6.677   6.326
 6416SOL    HW120147   2.398   6.650   6.275
 6416SOL    HW220148   2.561   6.645   6.277
 6417SOL     OW20149   5.800   3.849   0.703
 6417SOL    HW120150   5.820   3.938   0.744
 6417SOL    HW220151   5.808   3.855   0.604
 6418SOL     OW20152   4.829   4.254   3.168
 6418SOL    HW120153   4.780   4.214   3.091
 6418SOL    HW220154   4.912   4.298   3.136
 6419SOL     OW20155   1.361   5.366   3.076
 6419SOL    HW120156   1.358   5.456   3.032
 6419SOL    HW220157   1.446   5.319   3.050
 6420SOL     OW20158   2.457   0.970   4.145
 6420SOL    HW120159   2.552   0.945   4.167
 6420SOL    HW220160   2.451   0.995   4.048
 6421SOL     OW20161   4.758   0.026   1.610
 6421SOL    HW120162   4.686   6.979   1.605
 6421SOL    HW220163   4.843   7.006   1.642
 6422SOL     OW20164   6.643   1.755   4.984
 6422SOL    HW120165   6.610   1.794   5.070
 6422SOL    HW220166   6.734   1.790   4.964
 6423SOL     OW20167   5.136   4.794   4.637
 6423SOL    HW120168   5.175   4.702   4.646
 6423SOL    HW220169   5.047   4.797   4.683
 6424SOL     OW20170   0.733   3.703   4.667
 6424SOL    HW120171   0.813   3.689   4.724
 6424SOL    HW220172   0.720   3.801   4.651
 6425SOL     OW20173   6.558   5.946   2.981
 6425SOL    HW120174   6.552   5.913   2.887
 6425SOL    HW220175   6.563   6.046   2.982
 6426SOL     OW20176   6.777   5.276   3.097
 6426SOL    HW120177   6.771   5.325   3.010
 6426SOL    HW220178   6.819   5.186   3.082
 6427SOL     OW20179   3.587   4.142   3.671
 6427SOL    HW120180   3.614   4.237   3.656
 6427SOL    HW220181   3.497   4.125   3.630
 6428SOL     OW20182   6.023   3.841   0.117
 6428SOL    HW120183   5.971   3.825   0.033
 6428SOL    HW220184   5.966   3.822   0.196
 6429SOL     OW20185   6.954   0.833   5.485
 6429SOL    HW120186   0.025   0.867   5.486
 6429SOL    HW220187   6.918   0.829   5.578
 6430SOL     OW20188   6.347   1.418   4.095
 6430SOL    HW120189   6.382   1.451   4.183
 6430SOL    HW220190   6.282   1.485   4.059
 6431SOL     OW20191   4.197   6.175   3.811
 6431SOL    HW120192   4.209   6.114   3.733
 6431SOL    HW220193   4.173   6.122   3.892
 6432SOL     OW20194   4.224   4.795   5.620
 6432SOL    HW120195   4.231   4.696   5.627
 6432SOL    HW220196   4.170   4.819   5.539
 6433SOL     OW20197   2.516   4.784   6.481
 6433SOL    HW120198   2.521   4.868   6.535
 6433SOL    HW220199   2.421   4.754   6.474
 6434SOL     OW20200   3.053   0.237   6.490
 6434SOL    HW120201   3.035   0.204   6.583
 6434SOL    HW220202   3.081   0.160   6.432
 6435SOL     OW20203   5.940   6.579   0.507
 6435SOL    HW120204   5.976   6.672   0.513
 6435SOL    HW220205   5.880   6.561   0.584
 6436SOL     OW20206   1.230   3.327   2.593
 6436SOL    HW120207   1.240   3.409   2.651
 6436SOL    HW220208   1.231   3.354   2.497
 6437SOL     OW20209   1.517   2.023   0.822
 6437SOL    HW120210   1.451   1.951   0.845
 6437SOL    HW220211   1.566   1.999   0.739
 6438SOL     OW20212   0.565   4.666   5.840
 6438SOL    HW120213   0.545   4.734   5.911
 6438SOL    HW220214   0.480   4.623   5.810
 6439SOL     OW20215   5.191   0.582   2.108
 6439SOL    HW120216   5.127   0.533   2.048
 6439SOL    HW220217   5.149   0.594   2.198
 6440SOL     OW20218   2.933   1.621   5.772
 6440SOL    HW120219   2.940   1.720   5.780
 6440SOL    HW220220   2.889   1.597   5.685
 6441SOL     OW20221   0.531   0.590   1.704
 6441SOL    HW120222   0.457   0.522   1.697
 6441SOL    HW220223   0.502   0.674   1.659
 6442SOL     OW20224   2.985   1.854   5.408
 6442SOL    HW120225   2.937   1.942   5.413
 6442SOL    HW220226   3.027   1.844   5.318
 6443SOL     OW20227   3.346   3.139   5.160
 6443SOL    HW120228   3.440   3.107   5.160
 6443SOL    HW220229   3.290   3.079   5.102
 6444SOL     OW20230   5.553   2.633   4.982
 6444SOL    HW120231   5.574   2.558   5.045
 6444SOL    HW220232   5.596   2.614   4.894
 6445SOL     OW20233   3.907   3.356   3.338
 6445SOL    HW120234   3.976   3.426   3.352
 6445SOL    HW220235   3.903   3.296   3.418
 6446SOL     OW20236   0.564   1.622   0.209
 6446SOL    HW120237   0.589   1.711   0.248
 6446SOL    HW220238   0.498   1.635   0.135
 6447SOL     OW20239   6.834   4.468   3.116
 6447SOL    HW120240   6.749   4.509   3.083
 6447SOL    HW220241   6.889   4.436   3.039
 6448SOL     OW20242   5.214   5.047   1.262
 6448SOL    HW120243   5.238   5.143   1.278
 6448SOL    HW220244   5.117   5.033   1.281
 6449SOL     OW20245   3.466   5.630   1.928
 6449SOL    HW120246   3.500   5.621   2.021
 6449SOL    HW220247   3.414   5.548   1.903
 6450SOL     OW20248   1.866   2.689   0.850
 6450SOL    HW120249   1.814   2.750   0.910
 6450SOL    HW220250   1.963   2.713   0.853
 6451SOL     OW20251   2.249   0.758   6.265
 6451SOL    HW120252   2.155   0.736   6.293
 6451SOL    HW220253   2.246   0.826   6.191
 6452SOL     OW20254   4.721   4.109   2.952
 6452SOL    HW120255   4.685   4.039   3.014
 6452SOL    HW220256   4.760   4.065   2.871
 6453SOL     OW20257   2.217   0.027   1.604
 6453SOL    HW120258   2.146   6.991   1.564
 6453SOL    HW220259   2.236   0.103   1.542
 6454SOL     OW20260   1.310   1.523   2.943
 6454SOL    HW120261   1.296   1.441   2.999
 6454SOL    HW220262   1.319   1.603   3.001
 6455SOL     OW20263   6.802   3.317   3.737
 6455SOL    HW120264   6.754   3.330   3.823
 6455SOL    HW220265   6.841   3.225   3.733
 6456SOL     OW20266   1.513   1.422   3.777
 6456SOL    HW120267   1.534   1.429   3.679
 6456SOL    HW220268   1.432   1.478   3.797
 6457SOL     OW20269   5.592   0.353   1.484
 6457SOL    HW120270   5.502   0.382   1.453
 6457SOL    HW220271   5.615   0.399   1.570
 6458SOL     OW20272   1.197   5.000   3.978
 6458SOL    HW120273   1.294   5.014   3.956
 6458SOL    HW220274   1.155   5.088   4.001
 6459SOL     OW20275   6.290   2.984   2.132
 6459SOL    HW120276   6.264   3.079   2.119
 6459SOL    HW220277   6.350   2.955   2.057
 6460SOL     OW20278   5.820   6.091   6.214
 6460SOL    HW120279   5.835   6.163   6.147
 6460SOL    HW220280   5.736   6.042   6.194
 6461SOL     OW20281   2.527   4.354   6.942
 6461SOL    HW120282   2.586   4.277   6.920
 6461SOL    HW220283   2.437   4.321   6.971
 6462SOL     OW20284   1.806   2.835   4.567
 6462SOL    HW120285   1.868   2.757   4.562
 6462SOL    HW220286   1.729   2.813   4.626
 6463SOL     OW20287   5.356   0.650   0.399
 6463SOL    HW120288   5.426   0.584   0.429
 6463SOL    HW220289   5.340   0.716   0.472
 6464SOL     OW20290   1.927   5.184   5.380
 6464SOL    HW120291   1.846   5.240   5.359
 6464SOL    HW220292   1.920   5.097   5.330
 6465SOL     OW20293   6.732   2.952   2.585
 6465SOL    HW120294   6.797   2.953   2.660
 6465SOL    HW220295   6.725   2.859   2.548
 6466SOL     OW20296   5.921   1.589   6.361
 6466SOL    HW120297   5.946   1.625   6.271
 6466SOL    HW220298   5.983   1.514   6.386
 6467SOL     OW20299   3.971   0.422   1.280
 6467SOL    HW120300   4.036   0.424   1.204
 6467SOL    HW220301   3.939   0.329   1.294
 6468SOL     OW20302   2.919   6.399   1.437
 6468SOL    HW120303   2.997   6.376   1.495
 6468SOL    HW220304   2.838   6.414   1.494
 6469SOL     OW20305   4.035   2.108   3.551
 6469SOL    HW120306   3.970   2.078   3.481
 6469SOL    HW220307   4.107   2.162   3.508
 6470SOL     OW20308   5.922   3.047   1.070
 6470SOL    HW120309   5.957   3.122   1.126
 6470SOL    HW220310   5.894   2.972   1.130
 6471SOL     OW20311   0.564   6.268   5.364
 6471SOL    HW120312   0.525   6.227   5.446
 6471SOL    HW220313   0.519   6.232   5.283
 6472SOL     OW20314   6.839   5.917   2.215
 6472SOL    HW120315   6.812   5.933   2.310
 6472SOL    HW220316   6.785   5.842   2.177
 6473SOL     OW20317   2.774   2.219   4.906
 6473SOL    HW120318   2.783   2.253   4.813
 6473SOL    HW220319   2.706   2.146   4.909
 6474SOL     OW20320   4.307   6.042   5.569
 6474SOL    HW120321   4.299   6.037   5.470
 6474SOL    HW220322   4.352   5.960   5.603
 6475SOL     OW20323   5.889   4.584   3.750
 6475SOL    HW120324   5.838   4.500   3.735
 6475SOL    HW220325   5.846   4.636   3.824
 6476SOL     OW20326   5.237   2.892   0.728
 6476SOL    HW120327   5.302   2.967   0.716
 6476SOL    HW220328   5.250   2.824   0.655
 6477SOL     OW20329   6.616   5.426   0.063
 6477SOL    HW120330   6.560   5.504   0.034
 6477SOL    HW220331   6.584   5.344   0.017
 6478SOL     OW20332   3.490   6.588   2.298
 6478SOL    HW120333   3.573   6.542   2.266
 6478SOL    HW220334   3.447   6.533   2.370
 6479SOL     OW20335   4.192   5.705   4.184
 6479SOL    HW120336   4.133   5.716   4.104
 6479SOL    HW220337   4.165   5.624   4.236
 6480SOL     OW20338   2.512   1.219   0.033
 6480SOL    HW120339   2.589   1.161   0.002
 6480SOL    HW220340   2.435   1.207   6.993
 6481SOL     OW20341   3.609   1.974   1.852
 6481SOL    HW120342   3.686   1.949   1.794
 6481SOL    HW220343   3.633   2.053   1.908
 6482SOL     OW20344   6.266   2.037   6.522
 6482SOL    HW120345   6.177   2.079   6.542
 6482SOL    HW220346   6.252   1.946   6.482
 6483SOL     OW20347   6.904   0.063   3.218
 6483SOL    HW120348   6.813   0.057   3.177
 6483SOL    HW220349   6.901   0.127   3.295
 6484SOL     OW20350   3.244   0.654   2.561
 6484SOL    HW120351   3.333   0.661   2.607
 6484SOL    HW220352   3.188   0.733   2.586
 6485SOL     OW20353   2.280   5.141   3.760
 6485SOL    HW120354   2.286   5.093   3.672
 6485SOL    HW220355   2.185   5.170   3.775
 6486SOL     OW20356   0.858   4.594   2.208
 6486SOL    HW120357   0.943   4.586   2.157
 6486SOL    HW220358   0.844   4.511   2.263
 6487SOL     OW20359   1.419   6.576   5.528
 6487SOL    HW120360   1.467   6.505   5.579
 6487SOL    HW220361   1.450   6.666   5.558
 6488SOL     OW20362   3.912   6.016   4.272
 6488SOL    HW120363   3.874   6.106   4.293
 6488SOL    HW220364   3.992   5.998   4.329
 6489SOL     OW20365   3.667   3.449   6.458
 6489SOL    HW120366   3.700   3.393   6.382
 6489SOL    HW220367   3.567   3.452   6.456
 6490SOL     OW20368   4.272   1.277   6.100
 6490SOL    HW120369   4.216   1.215   6.045
 6490SOL    HW220370   4.368   1.249   6.094
 6491SOL     OW20371   2.575   0.506   0.831
 6491SOL    HW120372   2.629   0.442   0.777
 6491SOL    HW220373   2.631   0.586   0.853
 6492SOL     OW20374   3.542   3.907   5.599
 6492SOL    HW120375   3.526   3.999   5.634
 6492SOL    HW220376   3.631   3.904   5.554
 6493SOL     OW20377   1.407   4.402   6.310
 6493SOL    HW120378   1.388   4.435   6.218
 6493SOL    HW220379   1.368   4.310   6.321
 6494SOL     OW20380   0.059   6.914   2.650
 6494SOL    HW120381   0.020   6.823   2.634
 6494SOL    HW220382   0.078   6.925   2.747
 6495SOL     OW20383   6.930   0.770   4.093
 6495SOL    HW120384   6.903   0.867   4.097
 6495SOL    HW220385   6.858   0.717   4.048
 6496SOL     OW20386   5.857   1.249   2.843
 6496SOL    HW120387   5.794   1.251   2.765
 6496SOL    HW220388   5.921   1.172   2.832
 6497SOL     OW20389   1.109   0.484   1.631
 6497SOL    HW120390   1.043   0.486   1.555
 6497SOL    HW220391   1.196   0.521   1.599
 6498SOL     OW20392   1.073   2.937   4.753
 6498SOL    HW120393   1.058   3.035   4.771
 6498SOL    HW220394   1.164   2.924   4.716
 6499SOL     OW20395   5.407   4.177   5.485
 6499SOL    HW120396   5.487   4.167   5.426
 6499SOL    HW220397   5.325   4.189   5.429
 6500SOL     OW20398   6.684   3.710   3.849
 6500SOL    HW120399   6.587   3.727   3.830
 6500SOL    HW220400   6.707   3.747   3.939
 6501SOL     OW20401   6.469   1.052   0.386
 6501SOL    HW120402   6.522   1.111   0.325
 6501SOL    HW220403   6.452   1.100   0.472
 6502SOL     OW20404   6.832   3.545   2.406
 6502SOL    HW120405   6.855   3.450   2.386
 6502SOL    HW220406   6.738   3.564   2.377
 6503SOL     OW20407   5.345   1.145   3.797
 6503SOL    HW120408   5.307   1.056   3.773
 6503SOL    HW220409   5.301   1.179   3.880
 6504SOL     OW20410   3.877   6.470   6.126
 6504SOL    HW120411   3.897   6.460   6.224
 6504SOL    HW220412   3.828   6.555   6.111
 6505SOL     OW20413   5.370   5.894   6.188
 6505SOL    HW120414   5.329   5.983   6.208
 6505SOL    HW220415   5.469   5.903   6.183
 6506SOL     OW20416   0.201   2.685   2.866
 6506SOL    HW120417   0.281   2.744   2.872
 6506SOL    HW220418   0.220   2.608   2.805
 6507SOL     OW20419   2.818   5.531   6.808
 6507SOL    HW120420   2.824   5.541   6.907
 6507SOL    HW220421   2.909   5.539   6.768
 6508SOL     OW20422   1.746   0.374   3.107
 6508SOL    HW120423   1.694   0.430   3.171
 6508SOL    HW220424   1.692   0.359   3.024
 6509SOL     OW20425   4.410   2.000   4.413
 6509SOL    HW120426   4.474   2.044   4.476
 6509SOL    HW220427   4.451   1.916   4.378
 6510SOL     OW20428   6.144   4.925   6.899
 6510SOL    HW120429   6.075   4.895   6.833
 6510SOL    HW220430   6.200   4.997   6.859
 6511SOL     OW20431   4.194   0.376   4.603
 6511SOL    HW120432   4.129   0.438   4.646
 6511SOL    HW220433   4.145   0.312   4.544
 6512SOL     OW20434   3.595   6.587   1.906
 6512SOL    HW120435   3.668   6.553   1.965
 6512SOL    HW220436   3.632   6.606   1.815
 6513SOL     OW20437   2.889   5.506   3.344
 6513SOL    HW120438   2.870   5.491   3.441
 6513SOL    HW220439   2.829   5.448   3.289
 6514SOL     OW20440   5.683   1.497   4.734
 6514SOL    HW120441   5.600   1.496   4.790
 6514SOL    HW220442   5.730   1.584   4.746
 6515SOL     OW20443   1.194   3.854   3.339
 6515SOL    HW120444   1.178   3.878   3.435
 6515SOL    HW220445   1.109   3.819   3.299
 6516SOL     OW20446   0.320   2.868   1.411
 6516SOL    HW120447   0.253   2.878   1.338
 6516SOL    HW220448   0.287   2.801   1.478
 6517SOL     OW20449   0.084   1.872   1.486
 6517SOL    HW120450   0.010   1.888   1.421
 6517SOL    HW220451   0.171   1.903   1.446
 6518SOL     OW20452   0.616   0.217   1.061
 6518SOL    HW120453   0.586   0.124   1.042
 6518SOL    HW220454   0.547   0.264   1.117
 6519SOL     OW20455   1.091   1.772   2.614
 6519SOL    HW120456   1.183   1.745   2.643
 6519SOL    HW220457   1.043   1.692   2.577
 6520SOL     OW20458   0.142   5.580   0.091
 6520SOL    HW120459   0.241   5.597   0.083
 6520SOL    HW220460   0.103   5.570   7.022
 6521SOL     OW20461   1.610   2.456   4.434
 6521SOL    HW120462   1.611   2.364   4.475
 6521SOL    HW220463   1.601   2.447   4.335
 6522SOL     OW20464   3.406   4.645   5.603
 6522SOL    HW120465   3.362   4.705   5.536
 6522SOL    HW220466   3.361   4.556   5.603
 6523SOL     OW20467   3.721   1.417   6.976
 6523SOL    HW120468   3.654   1.443   6.907
 6523SOL    HW220469   3.675   1.371   0.030
 6524SOL     OW20470   2.739   3.736   1.462
 6524SOL    HW120471   2.776   3.800   1.528
 6524SOL    HW220472   2.642   3.722   1.480
 6525SOL     OW20473   2.123   4.669   2.679
 6525SOL    HW120474   2.151   4.674   2.583
 6525SOL    HW220475   2.062   4.591   2.693
 6526SOL     OW20476   1.723   0.559   1.837
 6526SOL    HW120477   1.731   0.602   1.746
 6526SOL    HW220478   1.727   0.630   1.907
 6527SOL     OW20479   6.971   2.122   6.438
 6527SOL    HW120480   6.890   2.140   6.382
 6527SOL    HW220481   6.944   2.107   6.533
 6528SOL     OW20482   5.651   1.717   5.379
 6528SOL    HW120483   5.554   1.710   5.400
 6528SOL    HW220484   5.668   1.684   5.286
 6529SOL     OW20485   1.937   0.384   2.910
 6529SOL    HW120486   2.011   0.317   2.913
 6529SOL    HW220487   1.879   0.373   2.991
 6530SOL     OW20488   6.519   1.555   1.214
 6530SOL    HW120489   6.529   1.516   1.305
 6530SOL    HW220490   6.444   1.621   1.213
 6531SOL     OW20491   4.927   3.198   4.751
 6531SOL    HW120492   4.936   3.290   4.789
 6531SOL    HW220493   4.915   3.132   4.825
 6532SOL     OW20494   0.957   1.205   1.204
 6532SOL    HW120495   0.885   1.158   1.151
 6532SOL    HW220496   0.941   1.190   1.301
 6533SOL     OW20497   4.342   6.629   0.155
 6533SOL    HW120498   4.432   6.621   0.112
 6533SOL    HW220499   4.320   6.726   0.169
 6534SOL     OW20500   5.044   4.906   1.864
 6534SOL    HW120501   5.097   4.979   1.821
 6534SOL    HW220502   5.063   4.904   1.962
 6535SOL     OW20503   6.942   4.533   3.892
 6535SOL    HW120504   6.973   4.513   3.985
 6535SOL    HW220505   6.872   4.604   3.895
 6536SOL     OW20506   0.246   1.662   5.090
 6536SOL    HW120507   0.220   1.728   5.160
 6536SOL    HW220508   0.345   1.666   5.075
 6537SOL     OW20509   0.026   4.530   6.778
 6537SOL    HW120510   6.980   4.578   6.723
 6537SOL    HW220511   7.014   4.440   6.803
 6538SOL     OW20512   2.023   3.685   5.606
 6538SOL    HW120513   1.969   3.727   5.534
 6538SOL    HW220514   2.101   3.636   5.566
 6539SOL     OW20515   4.838   0.516   6.971
 6539SOL    HW120516   4.887   0.573   6.905
 6539SOL    HW220517   4.832   0.423   6.937
 6540SOL     OW20518   4.046   2.333   6.486
 6540SOL    HW120519   4.143   2.334   6.512
 6540SOL    HW220520   4.006   2.423   6.502
 6541SOL     OW20521   5.021   1.419   5.325
 6541SOL    HW120522   4.954   1.379   5.389
 6541SOL    HW220523   4.975   1.441   5.239
 6542SOL     OW20524   0.109   2.630   3.856
 6542SOL    HW120525   0.131   2.558   3.790
 6542SOL    HW220526   0.173   2.706   3.845
 6543SOL     OW20527   4.238   3.158   5.313
 6543SOL    HW120528   4.270   3.065   5.325
 6543SOL    HW220529   4.151   3.157   5.263
 6544SOL     OW20530   1.598   6.243   3.636
 6544SOL    HW120531   1.565   6.208   3.549
 6544SOL    HW220532   1.601   6.343   3.633
 6545SOL     OW20533   4.234   0.113   0.773
 6545SOL    HW120534   4.186   0.097   0.859
 6545SOL    HW220535   4.174   0.163   0.710
 6546SOL     OW20536   2.568   4.179   6.024
 6546SOL    HW120537   2.590   4.103   5.964
 6546SOL    HW220538   2.628   4.177   6.104
 6547SOL     OW20539   4.656   1.258   0.031
 6547SOL    HW120540   4.683   1.352   0.006
 6547SOL    HW220541   4.576   1.231   7.001
 6548SOL     OW20542   0.972   3.972   1.318
 6548SOL    HW120543   0.990   3.941   1.411
 6548SOL    HW220544   1.052   3.953   1.260
 6549SOL     OW20545   4.473   0.964   1.926
 6549SOL    HW120546   4.512   0.985   2.016
 6549SOL    HW220547   4.375   0.948   1.935
 6550SOL     OW20548   7.021   6.810   4.522
 6550SOL    HW120549   0.029   6.782   4.431
 6550SOL    HW220550   0.058   6.884   4.555
 6551SOL     OW20551   1.895   3.947   1.832
 6551SOL    HW120552   1.802   3.931   1.866
 6551SOL    HW220553   1.955   3.872   1.860
 6552SOL     OW20554   1.347   0.299   0.428
 6552SOL    HW120555   1.300   0.387   0.418
 6552SOL    HW220556   1.369   0.284   0.524
 6553SOL     OW20557   6.619   1.791   3.582
 6553SOL    HW120558   6.712   1.796   3.547
 6553SOL    HW220559   6.621   1.765   3.679
 6554SOL     OW20560   1.224   0.370   4.280
 6554SOL    HW120561   1.221   0.356   4.379
 6554SOL    HW220562   1.139   0.335   4.240
 6555SOL     OW20563   4.810   2.310   3.232
 6555SOL    HW120564   4.763   2.241   3.176
 6555SOL    HW220565   4.898   2.332   3.190
 6556SOL     OW20566   5.584   4.741   3.559
 6556SOL    HW120567   5.554   4.647   3.547
 6556SOL    HW220568   5.563   4.771   3.652
 6557SOL     OW20569   2.937   0.117   2.616
 6557SOL    HW120570   2.874   0.055   2.662
 6557SOL    HW220571   2.963   0.191   2.678
 6558SOL     OW20572   6.957   4.730   0.505
 6558SOL    HW120573   6.972   4.687   0.416
 6558SOL    HW220574   6.972   4.829   0.497
 6559SOL     OW20575   1.047   4.085   0.369
 6559SOL    HW120576   1.065   4.178   0.337
 6559SOL    HW220577   0.986   4.089   0.449
 6560SOL     OW20578   4.489   5.120   1.446
 6560SOL    HW120579   4.408   5.176   1.425
 6560SOL    HW220580   4.507   5.123   1.544
 6561SOL     OW20581   3.339   4.335   1.262
 6561SOL    HW120582   3.357   4.357   1.166
 6561SOL    HW220583   3.324   4.236   1.272
 6562SOL     OW20584   6.239   2.462   0.957
 6562SOL    HW120585   6.235   2.478   1.056
 6562SOL    HW220586   6.296   2.532   0.914
 6563SOL     OW20587   5.213   5.529   5.980
 6563SOL    HW120588   5.122   5.504   5.945
 6563SOL    HW220589   5.283   5.487   5.922
 6564SOL     OW20590   6.668   3.281   2.926
 6564SOL    HW120591   6.672   3.348   3.000
 6564SOL    HW220592   6.590   3.301   2.867
 6565SOL     OW20593   5.563   1.367   2.314
 6565SOL    HW120594   5.500   1.315   2.371
 6565SOL    HW220595   5.544   1.348   2.217
 6566SOL     OW20596   4.025   6.316   1.919
 6566SOL    HW120597   4.067   6.404   1.942
 6566SOL    HW220598   3.951   6.330   1.853
 6567SOL     OW20599   4.564   0.704   2.190
 6567SOL    HW120600   4.561   0.708   2.290
 6567SOL    HW220601   4.506   0.776   2.151
 6568SOL     OW20602   3.386   1.513   4.421
 6568SOL    HW120603   3.445   1.562   4.485
 6568SOL    HW220604   3.420   1.526   4.327
 6569SOL     OW20605   2.614   3.174   0.271
 6569SOL    HW120606   2.646   3.080   0.267
 6569SOL    HW220607   2.580   3.201   0.180
 6570SOL     OW20608   2.821   0.436   2.464
 6570SOL    HW120609   2.741   0.493   2.483
 6570SOL    HW220610   2.791   0.347   2.430
 6571SOL     OW20611   2.962   5.172   1.969
 6571SOL    HW120612   2.986   5.113   2.046
 6571SOL    HW220613   3.030   5.162   1.897
 6572SOL     OW20614   6.667   4.504   4.504
 6572SOL    HW120615   6.621   4.569   4.564
 6572SOL    HW220616   6.604   4.429   4.481
 6573SOL     OW20617   0.841   1.600   2.300
 6573SOL    HW120618   0.811   1.696   2.295
 6573SOL    HW220619   0.862   1.567   2.209
 6574SOL     OW20620   2.236   5.810   2.669
 6574SOL    HW120621   2.325   5.776   2.638
 6574SOL    HW220622   2.179   5.832   2.590
 6575SOL     OW20623   0.372   6.549   3.644
 6575SOL    HW120624   0.362   6.450   3.639
 6575SOL    HW220625   0.376   6.587   3.552
 6576SOL     OW20626   2.229   6.089   0.059
 6576SOL    HW120627   2.214   6.000   0.014
 6576SOL    HW220628   2.157   6.104   0.127
 6577SOL     OW20629   0.853   1.847   3.635
 6577SOL    HW120630   0.892   1.766   3.591
 6577SOL    HW220631   0.903   1.928   3.605
 6578SOL     OW20632   0.676   6.206   2.756
 6578SOL    HW120633   0.769   6.212   2.792
 6578SOL    HW220634   0.671   6.131   2.689
 6579SOL     OW20635   0.728   3.071   3.524
 6579SOL    HW120636   0.741   3.048   3.428
 6579SOL    HW220637   0.749   2.992   3.581
 6580SOL     OW20638   0.117   1.828   0.425
 6580SOL    HW120639   0.042   1.859   0.484
 6580SOL    HW220640   0.136   1.732   0.442
 6581SOL     OW20641   2.269   0.472   0.274
 6581SOL    HW120642   2.319   0.412   0.337
 6581SOL    HW220643   2.308   0.462   0.182
 6582SOL     OW20644   0.041   1.356   2.721
 6582SOL    HW120645   0.022   1.347   2.819
 6582SOL    HW220646   0.053   1.265   2.680
 6583SOL     OW20647   4.833   0.482   6.214
 6583SOL    HW120648   4.781   0.400   6.193
 6583SOL    HW220649   4.926   0.457   6.241
 6584SOL     OW20650   4.588   2.659   0.488
 6584SOL    HW120651   4.511   2.679   0.548
 6584SOL    HW220652   4.558   2.600   0.413
 6585SOL     OW20653   6.551   6.092   0.218
 6585SOL    HW120654   6.522   6.099   0.123
 6585SOL    HW220655   6.522   6.174   0.268
 6586SOL     OW20656   5.532   1.171   5.868
 6586SOL    HW120657   5.461   1.241   5.861
 6586SOL    HW220658   5.522   1.106   5.792
 6587SOL     OW20659   2.040   5.096   5.633
 6587SOL    HW120660   1.963   5.104   5.569
 6587SOL    HW220661   2.037   5.006   5.677
 6588SOL     OW20662   0.107   2.737   1.827
 6588SOL    HW120663   0.049   2.663   1.793
 6588SOL    HW220664   0.134   2.717   1.921
 6589SOL     OW20665   4.733   0.276   1.476
 6589SOL    HW120666   4.765   0.203   1.537
 6589SOL    HW220667   4.681   0.235   1.401
 6590SOL     OW20668   6.971   1.094   6.912
 6590SOL    HW120669   7.004   1.065   6.822
 6590SOL    HW220670   0.006   1.052   6.982
 6591SOL     OW20671   6.164   5.734   3.249
 6591SOL    HW120672   6.190   5.829   3.264
 6591SOL    HW220673   6.233   5.689   3.193
 6592SOL     OW20674   5.374   6.979   3.038
 6592SOL    HW120675   5.411   7.022   2.956
 6592SOL    HW220676   5.421   7.014   3.119
 6593SOL     OW20677   2.187   2.209   2.907
 6593SOL    HW120678   2.088   2.209   2.899
 6593SOL    HW220679   2.220   2.303   2.916
 6594SOL     OW20680   3.821   1.389   6.162
 6594SOL    HW120681   3.880   1.388   6.243
 6594SOL    HW220682   3.798   1.484   6.138
 6595SOL     OW20683   1.098   4.343   6.819
 6595SOL    HW120684   1.132   4.436   6.835
 6595SOL    HW220685   1.169   4.277   6.841
 6596SOL     OW20686   3.072   6.913   4.338
 6596SOL    HW120687   2.997   6.900   4.403
 6596SOL    HW220688   3.054   6.993   4.282
 6597SOL     OW20689   0.802   5.357   1.208
 6597SOL    HW120690   0.795   5.291   1.283
 6597SOL    HW220691   0.819   5.308   1.123
 6598SOL     OW20692   1.645   4.891   3.899
 6598SOL    HW120693   1.595   4.817   3.854
 6598SOL    HW220694   1.737   4.860   3.922
 6599SOL     OW20695   4.200   6.106   6.146
 6599SOL    HW120696   4.292   6.070   6.131
 6599SOL    HW220697   4.206   6.200   6.181
 6600SOL     OW20698   3.634   5.892   5.488
 6600SOL    HW120699   3.551   5.938   5.519
 6600SOL    HW220700   3.704   5.895   5.560
 6601SOL     OW20701   1.572   1.945   4.961
 6601SOL    HW120702   1.598   2.040   4.947
 6601SOL    HW220703   1.581   1.922   5.058
 6602SOL     OW20704   1.953   1.324   1.873
 6602SOL    HW120705   1.980   1.397   1.809
 6602SOL    HW220706   1.868   1.282   1.841
 6603SOL     OW20707   0.471   2.719   3.514
 6603SOL    HW120708   0.450   2.723   3.612
 6603SOL    HW220709   0.440   2.803   3.470
 6604SOL     OW20710   1.107   6.912   1.303
 6604SOL    HW120711   1.190   6.932   1.355
 6604SOL    HW220712   1.083   6.992   1.248
 6605SOL     OW20713   5.601   5.445   1.336
 6605SOL    HW120714   5.531   5.375   1.337
 6605SOL    HW220715   5.683   5.410   1.289
 6606SOL     OW20716   0.581   5.768   1.954
 6606SOL    HW120717   0.507   5.735   1.895
 6606SOL    HW220718   0.542   5.804   2.039
 6607SOL     OW20719   1.950   4.278   2.549
 6607SOL    HW120720   1.886   4.304   2.478
 6607SOL    HW220721   2.013   4.208   2.514
 6608SOL     OW20722   6.924   6.547   0.222
 6608SOL    HW120723   6.866   6.520   0.299
 6608SOL    HW220724   6.900   6.639   0.192
 6609SOL     OW20725   5.542   1.184   0.314
 6609SOL    HW120726   5.551   1.245   0.235
 6609SOL    HW220727   5.622   1.194   0.373
 6610SOL     OW20728   2.255   6.422   0.009
 6610SOL    HW120729   2.322   6.437   0.082
 6610SOL    HW220730   2.273   6.487   6.957
 6611SOL     OW20731   4.949   3.347   2.892
 6611SOL    HW120732   4.906   3.410   2.828
 6611SOL    HW220733   4.968   3.260   2.845
 6612SOL     OW20734   6.299   2.048   6.791
 6612SOL    HW120735   6.350   2.130   6.817
 6612SOL    HW220736   6.284   2.049   6.692
 6613SOL     OW20737   6.647   6.454   5.085
 6613SOL    HW120738   6.548   6.449   5.102
 6613SOL    HW220739   6.679   6.368   5.046
 6614SOL     OW20740   4.147   5.302   6.967
 6614SOL    HW120741   4.047   5.299   6.960
 6614SOL    HW220742   4.185   5.212   6.943
 6615SOL     OW20743   1.143   5.587   1.212
 6615SOL    HW120744   1.161   5.493   1.240
 6615SOL    HW220745   1.215   5.647   1.246
 6616SOL     OW20746   4.748   0.524   6.538
 6616SOL    HW120747   4.829   0.472   6.564
 6616SOL    HW220748   4.728   0.508   6.441
 6617SOL     OW20749   4.347   5.359   3.171
 6617SOL    HW120750   4.398   5.405   3.098
 6617SOL    HW220751   4.265   5.412   3.192
 6618SOL     OW20752   1.639   2.297   2.620
 6618SOL    HW120753   1.633   2.200   2.645
 6618SOL    HW220754   1.547   2.335   2.613
 6619SOL     OW20755   5.389   0.503   3.668
 6619SOL    HW120756   5.318   0.461   3.612
 6619SOL    HW220757   5.421   0.437   3.736
 6620SOL     OW20758   1.587   2.709   5.243
 6620SOL    HW120759   1.555   2.673   5.331
 6620SOL    HW220760   1.510   2.715   5.179
 6621SOL     OW20761   3.443   3.089   6.182
 6621SOL    HW120762   3.465   2.992   6.184
 6621SOL    HW220763   3.354   3.104   6.226
 6622SOL     OW20764   5.791   6.202   2.089
 6622SOL    HW120765   5.785   6.302   2.081
 6622SOL    HW220766   5.776   6.175   2.184
 6623SOL     OW20767   3.570   3.240   4.759
 6623SOL    HW120768   3.508   3.315   4.739
 6623SOL    HW220769   3.626   3.262   4.838
 6624SOL     OW20770   6.974   4.338   5.707
 6624SOL    HW120771   0.008   4.275   5.762
 6624SOL    HW220772   6.976   4.429   5.749
 6625SOL     OW20773   4.930   1.989   5.071
 6625SOL    HW120774   4.857   1.993   5.139
 6625SOL    HW220775   5.017   2.016   5.113
 6626SOL     OW20776   3.486   6.336   5.519
 6626SOL    HW120777   3.477   6.250   5.570
 6626SOL    HW220778   3.580   6.368   5.523
 6627SOL     OW20779   1.830   6.241   5.428
 6627SOL    HW120780   1.879   6.166   5.384
 6627SOL    HW220781   1.866   6.254   5.521
 6628SOL     OW20782   6.558   4.952   4.704
 6628SOL    HW120783   6.531   4.858   4.683
 6628SOL    HW220784   6.548   4.968   4.802
 6629SOL     OW20785   4.840   6.743   6.323
 6629SOL    HW120786   4.936   6.759   6.301
 6629SOL    HW220787   4.833   6.675   6.396
 6630SOL     OW20788   3.637   1.744   1.181
 6630SOL    HW120789   3.652   1.654   1.222
 6630SOL    HW220790   3.539   1.766   1.184
 6631SOL     OW20791   2.636   5.599   4.147
 6631SOL    HW120792   2.652   5.609   4.245
 6631SOL    HW220793   2.539   5.616   4.127
 6632SOL     OW20794   0.952   0.109   1.181
 6632SOL    HW120795   0.943   0.188   1.121
 6632SOL    HW220796   0.982   0.139   1.271
 6633SOL     OW20797   1.894   4.759   6.588
 6633SOL    HW120798   1.849   4.829   6.533
 6633SOL    HW220799   1.911   4.795   6.680
 6634SOL     OW20800   4.911   1.508   5.070
 6634SOL    HW120801   4.906   1.472   4.977
 6634SOL    HW220802   4.962   1.594   5.070
 6635SOL     OW20803   4.622   4.377   2.929
 6635SOL    HW120804   4.647   4.281   2.940
 6635SOL    HW220805   4.591   4.394   2.835
 6636SOL     OW20806   4.683   1.785   6.615
 6636SOL    HW120807   4.636   1.712   6.565
 6636SOL    HW220808   4.734   1.745   6.691
 6637SOL     OW20809   0.610   0.096   6.496
 6637SOL    HW120810   0.587   0.094   6.399
 6637SOL    HW220811   0.617   0.002   6.531
 6638SOL     OW20812   3.293   3.743   3.066
 6638SOL    HW120813   3.271   3.832   3.028
 6638SOL    HW220814   3.210   3.699   3.101
 6639SOL     OW20815   4.774   4.731   6.883
 6639SOL    HW120816   4.717   4.730   6.965
 6639SOL    HW220817   4.864   4.769   6.906
 6640SOL     OW20818   7.012   1.911   4.838
 6640SOL    HW120819   6.970   1.867   4.759
 6640SOL    HW220820   6.941   1.947   4.898
 6641SOL     OW20821   2.945   1.518   6.537
 6641SOL    HW120822   3.003   1.588   6.495
 6641SOL    HW220823   2.914   1.549   6.627
 6642SOL     OW20824   2.319   6.226   6.757
 6642SOL    HW120825   2.274   6.312   6.732
 6642SOL    HW220826   2.282   6.193   6.844
 6643SOL     OW20827   5.328   6.281   0.213
 6643SOL    HW120828   5.391   6.357   0.203
 6643SOL    HW220829   5.282   6.264   0.126
 6644SOL     OW20830   2.725   5.033   1.160
 6644SOL    HW120831   2.660   4.993   1.224
 6644SOL    HW220832   2.705   5.131   1.149
 6645SOL     OW20833   5.980   4.111   0.530
 6645SOL    HW120834   5.955   4.174   0.603
 6645SOL    HW220835   6.070   4.072   0.548
 6646SOL     OW20836   4.522   0.795   5.320
 6646SOL    HW120837   4.532   0.698   5.298
 6646SOL    HW220838   4.515   0.848   5.236
 6647SOL     OW20839   5.056   0.170   1.560
 6647SOL    HW120840   5.143   0.125   1.578
 6647SOL    HW220841   5.041   0.177   1.462
 6648SOL     OW20842   3.111   6.387   3.769
 6648SOL    HW120843   3.138   6.404   3.863
 6648SOL    HW220844   3.121   6.289   3.748
 6649SOL     OW20845   5.748   1.819   6.741
 6649SOL    HW120846   5.671   1.843   6.682
 6649SOL    HW220847   5.761   1.720   6.739
 6650SOL     OW20848   4.046   1.226   5.592
 6650SOL    HW120849   4.102   1.145   5.577
 6650SOL    HW220850   4.017   1.263   5.504
 6651SOL     OW20851   2.712   0.637   6.224
 6651SOL    HW120852   2.670   0.723   6.253
 6651SOL    HW220853   2.811   0.648   6.218
 6652SOL     OW20854   0.309   4.222   0.148
 6652SOL    HW120855   0.387   4.191   0.202
 6652SOL    HW220856   0.234   4.248   0.209
 6653SOL     OW20857   4.124   4.234   1.395
 6653SOL    HW120858   4.036   4.202   1.361
 6653SOL    HW220859   4.190   4.240   1.319
 6654SOL     OW20860   1.811   5.097   1.092
 6654SOL    HW120861   1.773   5.025   1.150
 6654SOL    HW220862   1.759   5.181   1.105
 6655SOL     OW20863   1.212   6.561   3.821
 6655SOL    HW120864   1.141   6.536   3.886
 6655SOL    HW220865   1.292   6.502   3.835
 6656SOL     OW20866   5.155   2.032   3.644
 6656SOL    HW120867   5.132   1.957   3.582
 6656SOL    HW220868   5.241   2.011   3.691
 6657SOL     OW20869   5.513   4.825   6.296
 6657SOL    HW120870   5.455   4.861   6.369
 6657SOL    HW220871   5.552   4.737   6.324
 6658SOL     OW20872   5.210   1.158   4.426
 6658SOL    HW120873   5.187   1.061   4.419
 6658SOL    HW220874   5.241   1.178   4.519
 6659SOL     OW20875   2.418   2.833   0.159
 6659SOL    HW120876   2.386   2.745   0.123
 6659SOL    HW220877   2.420   2.900   0.085
 6660SOL     OW20878   1.476   4.518   1.326
 6660SOL    HW120879   1.462   4.617   1.330
 6660SOL    HW220880   1.395   4.471   1.359
 6661SOL     OW20881   1.608   0.224   5.343
 6661SOL    HW120882   1.655   0.278   5.413
 6661SOL    HW220883   1.650   0.134   5.337
 6662SOL     OW20884   0.995   0.355   0.624
 6662SOL    HW120885   1.029   0.426   0.687
 6662SOL    HW220886   1.011   0.265   0.664
 6663SOL     OW20887   6.272   6.094   4.561
 6663SOL    HW120888   6.319   6.033   4.624
 6663SOL    HW220889   6.266   6.185   4.601
 6664SOL     OW20890   2.214   6.909   0.603
 6664SOL    HW120891   2.153   6.833   0.623
 6664SOL    HW220892   2.301   6.874   0.568
 6665SOL     OW20893   1.692   5.985   4.563
 6665SOL    HW120894   1.763   5.941   4.619
 6665SOL    HW220895   1.695   6.084   4.578
 6666SOL     OW20896   5.702   6.274   6.392
 6666SOL    HW120897   5.731   6.210   6.321
 6666SOL    HW220898   5.762   6.354   6.391
 6667SOL     OW20899   6.269   6.852   6.086
 6667SOL    HW120900   6.293   6.839   6.182
 6667SOL    HW220901   6.352   6.858   6.031
 6668SOL     OW20902   6.937   5.758   0.921
 6668SOL    HW120903   6.889   5.672   0.903
 6668SOL    HW220904   0.011   5.748   0.894
 6669SOL     OW20905   2.594   2.021   2.147
 6669SOL    HW120906   2.670   2.029   2.211
 6669SOL    HW220907   2.512   1.990   2.195
 6670SOL     OW20908   3.232   1.599   5.449
 6670SOL    HW120909   3.255   1.540   5.526
 6670SOL    HW220910   3.238   1.695   5.477
 6671SOL     OW20911   4.264   6.767   0.514
 6671SOL    HW120912   4.182   6.777   0.458
 6671SOL    HW220913   4.318   6.690   0.481
 6672SOL     OW20914   6.301   2.750   6.451
 6672SOL    HW120915   6.307   2.717   6.546
 6672SOL    HW220916   6.288   2.849   6.451
 6673SOL     OW20917   4.734   4.521   3.827
 6673SOL    HW120918   4.828   4.549   3.843
 6673SOL    HW220919   4.699   4.474   3.908
 6674SOL     OW20920   0.752   3.513   6.996
 6674SOL    HW120921   0.652   3.503   6.996
 6674SOL    HW220922   0.785   3.514   6.902
 6675SOL     OW20923   5.858   3.918   0.403
 6675SOL    HW120924   5.889   4.003   0.447
 6675SOL    HW220925   5.758   3.921   0.394
 6676SOL     OW20926   0.901   3.926   5.481
 6676SOL    HW120927   0.896   3.827   5.491
 6676SOL    HW220928   0.865   3.953   5.392
 6677SOL     OW20929   1.043   1.828   6.115
 6677SOL    HW120930   1.068   1.876   6.198
 6677SOL    HW220931   0.944   1.831   6.103
 6678SOL     OW20932   3.291   3.617   0.006
 6678SOL    HW120933   3.378   3.625   0.055
 6678SOL    HW220934   3.278   3.695   6.969
 6679SOL     OW20935   3.185   0.697   4.268
 6679SOL    HW120936   3.224   0.682   4.178
 6679SOL    HW220937   3.096   0.652   4.275
 6680SOL     OW20938   4.629   6.663   6.628
 6680SOL    HW120939   4.629   6.594   6.556
 6680SOL    HW220940   4.586   6.747   6.594
 6681SOL     OW20941   4.060   5.429   1.143
 6681SOL    HW120942   4.119   5.449   1.221
 6681SOL    HW220943   4.027   5.515   1.103
 6682SOL     OW20944   1.521   4.201   0.978
 6682SOL    HW120945   1.575   4.181   0.897
 6682SOL    HW220946   1.547   4.291   1.014
 6683SOL     OW20947   5.615   3.416   5.204
 6683SOL    HW120948   5.627   3.423   5.105
 6683SOL    HW220949   5.696   3.452   5.251
 6684SOL     OW20950   3.304   6.054   2.109
 6684SOL    HW120951   3.219   6.006   2.088
 6684SOL    HW220952   3.299   6.148   2.072
 6685SOL     OW20953   5.743   3.108   5.684
 6685SOL    HW120954   5.804   3.186   5.694
 6685SOL    HW220955   5.789   3.026   5.720
 6686SOL     OW20956   5.010   5.428   4.063
 6686SOL    HW120957   5.072   5.448   4.139
 6686SOL    HW220958   5.024   5.495   3.990
 6687SOL     OW20959   0.933   3.266   1.298
 6687SOL    HW120960   0.894   3.238   1.211
 6687SOL    HW220961   0.861   3.297   1.359
 6688SOL     OW20962   6.303   4.608   1.672
 6688SOL    HW120963   6.302   4.680   1.741
 6688SOL    HW220964   6.211   4.569   1.662
 6689SOL     OW20965   3.914   3.502   6.600
 6689SOL    HW120966   3.959   3.424   6.645
 6689SOL    HW220967   3.836   3.470   6.547
 6690SOL     OW20968   0.432   0.712   0.587
 6690SOL    HW120969   0.395   0.636   0.639
 6690SOL    HW220970   0.418   0.696   0.489
 6691SOL     OW20971   2.494   0.027   2.037
 6691SOL    HW120972   2.414   0.018   2.096
 6691SOL    HW220973   2.476   7.008   1.948
 6692SOL     OW20974   4.044   3.123   3.856
 6692SOL    HW120975   4.030   3.146   3.952
 6692SOL    HW220976   4.114   3.051   3.849
 6693SOL     OW20977   3.745   2.185   5.293
 6693SOL    HW120978   3.769   2.282   5.298
 6693SOL    HW220979   3.645   2.176   5.287
 6694SOL     OW20980   4.268   5.668   1.293
 6694SOL    HW120981   4.260   5.642   1.389
 6694SOL    HW220982   4.215   5.751   1.276
 6695SOL     OW20983   2.645   2.126   6.751
 6695SOL    HW120984   2.741   2.106   6.774
 6695SOL    HW220985   2.604   2.179   6.825
 6696SOL     OW20986   3.187   3.220   4.697
 6696SOL    HW120987   3.241   3.299   4.729
 6696SOL    HW220988   3.140   3.178   4.774
 6697SOL     OW20989   4.692   2.109   3.085
 6697SOL    HW120990   4.636   2.111   3.002
 6697SOL    HW220991   4.710   2.015   3.111
 6698SOL     OW20992   2.910   2.258   0.528
 6698SOL    HW120993   2.943   2.230   0.618
 6698SOL    HW220994   2.981   2.309   0.480
 6699SOL     OW20995   2.917   5.836   5.504
 6699SOL    HW120996   2.969   5.816   5.421
 6699SOL    HW220997   2.824   5.800   5.495
 6700SOL     OW20998   0.806   0.687   1.298
 6700SOL    HW120999   0.815   0.766   1.359
 6700SOL    HW221000   0.839   0.711   1.207
 6701SOL     OW21001   5.936   5.109   2.109
 6701SOL    HW121002   5.979   5.034   2.159
 6701SOL    HW221003   5.837   5.108   2.125
 6702SOL     OW21004   2.983   2.041   1.534
 6702SOL    HW121005   2.978   2.098   1.452
 6702SOL    HW221006   3.001   2.099   1.613
 6703SOL     OW21007   5.943   1.080   0.335
 6703SOL    HW121008   5.948   1.049   0.240
 6703SOL    HW221009   6.033   1.108   0.366
 6704SOL     OW21010   3.925   1.789   3.343
 6704SOL    HW121011   3.969   1.779   3.432
 6704SOL    HW221012   3.856   1.718   3.332
 6705SOL     OW21013   6.294   4.188   1.441
 6705SOL    HW121014   6.392   4.203   1.438
 6705SOL    HW221015   6.260   4.165   1.349
 6706SOL     OW21016   1.731   4.596   1.525
 6706SOL    HW121017   1.732   4.518   1.588
 6706SOL    HW221018   1.637   4.625   1.510
 6707SOL     OW21019   6.283   6.471   3.654
 6707SOL    HW121020   6.231   6.540   3.706
 6707SOL    HW221021   6.226   6.435   3.581
 6708SOL     OW21022   0.124   4.618   0.707
 6708SOL    HW121023   0.067   4.672   0.644
 6708SOL    HW221024   0.105   4.646   0.801
 6709SOL     OW21025   2.317   6.422   2.194
 6709SOL    HW121026   2.254   6.496   2.214
 6709SOL    HW221027   2.351   6.432   2.100
 6710SOL     OW21028   3.999   1.754   6.409
 6710SOL    HW121029   3.923   1.818   6.416
 6710SOL    HW221030   4.015   1.732   6.313
 6711SOL     OW21031   4.823   6.277   6.324
 6711SOL    HW121032   4.817   6.179   6.303
 6711SOL    HW221033   4.917   6.300   6.349
 6712SOL     OW21034   5.406   4.181   0.528
 6712SOL    HW121035   5.473   4.239   0.575
 6712SOL    HW221036   5.376   4.108   0.590
 6713SOL     OW21037   2.213   0.400   2.484
 6713SOL    HW121038   2.159   0.324   2.449
 6713SOL    HW221039   2.278   0.429   2.414
 6714SOL     OW21040   6.821   0.886   5.736
 6714SOL    HW121041   6.764   0.947   5.681
 6714SOL    HW221042   6.873   0.940   5.803
 6715SOL     OW21043   0.341   0.375   0.486
 6715SOL    HW121044   0.275   0.448   0.501
 6715SOL    HW221045   0.420   0.387   0.546
 6716SOL     OW21046   0.237   5.614   1.810
 6716SOL    HW121047   0.247   5.655   1.900
 6716SOL    HW221048   0.323   5.625   1.759
 6717SOL     OW21049   3.631   2.513   6.766
 6717SOL    HW121050   3.586   2.431   6.730
 6717SOL    HW221051   3.717   2.488   6.809
 6718SOL     OW21052   5.380   0.829   0.657
 6718SOL    HW121053   5.286   0.795   0.658
 6718SOL    HW221054   5.379   0.929   0.656
 6719SOL     OW21055   2.787   6.649   6.475
 6719SOL    HW121056   2.816   6.562   6.436
 6719SOL    HW221057   2.734   6.632   6.558
 6720SOL     OW21058   1.633   0.614   4.470
 6720SOL    HW121059   1.695   0.583   4.543
 6720SOL    HW221060   1.539   0.612   4.504
 6721SOL     OW21061   6.818   6.468   0.493
 6721SOL    HW121062   6.723   6.458   0.522
 6721SOL    HW221063   6.852   6.379   0.461
 6722SOL     OW21064   0.021   3.103   1.552
 6722SOL    HW121065   6.989   3.158   1.489
 6722SOL    HW221066   7.009   3.009   1.552
 6723SOL     OW21067   1.972   6.262   4.464
 6723SOL    HW121068   1.952   6.183   4.406
 6723SOL    HW221069   1.904   6.269   4.537
 6724SOL     OW21070   2.201   3.744   5.845
 6724SOL    HW121071   2.130   3.730   5.776
 6724SOL    HW221072   2.280   3.688   5.823
 6725SOL     OW21073   0.247   3.575   1.744
 6725SOL    HW121074   0.330   3.520   1.732
 6725SOL    HW221075   0.215   3.567   1.838
 6726SOL     OW21076   1.042   2.608   5.114
 6726SOL    HW121077   1.050   2.516   5.153
 6726SOL    HW221078   1.132   2.652   5.114
 6727SOL     OW21079   0.780   4.822   5.222
 6727SOL    HW121080   0.879   4.835   5.228
 6727SOL    HW221081   0.752   4.748   5.284
 6728SOL     OW21082   3.385   2.095   2.118
 6728SOL    HW121083   3.312   2.163   2.124
 6728SOL    HW221084   3.462   2.135   2.068
 6729SOL     OW21085   6.342   0.852   2.438
 6729SOL    HW121086   6.414   0.822   2.376
 6729SOL    HW221087   6.261   0.794   2.426
 6730SOL     OW21088   1.761   6.805   1.362
 6730SOL    HW121089   1.741   6.707   1.355
 6730SOL    HW221090   1.855   6.822   1.331
 6731SOL     OW21091   1.319   6.219   1.103
 6731SOL    HW121092   1.280   6.238   1.012
 6731SOL    HW221093   1.391   6.150   1.094
 6732SOL     OW21094   5.577   4.510   4.952
 6732SOL    HW121095   5.572   4.422   4.905
 6732SOL    HW221096   5.616   4.498   5.043
 6733SOL     OW21097   3.785   5.296   6.188
 6733SOL    HW121098   3.850   5.288   6.112
 6733SOL    HW221099   3.701   5.338   6.155
 6734SOL     OW21100   5.860   2.719   4.303
 6734SOL    HW121101   5.847   2.620   4.299
 6734SOL    HW221102   5.883   2.745   4.397
 6735SOL     OW21103   0.060   4.304   4.753
 6735SOL    HW121104   0.026   4.358   4.829
 6735SOL    HW221105   0.089   4.214   4.785
 6736SOL     OW21106   3.498   3.674   0.192
 6736SOL    HW121107   3.436   3.726   0.250
 6736SOL    HW221108   3.591   3.712   0.200
 6737SOL     OW21109   1.514   2.292   0.786
 6737SOL    HW121110   1.605   2.329   0.805
 6737SOL    HW221111   1.512   2.196   0.813
 6738SOL     OW21112   1.356   6.020   3.177
 6738SOL    HW121113   1.299   5.942   3.202
 6738SOL    HW221114   1.413   5.996   3.099
 6739SOL     OW21115   4.413   5.951   4.445
 6739SOL    HW121116   4.433   5.917   4.353
 6739SOL    HW221117   4.456   6.040   4.458
 6740SOL     OW21118   1.136   0.498   5.022
 6740SOL    HW121119   1.065   0.435   4.990
 6740SOL    HW221120   1.120   0.521   5.118
 6741SOL     OW21121   4.354   1.876   5.180
 6741SOL    HW121122   4.446   1.909   5.160
 6741SOL    HW221123   4.360   1.796   5.240
 6742SOL     OW21124   5.495   5.886   2.922
 6742SOL    HW121125   5.517   5.982   2.941
 6742SOL    HW221126   5.576   5.830   2.938
 6743SOL     OW21127   4.091   4.770   6.531
 6743SOL    HW121128   4.116   4.837   6.602
 6743SOL    HW221129   4.007   4.724   6.559
 6744SOL     OW21130   6.085   4.561   6.030
 6744SOL    HW121131   6.042   4.647   6.004
 6744SOL    HW221132   6.183   4.576   6.046
 6745SOL     OW21133   6.937   6.806   3.535
 6745SOL    HW121134   6.971   6.720   3.496
 6745SOL    HW221135   7.014   6.870   3.544
 6746SOL     OW21136   1.048   0.882   3.433
 6746SOL    HW121137   1.035   0.956   3.499
 6746SOL    HW221138   1.063   0.921   3.342
 6747SOL     OW21139   5.389   1.648   4.641
 6747SOL    HW121140   5.390   1.588   4.721
 6747SOL    HW221141   5.311   1.710   4.646
 6748SOL     OW21142   3.187   1.751   4.420
 6748SOL    HW121143   3.253   1.676   4.419
 6748SOL    HW221144   3.212   1.815   4.493
 6749SOL     OW21145   3.600   5.050   0.417
 6749SOL    HW121146   3.588   4.953   0.394
 6749SOL    HW221147   3.678   5.060   0.479
 6750SOL     OW21148   3.541   2.012   5.028
 6750SOL    HW121149   3.526   2.012   5.127
 6750SOL    HW221150   3.516   1.922   4.991
 6751SOL     OW21151   4.932   6.924   3.227
 6751SOL    HW121152   4.939   6.910   3.326
 6751SOL    HW221153   4.976   7.010   3.203
 6752SOL     OW21154   1.605   0.986   3.188
 6752SOL    HW121155   1.646   0.929   3.259
 6752SOL    HW221156   1.670   1.057   3.161
 6753SOL     OW21157   2.853   0.550   6.654
 6753SOL    HW121158   2.839   0.466   6.603
 6753SOL    HW221159   2.846   0.531   6.752
 6754SOL     OW21160   6.748   1.701   0.857
 6754SOL    HW121161   6.689   1.778   0.835
 6754SOL    HW221162   6.741   1.680   0.954
 6755SOL     OW21163   4.247   1.288   2.645
 6755SOL    HW121164   4.307   1.219   2.604
 6755SOL    HW221165   4.174   1.242   2.696
 6756SOL     OW21166   3.913   5.764   5.221
 6756SOL    HW121167   3.831   5.774   5.166
 6756SOL    HW221168   3.975   5.698   5.178
 6757SOL     OW21169   4.131   2.188   0.846
 6757SOL    HW121170   4.034   2.167   0.828
 6757SOL    HW221171   4.137   2.276   0.893
 6758SOL     OW21172   6.227   1.730   2.414
 6758SOL    HW121173   6.270   1.810   2.457
 6758SOL    HW221174   6.212   1.749   2.317
 6759SOL     OW21175   1.257   4.192   4.531
 6759SOL    HW121176   1.334   4.239   4.575
 6759SOL    HW221177   1.267   4.093   4.542
 6760SOL     OW21178   6.626   4.227   2.656
 6760SOL    HW121179   6.723   4.242   2.670
 6760SOL    HW221180   6.591   4.167   2.729
 6761SOL     OW21181   6.725   2.692   5.522
 6761SOL    HW121182   6.742   2.612   5.580
 6761SOL    HW221183   6.646   2.742   5.557
 6762SOL     OW21184   0.978   5.185   5.063
 6762SOL    HW121185   1.075   5.208   5.050
 6762SOL    HW221186   0.961   5.092   5.030
 6763SOL     OW21187   0.502   5.125   3.541
 6763SOL    HW121188   0.507   5.068   3.623
 6763SOL    HW221189   0.525   5.220   3.565
 6764SOL     OW21190   1.311   5.136   0.975
 6764SOL    HW121191   1.216   5.166   0.980
 6764SOL    HW221192   1.372   5.213   0.996
 6765SOL     OW21193   5.538   4.210   3.953
 6765SOL    HW121194   5.628   4.197   3.911
 6765SOL    HW221195   5.538   4.170   4.045
 6766SOL     OW21196   5.115   6.685   6.256
 6766SOL    HW121197   5.194   6.626   6.275
 6766SOL    HW221198   5.134   6.777   6.288
 6767SOL     OW21199   2.325   1.788   1.388
 6767SOL    HW121200   2.311   1.854   1.314
 6767SOL    HW221201   2.339   1.697   1.349
 6768SOL     OW21202   1.496   6.578   4.451
 6768SOL    HW121203   1.568   6.644   4.430
 6768SOL    HW221204   1.521   6.488   4.415
 6769SOL     OW21205   2.990   0.616   6.152
 6769SOL    HW121206   3.004   0.531   6.204
 6769SOL    HW221207   3.076   0.643   6.108
 6770SOL     OW21208   5.374   1.807   3.465
 6770SOL    HW121209   5.372   1.746   3.386
 6770SOL    HW221210   5.303   1.876   3.455
 6771SOL     OW21211   3.882   1.707   2.536
 6771SOL    HW121212   3.903   1.803   2.554
 6771SOL    HW221213   3.962   1.663   2.496
 6772SOL     OW21214   4.464   2.512   2.232
 6772SOL    HW121215   4.400   2.589   2.241
 6772SOL    HW221216   4.467   2.482   2.137
 6773SOL     OW21217   0.182   5.892   1.711
 6773SOL    HW121218   0.172   5.884   1.611
 6773SOL    HW221219   0.194   5.802   1.751
 6774SOL     OW21220   1.259   3.922   5.300
 6774SOL    HW121221   1.340   3.967   5.338
 6774SOL    HW221222   1.252   3.943   5.202
 6775SOL     OW21223   2.532   2.238   2.636
 6775SOL    HW121224   2.593   2.273   2.565
 6775SOL    HW221225   2.533   2.300   2.715
 6776SOL     OW21226   4.528   3.205   0.180
 6776SOL    HW121227   4.530   3.248   0.090
 6776SOL    HW221228   4.505   3.109   0.171
 6777SOL     OW21229   4.971   4.594   0.784
 6777SOL    HW121230   5.032   4.522   0.752
 6777SOL    HW221231   4.949   4.656   0.709
 6778SOL     OW21232   6.844   5.461   1.968
 6778SOL    HW121233   6.926   5.463   2.026
 6778SOL    HW221234   6.820   5.554   1.941
 6779SOL     OW21235   5.333   5.829   5.498
 6779SOL    HW121236   5.283   5.796   5.577
 6779SOL    HW221237   5.430   5.841   5.522
 6780SOL     OW21238   1.918   2.371   2.239
 6780SOL    HW121239   1.930   2.470   2.230
 6780SOL    HW221240   1.962   2.339   2.322
 6781SOL     OW21241   6.301   2.336   4.582
 6781SOL    HW121242   6.362   2.267   4.618
 6781SOL    HW221243   6.292   2.411   4.647
 6782SOL     OW21244   1.076   1.038   3.197
 6782SOL    HW121245   0.982   1.055   3.166
 6782SOL    HW221246   1.132   1.011   3.119
 6783SOL     OW21247   6.636   1.154   5.877
 6783SOL    HW121248   6.575   1.233   5.866
 6783SOL    HW221249   6.639   1.102   5.791
 6784SOL     OW21250   1.700   3.269   0.894
 6784SOL    HW121251   1.610   3.228   0.899
 6784SOL    HW221252   1.761   3.210   0.842
 6785SOL     OW21253   6.193   5.747   4.728
 6785SOL    HW121254   6.112   5.804   4.713
 6785SOL    HW221255   6.192   5.713   4.822
 6786SOL     OW21256   1.939   1.902   0.727
 6786SOL    HW121257   1.881   1.821   0.715
 6786SOL    HW221258   1.960   1.913   0.825
 6787SOL     OW21259   2.770   2.354   0.052
 6787SOL    HW121260   2.844   2.373   7.011
 6787SOL    HW221261   2.701   2.297   0.008
 6788SOL     OW21262   1.220   4.441   1.395
 6788SOL    HW121263   1.201   4.347   1.423
 6788SOL    HW221264   1.163   4.464   1.316
 6789SOL     OW21265   1.038   5.405   3.353
 6789SOL    HW121266   1.099   5.336   3.314
 6789SOL    HW221267   0.980   5.443   3.281
 6790SOL     OW21268   0.927   3.637   0.571
 6790SOL    HW121269   0.875   3.554   0.550
 6790SOL    HW221270   0.973   3.669   0.489
 6791SOL     OW21271   3.755   2.049   2.214
 6791SOL    HW121272   3.717   2.097   2.135
 6791SOL    HW221273   3.683   1.994   2.257
 6792SOL     OW21274   5.518   6.880   4.533
 6792SOL    HW121275   5.495   6.975   4.510
 6792SOL    HW221276   5.589   6.878   4.603
 6793SOL     OW21277   1.792   1.558   0.099
 6793SOL    HW121278   1.719   1.515   0.045
 6793SOL    HW221279   1.842   1.487   0.149
 6794SOL     OW21280   5.138   1.541   5.675
 6794SOL    HW121281   5.049   1.499   5.655
 6794SOL    HW221282   5.187   1.485   5.741
 6795SOL     OW21283   1.448   6.443   1.161
 6795SOL    HW121284   1.374   6.502   1.191
 6795SOL    HW221285   1.411   6.360   1.119
 6796SOL     OW21286   5.583   1.045   3.237
 6796SOL    HW121287   5.490   1.064   3.205
 6796SOL    HW221288   5.586   1.057   3.336
 6797SOL     OW21289   6.778   2.315   1.590
 6797SOL    HW121290   6.721   2.242   1.552
 6797SOL    HW221291   6.872   2.281   1.601
 6798SOL     OW21292   6.267   6.150   1.566
 6798SOL    HW121293   6.305   6.223   1.622
 6798SOL    HW221294   6.170   6.137   1.589
 6799SOL     OW21295   6.784   0.829   2.339
 6799SOL    HW121296   6.745   0.754   2.286
 6799SOL    HW221297   6.813   0.903   2.278
 6800SOL     OW21298   2.219   2.503   1.821
 6800SOL    HW121299   2.172   2.534   1.903
 6800SOL    HW221300   2.288   2.570   1.794
 6801SOL     OW21301   1.137   0.346   3.208
 6801SOL    HW121302   1.064   0.279   3.218
 6801SOL    HW221303   1.122   0.421   3.272
 6802SOL     OW21304   3.732   6.051   1.575
 6802SOL    HW121305   3.666   5.977   1.569
 6802SOL    HW221306   3.738   6.097   1.487
 6803SOL     OW21307   4.192   3.728   5.803
 6803SOL    HW121308   4.143   3.777   5.875
 6803SOL    HW221309   4.288   3.756   5.802
 6804SOL     OW21310   3.676   5.168   3.590
 6804SOL    HW121311   3.760   5.176   3.538
 6804SOL    HW221312   3.663   5.073   3.619
 6805SOL     OW21313   0.019   4.957   6.475
 6805SOL    HW121314   0.102   5.002   6.507
 6805SOL    HW221315   6.989   4.925   6.554
 6806SOL     OW21316   6.553   1.316   3.080
 6806SOL    HW121317   6.538   1.408   3.117
 6806SOL    HW221318   6.630   1.273   3.127
 6807SOL     OW21319   2.948   2.931   1.599
 6807SOL    HW121320   3.011   2.976   1.535
 6807SOL    HW221321   2.994   2.854   1.643
 6808SOL     OW21322   6.576   1.976   6.367
 6808SOL    HW121323   6.636   1.931   6.301
 6808SOL    HW221324   6.484   1.984   6.328
 6809SOL     OW21325   0.473   2.973   1.118
 6809SOL    HW121326   0.511   2.960   1.209
 6809SOL    HW221327   0.512   2.905   1.055
 6810SOL     OW21328   2.220   1.291   2.237
 6810SOL    HW121329   2.279   1.239   2.300
 6810SOL    HW221330   2.204   1.237   2.154
 6811SOL     OW21331   5.628   4.185   1.569
 6811SOL    HW121332   5.688   4.247   1.619
 6811SOL    HW221333   5.532   4.212   1.582
 6812SOL     OW21334   3.136   3.792   4.383
 6812SOL    HW121335   3.175   3.780   4.291
 6812SOL    HW221336   3.209   3.792   4.451
 6813SOL     OW21337   5.526   3.971   2.878
 6813SOL    HW121338   5.493   3.934   2.965
 6813SOL    HW221339   5.513   3.903   2.806
 6814SOL     OW21340   3.918   2.313   6.221
 6814SOL    HW121341   3.979   2.290   6.145
 6814SOL    HW221342   3.970   2.314   6.306
 6815SOL     OW21343   3.128   6.226   0.328
 6815SOL    HW121344   3.225   6.230   0.355
 6815SOL    HW221345   3.081   6.159   0.386
 6816SOL     OW21346   6.655   0.803   6.435
 6816SOL    HW121347   6.678   0.794   6.338
 6816SOL    HW221348   6.731   0.770   6.491
 6817SOL     OW21349   2.359   2.640   2.690
 6817SOL    HW121350   2.302   2.685   2.758
 6817SOL    HW221351   2.308   2.628   2.605
 6818SOL     OW21352   2.093   6.419   0.760
 6818SOL    HW121353   2.092   6.333   0.811
 6818SOL    HW221354   2.118   6.401   0.665
 6819SOL     OW21355   3.760   1.541   3.352
 6819SOL    HW121356   3.666   1.538   3.387
 6819SOL    HW221357   3.815   1.472   3.399
 6820SOL     OW21358   2.129   6.140   1.205
 6820SOL    HW121359   2.121   6.210   1.275
 6820SOL    HW221360   2.043   6.088   1.199
 6821SOL     OW21361   4.131   2.177   5.280
 6821SOL    HW121362   4.084   2.154   5.195
 6821SOL    HW221363   4.112   2.108   5.350
 6822SOL     OW21364   5.705   2.151   5.823
 6822SOL    HW121365   5.698   2.051   5.832
 6822SOL    HW221366   5.801   2.178   5.831
 6823SOL     OW21367   5.672   3.951   5.903
 6823SOL    HW121368   5.681   3.888   5.826
 6823SOL    HW221369   5.720   4.037   5.882
 6824SOL     OW21370   1.530   1.751   0.125
 6824SOL    HW121371   1.521   1.749   0.026
 6824SOL    HW221372   1.462   1.812   0.164
 6825SOL     OW21373   5.818   0.359   0.420
 6825SOL    HW121374   5.897   0.363   0.359
 6825SOL    HW221375   5.847   0.379   0.514
 6826SOL     OW21376   1.815   3.263   3.482
 6826SOL    HW121377   1.807   3.341   3.420
 6826SOL    HW221378   1.751   3.192   3.455
 6827SOL     OW21379   4.798   5.127   5.729
 6827SOL    HW121380   4.858   5.082   5.795
 6827SOL    HW221381   4.802   5.226   5.742
 6828SOL     OW21382   3.360   1.268   1.696
 6828SOL    HW121383   3.338   1.337   1.764
 6828SOL    HW221384   3.444   1.294   1.647
 6829SOL     OW21385   4.777   5.951   4.974
 6829SOL    HW121386   4.868   5.976   5.006
 6829SOL    HW221387   4.715   6.029   4.983
 6830SOL     OW21388   4.940   0.779   3.072
 6830SOL    HW121389   4.874   0.716   3.031
 6830SOL    HW221390   5.033   0.750   3.049
 6831SOL     OW21391   1.439   0.801   6.869
 6831SOL    HW121392   1.425   0.889   6.914
 6831SOL    HW221393   1.359   0.778   6.814
 6832SOL     OW21394   2.385   4.233   0.718
 6832SOL    HW121395   2.376   4.146   0.670
 6832SOL    HW221396   2.301   4.286   0.709
 6833SOL     OW21397   3.235   5.026   6.250
 6833SOL    HW121398   3.222   4.946   6.192
 6833SOL    HW221399   3.328   5.025   6.289
 6834SOL     OW21400   5.492   0.160   0.809
 6834SOL    HW121401   5.424   0.210   0.754
 6834SOL    HW221402   5.471   0.172   0.906
 6835SOL     OW21403   4.526   0.585   4.926
 6835SOL    HW121404   4.573   0.513   4.978
 6835SOL    HW221405   4.449   0.545   4.877
 6836SOL     OW21406   3.253   4.528   0.702
 6836SOL    HW121407   3.294   4.492   0.618
 6836SOL    HW221408   3.178   4.468   0.731
 6837SOL     OW21409   0.856   1.988   2.979
 6837SOL    HW121410   0.810   1.949   3.058
 6837SOL    HW221411   0.952   2.004   3.000
 6838SOL     OW21412   3.697   6.389   0.230
 6838SOL    HW121413   3.644   6.345   0.158
 6838SOL    HW221414   3.657   6.368   0.319
 6839SOL     OW21415   5.544   1.431   6.098
 6839SOL    HW121416   5.642   1.447   6.087
 6839SOL    HW221417   5.513   1.471   6.184
 6840SOL     OW21418   3.269   0.571   4.027
 6840SOL    HW121419   3.366   0.546   4.037
 6840SOL    HW221420   3.257   0.627   3.945
 6841SOL     OW21421   3.881   4.705   0.499
 6841SOL    HW121422   3.856   4.745   0.410
 6841SOL    HW221423   3.809   4.723   0.565
 6842SOL     OW21424   2.410   3.411   1.032
 6842SOL    HW121425   2.428   3.396   0.935
 6842SOL    HW221426   2.355   3.336   1.067
 6843SOL     OW21427   6.298   6.438   2.000
 6843SOL    HW121428   6.301   6.520   1.943
 6843SOL    HW221429   6.265   6.463   2.092
 6844SOL     OW21430   4.486   0.441   3.708
 6844SOL    HW121431   4.506   0.479   3.798
 6844SOL    HW221432   4.389   0.416   3.702
 6845SOL     OW21433   6.240   5.129   3.742
 6845SOL    HW121434   6.306   5.089   3.805
 6845SOL    HW221435   6.194   5.206   3.787
 6846SOL     OW21436   3.990   2.733   0.425
 6846SOL    HW121437   3.899   2.749   0.388
 6846SOL    HW221438   4.032   2.821   0.449
 6847SOL     OW21439   0.100   4.237   3.285
 6847SOL    HW121440   0.124   4.324   3.329
 6847SOL    HW221441   0.005   4.214   3.307
 6848SOL     OW21442   4.245   6.935   3.800
 6848SOL    HW121443   4.227   6.839   3.778
 6848SOL    HW221444   4.240   6.989   3.716
 6849SOL     OW21445   4.039   4.855   4.513
 6849SOL    HW121446   4.096   4.817   4.441
 6849SOL    HW221447   3.943   4.845   4.490
 6850SOL     OW21448   6.056   4.313   1.988
 6850SOL    HW121449   6.069   4.386   2.056
 6850SOL    HW221450   6.145   4.280   1.957
 6851SOL     OW21451   0.912   2.625   3.031
 6851SOL    HW121452   1.001   2.592   3.000
 6851SOL    HW221453   0.897   2.599   3.127
 6852SOL     OW21454   2.726   4.900   0.714
 6852SOL    HW121455   2.734   4.877   0.617
 6852SOL    HW221456   2.728   4.817   0.769
 6853SOL     OW21457   6.501   3.866   0.191
 6853SOL    HW121458   6.557   3.791   0.225
 6853SOL    HW221459   6.485   3.855   0.093
 6854SOL     OW21460   4.739   2.213   6.390
 6854SOL    HW121461   4.807   2.269   6.438
 6854SOL    HW221462   4.647   2.245   6.413
 6855SOL     OW21463   3.663   5.645   3.253
 6855SOL    HW121464   3.584   5.705   3.254
 6855SOL    HW221465   3.637   5.555   3.287
 6856SOL     OW21466   5.239   3.675   5.303
 6856SOL    HW121467   5.311   3.622   5.347
 6856SOL    HW221468   5.153   3.624   5.306
 6857SOL     OW21469   3.033   2.386   6.938
 6857SOL    HW121470   3.093   2.372   6.859
 6857SOL    HW221471   3.058   2.472   6.983
 6858SOL     OW21472   3.818   3.786   3.685
 6858SOL    HW121473   3.851   3.697   3.653
 6858SOL    HW221474   3.826   3.790   3.784
 6859SOL     OW21475   0.286   0.943   0.552
 6859SOL    HW121476   0.303   0.997   0.470
 6859SOL    HW221477   0.346   0.863   0.553
 6860SOL     OW21478   6.819   5.001   1.357
 6860SOL    HW121479   6.817   5.033   1.262
 6860SOL    HW221480   6.898   5.042   1.404
 6861SOL     OW21481   4.390   4.897   0.148
 6861SOL    HW121482   4.294   4.904   0.174
 6861SOL    HW221483   4.447   4.912   0.228
 6862SOL     OW21484   1.667   4.792   5.718
 6862SOL    HW121485   1.699   4.882   5.687
 6862SOL    HW221486   1.743   4.728   5.717
 6863SOL     OW21487   5.617   0.251   6.070
 6863SOL    HW121488   5.560   0.319   6.116
 6863SOL    HW221489   5.628   0.171   6.129
 6864SOL     OW21490   2.686   5.597   4.399
 6864SOL    HW121491   2.757   5.622   4.465
 6864SOL    HW221492   2.608   5.660   4.409
 6865SOL     OW21493   1.439   6.272   3.356
 6865SOL    HW121494   1.429   6.176   3.384
 6865SOL    HW221495   1.421   6.280   3.258
 6866SOL     OW21496   6.343   4.993   3.304
 6866SOL    HW121497   6.287   4.997   3.221
 6866SOL    HW221498   6.368   5.085   3.332
 6867SOL     OW21499   2.569   3.892   1.670
 6867SOL    HW121500   2.646   3.838   1.702
 6867SOL    HW221501   2.485   3.862   1.716
 6868SOL     OW21502   1.303   5.321   5.967
 6868SOL    HW121503   1.347   5.231   5.969
 6868SOL    HW221504   1.354   5.385   6.026
 6869SOL     OW21505   6.184   1.203   5.724
 6869SOL    HW121506   6.138   1.272   5.668
 6869SOL    HW221507   6.129   1.182   5.804
 6870SOL     OW21508   0.364   4.938   1.912
 6870SOL    HW121509   0.371   4.855   1.857
 6870SOL    HW221510   0.370   5.018   1.854
 6871SOL     OW21511   6.062   4.536   3.032
 6871SOL    HW121512   6.150   4.575   3.060
 6871SOL    HW221513   6.015   4.498   3.112
 6872SOL     OW21514   0.035   2.742   1.088
 6872SOL    HW121515   0.100   2.814   1.115
 6872SOL    HW221516   7.016   2.766   1.000
 6873SOL     OW21517   6.800   3.843   5.677
 6873SOL    HW121518   6.728   3.908   5.651
 6873SOL    HW221519   6.762   3.751   5.682
 6874SOL     OW21520   0.360   5.945   2.563
 6874SOL    HW121521   0.339   6.035   2.602
 6874SOL    HW221522   0.428   5.956   2.490
 6875SOL     OW21523   2.431   2.552   3.193
 6875SOL    HW121524   2.362   2.501   3.143
 6875SOL    HW221525   2.423   2.649   3.172
 6876SOL     OW21526   3.253   6.848   3.715
 6876SOL    HW121527   3.193   6.901   3.654
 6876SOL    HW221528   3.270   6.758   3.675
 6877SOL     OW21529   2.530   4.162   1.230
 6877SOL    HW121530   2.465   4.155   1.154
 6877SOL    HW221531   2.611   4.211   1.200
 6878SOL     OW21532   3.259   1.123   5.306
 6878SOL    HW121533   3.179   1.118   5.246
 6878SOL    HW221534   3.253   1.052   5.376
 6879SOL     OW21535   0.724   2.050   0.773
 6879SOL    HW121536   0.726   2.139   0.820
 6879SOL    HW221537   0.676   1.984   0.830
 6880SOL     OW21538   1.444   4.711   4.568
 6880SOL    HW121539   1.417   4.679   4.659
 6880SOL    HW221540   1.401   4.800   4.550
 6881SOL     OW21541   1.635   3.974   0.639
 6881SOL    HW121542   1.659   3.965   0.736
 6881SOL    HW221543   1.546   4.020   0.631
 6882SOL     OW21544   2.806   0.535   6.922
 6882SOL    HW121545   2.714   0.524   6.885
 6882SOL    HW221546   2.802   0.584   7.009
 6883SOL     OW21547   4.630   1.349   0.420
 6883SOL    HW121548   4.687   1.278   0.461
 6883SOL    HW221549   4.536   1.337   0.450
 6884SOL     OW21550   2.610   4.596   4.389
 6884SOL    HW121551   2.580   4.519   4.445
 6884SOL    HW221552   2.599   4.573   4.292
 6885SOL     OW21553   3.933   5.255   3.772
 6885SOL    HW121554   3.910   5.351   3.756
 6885SOL    HW221555   3.944   5.208   3.685
 6886SOL     OW21556   6.848   0.687   4.612
 6886SOL    HW121557   6.789   0.765   4.593
 6886SOL    HW221558   6.793   0.603   4.615
 6887SOL     OW21559   5.228   5.537   6.270
 6887SOL    HW121560   5.272   5.519   6.182
 6887SOL    HW221561   5.228   5.453   6.325
 6888SOL     OW21562   5.322   6.271   6.890
 6888SOL    HW121563   5.225   6.268   6.913
 6888SOL    HW221564   5.353   6.180   6.861
 6889SOL     OW21565   2.007   2.369   5.019
 6889SOL    HW121566   1.994   2.410   4.928
 6889SOL    HW221567   2.088   2.410   5.062
 6890SOL     OW21568   4.710   6.365   1.758
 6890SOL    HW121569   4.636   6.417   1.802
 6890SOL    HW221570   4.673   6.313   1.681
 6891SOL     OW21571   1.993   4.403   3.206
 6891SOL    HW121572   2.025   4.494   3.177
 6891SOL    HW221573   2.019   4.388   3.301
 6892SOL     OW21574   3.269   2.188   3.391
 6892SOL    HW121575   3.232   2.193   3.483
 6892SOL    HW221576   3.284   2.280   3.356
 6893SOL     OW21577   4.105   4.060   0.095
 6893SOL    HW121578   4.150   4.146   0.121
 6893SOL    HW221579   4.115   4.046   7.019
 6894SOL     OW21580   6.648   4.579   1.022
 6894SOL    HW121581   6.662   4.609   0.928
 6894SOL    HW221582   6.702   4.637   1.084
 6895SOL     OW21583   3.180   4.917   0.142
 6895SOL    HW121584   3.256   4.980   0.160
 6895SOL    HW221585   3.199   4.865   0.059
 6896SOL     OW21586   2.282   0.026   3.665
 6896SOL    HW121587   2.183   0.037   3.676
 6896SOL    HW221588   2.322   7.022   3.752
 6897SOL     OW21589   4.881   4.203   6.269
 6897SOL    HW121590   4.803   4.219   6.208
 6897SOL    HW221591   4.951   4.273   6.253
 6898SOL     OW21592   3.588   1.323   1.556
 6898SOL    HW121593   3.620   1.241   1.603
 6898SOL    HW221594   3.658   1.355   1.493
 6899SOL     OW21595   5.451   6.336   1.181
 6899SOL    HW121596   5.536   6.323   1.130
 6899SOL    HW221597   5.472   6.351   1.277
 6900SOL     OW21598   6.551   6.667   5.751
 6900SOL    HW121599   6.642   6.655   5.789
 6900SOL    HW221600   6.493   6.589   5.777
 6901SOL     OW21601   0.218   6.115   6.186
 6901SOL    HW121602   0.135   6.163   6.155
 6901SOL    HW221603   0.191   6.036   6.242
 6902SOL     OW21604   5.388   6.021   6.835
 6902SOL    HW121605   5.313   5.983   6.889
 6902SOL    HW221606   5.386   5.981   6.743
 6903SOL     OW21607   2.858   5.516   4.690
 6903SOL    HW121608   2.830   5.547   4.781
 6903SOL    HW221609   2.798   5.442   4.659
 6904SOL     OW21610   5.582   0.600   4.451
 6904SOL    HW121611   5.528   0.541   4.512
 6904SOL    HW221612   5.583   0.693   4.488
 6905SOL     OW21613   5.676   6.778   6.176
 6905SOL    HW121614   5.626   6.737   6.099
 6905SOL    HW221615   5.774   6.774   6.156
 6906SOL     OW21616   4.714   1.067   3.613
 6906SOL    HW121617   4.678   1.108   3.697
 6906SOL    HW221618   4.807   1.036   3.628
 6907SOL     OW21619   5.432   2.760   1.616
 6907SOL    HW121620   5.518   2.791   1.575
 6907SOL    HW221621   5.381   2.839   1.650
 6908SOL     OW21622   1.118   5.439   6.155
 6908SOL    HW121623   1.156   5.368   6.097
 6908SOL    HW221624   1.080   5.399   6.238
 6909SOL     OW21625   5.298   4.285   1.389
 6909SOL    HW121626   5.283   4.345   1.310
 6909SOL    HW221627   5.209   4.263   1.430
 6910SOL     OW21628   6.760   2.021   3.314
 6910SOL    HW121629   6.796   2.115   3.314
 6910SOL    HW221630   6.662   2.023   3.297
 6911SOL     OW21631   4.360   6.096   4.112
 6911SOL    HW121632   4.403   6.011   4.141
 6911SOL    HW221633   4.261   6.091   4.127
 6912SOL     OW21634   3.825   4.262   6.533
 6912SOL    HW121635   3.874   4.174   6.538
 6912SOL    HW221636   3.730   4.248   6.560
 6913SOL     OW21637   4.847   5.668   4.427
 6913SOL    HW121638   4.772   5.651   4.490
 6913SOL    HW221639   4.866   5.585   4.375
 6914SOL     OW21640   5.961   3.586   5.037
 6914SOL    HW121641   6.028   3.571   4.964
 6914SOL    HW221642   5.950   3.503   5.090
 6915SOL     OW21643   6.000   2.869   1.694
 6915SOL    HW121644   6.043   2.948   1.651
 6915SOL    HW221645   5.908   2.893   1.724
 6916SOL     OW21646   6.305   2.549   7.005
 6916SOL    HW121647   6.403   2.550   0.003
 6916SOL    HW221648   6.262   2.472   0.030
 6917SOL     OW21649   3.166   5.983   1.088
 6917SOL    HW121650   3.116   6.060   1.047
 6917SOL    HW221651   3.184   5.914   1.018
 6918SOL     OW21652   0.109   3.160   3.972
 6918SOL    HW121653   0.172   3.104   4.026
 6918SOL    HW221654   0.094   3.117   3.883
 6919SOL     OW21655   0.030   6.159   3.092
 6919SOL    HW121656   0.051   6.068   3.055
 6919SOL    HW221657   7.006   6.149   3.180
 6920SOL     OW21658   4.496   5.933   5.185
 6920SOL    HW121659   4.525   5.977   5.100
 6920SOL    HW221660   4.405   5.966   5.210
 6921SOL     OW21661   5.531   5.355   3.671
 6921SOL    HW121662   5.470   5.321   3.598
 6921SOL    HW221663   5.499   5.444   3.702
 6922SOL     OW21664   2.281   5.832   5.481
 6922SOL    HW121665   2.182   5.841   5.466
 6922SOL    HW221666   2.313   5.747   5.441
 6923SOL     OW21667   4.545   5.700   3.253
 6923SOL    HW121668   4.518   5.657   3.166
 6923SOL    HW221669   4.594   5.633   3.309
 6924SOL     OW21670   2.653   3.598   6.615
 6924SOL    HW121671   2.674   3.672   6.551
 6924SOL    HW221672   2.566   3.556   6.591
 6925SOL     OW21673   4.634   6.071   4.682
 6925SOL    HW121674   4.539   6.081   4.711
 6925SOL    HW221675   4.640   6.080   4.582
 6926SOL     OW21676   3.538   2.840   0.901
 6926SOL    HW121677   3.618   2.804   0.950
 6926SOL    HW221678   3.459   2.782   0.921
 6927SOL     OW21679   4.370   2.840   6.440
 6927SOL    HW121680   4.464   2.816   6.414
 6927SOL    HW221681   4.360   2.939   6.439
 6928SOL     OW21682   5.973   5.554   0.568
 6928SOL    HW121683   6.016   5.598   0.647
 6928SOL    HW221684   6.029   5.571   0.487
 6929SOL     OW21685   5.786   5.313   1.178
 6929SOL    HW121686   5.803   5.267   1.091
 6929SOL    HW221687   5.788   5.246   1.253
 6930SOL     OW21688   0.252   0.341   2.503
 6930SOL    HW121689   0.345   0.305   2.497
 6930SOL    HW221690   0.229   0.390   2.419
 6931SOL     OW21691   2.101   0.817   2.394
 6931SOL    HW121692   2.060   0.788   2.308
 6931SOL    HW221693   2.059   0.767   2.469
 6932SOL     OW21694   4.395   6.481   0.674
 6932SOL    HW121695   4.383   6.504   0.578
 6932SOL    HW221696   4.382   6.383   0.687
 6933SOL     OW21697   3.440   6.110   4.601
 6933SOL    HW121698   3.437   6.040   4.672
 6933SOL    HW221699   3.533   6.117   4.565
 6934SOL     OW21700   5.327   3.587   6.011
 6934SOL    HW121701   5.244   3.639   5.991
 6934SOL    HW221702   5.307   3.489   6.004
 6935SOL     OW21703   4.751   5.316   2.675
 6935SOL    HW121704   4.734   5.396   2.732
 6935SOL    HW221705   4.773   5.346   2.582
 6936SOL     OW21706   5.890   1.685   3.505
 6936SOL    HW121707   5.871   1.712   3.411
 6936SOL    HW221708   5.958   1.611   3.505
 6937SOL     OW21709   6.844   6.193   0.040
 6937SOL    HW121710   6.857   6.289   0.013
 6937SOL    HW221711   6.753   6.163   0.011
 6938SOL     OW21712   5.293   3.367   5.209
 6938SOL    HW121713   5.200   3.373   5.246
 6938SOL    HW221714   5.355   3.422   5.266
 6939SOL     OW21715   1.280   4.873   2.066
 6939SOL    HW121716   1.289   4.815   1.985
 6939SOL    HW221717   1.338   4.954   2.056
 6940SOL     OW21718   4.277   0.708   6.594
 6940SOL    HW121719   4.285   0.693   6.692
 6940SOL    HW221720   4.368   0.726   6.555
 6941SOL     OW21721   3.827   3.943   1.782
 6941SOL    HW121722   3.924   3.968   1.791
 6941SOL    HW221723   3.787   3.930   1.872
 6942SOL     OW21724   5.429   0.476   1.115
 6942SOL    HW121725   5.410   0.503   1.210
 6942SOL    HW221726   5.508   0.527   1.082
 6943SOL     OW21727   4.087   5.990   0.183
 6943SOL    HW121728   4.001   6.042   0.190
 6943SOL    HW221729   4.076   5.901   0.227
 6944SOL     OW21730   0.661   4.228   6.826
 6944SOL    HW121731   0.562   4.216   6.826
 6944SOL    HW221732   0.704   4.143   6.857
 6945SOL     OW21733   6.077   1.137   6.707
 6945SOL    HW121734   6.007   1.100   6.646
 6945SOL    HW221735   6.051   1.119   6.802
 6946SOL     OW21736   5.738   6.521   0.970
 6946SOL    HW121737   5.664   6.580   1.002
 6946SOL    HW221738   5.761   6.454   1.040
 6947SOL     OW21739   3.242   6.118   6.462
 6947SOL    HW121740   3.310   6.178   6.505
 6947SOL    HW221741   3.251   6.123   6.363
 6948SOL     OW21742   0.189   0.194   0.656
 6948SOL    HW121743   0.147   0.260   0.718
 6948SOL    HW221744   0.224   0.241   0.575
 6949SOL     OW21745   4.156   6.871   2.606
 6949SOL    HW121746   4.244   6.902   2.643
 6949SOL    HW221747   4.085   6.935   2.632
 6950SOL     OW21748   2.046   2.090   4.540
 6950SOL    HW121749   2.034   2.173   4.485
 6950SOL    HW221750   2.007   2.105   4.631
 6951SOL     OW21751   6.530   5.801   5.929
 6951SOL    HW121752   6.462   5.759   5.870
 6951SOL    HW221753   6.498   5.891   5.958
 6952SOL     OW21754   1.149   6.107   3.015
 6952SOL    HW121755   1.223   6.086   3.079
 6952SOL    HW221756   1.155   6.203   2.987
 6953SOL     OW21757   4.447   6.261   0.908
 6953SOL    HW121758   4.458   6.203   0.989
 6953SOL    HW221759   4.535   6.304   0.885
 6954SOL     OW21760   6.648   3.469   3.119
 6954SOL    HW121761   6.618   3.412   3.195
 6954SOL    HW221762   6.603   3.558   3.124
 6955SOL     OW21763   5.820   6.981   2.639
 6955SOL    HW121764   5.738   6.953   2.589
 6955SOL    HW221765   5.879   6.902   2.654
 6956SOL     OW21766   5.788   5.447   3.743
 6956SOL    HW121767   5.865   5.438   3.678
 6956SOL    HW221768   5.705   5.410   3.701
 6957SOL     OW21769   6.488   5.031   0.643
 6957SOL    HW121770   6.422   5.088   0.594
 6957SOL    HW221771   6.512   4.952   0.586
 6958SOL     OW21772   3.383   2.860   4.500
 6958SOL    HW121773   3.343   2.866   4.409
 6958SOL    HW221774   3.364   2.770   4.540
 6959SOL     OW21775   1.776   2.252   3.988
 6959SOL    HW121776   1.863   2.279   3.946
 6959SOL    HW221777   1.793   2.182   4.056
 6960SOL     OW21778   2.466   4.444   1.365
 6960SOL    HW121779   2.377   4.480   1.392
 6960SOL    HW221780   2.465   4.422   1.268
 6961SOL     OW21781   6.029   1.960   3.457
 6961SOL    HW121782   6.003   1.900   3.382
 6961SOL    HW221783   5.966   1.949   3.533
 6962SOL     OW21784   4.862   6.057   1.764
 6962SOL    HW121785   4.803   6.091   1.837
 6962SOL    HW221786   4.886   6.131   1.702
 6963SOL     OW21787   5.385   6.076   1.051
 6963SOL    HW121788   5.294   6.042   1.074
 6963SOL    HW221789   5.394   6.171   1.082
 6964SOL     OW21790   3.361   0.627   5.135
 6964SOL    HW121791   3.398   0.557   5.074
 6964SOL    HW221792   3.388   0.718   5.102
 6965SOL     OW21793   0.872   1.661   0.545
 6965SOL    HW121794   0.920   1.687   0.629
 6965SOL    HW221795   0.835   1.569   0.554
 6966SOL     OW21796   0.105   1.983   3.305
 6966SOL    HW121797   0.069   1.938   3.223
 6966SOL    HW221798   0.066   2.075   3.312
 6967SOL     OW21799   2.366   0.609   5.519
 6967SOL    HW121800   2.409   0.675   5.457
 6967SOL    HW221801   2.437   0.567   5.575
 6968SOL     OW21802   4.310   6.689   2.864
 6968SOL    HW121803   4.340   6.776   2.824
 6968SOL    HW221804   4.303   6.620   2.793
 6969SOL     OW21805   3.576   2.390   0.873
 6969SOL    HW121806   3.605   2.470   0.925
 6969SOL    HW221807   3.477   2.391   0.862
 6970SOL     OW21808   4.345   4.057   5.728
 6970SOL    HW121809   4.290   3.986   5.774
 6970SOL    HW221810   4.289   4.100   5.657
 6971SOL     OW21811   6.697   4.267   2.175
 6971SOL    HW121812   6.617   4.248   2.118
 6971SOL    HW221813   6.772   4.301   2.119
 6972SOL     OW21814   5.020   4.432   3.093
 6972SOL    HW121815   4.950   4.501   3.110
 6972SOL    HW221816   5.104   4.458   3.141
 6973SOL     OW21817   0.689   2.915   4.266
 6973SOL    HW121818   0.666   2.887   4.173
 6973SOL    HW221819   0.788   2.906   4.280
 6974SOL     OW21820   2.970   3.829   2.714
 6974SOL    HW121821   2.908   3.853   2.790
 6974SOL    HW221822   3.009   3.739   2.730
 6975SOL     OW21823   1.983   6.413   6.186
 6975SOL    HW121824   2.036   6.406   6.101
 6975SOL    HW221825   1.978   6.324   6.230
 6976SOL     OW21826   5.049   5.602   4.824
 6976SOL    HW121827   5.021   5.565   4.913
 6976SOL    HW221828   5.082   5.529   4.766
 6977SOL     OW21829   3.826   3.067   1.772
 6977SOL    HW121830   3.830   2.989   1.710
 6977SOL    HW221831   3.889   3.052   1.849
 6978SOL     OW21832   5.778   1.442   2.004
 6978SOL    HW121833   5.783   1.477   2.097
 6978SOL    HW221834   5.684   1.417   1.982
 6979SOL     OW21835   0.361   4.273   1.303
 6979SOL    HW121836   0.313   4.222   1.374
 6979SOL    HW221837   0.429   4.214   1.260
 6980SOL     OW21838   1.994   0.814   4.115
 6980SOL    HW121839   1.910   0.780   4.156
 6980SOL    HW221840   1.972   0.881   4.044
 6981SOL     OW21841   3.728   2.505   5.586
 6981SOL    HW121842   3.776   2.585   5.623
 6981SOL    HW221843   3.631   2.513   5.607
 6982SOL     OW21844   1.404   0.269   5.160
 6982SOL    HW121845   1.415   0.267   5.061
 6982SOL    HW221846   1.483   0.226   5.204
 6983SOL     OW21847   3.356   2.089   4.056
 6983SOL    HW121848   3.263   2.090   4.020
 6983SOL    HW221849   3.422   2.095   3.981
 6984SOL     OW21850   2.318   2.089   3.156
 6984SOL    HW121851   2.411   2.126   3.165
 6984SOL    HW221852   2.293   2.088   3.059
 6985SOL     OW21853   5.807   5.128   1.387
 6985SOL    HW121854   5.902   5.099   1.388
 6985SOL    HW221855   5.769   5.122   1.479
 6986SOL     OW21856   2.185   6.942   5.579
 6986SOL    HW121857   2.156   6.972   5.488
 6986SOL    HW221858   2.108   6.951   5.642
 6987SOL     OW21859   5.816   1.397   6.049
 6987SOL    HW121860   5.782   1.311   6.012
 6987SOL    HW221861   5.854   1.382   6.140
 6988SOL     OW21862   0.383   0.660   5.533
 6988SOL    HW121863   0.448   0.613   5.473
 6988SOL    HW221864   0.434   0.709   5.604
 6989SOL     OW21865   0.973   3.789   3.219
 6989SOL    HW121866   0.971   3.752   3.126
 6989SOL    HW221867   0.885   3.776   3.263
 6990SOL     OW21868   4.728   2.659   1.118
 6990SOL    HW121869   4.722   2.660   1.218
 6990SOL    HW221870   4.752   2.567   1.088
 6991SOL     OW21871   4.047   4.795   2.761
 6991SOL    HW121872   4.113   4.861   2.726
 6991SOL    HW221873   3.968   4.790   2.700
 6992SOL     OW21874   5.085   6.302   6.363
 6992SOL    HW121875   5.084   6.317   6.462
 6992SOL    HW221876   5.152   6.363   6.320
 6993SOL     OW21877   5.174   0.717   2.944
 6993SOL    HW121878   5.124   0.632   2.925
 6993SOL    HW221879   5.267   0.709   2.909
 6994SOL     OW21880   0.166   2.428   4.415
 6994SOL    HW121881   0.228   2.394   4.486
 6994SOL    HW221882   0.072   2.418   4.446
 6995SOL     OW21883   6.972   4.693   6.137
 6995SOL    HW121884   0.025   4.640   6.175
 6995SOL    HW221885   6.968   4.680   6.038
 6996SOL     OW21886   1.412   6.844   6.960
 6996SOL    HW121887   1.425   6.941   6.938
 6996SOL    HW221888   1.363   6.800   6.885
 6997SOL     OW21889   6.963   6.028   5.105
 6997SOL    HW121890   7.012   5.944   5.128
 6997SOL    HW221891   6.885   6.006   5.046
 6998SOL     OW21892   2.041   0.939   1.959
 6998SOL    HW121893   2.072   1.033   1.969
 6998SOL    HW221894   1.941   0.936   1.967
 6999SOL     OW21895   2.632   1.846   6.746
 6999SOL    HW121896   2.618   1.899   6.663
 6999SOL    HW221897   2.615   1.904   6.826
 7000SOL     OW21898   4.827   6.935   0.907
 7000SOL    HW121899   4.767   6.987   0.846
 7000SOL    HW221900   4.921   6.941   0.874
 7001SOL     OW21901   1.553   3.379   5.776
 7001SOL    HW121902   1.462   3.416   5.793
 7001SOL    HW221903   1.568   3.372   5.677
 7002SOL     OW21904   1.745   5.297   4.310
 7002SOL    HW121905   1.658   5.249   4.317
 7002SOL    HW221906   1.817   5.241   4.350
 7003SOL     OW21907   4.080   5.474   0.579
 7003SOL    HW121908   4.177   5.496   0.568
 7003SOL    HW221909   4.025   5.536   0.522
 7004SOL     OW21910   1.558   5.024   2.285
 7004SOL    HW121911   1.498   5.044   2.208
 7004SOL    HW221912   1.530   4.938   2.328
 7005SOL     OW21913   1.440   0.221   0.992
 7005SOL    HW121914   1.385   0.303   0.983
 7005SOL    HW221915   1.528   0.234   0.946
 7006SOL     OW21916   5.076   4.621   4.153
 7006SOL    HW121917   5.162   4.572   4.168
 7006SOL    HW221918   5.034   4.643   4.241
 7007SOL     OW21919   4.158   0.719   3.896
 7007SOL    HW121920   4.211   0.657   3.953
 7007SOL    HW221921   4.080   0.671   3.857
 7008SOL     OW21922   0.121   3.605   4.726
 7008SOL    HW121923   0.183   3.591   4.649
 7008SOL    HW221924   0.085   3.517   4.757
 7009SOL     OW21925   5.530   5.954   2.149
 7009SOL    HW121926   5.454   5.914   2.199
 7009SOL    HW221927   5.526   5.925   2.053
 7010SOL     OW21928   5.308   3.951   3.787
 7010SOL    HW121929   5.367   3.971   3.865
 7010SOL    HW221930   5.228   3.899   3.818
 7011SOL     OW21931   3.057   0.045   6.299
 7011SOL    HW121932   2.972   0.001   6.328
 7011SOL    HW221933   3.046   0.079   6.205
 7012SOL     OW21934   0.266   2.151   1.585
 7012SOL    HW121935   0.341   2.103   1.629
 7012SOL    HW221936   0.291   2.172   1.490
 7013SOL     OW21937   0.255   0.306   0.142
 7013SOL    HW121938   0.276   0.272   0.051
 7013SOL    HW221939   0.333   0.291   0.202
 7014SOL     OW21940   4.284   3.663   0.693
 7014SOL    HW121941   4.216   3.637   0.761
 7014SOL    HW221942   4.245   3.654   0.601
 7015SOL     OW21943   6.423   4.502   2.067
 7015SOL    HW121944   6.412   4.404   2.079
 7015SOL    HW221945   6.494   4.520   1.999
 7016SOL     OW21946   3.333   4.845   1.467
 7016SOL    HW121947   3.346   4.795   1.382
 7016SOL    HW221948   3.397   4.810   1.536
 7017SOL     OW21949   2.403   4.969   2.770
 7017SOL    HW121950   2.345   5.036   2.723
 7017SOL    HW221951   2.488   4.957   2.720
 7018SOL     OW21952   5.541   3.626   4.301
 7018SOL    HW121953   5.448   3.658   4.315
 7018SOL    HW221954   5.553   3.538   4.347
 7019SOL     OW21955   3.612   4.192   0.305
 7019SOL    HW121956   3.615   4.109   0.362
 7019SOL    HW221957   3.704   4.212   0.271
 7020SOL     OW21958   6.666   4.954   6.421
 7020SOL    HW121959   6.691   5.009   6.501
 7020SOL    HW221960   6.724   4.979   6.343
 7021SOL     OW21961   1.066   1.912   5.642
 7021SOL    HW121962   1.094   1.946   5.732
 7021SOL    HW221963   1.146   1.905   5.583
 7022SOL     OW21964   4.965   6.584   5.815
 7022SOL    HW121965   4.983   6.657   5.749
 7022SOL    HW221966   4.867   6.576   5.829
 7023SOL     OW21967   6.681   2.636   4.290
 7023SOL    HW121968   6.689   2.603   4.384
 7023SOL    HW221969   6.744   2.585   4.231
 7024SOL     OW21970   2.611   3.812   5.370
 7024SOL    HW121971   2.554   3.851   5.298
 7024SOL    HW221972   2.707   3.817   5.343
 7025SOL     OW21973   2.988   0.952   0.592
 7025SOL    HW121974   2.973   0.872   0.534
 7025SOL    HW221975   3.074   0.996   0.565
 7026SOL     OW21976   3.288   1.736   2.028
 7026SOL    HW121977   3.387   1.726   2.016
 7026SOL    HW221978   3.245   1.755   1.940
 7027SOL     OW21979   2.970   5.529   4.405
 7027SOL    HW121980   2.966   5.625   4.381
 7027SOL    HW221981   2.930   5.474   4.332
 7028SOL     OW21982   3.265   1.994   4.541
 7028SOL    HW121983   3.211   2.043   4.610
 7028SOL    HW221984   3.248   2.034   4.451
 7029SOL     OW21985   5.103   5.094   5.147
 7029SOL    HW121986   5.140   5.077   5.239
 7029SOL    HW221987   5.149   5.034   5.082
 7030SOL     OW21988   1.313   0.678   4.956
 7030SOL    HW121989   1.287   0.767   4.995
 7030SOL    HW221990   1.245   0.609   4.981
 7031SOL     OW21991   3.418   5.705   5.807
 7031SOL    HW121992   3.386   5.681   5.715
 7031SOL    HW221993   3.518   5.704   5.809
 7032SOL     OW21994   3.876   1.251   3.702
 7032SOL    HW121995   3.949   1.197   3.744
 7032SOL    HW221996   3.877   1.343   3.742
 7033SOL     OW21997   1.598   2.148   3.578
 7033SOL    HW121998   1.588   2.205   3.496
 7033SOL    HW221999   1.577   2.202   3.659
 7034SOL     OW22000   6.429   0.714   3.775
 7034SOL    HW122001   6.427   0.751   3.868
 7034SOL    HW222002   6.430   0.614   3.780
 7035SOL     OW22003   1.452   6.570   0.870
 7035SOL    HW122004   1.356   6.573   0.844
 7035SOL    HW222005   1.469   6.635   0.945
 7036SOL     OW22006   0.029   0.280   2.962
 7036SOL    HW122007   0.099   0.257   2.895
 7036SOL    HW222008   0.070   0.287   3.053
 7037SOL     OW22009   1.800   1.205   6.337
 7037SOL    HW122010   1.881   1.150   6.319
 7037SOL    HW222011   1.824   1.278   6.402
 7038SOL     OW22012   2.301   3.035   5.370
 7038SOL    HW122013   2.372   3.020   5.301
 7038SOL    HW222014   2.277   3.132   5.372
 7039SOL     OW22015   2.026   5.283   1.926
 7039SOL    HW122016   2.111   5.266   1.977
 7039SOL    HW222017   2.039   5.361   1.865
 7040SOL     OW22018   5.909   1.670   6.113
 7040SOL    HW122019   5.812   1.690   6.100
 7040SOL    HW222020   5.950   1.649   6.024
 7041SOL     OW22021   6.089   0.758   1.969
 7041SOL    HW122022   6.006   0.794   1.927
 7041SOL    HW222023   6.167   0.815   1.941
 7042SOL     OW22024   4.569   4.855   5.155
 7042SOL    HW122025   4.558   4.890   5.061
 7042SOL    HW222026   4.641   4.787   5.156
 7043SOL     OW22027   2.407   4.479   2.815
 7043SOL    HW122028   2.333   4.546   2.817
 7043SOL    HW222029   2.481   4.509   2.875
 7044SOL     OW22030   5.432   4.745   4.333
 7044SOL    HW122031   5.483   4.715   4.413
 7044SOL    HW222032   5.359   4.679   4.312
 7045SOL     OW22033   4.935   5.617   3.288
 7045SOL    HW122034   4.875   5.657   3.218
 7045SOL    HW222035   4.925   5.518   3.287
 7046SOL     OW22036   3.009   1.155   3.126
 7046SOL    HW122037   2.960   1.156   3.039
 7046SOL    HW222038   2.944   1.142   3.201
 7047SOL     OW22039   6.212   1.461   2.426
 7047SOL    HW122040   6.183   1.548   2.388
 7047SOL    HW222041   6.293   1.474   2.483
 7048SOL     OW22042   5.351   6.914   3.392
 7048SOL    HW122043   5.418   6.983   3.364
 7048SOL    HW222044   5.369   6.829   3.342
 7049SOL     OW22045   3.460   1.765   0.372
 7049SOL    HW122046   3.474   1.707   0.452
 7049SOL    HW222047   3.388   1.832   0.392
 7050SOL     OW22048   4.172   3.497   1.847
 7050SOL    HW122049   4.091   3.465   1.796
 7050SOL    HW222050   4.253   3.486   1.790
 7051SOL     OW22051   6.228   6.532   0.983
 7051SOL    HW122052   6.315   6.519   1.032
 7051SOL    HW222053   6.152   6.502   1.042
 7052SOL     OW22054   5.395   2.112   3.329
 7052SOL    HW122055   5.384   2.042   3.258
 7052SOL    HW222056   5.486   2.153   3.321
 7053SOL     OW22057   1.323   3.178   5.227
 7053SOL    HW122058   1.245   3.221   5.273
 7053SOL    HW222059   1.399   3.170   5.290
 7054SOL     OW22060   6.932   6.957   0.326
 7054SOL    HW122061   6.901   0.022   0.362
 7054SOL    HW222062   7.011   6.926   0.379
 7055SOL     OW22063   2.916   6.991   6.013
 7055SOL    HW122064   2.900   6.901   6.056
 7055SOL    HW222065   2.828   0.007   5.985
 7056SOL     OW22066   0.095   4.340   1.913
 7056SOL    HW122067   0.136   4.377   1.997
 7056SOL    HW222068   0.055   4.414   1.860
 7057SOL     OW22069   2.691   5.081   4.430
 7057SOL    HW122070   2.646   5.033   4.355
 7057SOL    HW222071   2.714   5.016   4.503
 7058SOL     OW22072   5.301   4.479   5.248
 7058SOL    HW122073   5.236   4.429   5.305
 7058SOL    HW222074   5.285   4.456   5.152
 7059SOL     OW22075   0.212   1.651   3.819
 7059SOL    HW122076   0.127   1.682   3.861
 7059SOL    HW222077   0.285   1.649   3.887
 7060SOL     OW22078   3.867   7.004   1.416
 7060SOL    HW122079   3.892   0.052   1.482
 7060SOL    HW222080   3.938   6.997   1.346
 7061SOL     OW22081   0.271   3.416   3.849
 7061SOL    HW122082   0.246   3.473   3.770
 7061SOL    HW222083   0.248   3.321   3.829
 7062SOL     OW22084   3.998   1.376   5.292
 7062SOL    HW122085   4.020   1.450   5.229
 7062SOL    HW222086   3.961   1.415   5.377
 7063SOL     OW22087   1.440   0.026   2.311
 7063SOL    HW122088   1.398   6.998   2.235
 7063SOL    HW222089   1.416   0.123   2.304
 7064SOL     OW22090   3.744   1.803   0.101
 7064SOL    HW122091   3.807   1.874   0.068
 7064SOL    HW222092   3.650   1.831   0.084
 7065SOL     OW22093   5.277   3.971   5.957
 7065SOL    HW122094   5.219   3.891   5.938
 7065SOL    HW222095   5.346   3.979   5.886
 7066SOL     OW22096   4.610   0.083   0.002
 7066SOL    HW122097   4.656   0.140   0.070
 7066SOL    HW222098   4.569   0.142   6.955
 7067SOL     OW22099   1.461   2.840   5.738
 7067SOL    HW122100   1.493   2.921   5.787
 7067SOL    HW222101   1.388   2.796   5.791
 7068SOL     OW22102   6.771   4.773   4.876
 7068SOL    HW122103   6.837   4.823   4.819
 7068SOL    HW222104   6.717   4.711   4.819
 7069SOL     OW22105   5.399   2.103   4.026
 7069SOL    HW122106   5.471   2.141   3.967
 7069SOL    HW222107   5.409   2.140   4.118
 7070SOL     OW22108   0.245   6.884   5.014
 7070SOL    HW122109   0.339   6.870   5.046
 7070SOL    HW222110   0.183   6.881   5.092
 7071SOL     OW22111   3.440   5.721   5.462
 7071SOL    HW122112   3.529   5.767   5.454
 7071SOL    HW222113   3.388   5.734   5.378
 7072SOL     OW22114   1.600   6.418   6.888
 7072SOL    HW122115   1.574   6.377   6.802
 7072SOL    HW222116   1.524   6.414   6.953
 7073SOL     OW22117   5.262   0.033   4.056
 7073SOL    HW122118   5.346   0.073   4.022
 7073SOL    HW222119   5.262   6.957   4.038
 7074SOL     OW22120   5.620   2.813   1.951
 7074SOL    HW122121   5.604   2.771   2.040
 7074SOL    HW222122   5.559   2.891   1.939
 7075SOL     OW22123   1.945   4.083   5.122
 7075SOL    HW122124   2.004   4.158   5.152
 7075SOL    HW222125   1.885   4.114   5.049
 7076SOL     OW22126   5.700   2.711   6.524
 7076SOL    HW122127   5.645   2.642   6.570
 7076SOL    HW222128   5.768   2.666   6.465
 7077SOL     OW22129   2.336   4.729   3.938
 7077SOL    HW122130   2.394   4.658   3.897
 7077SOL    HW222131   2.365   4.819   3.904
 7078SOL     OW22132   6.482   6.689   1.968
 7078SOL    HW122133   6.503   6.769   1.912
 7078SOL    HW222134   6.560   6.627   1.968
 7079SOL     OW22135   6.982   6.062   4.330
 7079SOL    HW122136   6.957   6.134   4.395
 7079SOL    HW222137   6.901   6.006   4.311
 7080SOL     OW22138   3.376   0.892   4.964
 7080SOL    HW122139   3.459   0.908   5.018
 7080SOL    HW222140   3.316   0.971   4.971
 7081SOL     OW22141   1.981   6.302   6.963
 7081SOL    HW122142   2.068   6.297   7.011
 7081SOL    HW222143   1.907   6.316   0.007
 7082SOL     OW22144   6.634   4.242   0.012
 7082SOL    HW122145   6.707   4.208   0.070
 7082SOL    HW222146   6.672   4.306   6.967
 7083SOL     OW22147   1.588   6.993   1.468
 7083SOL    HW122148   1.627   6.916   1.417
 7083SOL    HW222149   1.658   0.040   1.481
 7084SOL     OW22150   0.332   5.072   4.941
 7084SOL    HW122151   0.379   4.992   4.902
 7084SOL    HW222152   0.262   5.042   5.006
 7085SOL     OW22153   0.778   1.207   2.292
 7085SOL    HW122154   0.716   1.162   2.357
 7085SOL    HW222155   0.843   1.265   2.341
 7086SOL     OW22156   6.202   0.090   6.010
 7086SOL    HW122157   6.104   0.103   6.025
 7086SOL    HW222158   6.230   7.022   6.044
 7087SOL     OW22159   6.260   3.866   4.237
 7087SOL    HW122160   6.321   3.858   4.315
 7087SOL    HW222161   6.313   3.861   4.152
 7088SOL     OW22162   5.172   2.902   3.989
 7088SOL    HW122163   5.245   2.899   4.057
 7088SOL    HW222164   5.188   2.977   3.925
 7089SOL     OW22165   2.695   2.325   4.432
 7089SOL    HW122166   2.646   2.389   4.372
 7089SOL    HW222167   2.632   2.253   4.462
 7090SOL     OW22168   1.971   0.481   6.926
 7090SOL    HW122169   2.039   0.422   6.968
 7090SOL    HW222170   1.934   0.543   6.995
 7091SOL     OW22171   0.409   2.109   0.930
 7091SOL    HW122172   0.373   2.062   0.850
 7091SOL    HW222173   0.484   2.170   0.902
 7092SOL     OW22174   3.818   3.308   5.953
 7092SOL    HW122175   3.764   3.392   5.962
 7092SOL    HW222176   3.791   3.243   6.024
 7093SOL     OW22177   3.355   4.102   2.170
 7093SOL    HW122178   3.263   4.066   2.185
 7093SOL    HW222179   3.349   4.195   2.132
 7094SOL     OW22180   0.229   5.897   5.635
 7094SOL    HW122181   0.325   5.871   5.641
 7094SOL    HW222182   0.221   5.996   5.630
 7095SOL     OW22183   3.699   4.624   5.614
 7095SOL    HW122184   3.605   4.600   5.637
 7095SOL    HW222185   3.712   4.618   5.515
 7096SOL     OW22186   6.856   1.388   3.211
 7096SOL    HW122187   6.863   1.431   3.121
 7096SOL    HW222188   6.794   1.441   3.268
 7097SOL     OW22189   4.693   1.246   1.742
 7097SOL    HW122190   4.765   1.234   1.674
 7097SOL    HW222191   4.650   1.336   1.730
 7098SOL     OW22192   2.290   5.414   5.936
 7098SOL    HW122193   2.216   5.428   6.002
 7098SOL    HW222194   2.254   5.377   5.851
 7099SOL     OW22195   3.649   1.319   5.432
 7099SOL    HW122196   3.554   1.304   5.407
 7099SOL    HW222197   3.708   1.252   5.387
 7100SOL     OW22198   0.047   3.833   0.244
 7100SOL    HW122199   0.044   3.809   0.147
 7100SOL    HW222200   0.014   3.756   0.299
 7101SOL     OW22201   2.255   1.785   5.467
 7101SOL    HW122202   2.300   1.707   5.422
 7101SOL    HW222203   2.269   1.868   5.413
 7102SOL     OW22204   5.099   7.009   0.830
 7102SOL    HW122205   5.164   6.942   0.796
 7102SOL    HW222206   5.110   0.072   0.779
 7103SOL     OW22207   5.644   5.115   2.182
 7103SOL    HW122208   5.554   5.108   2.140
 7103SOL    HW222209   5.642   5.185   2.254
 7104SOL     OW22210   6.786   3.786   3.297
 7104SOL    HW122211   6.718   3.722   3.264
 7104SOL    HW222212   6.749   3.879   3.295
 7105SOL     OW22213   2.711   3.297   5.277
 7105SOL    HW122214   2.694   3.260   5.186
 7105SOL    HW222215   2.798   3.346   5.277
 7106SOL     OW22216   3.592   3.505   1.989
 7106SOL    HW122217   3.692   3.501   1.990
 7106SOL    HW222218   3.555   3.415   2.013
 7107SOL     OW22219   4.793   1.153   0.559
 7107SOL    HW122220   4.842   1.071   0.528
 7107SOL    HW222221   4.751   1.135   0.648
 7108SOL     OW22222   2.932   6.267   2.745
 7108SOL    HW122223   3.006   6.312   2.796
 7108SOL    HW222224   2.897   6.330   2.676
 7109SOL     OW22225   2.096   6.947   5.871
 7109SOL    HW122226   2.141   7.014   5.931
 7109SOL    HW222227   2.166   6.888   5.829
 7110SOL     OW22228   2.850   5.806   4.597
 7110SOL    HW122229   2.842   5.898   4.559
 7110SOL    HW222230   2.918   5.754   4.545
 7111SOL     OW22231   1.306   2.710   5.151
 7111SOL    HW122232   1.290   2.805   5.178
 7111SOL    HW222233   1.295   2.650   5.230
 7112SOL     OW22234   2.005   4.980   4.915
 7112SOL    HW122235   1.962   4.907   4.968
 7112SOL    HW222236   2.059   4.940   4.841
 7113SOL     OW22237   3.551   4.203   4.432
 7113SOL    HW122238   3.471   4.181   4.489
 7113SOL    HW222239   3.533   4.177   4.338
 7114SOL     OW22240   5.427   5.469   0.792
 7114SOL    HW122241   5.461   5.385   0.750
 7114SOL    HW222242   5.440   5.465   0.891
 7115SOL     OW22243   5.248   2.799   0.158
 7115SOL    HW122244   5.340   2.833   0.180
 7115SOL    HW222245   5.196   2.872   0.113
 7116SOL     OW22246   6.005   4.559   2.756
 7116SOL    HW122247   6.094   4.586   2.720
 7116SOL    HW222248   6.000   4.582   2.853
 7117SOL     OW22249   0.786   6.621   4.722
 7117SOL    HW122250   0.749   6.714   4.709
 7117SOL    HW222251   0.764   6.589   4.814
 7118SOL     OW22252   3.094   4.744   6.718
 7118SOL    HW122253   3.007   4.781   6.687
 7118SOL    HW222254   3.169   4.801   6.685
 7119SOL     OW22255   4.547   1.686   4.043
 7119SOL    HW122256   4.486   1.763   4.058
 7119SOL    HW222257   4.641   1.720   4.037
 7120SOL     OW22258   3.293   2.035   1.799
 7120SOL    HW122259   3.228   2.039   1.875
 7120SOL    HW222260   3.383   2.011   1.833
 7121SOL     OW22261   0.441   0.021   3.744
 7121SOL    HW122262   0.347   0.019   3.710
 7121SOL    HW222263   0.441   0.049   3.840
 7122SOL     OW22264   1.582   0.806   6.223
 7122SOL    HW122265   1.494   0.848   6.197
 7122SOL    HW222266   1.569   0.748   6.303
 7123SOL     OW22267   1.249   4.753   3.362
 7123SOL    HW122268   1.307   4.834   3.369
 7123SOL    HW222269   1.303   4.671   3.383
 7124SOL     OW22270   6.751   1.513   1.595
 7124SOL    HW122271   6.702   1.515   1.682
 7124SOL    HW222272   6.809   1.594   1.589
 7125SOL     OW22273   0.538   0.352   0.673
 7125SOL    HW122274   0.564   0.273   0.728
 7125SOL    HW222275   0.488   0.417   0.731
 7126SOL     OW22276   3.585   5.307   0.080
 7126SOL    HW122277   3.560   5.349   0.167
 7126SOL    HW222278   3.502   5.279   0.032
 7127SOL     OW22279   2.046   5.420   6.368
 7127SOL    HW122280   1.982   5.360   6.415
 7127SOL    HW222281   1.998   5.501   6.335
 7128SOL     OW22282   3.270   4.390   6.844
 7128SOL    HW122283   3.188   4.427   6.799
 7128SOL    HW222284   3.351   4.434   6.806
 7129SOL     OW22285   2.350   1.215   0.426
 7129SOL    HW122286   2.375   1.241   0.333
 7129SOL    HW222287   2.257   1.247   0.445
 7130SOL     OW22288   3.698   5.873   4.193
 7130SOL    HW122289   3.776   5.931   4.217
 7130SOL    HW222290   3.637   5.924   4.131
 7131SOL     OW22291   2.369   0.830   1.611
 7131SOL    HW122292   2.423   0.857   1.691
 7131SOL    HW222293   2.272   0.849   1.628
 7132SOL     OW22294   3.596   3.774   0.878
 7132SOL    HW122295   3.658   3.704   0.842
 7132SOL    HW222296   3.539   3.735   0.950
 7133SOL     OW22297   4.534   5.087   5.368
 7133SOL    HW122298   4.536   5.033   5.452
 7133SOL    HW222299   4.549   5.026   5.289
 7134SOL     OW22300   4.765   6.886   1.355
 7134SOL    HW122301   4.697   6.910   1.425
 7134SOL    HW222302   4.717   6.857   1.272
 7135SOL     OW22303   1.360   2.603   3.343
 7135SOL    HW122304   1.344   2.700   3.362
 7135SOL    HW222305   1.452   2.590   3.307
 7136SOL     OW22306   2.279   1.448   0.169
 7136SOL    HW122307   2.363   1.417   0.212
 7136SOL    HW222308   2.294   1.457   0.070
 7137SOL     OW22309   3.138   0.951   6.806
 7137SOL    HW122310   3.164   1.042   6.838
 7137SOL    HW222311   3.213   0.911   6.753
 7138SOL     OW22312   2.494   2.067   0.303
 7138SOL    HW122313   2.585   2.034   0.278
 7138SOL    HW222314   2.499   2.116   0.390
 7139SOL     OW22315   6.026   4.513   1.676
 7139SOL    HW122316   5.976   4.430   1.700
 7139SOL    HW222317   6.009   4.536   1.580
 7140SOL     OW22318   6.752   4.020   1.934
 7140SOL    HW122319   6.752   3.922   1.910
 7140SOL    HW222320   6.815   4.035   2.009
 7141SOL     OW22321   3.648   6.330   0.500
 7141SOL    HW122322   3.622   6.399   0.568
 7141SOL    HW222323   3.739   6.296   0.521
 7142SOL     OW22324   3.791   6.631   3.324
 7142SOL    HW122325   3.716   6.685   3.285
 7142SOL    HW222326   3.763   6.595   3.413
 7143SOL     OW22327   1.913   2.854   6.440
 7143SOL    HW122328   1.945   2.768   6.401
 7143SOL    HW222329   1.853   2.835   6.518
 7144SOL     OW22330   1.830   2.092   2.781
 7144SOL    HW122331   1.737   2.108   2.814
 7144SOL    HW222332   1.890   2.164   2.815
 7145SOL     OW22333   3.814   0.417   6.467
 7145SOL    HW122334   3.864   0.490   6.421
 7145SOL    HW222335   3.855   0.329   6.444
 7146SOL     OW22336   1.677   6.844   6.189
 7146SOL    HW122337   1.752   6.778   6.184
 7146SOL    HW222338   1.693   6.906   6.265
 7147SOL     OW22339   6.871   6.489   3.336
 7147SOL    HW122340   6.775   6.494   3.310
 7147SOL    HW222341   6.882   6.420   3.408
 7148SOL     OW22342   6.848   6.824   1.260
 7148SOL    HW122343   6.829   6.823   1.358
 7148SOL    HW222344   6.904   6.744   1.236
 7149SOL     OW22345   0.134   6.663   3.744
 7149SOL    HW122346   0.051   6.619   3.709
 7149SOL    HW222347   0.214   6.621   3.702
 7150SOL     OW22348   3.742   2.844   0.597
 7150SOL    HW122349   3.667   2.861   0.533
 7150SOL    HW222350   3.818   2.801   0.548
 7151SOL     OW22351   3.205   6.674   0.795
 7151SOL    HW122352   3.246   6.625   0.718
 7151SOL    HW222353   3.108   6.690   0.776
 7152SOL     OW22354   6.655   0.408   5.238
 7152SOL    HW122355   6.694   0.470   5.170
 7152SOL    HW222356   6.557   0.428   5.249
 7153SOL     OW22357   4.283   5.285   1.374
 7153SOL    HW122358   4.186   5.270   1.356
 7153SOL    HW222359   4.295   5.371   1.424
 7154SOL     OW22360   4.669   6.868   3.161
 7154SOL    HW122361   4.625   6.846   3.248
 7154SOL    HW222362   4.767   6.883   3.176
 7155SOL     OW22363   2.450   2.739   0.982
 7155SOL    HW122364   2.409   2.776   0.899
 7155SOL    HW222365   2.540   2.781   0.996
 7156SOL     OW22366   6.926   2.964   3.451
 7156SOL    HW122367   6.912   3.063   3.450
 7156SOL    HW222368   6.956   2.934   3.360
 7157SOL     OW22369   0.215   3.819   1.187
 7157SOL    HW122370   0.192   3.743   1.247
 7157SOL    HW222371   0.149   3.823   1.111
 7158SOL     OW22372   0.857   0.513   4.678
 7158SOL    HW122373   0.840   0.447   4.605
 7158SOL    HW222374   0.917   0.471   4.747
 7159SOL     OW22375   0.561   4.848   3.870
 7159SOL    HW122376   0.558   4.755   3.908
 7159SOL    HW222377   0.649   4.889   3.890
 7160SOL     OW22378   5.746   0.250   2.675
 7160SOL    HW122379   5.810   0.327   2.669
 7160SOL    HW222380   5.794   0.165   2.657
 7161SOL     OW22381   3.179   3.976   2.872
 7161SOL    HW122382   3.112   3.936   2.810
 7161SOL    HW222383   3.259   4.007   2.820
 7162SOL     OW22384   1.306   5.086   6.205
 7162SOL    HW122385   1.242   5.009   6.209
 7162SOL    HW222386   1.354   5.084   6.118
 7163SOL     OW22387   2.525   6.967   2.388
 7163SOL    HW122388   2.475   6.883   2.367
 7163SOL    HW222389   2.463   0.023   2.381
 7164SOL     OW22390   3.080   0.188   4.477
 7164SOL    HW122391   3.071   0.108   4.537
 7164SOL    HW222392   3.059   0.162   4.383
 7165SOL     OW22393   6.292   0.084   2.602
 7165SOL    HW122394   6.215   0.051   2.547
 7165SOL    HW222395   6.361   0.123   2.542
 7166SOL     OW22396   4.786   1.628   1.289
 7166SOL    HW122397   4.750   1.566   1.360
 7166SOL    HW222398   4.856   1.687   1.329
 7167SOL     OW22399   5.087   2.951   4.420
 7167SOL    HW122400   5.167   2.931   4.477
 7167SOL    HW222401   5.003   2.937   4.474
 7168SOL     OW22402   1.838   2.610   2.954
 7168SOL    HW122403   1.857   2.685   2.891
 7168SOL    HW222404   1.752   2.565   2.928
 7169SOL     OW22405   0.040   3.801   5.725
 7169SOL    HW122406   6.976   3.847   5.708
 7169SOL    HW222407   0.024   3.706   5.750
 7170SOL     OW22408   4.743   6.849   2.733
 7170SOL    HW122409   4.797   6.778   2.687
 7170SOL    HW222410   4.805   6.912   2.779
 7171SOL     OW22411   6.442   4.294   6.725
 7171SOL    HW122412   6.371   4.335   6.782
 7171SOL    HW222413   6.532   4.323   6.758
 7172SOL     OW22414   2.025   0.227   5.074
 7172SOL    HW122415   1.969   0.249   4.994
 7172SOL    HW222416   1.988   0.147   5.119
 7173SOL     OW22417   6.651   4.440   6.845
 7173SOL    HW122418   6.591   4.487   6.911
 7173SOL    HW222419   6.668   4.500   6.767
 7174SOL     OW22420   1.343   3.656   0.456
 7174SOL    HW122421   1.426   3.691   0.499
 7174SOL    HW222422   1.306   3.581   0.511
 7175SOL     OW22423   5.509   3.126   5.258
 7175SOL    HW122424   5.493   3.076   5.174
 7175SOL    HW222425   5.542   3.218   5.236
 7176SOL     OW22426   6.815   1.333   3.589
 7176SOL    HW122427   6.804   1.383   3.503
 7176SOL    HW222428   6.888   1.375   3.642
 7177SOL     OW22429   1.081   4.503   5.230
 7177SOL    HW122430   1.034   4.510   5.318
 7177SOL    HW222431   1.016   4.471   5.160
 7178SOL     OW22432   6.745   1.312   5.600
 7178SOL    HW122433   6.731   1.338   5.504
 7178SOL    HW222434   6.711   1.384   5.660
 7179SOL     OW22435   2.138   3.506   4.275
 7179SOL    HW122436   2.048   3.548   4.261
 7179SOL    HW222437   2.195   3.522   4.195
 7180SOL     OW22438   2.184   5.080   7.019
 7180SOL    HW122439   2.204   5.178   7.009
 7180SOL    HW222440   2.256   5.037   0.051
 7181SOL     OW22441   1.786   0.323   0.367
 7181SOL    HW122442   1.831   0.256   0.427
 7181SOL    HW222443   1.719   0.275   0.310
 7182SOL     OW22444   0.271   3.374   4.248
 7182SOL    HW122445   0.235   3.316   4.321
 7182SOL    HW222446   0.196   3.424   4.204
 7183SOL     OW22447   1.465   5.354   1.102
 7183SOL    HW122448   1.542   5.397   1.055
 7183SOL    HW222449   1.437   5.410   1.180
 7184SOL     OW22450   6.550   1.014   4.034
 7184SOL    HW122451   6.549   1.032   3.936
 7184SOL    HW222452   6.550   0.915   4.049
 7185SOL     OW22453   5.930   1.192   4.823
 7185SOL    HW122454   5.837   1.197   4.788
 7185SOL    HW222455   5.980   1.276   4.800
 7186SOL     OW22456   6.408   1.661   1.744
 7186SOL    HW122457   6.324   1.628   1.787
 7186SOL    HW222458   6.401   1.760   1.728
 7187SOL     OW22459   2.897   4.092   5.315
 7187SOL    HW122460   2.827   4.161   5.298
 7187SOL    HW222461   2.857   4.001   5.300
 7188SOL     OW22462   4.990   6.562   0.098
 7188SOL    HW122463   4.940   6.587   0.015
 7188SOL    HW222464   5.082   6.532   0.073
 7189SOL     OW22465   6.016   1.627   5.203
 7189SOL    HW122466   6.032   1.530   5.221
 7189SOL    HW222467   5.947   1.638   5.132
 7190SOL     OW22468   6.731   5.172   1.734
 7190SOL    HW122469   6.632   5.168   1.746
 7190SOL    HW222470   6.776   5.167   1.823
 7191SOL     OW22471   1.534   4.671   2.659
 7191SOL    HW122472   1.464   4.723   2.708
 7191SOL    HW222473   1.606   4.645   2.723
 7192SOL     OW22474   2.183   4.208   5.846
 7192SOL    HW122475   2.220   4.136   5.905
 7192SOL    HW222476   2.214   4.194   5.752
 7193SOL     OW22477   1.548   2.665   2.240
 7193SOL    HW122478   1.488   2.743   2.259
 7193SOL    HW222479   1.513   2.615   2.161
 7194SOL     OW22480   2.116   2.207   0.742
 7194SOL    HW122481   2.200   2.173   0.701
 7194SOL    HW222482   2.102   2.163   0.831
 7195SOL     OW22483   0.793   3.999   6.933
 7195SOL    HW122484   0.844   4.055   6.868
 7195SOL    HW222485   0.856   3.937   6.981
 7196SOL     OW22486   2.453   3.541   1.586
 7196SOL    HW122487   2.481   3.452   1.549
 7196SOL    HW222488   2.433   3.531   1.684
 7197SOL     OW22489   0.673   2.591   5.667
 7197SOL    HW122490   0.699   2.669   5.609
 7197SOL    HW222491   0.754   2.548   5.704
 7198SOL     OW22492   0.797   0.718   0.332
 7198SOL    HW122493   0.887   0.722   0.289
 7198SOL    HW222494   0.793   0.640   0.395
 7199SOL     OW22495   1.666   0.116   2.160
 7199SOL    HW122496   1.665   0.082   2.066
 7199SOL    HW222497   1.594   0.071   2.213
 7200SOL     OW22498   2.256   2.828   6.805
 7200SOL    HW122499   2.244   2.805   6.708
 7200SOL    HW222500   2.298   2.751   6.852
 7201SOL     OW22501   1.006   6.482   3.991
 7201SOL    HW122502   1.004   6.487   4.091
 7201SOL    HW222503   0.930   6.425   3.959
 7202SOL     OW22504   5.596   6.662   0.431
 7202SOL    HW122505   5.655   6.741   0.417
 7202SOL    HW222506   5.644   6.593   0.486
 7203SOL     OW22507   0.090   1.159   0.544
 7203SOL    HW122508   0.161   1.091   0.564
 7203SOL    HW222509   0.098   1.234   0.609
 7204SOL     OW22510   0.164   0.397   6.023
 7204SOL    HW122511   0.156   0.381   5.924
 7204SOL    HW222512   0.091   0.458   6.052
 7205SOL     OW22513   1.958   3.975   4.724
 7205SOL    HW122514   2.052   3.961   4.693
 7205SOL    HW222515   1.913   3.887   4.738
 7206SOL     OW22516   1.314   0.275   2.294
 7206SOL    HW122517   1.296   0.360   2.344
 7206SOL    HW222518   1.299   0.290   2.196
 7207SOL     OW22519   2.956   0.435   3.218
 7207SOL    HW122520   2.978   0.509   3.281
 7207SOL    HW222521   3.039   0.386   3.193
 7208SOL     OW22522   4.097   7.000   3.414
 7208SOL    HW122523   4.166   0.031   3.462
 7208SOL    HW222524   4.058   0.032   3.340
 7209SOL     OW22525   2.610   3.094   1.721
 7209SOL    HW122526   2.702   3.074   1.754
 7209SOL    HW222527   2.578   3.180   1.761
 7210SOL     OW22528   4.187   1.171   3.008
 7210SOL    HW122529   4.219   1.265   3.018
 7210SOL    HW222530   4.109   1.168   2.946
 7211SOL     OW22531   1.847   7.012   4.746
 7211SOL    HW122532   1.800   7.022   4.659
 7211SOL    HW222533   1.945   0.007   4.734
 7212SOL     OW22534   0.160   6.316   4.903
 7212SOL    HW122535   0.224   6.243   4.878
 7212SOL    HW222536   0.066   6.287   4.881
 7213SOL     OW22537   3.995   6.230   6.545
 7213SOL    HW122538   4.088   6.218   6.511
 7213SOL    HW222539   3.959   6.143   6.577
 7214SOL     OW22540   6.931   0.414   4.686
 7214SOL    HW122541   6.957   0.495   4.738
 7214SOL    HW222542   6.977   0.415   4.597
 7215SOL     OW22543   0.153   3.157   3.685
 7215SOL    HW122544   0.070   3.102   3.683
 7215SOL    HW222545   0.166   3.202   3.597
 7216SOL     OW22546   2.959   0.478   0.279
 7216SOL    HW122547   3.029   0.448   0.215
 7216SOL    HW222548   2.973   0.433   0.367
 7217SOL     OW22549   2.161   3.829   3.731
 7217SOL    HW122550   2.156   3.838   3.631
 7217SOL    HW222551   2.187   3.916   3.771
 7218SOL     OW22552   6.375   2.639   4.730
 7218SOL    HW122553   6.295   2.640   4.789
 7218SOL    HW222554   6.432   2.559   4.750
 7219SOL     OW22555   4.143   0.160   3.006
 7219SOL    HW122556   4.131   0.071   2.963
 7219SOL    HW222557   4.139   0.232   2.936
 7220SOL     OW22558   0.399   4.001   4.737
 7220SOL    HW122559   0.361   4.037   4.652
 7220SOL    HW222560   0.348   3.920   4.765
 7221SOL     OW22561   3.287   5.883   4.222
 7221SOL    HW122562   3.273   5.982   4.224
 7221SOL    HW222563   3.359   5.861   4.156
 7222SOL     OW22564   6.074   6.719   3.144
 7222SOL    HW122565   6.067   6.739   3.047
 7222SOL    HW222566   6.053   6.802   3.196
 7223SOL     OW22567   3.335   1.372   1.041
 7223SOL    HW122568   3.322   1.457   0.990
 7223SOL    HW222569   3.381   1.392   1.127
 7224SOL     OW22570   5.075   1.823   4.174
 7224SOL    HW122571   5.079   1.893   4.102
 7224SOL    HW222572   5.143   1.752   4.154
 7225SOL     OW22573   1.210   6.017   0.713
 7225SOL    HW122574   1.131   6.032   0.772
 7225SOL    HW222575   1.263   5.939   0.746
 7226SOL     OW22576   6.300   0.607   2.114
 7226SOL    HW122577   6.224   0.646   2.061
 7226SOL    HW222578   6.266   0.577   2.203
 7227SOL     OW22579   2.932   2.144   0.819
 7227SOL    HW122580   3.028   2.174   0.822
 7227SOL    HW222581   2.873   2.217   0.853
 7228SOL     OW22582   0.967   2.352   2.693
 7228SOL    HW122583   1.051   2.303   2.716
 7228SOL    HW222584   0.990   2.444   2.659
 7229SOL     OW22585   1.110   6.054   5.391
 7229SOL    HW122586   1.150   6.144   5.408
 7229SOL    HW222587   1.054   6.027   5.469
 7230SOL     OW22588   3.139   5.148   5.236
 7230SOL    HW122589   3.146   5.127   5.333
 7230SOL    HW222590   3.214   5.103   5.187
 7231SOL     OW22591   4.232   0.916   6.417
 7231SOL    HW122592   4.254   0.832   6.466
 7231SOL    HW222593   4.231   0.993   6.481
 7232SOL     OW22594   4.889   5.924   3.203
 7232SOL    HW122595   4.891   6.002   3.265
 7232SOL    HW222596   4.982   5.901   3.175
 7233SOL     OW22597   1.005   1.402   3.501
 7233SOL    HW122598   0.962   1.312   3.492
 7233SOL    HW222599   1.021   1.421   3.598
 7234SOL     OW22600   5.333   2.425   3.924
 7234SOL    HW122601   5.300   2.507   3.878
 7234SOL    HW222602   5.255   2.366   3.946
 7235SOL     OW22603   0.107   4.975   2.590
 7235SOL    HW122604   0.105   4.889   2.538
 7235SOL    HW222605   0.034   5.035   2.556
 7236SOL     OW22606   2.798   1.937   1.909
 7236SOL    HW122607   2.772   2.032   1.926
 7236SOL    HW222608   2.800   1.886   1.995
 7237SOL     OW22609   4.062   0.148   5.039
 7237SOL    HW122610   4.150   0.120   5.077
 7237SOL    HW222611   4.066   0.245   5.015
 7238SOL     OW22612   4.131   1.497   6.959
 7238SOL    HW122613   4.043   1.528   6.995
 7238SOL    HW222614   4.177   1.573   6.914
 7239SOL     OW22615   1.131   2.183   2.404
 7239SOL    HW122616   1.224   2.165   2.372
 7239SOL    HW222617   1.092   2.100   2.443
 7240SOL     OW22618   1.328   0.560   6.218
 7240SOL    HW122619   1.298   0.480   6.166
 7240SOL    HW222620   1.400   0.533   6.282
 7241SOL     OW22621   1.481   0.689   0.900
 7241SOL    HW122622   1.440   0.775   0.871
 7241SOL    HW222623   1.516   0.639   0.820
 7242SOL     OW22624   6.767   5.852   7.019
 7242SOL    HW122625   6.847   5.879   0.051
 7242SOL    HW222626   6.697   5.923   0.003
 7243SOL     OW22627   6.373   4.605   5.981
 7243SOL    HW122628   6.418   4.602   5.892
 7243SOL    HW222629   6.439   4.588   6.054
 7244SOL     OW22630   6.977   0.779   1.961
 7244SOL    HW122631   6.977   0.791   2.060
 7244SOL    HW222632   6.953   0.684   1.939
 7245SOL     OW22633   1.324   2.913   5.418
 7245SOL    HW122634   1.339   2.858   5.500
 7245SOL    HW222635   1.407   2.966   5.399
 7246SOL     OW22636   0.496   0.075   4.025
 7246SOL    HW122637   0.587   0.034   4.030
 7246SOL    HW222638   0.480   0.131   4.106
 7247SOL     OW22639   2.867   1.189   4.059
 7247SOL    HW122640   2.878   1.149   3.968
 7247SOL    HW222641   2.787   1.250   4.058
 7248SOL     OW22642   2.769   1.343   3.027
 7248SOL    HW122643   2.743   1.405   2.954
 7248SOL    HW222644   2.825   1.268   2.990
 7249SOL     OW22645   6.973   5.125   2.431
 7249SOL    HW122646   7.015   5.117   2.341
 7249SOL    HW222647   6.876   5.148   2.421
 7250SOL     OW22648   5.145   6.890   6.428
 7250SOL    HW122649   5.075   6.959   6.445
 7250SOL    HW222650   5.234   6.934   6.418
 7251SOL     OW22651   0.688   6.646   5.639
 7251SOL    HW122652   0.698   6.670   5.543
 7251SOL    HW222653   0.760   6.582   5.665
 7252SOL     OW22654   3.861   3.250   2.035
 7252SOL    HW122655   3.868   3.349   2.025
 7252SOL    HW222656   3.804   3.228   2.114
 7253SOL     OW22657   1.445   5.926   6.756
 7253SOL    HW122658   1.456   5.851   6.691
 7253SOL    HW222659   1.535   5.965   6.777
 7254SOL     OW22660   4.717   5.007   3.863
 7254SOL    HW122661   4.779   5.082   3.887
 7254SOL    HW222662   4.767   4.935   3.815
 7255SOL     OW22663   3.030   4.206   1.239
 7255SOL    HW122664   3.013   4.109   1.253
 7255SOL    HW222665   3.094   4.240   1.308
 7256SOL     OW22666   3.108   5.649   4.682
 7256SOL    HW122667   3.169   5.603   4.618
 7256SOL    HW222668   3.020   5.601   4.684
 7257SOL     OW22669   5.597   2.408   3.401
 7257SOL    HW122670   5.661   2.337   3.432
 7257SOL    HW222671   5.511   2.400   3.452
 7258SOL     OW22672   4.975   1.345   3.217
 7258SOL    HW122673   4.945   1.258   3.257
 7258SOL    HW222674   5.052   1.328   3.155
 7259SOL     OW22675   2.000   3.852   0.687
 7259SOL    HW122676   1.994   3.952   0.676
 7259SOL    HW222677   1.911   3.811   0.668
 7260SOL     OW22678   4.097   2.052   1.415
 7260SOL    HW122679   4.094   2.047   1.315
 7260SOL    HW222680   4.060   2.140   1.445
 7261SOL     OW22681   1.435   2.462   1.272
 7261SOL    HW122682   1.478   2.483   1.184
 7261SOL    HW222683   1.505   2.436   1.339
 7262SOL     OW22684   5.095   2.155   6.149
 7262SOL    HW122685   5.087   2.100   6.233
 7262SOL    HW222686   5.170   2.120   6.093
 7263SOL     OW22687   1.008   0.772   6.930
 7263SOL    HW122688   1.032   0.869   6.931
 7263SOL    HW222689   1.092   0.718   6.917
 7264SOL     OW22690   5.377   2.232   6.852
 7264SOL    HW122691   5.332   2.203   6.768
 7264SOL    HW222692   5.476   2.234   6.837
 7265SOL     OW22693   5.947   5.685   5.564
 7265SOL    HW122694   6.033   5.677   5.513
 7265SOL    HW222695   5.870   5.662   5.505
 7266SOL     OW22696   5.607   6.175   1.688
 7266SOL    HW122697   5.584   6.080   1.712
 7266SOL    HW222698   5.532   6.235   1.718
 7267SOL     OW22699   6.341   6.468   5.061
 7267SOL    HW122700   6.244   6.446   5.060
 7267SOL    HW222701   6.372   6.485   4.967
 7268SOL     OW22702   6.090   5.213   3.214
 7268SOL    HW122703   6.052   5.290   3.265
 7268SOL    HW222704   6.159   5.246   3.149
 7269SOL     OW22705   6.886   6.630   6.682
 7269SOL    HW122706   6.915   6.682   6.601
 7269SOL    HW222707   6.824   6.686   6.737
 7270SOL     OW22708   1.557   3.686   5.280
 7270SOL    HW122709   1.572   3.625   5.202
 7270SOL    HW222710   1.466   3.727   5.274
 7271SOL     OW22711   0.822   6.212   3.416
 7271SOL    HW122712   0.761   6.133   3.425
 7271SOL    HW222713   0.790   6.270   3.341
 7272SOL     OW22714   5.821   5.860   2.115
 7272SOL    HW122715   5.728   5.896   2.126
 7272SOL    HW222716   5.871   5.918   2.051
 7273SOL     OW22717   6.088   4.846   2.096
 7273SOL    HW122718   6.028   4.780   2.052
 7273SOL    HW222719   6.092   4.828   2.194
 7274SOL     OW22720   0.903   5.740   6.790
 7274SOL    HW122721   0.845   5.754   6.710
 7274SOL    HW222722   0.999   5.737   6.761
 7275SOL     OW22723   7.009   6.638   2.619
 7275SOL    HW122724   7.021   6.611   2.714
 7275SOL    HW222725   6.912   6.631   2.594
 7276SOL     OW22726   3.797   0.952   2.856
 7276SOL    HW122727   3.788   0.868   2.909
 7276SOL    HW222728   3.737   1.022   2.894
 7277SOL     OW22729   4.201   0.470   3.532
 7277SOL    HW122730   4.233   0.424   3.450
 7277SOL    HW222731   4.182   0.566   3.511
 7278SOL     OW22732   3.137   2.911   1.389
 7278SOL    HW122733   3.203   2.873   1.454
 7278SOL    HW222734   3.175   2.992   1.345
 7279SOL     OW22735   3.861   3.926   5.716
 7279SOL    HW122736   3.898   4.018   5.699
 7279SOL    HW222737   3.927   3.858   5.684
 7280SOL     OW22738   0.209   1.511   3.370
 7280SOL    HW122739   0.181   1.424   3.329
 7280SOL    HW222740   0.129   1.558   3.407
 7281SOL     OW22741   1.802   0.917   0.815
 7281SOL    HW122742   1.872   0.955   0.754
 7281SOL    HW222743   1.712   0.922   0.770
 7282SOL     OW22744   6.539   6.100   1.477
 7282SOL    HW122745   6.445   6.116   1.507
 7282SOL    HW222746   6.597   6.176   1.505
 7283SOL     OW22747   4.858   0.347   2.278
 7283SOL    HW122748   4.882   0.439   2.247
 7283SOL    HW222749   4.798   0.352   2.357
 7284SOL     OW22750   6.912   2.184   5.854
 7284SOL    HW122751   6.935   2.280   5.866
 7284SOL    HW222752   6.826   2.176   5.804
 7285SOL     OW22753   5.512   3.005   2.201
 7285SOL    HW122754   5.423   3.024   2.242
 7285SOL    HW222755   5.506   3.017   2.102
 7286SOL     OW22756   1.512   1.157   1.042
 7286SOL    HW122757   1.546   1.067   1.071
 7286SOL    HW222758   1.437   1.185   1.102
 7287SOL     OW22759   0.280   2.471   5.655
 7287SOL    HW122760   0.348   2.518   5.711
 7287SOL    HW222761   0.274   2.375   5.684
 7288SOL     OW22762   1.541   2.054   1.888
 7288SOL    HW122763   1.628   2.018   1.856
 7288SOL    HW222764   1.555   2.107   1.972
 7289SOL     OW22765   5.601   2.002   3.560
 7289SOL    HW122766   5.559   1.940   3.494
 7289SOL    HW222767   5.545   2.006   3.643
 7290SOL     OW22768   3.207   1.812   5.645
 7290SOL    HW122769   3.116   1.849   5.663
 7290SOL    HW222770   3.209   1.715   5.670
 7291SOL     OW22771   1.113   0.068   0.185
 7291SOL    HW122772   1.206   0.049   0.217
 7291SOL    HW222773   1.109   0.056   0.086
 7292SOL     OW22774   3.279   6.744   3.213
 7292SOL    HW122775   3.236   6.747   3.123
 7292SOL    HW222776   3.230   6.804   3.276
 7293SOL     OW22777   1.460   1.401   4.645
 7293SOL    HW122778   1.368   1.438   4.635
 7293SOL    HW222779   1.496   1.426   4.734
 7294SOL     OW22780   2.831   4.101   0.085
 7294SOL    HW122781   2.776   4.021   0.061
 7294SOL    HW222782   2.824   4.169   0.012
 7295SOL     OW22783   6.545   4.261   0.877
 7295SOL    HW122784   6.522   4.332   0.943
 7295SOL    HW222785   6.577   4.303   0.792
 7296SOL     OW22786   2.905   6.024   1.349
 7296SOL    HW122787   2.919   5.979   1.437
 7296SOL    HW222788   2.974   6.096   1.336
 7297SOL     OW22789   3.674   6.799   1.405
 7297SOL    HW122790   3.734   6.878   1.417
 7297SOL    HW222791   3.596   6.825   1.349
 7298SOL     OW22792   4.970   5.394   5.885
 7298SOL    HW122793   4.882   5.415   5.843
 7298SOL    HW222794   4.962   5.310   5.939
 7299SOL     OW22795   0.757   2.113   1.368
 7299SOL    HW122796   0.725   2.195   1.320
 7299SOL    HW222797   0.849   2.129   1.403
 7300SOL     OW22798   0.102   6.834   2.209
 7300SOL    HW122799   0.195   6.866   2.223
 7300SOL    HW222800   0.042   6.913   2.191
 7301SOL     OW22801   6.278   2.076   4.820
 7301SOL    HW122802   6.347   2.111   4.756
 7301SOL    HW222803   6.321   2.010   4.882
 7302SOL     OW22804   0.131   2.718   5.823
 7302SOL    HW122805   0.098   2.783   5.755
 7302SOL    HW222806   0.229   2.702   5.810
 7303SOL     OW22807   4.035   1.045   6.880
 7303SOL    HW122808   4.106   1.072   6.945
 7303SOL    HW222809   3.970   1.120   6.867
 7304SOL     OW22810   2.857   5.115   1.441
 7304SOL    HW122811   2.820   5.180   1.374
 7304SOL    HW222812   2.786   5.094   1.508
 7305SOL     OW22813   5.002   2.074   1.383
 7305SOL    HW122814   5.085   2.113   1.422
 7305SOL    HW222815   4.924   2.091   1.444
 7306SOL     OW22816   3.850   1.334   1.423
 7306SOL    HW122817   3.893   1.377   1.502
 7306SOL    HW222818   3.887   1.243   1.409
 7307SOL     OW22819   2.746   6.558   2.349
 7307SOL    HW122820   2.840   6.570   2.317
 7307SOL    HW222821   2.710   6.471   2.316
 7308SOL     OW22822   6.833   2.425   4.844
 7308SOL    HW122823   6.832   2.383   4.935
 7308SOL    HW222824   6.909   2.387   4.791
 7309SOL     OW22825   3.638   5.444   0.736
 7309SOL    HW122826   3.598   5.427   0.826
 7309SOL    HW222827   3.565   5.463   0.671
 7310SOL     OW22828   2.178   3.917   6.915
 7310SOL    HW122829   2.259   3.933   6.971
 7310SOL    HW222830   2.188   3.964   6.827
 7311SOL     OW22831   2.056   1.646   1.207
 7311SOL    HW122832   2.153   1.665   1.226
 7311SOL    HW222833   2.042   1.643   1.108
 7312SOL     OW22834   0.792   3.027   4.729
 7312SOL    HW122835   0.877   2.990   4.768
 7312SOL    HW222836   0.726   2.954   4.716
 7313SOL     OW22837   2.339   0.974   1.379
 7313SOL    HW122838   2.263   0.931   1.329
 7313SOL    HW222839   2.363   0.918   1.458
 7314SOL     OW22840   0.167   4.965   6.170
 7314SOL    HW122841   0.239   4.960   6.239
 7314SOL    HW222842   0.079   4.949   6.213
 7315SOL     OW22843   5.498   5.524   1.803
 7315SOL    HW122844   5.588   5.522   1.848
 7315SOL    HW222845   5.455   5.434   1.810
 7316SOL     OW22846   3.595   3.395   6.930
 7316SOL    HW122847   3.507   3.391   6.881
 7316SOL    HW222848   3.622   3.491   6.941
 7317SOL     OW22849   4.549   1.781   1.568
 7317SOL    HW122850   4.498   1.712   1.518
 7317SOL    HW222851   4.487   1.853   1.598
 7318SOL     OW22852   2.909   0.196   2.137
 7318SOL    HW122853   3.009   0.199   2.132
 7318SOL    HW222854   2.880   0.152   2.222
 7319SOL     OW22855   6.940   3.829   7.005
 7319SOL    HW122856   6.988   3.784   6.929
 7319SOL    HW222857   6.864   3.882   6.970
 7320SOL     OW22858   1.208   3.466   2.368
 7320SOL    HW122859   1.162   3.416   2.295
 7320SOL    HW222860   1.279   3.525   2.329
 7321SOL     OW22861   1.502   6.141   6.134
 7321SOL    HW122862   1.589   6.189   6.125
 7321SOL    HW222863   1.499   6.094   6.222
 7322SOL     OW22864   6.727   2.847   2.921
 7322SOL    HW122865   6.784   2.891   2.852
 7322SOL    HW222866   6.673   2.916   2.969
 7323SOL     OW22867   2.084   2.533   1.457
 7323SOL    HW122868   2.081   2.585   1.542
 7323SOL    HW222869   2.084   2.595   1.379
 7324SOL     OW22870   5.846   5.825   1.133
 7324SOL    HW122871   5.891   5.836   1.044
 7324SOL    HW222872   5.751   5.855   1.126
 7325SOL     OW22873   2.276   0.229   6.258
 7325SOL    HW122874   2.248   0.165   6.329
 7325SOL    HW222875   2.363   0.272   6.285
 7326SOL     OW22876   2.863   6.393   6.429
 7326SOL    HW122877   2.821   6.326   6.368
 7326SOL    HW222878   2.860   6.359   6.523
 7327SOL     OW22879   6.234   2.280   5.821
 7327SOL    HW122880   6.267   2.352   5.760
 7327SOL    HW222881   6.310   2.223   5.849
 7328SOL     OW22882   4.260   0.256   6.668
 7328SOL    HW122883   4.247   0.325   6.596
 7328SOL    HW222884   4.195   0.182   6.655
 7329SOL     OW22885   1.349   3.850   0.754
 7329SOL    HW122886   1.337   3.851   0.655
 7329SOL    HW222887   1.279   3.792   0.795
 7330SOL     OW22888   1.786   2.969   0.166
 7330SOL    HW122889   1.869   2.914   0.168
 7330SOL    HW222890   1.805   3.059   0.127
 7331SOL     OW22891   5.828   6.750   1.408
 7331SOL    HW122892   5.821   6.651   1.405
 7331SOL    HW222893   5.849   6.786   1.317
 7332SOL     OW22894   3.308   5.916   0.141
 7332SOL    HW122895   3.239   5.977   0.104
 7332SOL    HW222896   3.302   5.826   0.098
 7333SOL     OW22897   6.566   3.088   3.421
 7333SOL    HW122898   6.659   3.062   3.446
 7333SOL    HW222899   6.518   3.009   3.383
 7334SOL     OW22900   2.037   6.170   6.345
 7334SOL    HW122901   2.131   6.146   6.323
 7334SOL    HW222902   1.974   6.115   6.289
 7335SOL     OW22903   0.469   2.212   3.428
 7335SOL    HW122904   0.447   2.278   3.357
 7335SOL    HW222905   0.468   2.256   3.517
 7336SOL     OW22906   2.023   6.758   2.536
 7336SOL    HW122907   2.040   6.792   2.629
 7336SOL    HW222908   1.971   6.673   2.541
 7337SOL     OW22909   1.276   2.361   1.519
 7337SOL    HW122910   1.203   2.428   1.518
 7337SOL    HW222911   1.328   2.366   1.434
 7338SOL     OW22912   4.627   1.516   1.763
 7338SOL    HW122913   4.719   1.531   1.799
 7338SOL    HW222914   4.581   1.605   1.752
 7339SOL     OW22915   5.894   0.893   4.971
 7339SOL    HW122916   5.936   0.804   4.952
 7339SOL    HW222917   5.951   0.965   4.930
 7340SOL     OW22918   2.993   1.388   0.445
 7340SOL    HW122919   2.933   1.400   0.366
 7340SOL    HW222920   2.955   1.318   0.505
 7341SOL     OW22921   0.468   4.395   5.484
 7341SOL    HW122922   0.544   4.347   5.528
 7341SOL    HW222923   0.419   4.450   5.552
 7342SOL     OW22924   0.672   0.306   6.651
 7342SOL    HW122925   0.649   0.218   6.609
 7342SOL    HW222926   0.635   0.308   6.744
 7343SOL     OW22927   5.678   4.449   1.739
 7343SOL    HW122928   5.748   4.386   1.773
 7343SOL    HW222929   5.587   4.409   1.752
 7344SOL     OW22930   0.833   1.188   5.961
 7344SOL    HW122931   0.872   1.204   6.052
 7344SOL    HW222932   0.898   1.137   5.905
 7345SOL     OW22933   4.932   5.535   5.052
 7345SOL    HW122934   4.871   5.614   5.056
 7345SOL    HW222935   4.883   5.453   5.082
 7346SOL     OW22936   4.699   4.829   1.352
 7346SOL    HW122937   4.720   4.893   1.425
 7346SOL    HW222938   4.611   4.852   1.312
 7347SOL     OW22939   0.279   2.481   0.846
 7347SOL    HW122940   0.261   2.424   0.766
 7347SOL    HW222941   0.349   2.437   0.903
 7348SOL     OW22942   1.555   3.805   3.764
 7348SOL    HW122943   1.567   3.789   3.862
 7348SOL    HW222944   1.558   3.718   3.715
 7349SOL     OW22945   4.915   2.073   1.113
 7349SOL    HW122946   4.968   1.998   1.073
 7349SOL    HW222947   4.950   2.095   1.204
 7350SOL     OW22948   1.516   3.126   5.457
 7350SOL    HW122949   1.522   3.224   5.436
 7350SOL    HW222950   1.602   3.095   5.496
 7351SOL     OW22951   5.059   6.748   4.990
 7351SOL    HW122952   5.151   6.784   5.009
 7351SOL    HW222953   4.997   6.773   5.064
 7352SOL     OW22954   1.987   2.609   3.393
 7352SOL    HW122955   2.059   2.599   3.462
 7352SOL    HW222956   1.949   2.520   3.371
 7353SOL     OW22957   0.917   0.689   6.074
 7353SOL    HW122958   1.013   0.710   6.092
 7353SOL    HW222959   0.892   0.603   6.117
 7354SOL     OW22960   0.230   1.564   5.926
 7354SOL    HW122961   0.276   1.481   5.957
 7354SOL    HW222962   0.182   1.606   6.003
 7355SOL     OW22963   2.257   0.921   0.563
 7355SOL    HW122964   2.253   0.858   0.486
 7355SOL    HW222965   2.264   1.015   0.529
 7356SOL     OW22966   3.872   3.649   6.095
 7356SOL    HW122967   3.846   3.572   6.038
 7356SOL    HW222968   3.801   3.665   6.164
 7357SOL     OW22969   4.730   6.526   1.480
 7357SOL    HW122970   4.762   6.448   1.427
 7357SOL    HW222971   4.630   6.521   1.488
 7358SOL     OW22972   6.210   3.456   2.974
 7358SOL    HW122973   6.262   3.376   2.942
 7358SOL    HW222974   6.227   3.533   2.914
 7359SOL     OW22975   2.199   1.953   6.142
 7359SOL    HW122976   2.200   2.014   6.063
 7359SOL    HW222977   2.242   1.866   6.118
 7360SOL     OW22978   2.993   3.734   5.470
 7360SOL    HW122979   3.089   3.753   5.449
 7360SOL    HW222980   2.967   3.781   5.555
 7361SOL     OW22981   4.593   6.845   1.614
 7361SOL    HW122982   4.511   6.878   1.661
 7361SOL    HW222983   4.638   6.776   1.670
 7362SOL     OW22984   1.269   4.901   4.920
 7362SOL    HW122985   1.286   4.810   4.881
 7362SOL    HW222986   1.197   4.894   4.989
 7363SOL     OW22987   4.508   2.045   1.377
 7363SOL    HW122988   4.496   2.109   1.302
 7363SOL    HW222989   4.443   1.969   1.367
 7364SOL     OW22990   4.365   0.704   1.679
 7364SOL    HW122991   4.324   0.776   1.624
 7364SOL    HW222992   4.335   0.615   1.645
 7365SOL     OW22993   1.233   6.230   1.711
 7365SOL    HW122994   1.138   6.247   1.686
 7365SOL    HW222995   1.236   6.177   1.796
 7366SOL     OW22996   2.097   5.421   6.709
 7366SOL    HW122997   2.034   5.494   6.737
 7366SOL    HW222998   2.074   5.391   6.617
 7367SOL     OW22999   5.046   3.004   0.927
 7367SOL    HW123000   4.987   2.948   0.986
 7367SOL    HW223001   5.068   2.952   0.844
 7368SOL     OW23002   3.832   2.976   2.843
 7368SOL    HW123003   3.926   2.946   2.862
 7368SOL    HW223004   3.771   2.937   2.912
 7369SOL     OW23005   3.798   2.938   6.730
 7369SOL    HW123006   3.712   2.983   6.706
 7369SOL    HW223007   3.788   2.840   6.720
 7370SOL     OW23008   2.232   0.831   4.277
 7370SOL    HW123009   2.179   0.778   4.210
 7370SOL    HW223010   2.275   0.909   4.231
 7371SOL     OW23011   1.664   6.419   4.177
 7371SOL    HW123012   1.644   6.378   4.266
 7371SOL    HW223013   1.698   6.348   4.115
 7372SOL     OW23014   4.387   1.151   5.099
 7372SOL    HW123015   4.405   1.055   5.076
 7372SOL    HW223016   4.464   1.188   5.150
 7373SOL     OW23017   5.994   2.354   4.132
 7373SOL    HW123018   6.044   2.316   4.054
 7373SOL    HW223019   6.058   2.388   4.200
 7374SOL     OW23020   2.356   1.435   5.707
 7374SOL    HW123021   2.357   1.400   5.614
 7374SOL    HW223022   2.289   1.509   5.714
 7375SOL     OW23023   2.040   3.292   3.170
 7375SOL    HW123024   1.949   3.329   3.152
 7375SOL    HW223025   2.049   3.203   3.125
 7376SOL     OW23026   3.040   1.469   0.729
 7376SOL    HW123027   3.098   1.548   0.747
 7376SOL    HW223028   2.989   1.484   0.644
 7377SOL     OW23029   5.590   4.392   0.637
 7377SOL    HW123030   5.667   4.433   0.588
 7377SOL    HW223031   5.518   4.460   0.649
 7378SOL     OW23032   6.941   1.064   5.943
 7378SOL    HW123033   6.953   1.111   5.855
 7378SOL    HW223034   7.001   1.107   6.011
 7379SOL     OW23035   3.467   1.572   3.047
 7379SOL    HW123036   3.516   1.639   3.102
 7379SOL    HW223037   3.370   1.596   3.045
 7380SOL     OW23038   6.966   4.559   4.872
 7380SOL    HW123039   6.888   4.618   4.848
 7380SOL    HW223040   7.017   4.601   4.946
 7381SOL     OW23041   4.455   3.916   1.333
 7381SOL    HW123042   4.370   3.962   1.357
 7381SOL    HW223043   4.531   3.958   1.383
 7382SOL     OW23044   6.615   6.250   6.170
 7382SOL    HW123045   6.550   6.314   6.210
 7382SOL    HW223046   6.659   6.197   6.243
 7383SOL     OW23047   1.317   0.025   1.427
 7383SOL    HW123048   1.399   7.020   1.476
 7383SOL    HW223049   1.283   0.111   1.463
 7384SOL     OW23050   5.376   0.401   2.948
 7384SOL    HW123051   5.426   0.344   2.882
 7384SOL    HW223052   5.361   0.491   2.908
 7385SOL     OW23053   4.299   6.106   2.217
 7385SOL    HW123054   4.199   6.098   2.222
 7385SOL    HW223055   4.339   6.086   2.306
 7386SOL     OW23056   0.476   1.929   5.720
 7386SOL    HW123057   0.514   2.022   5.721
 7386SOL    HW223058   0.402   1.924   5.653
 7387SOL     OW23059   5.268   6.164   4.292
 7387SOL    HW123060   5.277   6.218   4.376
 7387SOL    HW223061   5.176   6.124   4.289
 7388SOL     OW23062   0.364   4.926   2.356
 7388SOL    HW123063   0.350   4.902   2.260
 7388SOL    HW223064   0.297   4.877   2.413
 7389SOL     OW23065   0.050   3.694   6.791
 7389SOL    HW123066   0.137   3.724   6.752
 7389SOL    HW223067   7.009   3.670   6.718
 7390SOL     OW23068   1.306   1.677   6.779
 7390SOL    HW123069   1.353   1.593   6.753
 7390SOL    HW223070   1.235   1.698   6.712
 7391SOL     OW23071   4.004   3.411   4.616
 7391SOL    HW123072   4.073   3.477   4.644
 7391SOL    HW223073   3.921   3.460   4.588
 7392SOL     OW23074   2.613   5.994   0.249
 7392SOL    HW123075   2.550   6.068   0.225
 7392SOL    HW223076   2.702   6.011   0.208
 7393SOL     OW23077   5.842   5.007   2.846
 7393SOL    HW123078   5.893   4.952   2.912
 7393SOL    HW223079   5.832   4.958   2.760
 7394SOL     OW23080   2.441   2.580   5.651
 7394SOL    HW123081   2.352   2.544   5.678
 7394SOL    HW223082   2.495   2.507   5.610
 7395SOL     OW23083   1.278   2.287   0.270
 7395SOL    HW123084   1.371   2.325   0.264
 7395SOL    HW223085   1.252   2.278   0.366
 7396SOL     OW23086   0.981   0.136   0.805
 7396SOL    HW123087   0.907   0.075   0.775
 7396SOL    HW223088   1.063   0.082   0.823
 7397SOL     OW23089   4.261   5.471   4.593
 7397SOL    HW123090   4.314   5.556   4.587
 7397SOL    HW223091   4.292   5.418   4.672
 7398SOL     OW23092   2.330   4.781   4.539
 7398SOL    HW123093   2.423   4.804   4.511
 7398SOL    HW223094   2.292   4.713   4.477
 7399SOL     OW23095   1.241   2.165   5.364
 7399SOL    HW123096   1.221   2.214   5.449
 7399SOL    HW223097   1.253   2.068   5.383
 7400SOL     OW23098   3.826   2.221   5.672
 7400SOL    HW123099   3.785   2.307   5.643
 7400SOL    HW223100   3.823   2.155   5.596
 7401SOL     OW23101   1.434   1.551   4.898
 7401SOL    HW123102   1.478   1.524   4.984
 7401SOL    HW223103   1.336   1.533   4.904
 7402SOL     OW23104   2.789   5.756   6.446
 7402SOL    HW123105   2.761   5.660   6.445
 7402SOL    HW223106   2.710   5.815   6.432
 7403SOL     OW23107   2.154   3.688   2.175
 7403SOL    HW123108   2.172   3.639   2.089
 7403SOL    HW223109   2.125   3.622   2.244
 7404SOL     OW23110   2.378   5.397   1.782
 7404SOL    HW123111   2.445   5.403   1.856
 7404SOL    HW223112   2.292   5.438   1.812
 7405SOL     OW23113   3.823   4.982   4.401
 7405SOL    HW123114   3.723   4.975   4.396
 7405SOL    HW223115   3.861   4.981   4.309
 7406SOL     OW23116   0.140   2.413   3.179
 7406SOL    HW123117   0.194   2.493   3.204
 7406SOL    HW223118   0.177   2.372   3.095
 7407SOL     OW23119   1.077   0.159   4.714
 7407SOL    HW123120   1.091   0.222   4.638
 7407SOL    HW223121   1.103   0.066   4.686
 7408SOL     OW23122   3.266   3.864   6.858
 7408SOL    HW123123   3.246   3.866   6.760
 7408SOL    HW223124   3.358   3.897   6.875
 7409SOL     OW23125   6.464   2.306   6.799
 7409SOL    HW123126   6.523   2.387   6.807
 7409SOL    HW223127   6.418   2.306   6.711
 7410SOL     OW23128   0.143   0.147   0.371
 7410SOL    HW123129   0.190   0.199   0.301
 7410SOL    HW223130   0.164   0.050   0.360
 7411SOL     OW23131   2.266   0.050   6.045
 7411SOL    HW123132   2.279   0.127   6.107
 7411SOL    HW223133   2.340   7.006   6.058
 7412SOL     OW23134   4.606   0.140   1.849
 7412SOL    HW123135   4.671   0.142   1.925
 7412SOL    HW223136   4.654   0.110   1.766
 7413SOL     OW23137   5.284   5.908   3.984
 7413SOL    HW123138   5.315   5.818   4.014
 7413SOL    HW223139   5.184   5.912   3.987
 7414SOL     OW23140   0.462   0.665   4.018
 7414SOL    HW123141   0.558   0.663   4.045
 7414SOL    HW223142   0.455   0.655   3.919
 7415SOL     OW23143   2.275   4.789   4.209
 7415SOL    HW123144   2.190   4.839   4.225
 7415SOL    HW223145   2.291   4.782   4.111
 7416SOL     OW23146   1.748   1.067   2.799
 7416SOL    HW123147   1.847   1.070   2.792
 7416SOL    HW223148   1.712   1.160   2.807
 7417SOL     OW23149   1.851   0.567   0.120
 7417SOL    HW123150   1.903   0.559   0.205
 7417SOL    HW223151   1.757   0.594   0.141
 7418SOL     OW23152   2.458   5.878   0.467
 7418SOL    HW123153   2.472   5.932   0.550
 7418SOL    HW223154   2.499   5.926   0.389
 7419SOL     OW23155   6.632   2.508   5.106
 7419SOL    HW123156   6.697   2.561   5.052
 7419SOL    HW223157   6.553   2.485   5.050
 7420SOL     OW23158   0.627   6.797   1.664
 7420SOL    HW123159   0.663   6.704   1.664
 7420SOL    HW223160   0.701   6.862   1.643
 7421SOL     OW23161   3.600   4.359   0.664
 7421SOL    HW123162   3.517   4.304   0.675
 7421SOL    HW223163   3.680   4.299   0.662
 7422SOL     OW23164   6.599   3.249   2.406
 7422SOL    HW123165   6.520   3.187   2.406
 7422SOL    HW223166   6.646   3.243   2.494
 7423SOL     OW23167   5.853   3.517   5.341
 7423SOL    HW123168   5.952   3.529   5.329
 7423SOL    HW223169   5.827   3.548   5.433
 7424SOL     OW23170   6.824   6.689   5.813
 7424SOL    HW123171   6.901   6.654   5.758
 7424SOL    HW223172   6.854   6.769   5.865
 7425SOL     OW23173   4.224   5.840   6.706
 7425SOL    HW123174   4.170   5.919   6.732
 7425SOL    HW223175   4.198   5.761   6.761
 7426SOL     OW23176   3.227   1.540   5.716
 7426SOL    HW123177   3.144   1.485   5.725
 7426SOL    HW223178   3.302   1.496   5.767
 7427SOL     OW23179   4.274   0.098   3.588
 7427SOL    HW123180   4.263   0.165   3.661
 7427SOL    HW223181   4.369   0.069   3.583
 7428SOL     OW23182   4.513   1.693   5.687
 7428SOL    HW123183   4.482   1.615   5.742
 7428SOL    HW223184   4.543   1.767   5.747
 7429SOL     OW23185   0.623   6.530   4.195
 7429SOL    HW123186   0.572   6.592   4.136
 7429SOL    HW223187   0.721   6.541   4.179
 7430SOL     OW23188   1.215   2.874   0.398
 7430SOL    HW123189   1.145   2.819   0.351
 7430SOL    HW223190   1.289   2.814   0.429
 7431SOL     OW23191   1.285   2.825   3.468
 7431SOL    HW123192   1.223   2.841   3.391
 7431SOL    HW223193   1.339   2.907   3.486
 7432SOL     OW23194   1.176   0.995   2.947
 7432SOL    HW123195   1.091   1.045   2.930
 7432SOL    HW223196   1.166   0.901   2.914
 7433SOL     OW23197   4.595   6.314   6.096
 7433SOL    HW123198   4.670   6.301   6.160
 7433SOL    HW223199   4.601   6.248   6.022
 7434SOL     OW23200   5.077   6.036   5.892
 7434SOL    HW123201   5.120   6.124   5.914
 7434SOL    HW223202   5.142   5.962   5.909
 7435SOL     OW23203   3.703   5.950   0.706
 7435SOL    HW123204   3.737   6.044   0.713
 7435SOL    HW223205   3.603   5.950   0.703
 7436SOL     OW23206   5.068   4.000   6.187
 7436SOL    HW123207   5.143   4.018   6.123
 7436SOL    HW223208   5.042   4.084   6.233
 7437SOL     OW23209   1.027   6.103   7.020
 7437SOL    HW123210   1.023   6.148   0.087
 7437SOL    HW223211   0.942   6.052   7.005
 7438SOL     OW23212   1.172   6.040   6.808
 7438SOL    HW123213   1.113   6.069   6.884
 7438SOL    HW223214   1.251   5.991   6.845
 7439SOL     OW23215   2.214   6.083   5.893
 7439SOL    HW123216   2.152   6.057   5.819
 7439SOL    HW223217   2.306   6.050   5.873
 7440SOL     OW23218   6.646   3.021   3.819
 7440SOL    HW123219   6.731   3.046   3.773
 7440SOL    HW223220   6.616   3.097   3.877
 7441SOL     OW23221   5.518   6.704   3.863
 7441SOL    HW123222   5.497   6.639   3.936
 7441SOL    HW223223   5.557   6.655   3.785
 7442SOL     OW23224   6.401   1.240   6.118
 7442SOL    HW123225   6.491   1.238   6.072
 7442SOL    HW223226   6.354   1.154   6.102
 7443SOL     OW23227   0.033   6.143   1.851
 7443SOL    HW123228   0.034   6.051   1.813
 7443SOL    HW223229   0.073   6.207   1.784
 7444SOL     OW23230   5.426   2.742   5.535
 7444SOL    HW123231   5.501   2.806   5.517
 7444SOL    HW223232   5.439   2.702   5.625
 7445SOL     OW23233   4.011   0.759   0.977
 7445SOL    HW123234   3.917   0.746   1.008
 7445SOL    HW223235   4.070   0.777   1.055
 7446SOL     OW23236   5.708   3.092   0.286
 7446SOL    HW123237   5.791   3.036   0.284
 7446SOL    HW223238   5.698   3.134   0.375
 7447SOL     OW23239   0.458   3.292   6.512
 7447SOL    HW123240   0.422   3.382   6.487
 7447SOL    HW223241   0.461   3.233   6.432
 7448SOL     OW23242   6.341   6.698   5.231
 7448SOL    HW123243   6.333   6.606   5.191
 7448SOL    HW223244   6.436   6.728   5.228
 7449SOL     OW23245   0.615   3.822   1.989
 7449SOL    HW123246   0.550   3.749   2.012
 7449SOL    HW223247   0.615   3.836   1.889
 7450SOL     OW23248   5.105   2.517   4.563
 7450SOL    HW123249   5.181   2.483   4.509
 7450SOL    HW223250   5.076   2.448   4.629
 7451SOL     OW23251   6.670   0.047   3.107
 7451SOL    HW123252   6.581   0.014   3.141
 7451SOL    HW223253   6.668   0.051   3.007
 7452SOL     OW23254   6.841   6.641   4.631
 7452SOL    HW123255   6.771   6.707   4.658
 7452SOL    HW223256   6.924   6.689   4.604
 7453SOL     OW23257   5.079   0.230   5.924
 7453SOL    HW123258   5.079   0.201   6.020
 7453SOL    HW223259   5.151   0.299   5.911
 7454SOL     OW23260   0.460   2.545   2.233
 7454SOL    HW123261   0.460   2.553   2.333
 7454SOL    HW223262   0.398   2.472   2.206
 7455SOL     OW23263   0.030   2.357   2.301
 7455SOL    HW123264   6.976   2.390   2.245
 7455SOL    HW223265   0.018   2.389   2.395
 7456SOL     OW23266   0.841   1.463   3.854
 7456SOL    HW123267   0.913   1.402   3.887
 7456SOL    HW223268   0.751   1.425   3.879
 7457SOL     OW23269   3.570   0.358   6.324
 7457SOL    HW123270   3.515   0.439   6.347
 7457SOL    HW223271   3.642   0.346   6.392
 7458SOL     OW23272   1.553   6.398   5.683
 7458SOL    HW123273   1.575   6.321   5.622
 7458SOL    HW223274   1.599   6.385   5.771
 7459SOL     OW23275   4.513   0.514   1.987
 7459SOL    HW123276   4.559   0.547   1.904
 7459SOL    HW223277   4.544   0.568   2.065
 7460SOL     OW23278   1.452   4.979   0.817
 7460SOL    HW123279   1.408   5.033   0.889
 7460SOL    HW223280   1.543   5.016   0.799
 7461SOL     OW23281   5.592   1.049   6.592
 7461SOL    HW123282   5.626   1.136   6.558
 7461SOL    HW223283   5.502   1.031   6.554
 7462SOL     OW23284   2.075   4.047   2.460
 7462SOL    HW123285   2.116   3.972   2.513
 7462SOL    HW223286   2.079   4.025   2.363
 7463SOL     OW23287   2.445   4.777   0.509
 7463SOL    HW123288   2.362   4.823   0.477
 7463SOL    HW223289   2.456   4.795   0.607
 7464SOL     OW23290   4.973   0.318   6.541
 7464SOL    HW123291   4.908   0.242   6.540
 7464SOL    HW223292   5.057   0.289   6.587
 7465SOL     OW23293   1.444   5.623   6.683
 7465SOL    HW123294   1.534   5.666   6.687
 7465SOL    HW223295   1.449   5.533   6.727
 7466SOL     OW23296   0.021   0.496   5.180
 7466SOL    HW123297   7.004   0.512   5.270
 7466SOL    HW223298   0.092   0.425   5.188
 7467SOL     OW23299   0.632   1.248   1.256
 7467SOL    HW123300   0.640   1.191   1.339
 7467SOL    HW223301   0.558   1.315   1.269
 7468SOL     OW23302   5.692   2.947   3.589
 7468SOL    HW123303   5.715   3.020   3.653
 7468SOL    HW223304   5.658   2.868   3.640
 7469SOL     OW23305   6.958   0.746   0.566
 7469SOL    HW123306   6.883   0.688   0.537
 7469SOL    HW223307   6.934   0.842   0.551
 7470SOL     OW23308   6.480   3.871   3.312
 7470SOL    HW123309   6.527   3.813   3.378
 7470SOL    HW223310   6.480   3.827   3.222
 7471SOL     OW23311   5.516   6.648   6.373
 7471SOL    HW123312   5.575   6.692   6.305
 7471SOL    HW223313   5.510   6.705   6.455
 7472SOL     OW23314   6.357   6.858   4.363
 7472SOL    HW123315   6.351   6.923   4.439
 7472SOL    HW223316   6.306   6.775   4.387
 7473SOL     OW23317   5.926   5.177   3.906
 7473SOL    HW123318   5.843   5.227   3.930
 7473SOL    HW223319   6.003   5.241   3.900
 7474SOL     OW23320   1.119   1.500   5.346
 7474SOL    HW123321   1.066   1.585   5.348
 7474SOL    HW223322   1.059   1.423   5.367
 7475SOL     OW23323   5.004   2.339   2.101
 7475SOL    HW123324   5.103   2.332   2.111
 7475SOL    HW223325   4.982   2.420   2.046
 7476SOL     OW23326   3.279   0.684   3.784
 7476SOL    HW123327   3.197   0.729   3.747
 7476SOL    HW223328   3.337   0.753   3.828
 7477SOL     OW23329   0.172   0.946   5.539
 7477SOL    HW123330   0.231   0.921   5.462
 7477SOL    HW223331   0.229   0.967   5.618
 7478SOL     OW23332   4.983   4.795   5.754
 7478SOL    HW123333   5.051   4.842   5.810
 7478SOL    HW223334   4.924   4.740   5.812
 7479SOL     OW23335   4.107   2.258   2.451
 7479SOL    HW123336   4.096   2.177   2.509
 7479SOL    HW223337   4.065   2.337   2.496
 7480SOL     OW23338   0.786   4.003   2.110
 7480SOL    HW123339   0.787   3.973   2.205
 7480SOL    HW223340   0.716   3.952   2.060
 7481SOL     OW23341   6.503   5.911   1.099
 7481SOL    HW123342   6.555   5.970   1.160
 7481SOL    HW223343   6.405   5.933   1.105
 7482SOL     OW23344   4.603   2.527   3.018
 7482SOL    HW123345   4.594   2.584   3.100
 7482SOL    HW223346   4.677   2.561   2.961
 7483SOL     OW23347   4.713   2.873   4.234
 7483SOL    HW123348   4.675   2.783   4.216
 7483SOL    HW223349   4.782   2.895   4.165
 7484SOL     OW23350   1.686   6.738   4.343
 7484SOL    HW123351   1.767   6.694   4.381
 7484SOL    HW223352   1.702   6.763   4.248
 7485SOL     OW23353   3.673   0.011   4.633
 7485SOL    HW123354   3.597   6.976   4.663
 7485SOL    HW223355   3.646   0.060   4.550
 7486SOL     OW23356   2.004   6.709   0.679
 7486SOL    HW123357   2.022   6.695   0.581
 7486SOL    HW223358   2.001   6.620   0.725
 7487SOL     OW23359   1.854   6.555   3.703
 7487SOL    HW123360   1.763   6.533   3.669
 7487SOL    HW223361   1.911   6.588   3.628
 7488SOL     OW23362   2.661   6.566   3.585
 7488SOL    HW123363   2.603   6.643   3.558
 7488SOL    HW223364   2.658   6.496   3.514
 7489SOL     OW23365   4.991   2.712   5.232
 7489SOL    HW123366   4.926   2.728   5.307
 7489SOL    HW223367   5.080   2.688   5.270
 7490SOL     OW23368   1.294   0.291   2.652
 7490SOL    HW123369   1.265   0.224   2.583
 7490SOL    HW223370   1.319   0.242   2.736
 7491SOL     OW23371   5.176   2.765   6.726
 7491SOL    HW123372   5.258   2.812   6.757
 7491SOL    HW223373   5.195   2.667   6.716
 7492SOL     OW23374   2.078   0.753   3.239
 7492SOL    HW123375   2.030   0.814   3.176
 7492SOL    HW223376   2.037   0.661   3.235
 7493SOL     OW23377   0.365   3.619   6.821
 7493SOL    HW123378   0.312   3.688   6.870
 7493SOL    HW223379   0.302   3.553   6.778
 7494SOL     OW23380   5.338   1.209   2.717
 7494SOL    HW123381   5.349   1.278   2.789
 7494SOL    HW223382   5.243   1.211   2.684
 7495SOL     OW23383   1.551   2.050   6.463
 7495SOL    HW123384   1.516   2.054   6.369
 7495SOL    HW223385   1.534   2.137   6.509
 7496SOL     OW23386   6.223   3.271   5.005
 7496SOL    HW123387   6.127   3.279   4.982
 7496SOL    HW223388   6.261   3.189   4.961
 7497SOL     OW23389   2.341   4.204   6.175
 7497SOL    HW123390   2.370   4.283   6.228
 7497SOL    HW223391   2.404   4.190   6.098
 7498SOL     OW23392   3.302   0.321   5.188
 7498SOL    HW123393   3.308   0.336   5.089
 7498SOL    HW223394   3.211   0.348   5.220
 7499SOL     OW23395   3.226   1.249   2.770
 7499SOL    HW123396   3.296   1.279   2.835
 7499SOL    HW223397   3.230   1.305   2.687
 7500SOL     OW23398   3.370   5.492   2.918
 7500SOL    HW123399   3.318   5.562   2.967
 7500SOL    HW223400   3.416   5.433   2.984
 7501SOL     OW23401   5.154   3.832   4.882
 7501SOL    HW123402   5.060   3.840   4.914
 7501SOL    HW223403   5.207   3.777   4.947
 7502SOL     OW23404   3.121   0.443   4.537
 7502SOL    HW123405   3.038   0.496   4.557
 7502SOL    HW223406   3.096   0.348   4.520
 7503SOL     OW23407   1.714   0.424   1.490
 7503SOL    HW123408   1.781   0.476   1.542
 7503SOL    HW223409   1.650   0.487   1.446
 7504SOL     OW23410   0.993   6.993   3.336
 7504SOL    HW123411   1.079   6.965   3.293
 7504SOL    HW223412   0.958   0.052   3.290
 7505SOL     OW23413   1.485   2.572   5.983
 7505SOL    HW123414   1.407   2.633   5.968
 7505SOL    HW223415   1.458   2.499   6.046
 7506SOL     OW23416   4.917   1.118   3.349
 7506SOL    HW123417   4.942   1.047   3.414
 7506SOL    HW223418   4.834   1.091   3.300
 7507SOL     OW23419   0.368   1.335   2.506
 7507SOL    HW123420   0.464   1.357   2.489
 7507SOL    HW223421   0.313   1.419   2.501
 7508SOL     OW23422   1.249   0.082   1.863
 7508SOL    HW123423   1.162   0.054   1.906
 7508SOL    HW223424   1.242   0.070   1.764
 7509SOL     OW23425   5.885   4.483   0.657
 7509SOL    HW123426   5.841   4.569   0.684
 7509SOL    HW223427   5.970   4.472   0.708
 7510SOL     OW23428   3.791   3.478   5.648
 7510SOL    HW123429   3.700   3.489   5.687
 7510SOL    HW223430   3.829   3.390   5.677
 7511SOL     OW23431   2.389   6.120   3.766
 7511SOL    HW123432   2.399   6.095   3.670
 7511SOL    HW223433   2.344   6.209   3.773
 7512SOL     OW23434   2.712   6.888   6.946
 7512SOL    HW123435   2.793   6.831   6.960
 7512SOL    HW223436   2.730   6.980   6.980
 7513SOL     OW23437   1.955   0.954   1.496
 7513SOL    HW123438   1.994   0.898   1.424
 7513SOL    HW223439   2.019   0.961   1.572
 7514SOL     OW23440   2.574   5.786   1.786
 7514SOL    HW123441   2.626   5.706   1.757
 7514SOL    HW223442   2.478   5.774   1.761
 7515SOL     OW23443   6.703   5.215   4.007
 7515SOL    HW123444   6.800   5.231   4.023
 7515SOL    HW223445   6.685   5.117   4.008
 7516SOL     OW23446   7.008   6.089   5.464
 7516SOL    HW123447   7.010   6.011   5.401
 7516SOL    HW223448   0.011   6.172   5.414
 7517SOL     OW23449   7.001   2.646   0.466
 7517SOL    HW123450   6.945   2.609   0.393
 7517SOL    HW223451   0.065   2.596   0.470
 7518SOL     OW23452   4.340   4.727   3.543
 7518SOL    HW123453   4.334   4.787   3.464
 7518SOL    HW223454   4.379   4.778   3.620
 7519SOL     OW23455   0.493   6.270   3.564
 7519SOL    HW123456   0.589   6.299   3.572
 7519SOL    HW223457   0.460   6.286   3.471
 7520SOL     OW23458   1.876   6.898   2.333
 7520SOL    HW123459   1.905   6.859   2.245
 7520SOL    HW223460   1.933   6.860   2.406
 7521SOL     OW23461   4.698   4.061   5.723
 7521SOL    HW123462   4.659   4.115   5.798
 7521SOL    HW223463   4.790   4.031   5.748
 7522SOL     OW23464   1.548   1.347   5.787
 7522SOL    HW123465   1.637   1.367   5.827
 7522SOL    HW223466   1.512   1.430   5.743
 7523SOL     OW23467   6.002   0.640   6.416
 7523SOL    HW123468   6.030   0.734   6.396
 7523SOL    HW223469   5.953   0.637   6.503
 7524SOL     OW23470   1.282   2.549   5.369
 7524SOL    HW123471   1.216   2.486   5.410
 7524SOL    HW223472   1.371   2.539   5.415
 7525SOL     OW23473   3.746   0.895   6.020
 7525SOL    HW123474   3.695   0.978   6.043
 7525SOL    HW223475   3.796   0.863   6.101
 7526SOL     OW23476   2.982   3.608   1.581
 7526SOL    HW123477   2.909   3.541   1.566
 7526SOL    HW223478   3.052   3.568   1.640
 7527SOL     OW23479   2.952   6.133   3.264
 7527SOL    HW123480   2.861   6.163   3.294
 7527SOL    HW223481   3.016   6.209   3.269
 7528SOL     OW23482   5.873   2.646   0.956
 7528SOL    HW123483   5.894   2.575   0.888
 7528SOL    HW223484   5.902   2.616   1.046
 7529SOL     OW23485   4.720   1.611   4.639
 7529SOL    HW123486   4.654   1.661   4.583
 7529SOL    HW223487   4.672   1.541   4.693
 7530SOL     OW23488   6.972   3.094   2.138
 7530SOL    HW123489   6.986   3.069   2.234
 7530SOL    HW223490   0.019   3.049   2.082
 7531SOL     OW23491   5.585   3.297   4.904
 7531SOL    HW123492   5.554   3.243   4.826
 7531SOL    HW223493   5.506   3.324   4.960
 7532SOL     OW23494   4.508   5.787   6.730
 7532SOL    HW123495   4.413   5.805   6.705
 7532SOL    HW223496   4.562   5.771   6.648
 7533SOL     OW23497   3.287   0.731   1.447
 7533SOL    HW123498   3.191   0.715   1.424
 7533SOL    HW223499   3.332   0.644   1.465
 7534SOL     OW23500   4.592   6.615   5.537
 7534SOL    HW123501   4.573   6.594   5.633
 7534SOL    HW223502   4.520   6.577   5.479
 7535SOL     OW23503   2.056   0.760   5.048
 7535SOL    HW123504   2.010   0.820   4.983
 7535SOL    HW223505   2.132   0.714   5.003
 7536SOL     OW23506   4.718   4.777   4.007
 7536SOL    HW123507   4.675   4.707   3.951
 7536SOL    HW223508   4.694   4.867   3.972
 7537SOL     OW23509   2.534   5.848   1.423
 7537SOL    HW123510   2.532   5.942   1.456
 7537SOL    HW223511   2.580   5.790   1.489
 7538SOL     OW23512   1.606   2.492   1.069
 7538SOL    HW123513   1.683   2.448   1.114
 7538SOL    HW223514   1.614   2.481   0.970
 7539SOL     OW23515   1.889   3.829   3.853
 7539SOL    HW123516   1.873   3.735   3.823
 7539SOL    HW223517   1.873   3.892   3.777
 7540SOL     OW23518   4.423   0.526   4.537
 7540SOL    HW123519   4.346   0.467   4.559
 7540SOL    HW223520   4.421   0.607   4.596
 7541SOL     OW23521   0.606   4.600   5.298
 7541SOL    HW123522   0.535   4.537   5.329
 7541SOL    HW223523   0.598   4.612   5.199
 7542SOL     OW23524   1.413   4.966   6.648
 7542SOL    HW123525   1.402   4.892   6.715
 7542SOL    HW223526   1.485   5.028   6.678
 7543SOL     OW23527   4.448   1.924   6.350
 7543SOL    HW123528   4.379   1.996   6.350
 7543SOL    HW223529   4.490   1.918   6.260
 7544SOL     OW23530   6.812   2.243   2.654
 7544SOL    HW123531   6.844   2.250   2.749
 7544SOL    HW223532   6.720   2.204   2.653
 7545SOL     OW23533   0.047   5.224   0.364
 7545SOL    HW123534   0.071   5.180   0.277
 7545SOL    HW223535   0.007   5.157   0.426
 7546SOL     OW23536   3.401   2.540   1.627
 7546SOL    HW123537   3.482   2.598   1.615
 7546SOL    HW223538   3.429   2.452   1.664
 7547SOL     OW23539   4.984   1.886   0.131
 7547SOL    HW123540   4.950   1.843   0.215
 7547SOL    HW223541   5.083   1.898   0.138
 7548SOL     OW23542   4.772   1.379   6.652
 7548SOL    HW123543   4.678   1.410   6.664
 7548SOL    HW223544   4.781   1.285   6.687
 7549SOL     OW23545   3.635   2.732   6.594
 7549SOL    HW123546   3.646   2.641   6.634
 7549SOL    HW223547   3.661   2.730   6.497
 7550SOL     OW23548   2.637   5.114   3.372
 7550SOL    HW123549   2.537   5.104   3.376
 7550SOL    HW223550   2.665   5.188   3.434
 7551SOL     OW23551   5.608   3.489   6.321
 7551SOL    HW123552   5.547   3.423   6.277
 7551SOL    HW223553   5.703   3.468   6.297
 7552SOL     OW23554   1.502   5.973   2.938
 7552SOL    HW123555   1.509   5.875   2.917
 7552SOL    HW223556   1.569   6.023   2.884
 7553SOL     OW23557   4.509   6.462   5.766
 7553SOL    HW123558   4.583   6.502   5.820
 7553SOL    HW223559   4.422   6.479   5.813
 7554SOL     OW23560   4.848   1.210   0.219
 7554SOL    HW123561   4.776   1.216   0.150
 7554SOL    HW223562   4.811   1.169   0.302
 7555SOL     OW23563   2.241   4.717   5.937
 7555SOL    HW123564   2.182   4.730   6.016
 7555SOL    HW223565   2.271   4.622   5.933
 7556SOL     OW23566   2.342   2.886   0.437
 7556SOL    HW123567   2.355   2.866   0.340
 7556SOL    HW223568   2.277   2.821   0.476
 7557SOL     OW23569   5.340   1.392   5.543
 7557SOL    HW123570   5.266   1.413   5.607
 7557SOL    HW223571   5.305   1.335   5.469
 7558SOL     OW23572   1.588   2.463   4.152
 7558SOL    HW123573   1.631   2.424   4.071
 7558SOL    HW223574   1.550   2.553   4.129
 7559SOL     OW23575   4.859   3.840   0.756
 7559SOL    HW123576   4.933   3.775   0.773
 7559SOL    HW223577   4.897   3.926   0.722
 7560SOL     OW23578   5.488   6.636   1.118
 7560SOL    HW123579   5.430   6.557   1.135
 7560SOL    HW223580   5.499   6.688   1.203
 7561SOL     OW23581   1.085   2.978   6.687
 7561SOL    HW123582   1.184   2.984   6.701
 7561SOL    HW223583   1.046   3.070   6.691
 7562SOL     OW23584   0.364   5.766   4.545
 7562SOL    HW123585   0.361   5.780   4.644
 7562SOL    HW223586   0.316   5.841   4.500
 7563SOL     OW23587   3.160   0.203   1.253
 7563SOL    HW123588   3.222   0.242   1.321
 7563SOL    HW223589   3.153   0.104   1.267
 7564SOL     OW23590   3.982   6.786   3.510
 7564SOL    HW123591   3.954   6.743   3.424
 7564SOL    HW223592   4.021   6.876   3.490
 7565SOL     OW23593   5.478   2.908   0.346
 7565SOL    HW123594   5.518   2.827   0.302
 7565SOL    HW223595   5.530   2.989   0.319
 7566SOL     OW23596   6.526   4.604   3.239
 7566SOL    HW123597   6.526   4.704   3.236
 7566SOL    HW223598   6.611   4.571   3.279
 7567SOL     OW23599   1.522   1.891   5.273
 7567SOL    HW123600   1.488   1.802   5.303
 7567SOL    HW223601   1.532   1.951   5.353
 7568SOL     OW23602   4.890   6.135   3.374
 7568SOL    HW123603   4.876   6.213   3.313
 7568SOL    HW223604   4.929   6.167   3.461
 7569SOL     OW23605   3.945   4.909   5.907
 7569SOL    HW123606   3.911   4.979   5.845
 7569SOL    HW223607   4.007   4.950   5.974
 7570SOL     OW23608   5.331   3.658   5.035
 7570SOL    HW123609   5.388   3.576   5.031
 7570SOL    HW223610   5.270   3.652   5.115
 7571SOL     OW23611   4.239   4.791   3.134
 7571SOL    HW123612   4.277   4.856   3.069
 7571SOL    HW223613   4.309   4.762   3.199
 7572SOL     OW23614   4.347   1.118   1.467
 7572SOL    HW123615   4.379   1.033   1.425
 7572SOL    HW223616   4.412   1.147   1.537
 7573SOL     OW23617   0.504   0.465   5.381
 7573SOL    HW123618   0.558   0.382   5.395
 7573SOL    HW223619   0.445   0.454   5.301
 7574SOL     OW23620   5.308   0.352   5.191
 7574SOL    HW123621   5.210   0.371   5.188
 7574SOL    HW223622   5.341   0.332   5.099
 7575SOL     OW23623   5.475   0.996   6.226
 7575SOL    HW123624   5.569   0.985   6.256
 7575SOL    HW223625   5.444   0.913   6.181
 7576SOL     OW23626   4.604   3.498   0.459
 7576SOL    HW123627   4.700   3.498   0.430
 7576SOL    HW223628   4.599   3.495   0.558
 7577SOL     OW23629   1.127   6.984   6.926
 7577SOL    HW123630   1.120   6.892   6.964
 7577SOL    HW223631   1.219   6.998   6.890
 7578SOL     OW23632   2.560   5.195   1.416
 7578SOL    HW123633   2.474   5.165   1.375
 7578SOL    HW223634   2.553   5.291   1.441
 7579SOL     OW23635   0.679   1.168   2.667
 7579SOL    HW123636   0.637   1.120   2.744
 7579SOL    HW223637   0.645   1.129   2.581
 7580SOL     OW23638   0.862   4.112   4.433
 7580SOL    HW123639   0.919   4.052   4.490
 7580SOL    HW223640   0.917   4.146   4.356
 7581SOL     OW23641   6.948   1.698   2.180
 7581SOL    HW123642   6.990   1.611   2.207
 7581SOL    HW223643   7.001   1.739   2.106
 7582SOL     OW23644   3.951   1.014   1.677
 7582SOL    HW123645   3.854   1.038   1.669
 7582SOL    HW223646   3.999   1.085   1.729
 7583SOL     OW23647   5.899   3.016   2.039
 7583SOL    HW123648   5.851   3.087   2.090
 7583SOL    HW223649   5.838   2.977   1.970
 7584SOL     OW23650   3.694   0.245   2.197
 7584SOL    HW123651   3.735   0.330   2.164
 7584SOL    HW223652   3.607   0.264   2.241
 7585SOL     OW23653   1.976   2.832   6.860
 7585SOL    HW123654   2.070   2.802   6.846
 7585SOL    HW223655   1.974   2.930   6.878
 7586SOL     OW23656   3.024   0.427   3.525
 7586SOL    HW123657   2.932   0.389   3.526
 7586SOL    HW223658   3.021   0.523   3.498
 7587SOL     OW23659   2.290   2.121   6.942
 7587SOL    HW123660   2.235   2.161   7.016
 7587SOL    HW223661   2.296   2.022   6.956
 7588SOL     OW23662   1.343   2.835   3.730
 7588SOL    HW123663   1.333   2.817   3.633
 7588SOL    HW223664   1.439   2.823   3.757
 7589SOL     OW23665   0.191   0.505   2.277
 7589SOL    HW123666   0.262   0.534   2.213
 7589SOL    HW223667   0.169   0.580   2.338
 7590SOL     OW23668   3.401   2.548   6.182
 7590SOL    HW123669   3.421   2.497   6.265
 7590SOL    HW223670   3.459   2.515   6.107
 7591SOL     OW23671   6.737   3.593   0.939
 7591SOL    HW123672   6.669   3.605   1.011
 7591SOL    HW223673   6.824   3.563   0.980
 7592SOL     OW23674   7.007   5.448   4.902
 7592SOL    HW123675   7.021   5.537   4.945
 7592SOL    HW223676   6.930   5.453   4.839
 7593SOL     OW23677   6.184   3.079   0.168
 7593SOL    HW123678   6.171   3.036   0.079
 7593SOL    HW223679   6.280   3.103   0.180
 7594SOL     OW23680   1.507   4.544   2.288
 7594SOL    HW123681   1.411   4.538   2.315
 7594SOL    HW223682   1.565   4.538   2.369
 7595SOL     OW23683   5.716   2.790   5.966
 7595SOL    HW123684   5.629   2.834   5.990
 7595SOL    HW223685   5.766   2.848   5.902
 7596SOL     OW23686   4.114   6.043   3.547
 7596SOL    HW123687   4.071   6.058   3.458
 7596SOL    HW223688   4.204   6.086   3.548
 7597SOL     OW23689   2.245   6.773   2.951
 7597SOL    HW123690   2.282   6.725   3.030
 7597SOL    HW223691   2.278   6.867   2.950
 7598SOL     OW23692   0.074   0.926   3.270
 7598SOL    HW123693   7.010   0.970   3.245
 7598SOL    HW223694   0.056   0.854   3.337
 7599SOL     OW23695   5.726   1.849   2.432
 7599SOL    HW123696   5.632   1.862   2.400
 7599SOL    HW223697   5.781   1.807   2.359
 7600SOL     OW23698   1.515   1.477   3.190
 7600SOL    HW123699   1.470   1.563   3.167
 7600SOL    HW223700   1.450   1.402   3.181
 7601SOL     OW23701   1.882   4.594   2.231
 7601SOL    HW123702   1.830   4.666   2.277
 7601SOL    HW223703   1.852   4.505   2.264
 7602SOL     OW23704   2.431   3.543   6.445
 7602SOL    HW123705   2.352   3.507   6.396
 7602SOL    HW223706   2.479   3.610   6.388
 7603SOL     OW23707   1.473   5.484   6.120
 7603SOL    HW123708   1.567   5.451   6.124
 7603SOL    HW223709   1.474   5.584   6.128
 7604SOL     OW23710   2.064   3.618   4.869
 7604SOL    HW123711   2.125   3.696   4.884
 7604SOL    HW223712   2.078   3.550   4.941
 7605SOL     OW23713   1.160   1.029   1.812
 7605SOL    HW123714   1.156   1.087   1.894
 7605SOL    HW223715   1.229   0.959   1.825
 7606SOL     OW23716   6.289   4.233   4.974
 7606SOL    HW123717   6.333   4.192   5.054
 7606SOL    HW223718   6.280   4.332   4.988
 7607SOL     OW23719   3.317   5.332   0.190
 7607SOL    HW123720   3.266   5.283   0.260
 7607SOL    HW223721   3.275   5.316   0.101
 7608SOL     OW23722   3.857   4.205   1.277
 7608SOL    HW123723   3.810   4.287   1.308
 7608SOL    HW223724   3.847   4.132   1.344
 7609SOL     OW23725   1.586   2.827   4.731
 7609SOL    HW123726   1.589   2.923   4.757
 7609SOL    HW223727   1.508   2.783   4.775
 7610SOL     OW23728   4.307   4.424   6.102
 7610SOL    HW123729   4.370   4.499   6.120
 7610SOL    HW223730   4.215   4.459   6.088
 7611SOL     OW23731   5.812   3.897   1.516
 7611SOL    HW123732   5.782   3.803   1.503
 7611SOL    HW223733   5.874   3.903   1.594
 7612SOL     OW23734   4.969   3.125   2.152
 7612SOL    HW123735   4.886   3.092   2.108
 7612SOL    HW223736   4.975   3.087   2.245
 7613SOL     OW23737   6.858   2.526   0.894
 7613SOL    HW123738   6.896   2.592   0.829
 7613SOL    HW223739   6.779   2.480   0.852
 7614SOL     OW23740   5.144   3.516   0.958
 7614SOL    HW123741   5.146   3.429   0.908
 7614SOL    HW223742   5.200   3.508   1.040
 7615SOL     OW23743   3.691   4.969   0.110
 7615SOL    HW123744   3.613   5.029   0.127
 7615SOL    HW223745   3.720   4.979   0.014
 7616SOL     OW23746   6.025   6.303   4.361
 7616SOL    HW123747   5.966   6.319   4.440
 7616SOL    HW223748   6.003   6.370   4.290
 7617SOL     OW23749   4.279   6.223   2.907
 7617SOL    HW123750   4.378   6.233   2.908
 7617SOL    HW223751   4.241   6.245   2.997
 7618SOL     OW23752   0.094   2.002   5.931
 7618SOL    HW123753   0.121   2.013   6.027
 7618SOL    HW223754   0.034   2.078   5.905
 7619SOL     OW23755   6.746   3.013   4.977
 7619SOL    HW123756   6.685   2.938   4.952
 7619SOL    HW223757   6.698   3.100   4.963
 7620SOL     OW23758   4.006   5.690   1.551
 7620SOL    HW123759   3.952   5.613   1.584
 7620SOL    HW223760   3.971   5.719   1.462
 7621SOL     OW23761   6.821   1.055   1.263
 7621SOL    HW123762   6.791   1.002   1.343
 7621SOL    HW223763   6.778   1.017   1.181
 7622SOL     OW23764   4.115   4.968   6.702
 7622SOL    HW123765   4.100   4.928   6.793
 7622SOL    HW223766   4.180   5.044   6.710
 7623SOL     OW23767   4.885   3.295   6.610
 7623SOL    HW123768   4.875   3.375   6.551
 7623SOL    HW223769   4.925   3.323   6.697
 7624SOL     OW23770   0.018   3.741   4.967
 7624SOL    HW123771   6.943   3.720   4.966
 7624SOL    HW223772   0.061   3.704   4.884
 7625SOL     OW23773   5.166   0.638   1.069
 7625SOL    HW123774   5.069   0.630   1.043
 7625SOL    HW223775   5.193   0.734   1.065
 7626SOL     OW23776   6.389   0.415   4.114
 7626SOL    HW123777   6.307   0.417   4.057
 7626SOL    HW223778   6.423   0.322   4.120
 7627SOL     OW23779   5.139   3.137   0.443
 7627SOL    HW123780   5.067   3.078   0.405
 7627SOL    HW223781   5.216   3.082   0.472
 7628SOL     OW23782   3.461   2.288   1.728
 7628SOL    HW123783   3.546   2.289   1.779
 7628SOL    HW223784   3.418   2.198   1.737
 7629SOL     OW23785   0.220   5.226   3.227
 7629SOL    HW123786   0.214   5.229   3.127
 7629SOL    HW223787   0.274   5.147   3.255
 7630SOL     OW23788   0.633   0.066   1.435
 7630SOL    HW123789   0.724   0.087   1.399
 7630SOL    HW223790   0.599   7.005   1.392
 7631SOL     OW23791   0.801   1.520   6.129
 7631SOL    HW123792   0.778   1.611   6.096
 7631SOL    HW223793   0.720   1.479   6.173
 7632SOL     OW23794   4.798   4.415   1.626
 7632SOL    HW123795   4.723   4.359   1.662
 7632SOL    HW223796   4.870   4.356   1.591
 7633SOL     OW23797   5.496   0.150   1.990
 7633SOL    HW123798   5.543   0.107   2.067
 7633SOL    HW223799   5.499   0.088   1.911
 7634SOL     OW23800   1.792   1.755   2.254
 7634SOL    HW123801   1.861   1.685   2.235
 7634SOL    HW223802   1.754   1.741   2.346
 7635SOL     OW23803   3.498   5.060   5.459
 7635SOL    HW123804   3.543   4.977   5.425
 7635SOL    HW223805   3.425   5.035   5.523
 7636SOL     OW23806   1.773   3.067   3.837
 7636SOL    HW123807   1.712   3.100   3.909
 7636SOL    HW223808   1.867   3.088   3.861
 7637SOL     OW23809   2.831   6.048   2.106
 7637SOL    HW123810   2.850   6.126   2.046
 7637SOL    HW223811   2.738   6.016   2.091
 7638SOL     OW23812   2.286   5.918   1.150
 7638SOL    HW123813   2.382   5.896   1.134
 7638SOL    HW223814   2.275   6.018   1.153
 7639SOL     OW23815   0.421   2.004   1.175
 7639SOL    HW123816   0.511   1.964   1.194
 7639SOL    HW223817   0.418   2.034   1.080
 7640SOL     OW23818   3.046   1.413   5.991
 7640SOL    HW123819   3.050   1.313   5.983
 7640SOL    HW223820   2.956   1.445   5.963
 7641SOL     OW23821   1.728   3.713   2.361
 7641SOL    HW123822   1.757   3.761   2.444
 7641SOL    HW223823   1.733   3.776   2.283
 7642SOL     OW23824   3.411   2.065   2.716
 7642SOL    HW123825   3.509   2.069   2.734
 7642SOL    HW223826   3.362   2.044   2.800
 7643SOL     OW23827   4.475   2.490   3.354
 7643SOL    HW123828   4.477   2.399   3.311
 7643SOL    HW223829   4.562   2.536   3.339
 7644SOL     OW23830   4.560   2.274   1.686
 7644SOL    HW123831   4.636   2.329   1.651
 7644SOL    HW223832   4.488   2.269   1.617
 7645SOL     OW23833   4.987   3.983   5.538
 7645SOL    HW123834   5.061   3.935   5.585
 7645SOL    HW223835   4.901   3.936   5.557
 7646SOL     OW23836   1.527   3.223   3.696
 7646SOL    HW123837   1.549   3.128   3.717
 7646SOL    HW223838   1.547   3.241   3.599
 7647SOL     OW23839   6.555   2.454   3.572
 7647SOL    HW123840   6.619   2.428   3.500
 7647SOL    HW223841   6.538   2.375   3.631
 7648SOL     OW23842   2.779   1.548   3.268
 7648SOL    HW123843   2.765   1.492   3.186
 7648SOL    HW223844   2.695   1.597   3.289
 7649SOL     OW23845   1.189   0.679   3.539
 7649SOL    HW123846   1.193   0.685   3.639
 7649SOL    HW223847   1.121   0.742   3.503
 7650SOL     OW23848   5.449   1.404   0.492
 7650SOL    HW123849   5.446   1.330   0.424
 7650SOL    HW223850   5.382   1.474   0.469
 7651SOL     OW23851   2.174   0.572   3.718
 7651SOL    HW123852   2.222   0.485   3.727
 7651SOL    HW223853   2.218   0.627   3.647
 7652SOL     OW23854   5.926   3.255   5.006
 7652SOL    HW123855   5.927   3.156   5.013
 7652SOL    HW223856   5.853   3.284   4.944
 7653SOL     OW23857   0.368   2.190   0.032
 7653SOL    HW123858   0.344   2.116   6.992
 7653SOL    HW223859   0.463   2.181   0.060
 7654SOL     OW23860   4.809   2.786   4.455
 7654SOL    HW123861   4.884   2.726   4.425
 7654SOL    HW223862   4.791   2.854   4.385
 7655SOL     OW23863   4.584   6.408   3.303
 7655SOL    HW123864   4.573   6.459   3.218
 7655SOL    HW223865   4.533   6.322   3.298
 7656SOL     OW23866   3.612   3.872   6.637
 7656SOL    HW123867   3.632   3.864   6.539
 7656SOL    HW223868   3.585   3.783   6.673
 7657SOL     OW23869   1.010   2.066   3.551
 7657SOL    HW123870   1.094   2.079   3.604
 7657SOL    HW223871   0.953   2.147   3.558
 7658SOL     OW23872   3.229   0.238   6.814
 7658SOL    HW123873   3.139   0.275   6.836
 7658SOL    HW223874   3.265   0.189   6.894
 7659SOL     OW23875   5.668   4.690   6.592
 7659SOL    HW123876   5.708   4.663   6.504
 7659SOL    HW223877   5.604   4.619   6.622
 7660SOL     OW23878   0.262   5.929   3.257
 7660SOL    HW123879   0.260   6.025   3.229
 7660SOL    HW223880   0.173   5.887   3.237
 7661SOL     OW23881   5.263   2.130   4.809
 7661SOL    HW123882   5.211   2.193   4.867
 7661SOL    HW223883   5.360   2.154   4.811
 7662SOL     OW23884   1.645   2.945   4.385
 7662SOL    HW123885   1.713   2.926   4.455
 7662SOL    HW223886   1.580   2.869   4.380
 7663SOL     OW23887   6.718   5.745   5.736
 7663SOL    HW123888   6.703   5.709   5.828
 7663SOL    HW223889   6.813   5.773   5.726
 7664SOL     OW23890   3.739   0.554   1.637
 7664SOL    HW123891   3.788   0.633   1.601
 7664SOL    HW223892   3.800   0.500   1.696
 7665SOL     OW23893   5.927   0.754   4.615
 7665SOL    HW123894   5.996   0.818   4.649
 7665SOL    HW223895   5.952   0.726   4.522
 7666SOL     OW23896   0.702   5.210   1.995
 7666SOL    HW123897   0.610   5.229   2.029
 7666SOL    HW223898   0.729   5.117   2.020
 7667SOL     OW23899   4.294   0.152   2.215
 7667SOL    HW123900   4.199   0.159   2.247
 7667SOL    HW223901   4.338   0.241   2.225
 7668SOL     OW23902   3.253   5.200   0.787
 7668SOL    HW123903   3.295   5.113   0.760
 7668SOL    HW223904   3.277   5.271   0.720
 7669SOL     OW23905   4.779   0.980   5.333
 7669SOL    HW123906   4.841   0.968   5.255
 7669SOL    HW223907   4.713   0.905   5.334
 7670SOL     OW23908   0.791   4.704   0.488
 7670SOL    HW123909   0.778   4.789   0.438
 7670SOL    HW223910   0.703   4.674   0.526
 7671SOL     OW23911   3.790   1.376   1.825
 7671SOL    HW123912   3.824   1.292   1.867
 7671SOL    HW223913   3.840   1.394   1.740
 7672SOL     OW23914   0.266   6.396   2.480
 7672SOL    HW123915   0.227   6.488   2.477
 7672SOL    HW223916   0.194   6.329   2.496
 7673SOL     OW23917   1.126   6.556   1.471
 7673SOL    HW123918   1.184   6.603   1.404
 7673SOL    HW223919   1.121   6.459   1.450
 7674SOL     OW23920   4.742   0.771   3.304
 7674SOL    HW123921   4.839   0.797   3.301
 7674SOL    HW223922   4.726   0.716   3.386
 7675SOL     OW23923   5.954   6.735   2.693
 7675SOL    HW123924   5.920   6.734   2.788
 7675SOL    HW223925   6.002   6.650   2.674
 7676SOL     OW23926   2.537   1.787   0.478
 7676SOL    HW123927   2.559   1.801   0.381
 7676SOL    HW223928   2.514   1.691   0.493
 7677SOL     OW23929   1.141   4.749   1.294
 7677SOL    HW123930   1.217   4.787   1.240
 7677SOL    HW223931   1.071   4.713   1.232
 7678SOL     OW23932   2.483   2.719   5.166
 7678SOL    HW123933   2.472   2.817   5.150
 7678SOL    HW223934   2.579   2.694   5.154
 7679SOL     OW23935   3.213   6.561   5.795
 7679SOL    HW123936   3.239   6.597   5.705
 7679SOL    HW223937   3.128   6.605   5.824
 7680SOL     OW23938   1.595   0.950   0.666
 7680SOL    HW123939   1.623   1.038   0.628
 7680SOL    HW223940   1.604   0.880   0.595
 7681SOL     OW23941   2.420   0.698   1.001
 7681SOL    HW123942   2.461   0.627   0.944
 7681SOL    HW223943   2.393   0.775   0.944
 7682SOL     OW23944   3.582   0.252   1.654
 7682SOL    HW123945   3.576   0.348   1.627
 7682SOL    HW223946   3.584   0.195   1.572
 7683SOL     OW23947   5.925   2.173   4.669
 7683SOL    HW123948   6.009   2.191   4.721
 7683SOL    HW223949   5.924   2.077   4.640
 7684SOL     OW23950   3.906   1.781   1.199
 7684SOL    HW123951   3.943   1.870   1.224
 7684SOL    HW223952   3.809   1.776   1.224
 7685SOL     OW23953   2.959   1.890   5.760
 7685SOL    HW123954   2.872   1.939   5.746
 7685SOL    HW223955   3.023   1.950   5.807
 7686SOL     OW23956   0.016   6.445   3.141
 7686SOL    HW123957   0.064   6.358   3.151
 7686SOL    HW223958   7.016   6.482   3.231
 7687SOL     OW23959   6.129   5.359   3.838
 7687SOL    HW123960   6.116   5.448   3.794
 7687SOL    HW223961   6.167   5.371   3.929
 7688SOL     OW23962   0.951   6.008   5.155
 7688SOL    HW123963   1.015   6.009   5.232
 7688SOL    HW223964   1.000   5.990   5.070
 7689SOL     OW23965   5.601   6.174   2.332
 7689SOL    HW123966   5.590   6.271   2.354
 7689SOL    HW223967   5.564   6.155   2.241
 7690SOL     OW23968   5.652   4.442   0.207
 7690SOL    HW123969   5.615   4.350   0.198
 7690SOL    HW223970   5.708   4.447   0.290
 7691SOL     OW23971   4.922   3.689   4.278
 7691SOL    HW123972   4.944   3.651   4.368
 7691SOL    HW223973   4.878   3.618   4.222
 7692SOL     OW23974   0.765   6.508   1.892
 7692SOL    HW123975   0.678   6.486   1.849
 7692SOL    HW223976   0.773   6.459   1.979
 7693SOL     OW23977   3.457   6.916   1.734
 7693SOL    HW123978   3.463   6.982   1.809
 7693SOL    HW223979   3.391   6.949   1.667
 7694SOL     OW23980   5.212   3.802   4.132
 7694SOL    HW123981   5.127   3.749   4.136
 7694SOL    HW223982   5.191   3.895   4.100
 7695SOL     OW23983   4.643   0.012   0.745
 7695SOL    HW123984   4.615   0.105   0.720
 7695SOL    HW223985   4.564   6.974   0.742
 7696SOL     OW23986   0.259   0.755   6.103
 7696SOL    HW123987   0.329   0.693   6.138
 7696SOL    HW223988   0.169   0.712   6.111
 7697SOL     OW23989   2.436   0.010   3.128
 7697SOL    HW123990   2.385   6.986   3.201
 7697SOL    HW223991   2.499   6.968   3.085
 7698SOL     OW23992   5.665   2.195   4.226
 7698SOL    HW123993   5.587   2.160   4.278
 7698SOL    HW223994   5.643   2.286   4.190
 7699SOL     OW23995   3.441   5.981   6.050
 7699SOL    HW123996   3.514   5.952   6.112
 7699SOL    HW223997   3.419   5.905   5.988
 7700SOL     OW23998   4.700   5.852   3.017
 7700SOL    HW123999   4.689   5.754   3.003
 7700SOL    HW224000   4.757   5.868   3.097
 7701SOL     OW24001   6.219   2.048   0.356
 7701SOL    HW124002   6.269   2.132   0.376
 7701SOL    HW224003   6.243   2.016   0.264
 7702SOL     OW24004   3.690   6.328   4.757
 7702SOL    HW124005   3.707   6.236   4.720
 7702SOL    HW224006   3.633   6.321   4.839
 7703SOL     OW24007   6.109   6.101   6.307
 7703SOL    HW124008   6.018   6.105   6.266
 7703SOL    HW224009   6.176   6.141   6.244
 7704SOL     OW24010   5.865   0.493   4.493
 7704SOL    HW124011   5.900   0.496   4.587
 7704SOL    HW224012   5.766   0.501   4.494
 7705SOL     OW24013   2.480   6.142   0.615
 7705SOL    HW124014   2.414   6.101   0.678
 7705SOL    HW224015   2.445   6.133   0.521
 7706SOL     OW24016   3.663   3.765   4.570
 7706SOL    HW124017   3.728   3.833   4.601
 7706SOL    HW224018   3.596   3.807   4.509
 7707SOL     OW24019   0.133   4.802   5.726
 7707SOL    HW124020   0.060   4.868   5.739
 7707SOL    HW224021   0.221   4.849   5.727
 7708SOL     OW24022   1.101   6.767   5.908
 7708SOL    HW124023   1.125   6.787   5.813
 7708SOL    HW224024   1.002   6.778   5.920
 7709SOL     OW24025   6.671   4.714   2.361
 7709SOL    HW124026   6.635   4.768   2.285
 7709SOL    HW224027   6.624   4.625   2.363
 7710SOL     OW24028   3.332   2.355   0.033
 7710SOL    HW124029   3.392   2.426   0.071
 7710SOL    HW224030   3.237   2.385   0.040
 7711SOL     OW24031   5.385   7.008   6.137
 7711SOL    HW124032   5.390   6.939   6.065
 7711SOL    HW224033   5.382   6.963   6.227
 7712SOL     OW24034   0.266   5.025   1.576
 7712SOL    HW124035   0.302   5.101   1.630
 7712SOL    HW224036   0.198   4.975   1.629
 7713SOL     OW24037   1.401   4.135   0.598
 7713SOL    HW124038   1.340   4.085   0.660
 7713SOL    HW224039   1.356   4.220   0.569
 7714SOL     OW24040   0.135   4.373   5.151
 7714SOL    HW124041   0.095   4.290   5.113
 7714SOL    HW224042   0.191   4.350   5.230
 7715SOL     OW24043   3.099   2.387   0.299
 7715SOL    HW124044   3.142   2.363   0.386
 7715SOL    HW224045   3.084   2.304   0.246
 7716SOL     OW24046   0.038   4.892   1.915
 7716SOL    HW124047   0.040   4.817   1.982
 7716SOL    HW224048   0.054   4.855   1.824
 7717SOL     OW24049   1.877   0.881   6.239
 7717SOL    HW124050   1.952   0.947   6.240
 7717SOL    HW224051   1.831   0.881   6.327
 7718SOL     OW24052   6.640   4.092   3.307
 7718SOL    HW124053   6.593   4.178   3.326
 7718SOL    HW224054   6.573   4.020   3.292
 7719SOL     OW24055   0.275   4.262   5.367
 7719SOL    HW124056   0.343   4.312   5.422
 7719SOL    HW224057   0.184   4.279   5.405
 7720SOL     OW24058   6.648   2.251   6.419
 7720SOL    HW124059   6.567   2.286   6.466
 7720SOL    HW224060   6.633   2.155   6.396
 7721SOL     OW24061   0.389   5.172   2.348
 7721SOL    HW124062   0.454   5.207   2.416
 7721SOL    HW224063   0.404   5.074   2.336
 7722SOL     OW24064   1.370   4.077   3.310
 7722SOL    HW124065   1.310   4.156   3.326
 7722SOL    HW224066   1.314   3.996   3.294
 7723SOL     OW24067   4.839   3.572   6.195
 7723SOL    HW124068   4.751   3.527   6.209
 7723SOL    HW224069   4.870   3.557   6.101
 7724SOL     OW24070   2.525   3.867   0.863
 7724SOL    HW124071   2.606   3.809   0.866
 7724SOL    HW224072   2.444   3.812   0.882
 7725SOL     OW24073   6.329   1.970   2.503
 7725SOL    HW124074   6.269   2.019   2.439
 7725SOL    HW224075   6.421   2.007   2.497
 7726SOL     OW24076   1.871   5.328   5.827
 7726SOL    HW124077   1.949   5.380   5.793
 7726SOL    HW224078   1.902   5.237   5.855
 7727SOL     OW24079   0.049   2.075   2.862
 7727SOL    HW124080   0.083   2.033   2.778
 7727SOL    HW224081   0.122   2.128   2.904
 7728SOL     OW24082   2.131   2.937   5.146
 7728SOL    HW124083   2.170   2.968   5.233
 7728SOL    HW224084   2.201   2.941   5.075
 7729SOL     OW24085   6.075   1.880   1.433
 7729SOL    HW124086   6.103   1.964   1.387
 7729SOL    HW224087   5.984   1.892   1.472
 7730SOL     OW24088   6.709   4.840   0.037
 7730SOL    HW124089   6.805   4.827   0.061
 7730SOL    HW224090   6.670   4.911   0.094
 7731SOL     OW24091   6.065   1.198   7.001
 7731SOL    HW124092   6.059   1.284   0.028
 7731SOL    HW224093   6.082   1.123   0.044
 7732SOL     OW24094   4.990   6.788   0.461
 7732SOL    HW124095   5.020   6.856   0.394
 7732SOL    HW224096   5.049   6.792   0.541
 7733SOL     OW24097   5.224   6.058   2.548
 7733SOL    HW124098   5.313   6.015   2.529
 7733SOL    HW224099   5.238   6.136   2.609
 7734SOL     OW24100   1.226   4.765   4.113
 7734SOL    HW124101   1.242   4.862   4.099
 7734SOL    HW224102   1.298   4.727   4.171
 7735SOL     OW24103   4.950   6.541   6.600
 7735SOL    HW124104   5.044   6.573   6.586
 7735SOL    HW224105   4.899   6.610   6.651
 7736SOL     OW24106   2.611   2.845   6.734
 7736SOL    HW124107   2.636   2.798   6.649
 7736SOL    HW224108   2.693   2.873   6.782
 7737SOL     OW24109   2.799   6.466   2.619
 7737SOL    HW124110   2.729   6.404   2.656
 7737SOL    HW224111   2.766   6.505   2.533
 7738SOL     OW24112   3.125   5.572   0.205
 7738SOL    HW124113   3.220   5.561   0.233
 7738SOL    HW224114   3.079   5.483   0.203
 7739SOL     OW24115   6.931   2.133   1.849
 7739SOL    HW124116   6.974   2.144   1.760
 7739SOL    HW224117   6.962   2.205   1.911
 7740SOL     OW24118   2.733   1.038   3.016
 7740SOL    HW124119   2.803   0.989   2.964
 7740SOL    HW224120   2.650   1.046   2.962
 7741SOL     OW24121   0.300   5.379   6.170
 7741SOL    HW124122   0.382   5.411   6.124
 7741SOL    HW224123   0.226   5.370   6.103
 7742SOL     OW24124   3.995   2.049   2.989
 7742SOL    HW124125   4.003   1.956   3.026
 7742SOL    HW224126   3.995   2.115   3.065
 7743SOL     OW24127   5.233   2.001   0.259
 7743SOL    HW124128   5.318   1.996   0.207
 7743SOL    HW224129   5.244   1.951   0.345
 7744SOL     OW24130   0.472   0.282   4.486
 7744SOL    HW124131   0.546   0.246   4.542
 7744SOL    HW224132   0.417   0.345   4.540
 7745SOL     OW24133   4.174   1.360   6.726
 7745SOL    HW124134   4.170   1.446   6.675
 7745SOL    HW224135   4.162   1.378   6.824
 7746SOL     OW24136   0.871   0.736   0.783
 7746SOL    HW124137   0.902   0.711   0.691
 7746SOL    HW224138   0.873   0.835   0.793
 7747SOL     OW24139   5.821   6.307   1.120
 7747SOL    HW124140   5.918   6.329   1.112
 7747SOL    HW224141   5.798   6.233   1.058
 7748SOL     OW24142   3.085   3.996   4.689
 7748SOL    HW124143   3.140   3.949   4.757
 7748SOL    HW224144   3.058   3.932   4.618
 7749SOL     OW24145   3.400   3.463   5.423
 7749SOL    HW124146   3.487   3.453   5.374
 7749SOL    HW224147   3.331   3.404   5.380
 7750SOL     OW24148   0.024   5.691   0.639
 7750SOL    HW124149   6.966   5.750   0.633
 7750SOL    HW224150   0.055   5.668   0.546
 7751SOL     OW24151   1.618   3.075   2.323
 7751SOL    HW124152   1.689   3.034   2.381
 7751SOL    HW224153   1.604   3.170   2.352
 7752SOL     OW24154   5.971   6.535   5.267
 7752SOL    HW124155   6.054   6.485   5.243
 7752SOL    HW224156   5.996   6.613   5.325
 7753SOL     OW24157   1.756   0.486   4.701
 7753SOL    HW124158   1.729   0.462   4.794
 7753SOL    HW224159   1.846   0.530   4.704
 7754SOL     OW24160   5.047   6.831   1.714
 7754SOL    HW124161   5.023   6.783   1.629
 7754SOL    HW224162   5.079   6.765   1.781
 7755SOL     OW24163   1.173   2.301   5.818
 7755SOL    HW124164   1.158   2.380   5.878
 7755SOL    HW224165   1.103   2.232   5.835
 7756SOL     OW24166   3.095   5.926   1.738
 7756SOL    HW124167   3.136   5.858   1.798
 7756SOL    HW224168   3.002   5.946   1.770
 7757SOL     OW24169   5.968   5.948   5.362
 7757SOL    HW124170   5.883   5.979   5.320
 7757SOL    HW224171   6.011   6.025   5.410
 7758SOL     OW24172   1.338   1.661   5.912
 7758SOL    HW124173   1.265   1.603   5.948
 7758SOL    HW224174   1.337   1.750   5.957
 7759SOL     OW24175   0.988   1.751   5.409
 7759SOL    HW124176   1.023   1.800   5.329
 7759SOL    HW224177   1.005   1.806   5.491
 7760SOL     OW24178   5.581   3.637   2.428
 7760SOL    HW124179   5.488   3.649   2.463
 7760SOL    HW224180   5.593   3.542   2.397
 7761SOL     OW24181   0.996   0.464   5.876
 7761SOL    HW124182   0.946   0.411   5.807
 7761SOL    HW224183   0.931   0.512   5.935
 7762SOL     OW24184   4.703   0.779   3.782
 7762SOL    HW124185   4.653   0.714   3.839
 7762SOL    HW224186   4.772   0.826   3.837
 7763SOL     OW24187   0.985   1.078   6.915
 7763SOL    HW124188   0.991   1.060   6.817
 7763SOL    HW224189   0.893   1.111   6.937
 7764SOL     OW24190   3.441   2.918   3.176
 7764SOL    HW124191   3.348   2.913   3.212
 7764SOL    HW224192   3.506   2.923   3.252
 7765SOL     OW24193   6.288   2.932   4.351
 7765SOL    HW124194   6.361   2.918   4.284
 7765SOL    HW224195   6.242   2.844   4.368
 7766SOL     OW24196   6.104   2.966   6.697
 7766SOL    HW124197   6.101   2.866   6.698
 7766SOL    HW224198   6.135   2.997   6.607
 7767SOL     OW24199   4.749   5.641   2.753
 7767SOL    HW124200   4.651   5.619   2.754
 7767SOL    HW224201   4.766   5.710   2.682
 7768SOL     OW24202   4.368   4.652   2.144
 7768SOL    HW124203   4.440   4.678   2.080
 7768SOL    HW224204   4.409   4.616   2.228
 7769SOL     OW24205   4.777   2.906   3.051
 7769SOL    HW124206   4.766   2.806   3.047
 7769SOL    HW224207   4.844   2.929   3.122
 7770SOL     OW24208   1.468   4.312   2.826
 7770SOL    HW124209   1.445   4.220   2.794
 7770SOL    HW224210   1.547   4.308   2.886
 7771SOL     OW24211   3.438   2.453   5.365
 7771SOL    HW124212   3.365   2.472   5.299
 7771SOL    HW224213   3.503   2.528   5.366
 7772SOL     OW24214   5.244   6.871   2.114
 7772SOL    HW124215   5.297   6.798   2.071
 7772SOL    HW224216   5.244   6.858   2.213
 7773SOL     OW24217   2.531   5.989   5.019
 7773SOL    HW124218   2.578   6.052   5.081
 7773SOL    HW224219   2.585   5.905   5.010
 7774SOL     OW24220   5.575   2.322   5.671
 7774SOL    HW124221   5.615   2.256   5.735
 7774SOL    HW224222   5.526   2.393   5.722
 7775SOL     OW24223   5.181   5.778   1.359
 7775SOL    HW124224   5.241   5.806   1.285
 7775SOL    HW224225   5.221   5.804   1.447
 7776SOL     OW24226   1.748   5.002   6.777
 7776SOL    HW124227   1.708   5.094   6.776
 7776SOL    HW224228   1.842   5.006   6.811
 7777SOL     OW24229   0.199   7.014   4.582
 7777SOL    HW124230   0.287   6.989   4.541
 7777SOL    HW224231   0.180   6.954   4.659
 7778SOL     OW24232   5.331   3.852   1.128
 7778SOL    HW124233   5.394   3.813   1.062
 7778SOL    HW224234   5.264   3.909   1.081
 7779SOL     OW24235   2.434   2.667   1.769
 7779SOL    HW124236   2.438   2.746   1.707
 7779SOL    HW224237   2.521   2.619   1.766
 7780SOL     OW24238   1.014   4.219   5.344
 7780SOL    HW124239   1.054   4.156   5.410
 7780SOL    HW224240   1.086   4.256   5.285
 7781SOL     OW24241   0.966   4.619   0.121
 7781SOL    HW124242   1.018   4.702   0.103
 7781SOL    HW224243   0.889   4.613   0.058
 7782SOL     OW24244   6.507   4.676   4.666
 7782SOL    HW124245   6.488   4.603   4.733
 7782SOL    HW224246   6.423   4.697   4.615
 7783SOL     OW24247   1.343   5.888   5.046
 7783SOL    HW124248   1.348   5.960   4.976
 7783SOL    HW224249   1.395   5.808   5.015
 7784SOL     OW24250   3.089   2.344   1.449
 7784SOL    HW124251   3.131   2.343   1.540
 7784SOL    HW224252   3.015   2.411   1.447
 7785SOL     OW24253   2.046   5.411   4.541
 7785SOL    HW124254   2.103   5.437   4.619
 7785SOL    HW224255   2.095   5.433   4.456
 7786SOL     OW24256   2.935   6.716   0.011
 7786SOL    HW124257   3.010   6.655   7.007
 7786SOL    HW224258   2.963   6.772   0.088
 7787SOL     OW24259   2.227   2.785   6.528
 7787SOL    HW124260   2.230   2.883   6.510
 7787SOL    HW224261   2.164   2.741   6.464
 7788SOL     OW24262   2.564   5.330   1.031
 7788SOL    HW124263   2.557   5.426   1.002
 7788SOL    HW224264   2.643   5.320   1.092
 7789SOL     OW24265   1.859   6.658   6.175
 7789SOL    HW124266   1.934   6.717   6.146
 7789SOL    HW224267   1.888   6.562   6.170
 7790SOL     OW24268   5.831   5.764   3.556
 7790SOL    HW124269   5.744   5.720   3.580
 7790SOL    HW224270   5.875   5.799   3.639
 7791SOL     OW24271   2.679   5.180   3.660
 7791SOL    HW124272   2.701   5.161   3.756
 7791SOL    HW224273   2.708   5.273   3.637
 7792SOL     OW24274   1.863   5.118   4.727
 7792SOL    HW124275   1.905   5.083   4.810
 7792SOL    HW224276   1.764   5.103   4.730
 7793SOL     OW24277   3.330   0.882   0.696
 7793SOL    HW124278   3.313   0.784   0.711
 7793SOL    HW224279   3.267   0.916   0.627
 7794SOL     OW24280   6.072   4.109   3.179
 7794SOL    HW124281   6.015   4.184   3.145
 7794SOL    HW224282   6.014   4.035   3.212
 7795SOL     OW24283   2.343   4.449   5.637
 7795SOL    HW124284   2.258   4.434   5.687
 7795SOL    HW224285   2.354   4.378   5.567
 7796SOL     OW24286   4.091   3.451   3.694
 7796SOL    HW124287   4.136   3.364   3.711
 7796SOL    HW224288   3.993   3.442   3.713
 7797SOL     OW24289   1.446   6.813   2.923
 7797SOL    HW124290   1.496   6.831   2.838
 7797SOL    HW224291   1.444   6.896   2.979
 7798SOL     OW24292   2.319   3.848   5.588
 7798SOL    HW124293   2.268   3.900   5.520
 7798SOL    HW224294   2.325   3.752   5.560
 7799SOL     OW24295   0.842   6.440   2.456
 7799SOL    HW124296   0.898   6.377   2.402
 7799SOL    HW224297   0.862   6.429   2.553
 7800SOL     OW24298   0.540   5.453   1.250
 7800SOL    HW124299   0.618   5.394   1.225
 7800SOL    HW224300   0.574   5.533   1.299
 7801SOL     OW24301   2.560   1.840   1.785
 7801SOL    HW124302   2.478   1.849   1.842
 7801SOL    HW224303   2.636   1.890   1.827
 7802SOL     OW24304   5.864   2.871   0.802
 7802SOL    HW124305   5.836   2.956   0.846
 7802SOL    HW224306   5.859   2.795   0.867
 7803SOL     OW24307   4.717   2.223   5.754
 7803SOL    HW124308   4.745   2.152   5.819
 7803SOL    HW224309   4.796   2.254   5.702
 7804SOL     OW24310   4.729   1.950   3.859
 7804SOL    HW124311   4.762   1.941   3.953
 7804SOL    HW224312   4.765   1.875   3.804
 7805SOL     OW24313   5.707   2.833   1.517
 7805SOL    HW124314   5.773   2.758   1.521
 7805SOL    HW224315   5.687   2.855   1.422
 7806SOL     OW24316   5.970   1.922   0.402
 7806SOL    HW124317   6.060   1.965   0.395
 7806SOL    HW224318   5.961   1.851   0.333
 7807SOL     OW24319   1.395   4.883   5.512
 7807SOL    HW124320   1.468   4.815   5.505
 7807SOL    HW224321   1.370   4.916   5.421
 7808SOL     OW24322   6.369   3.230   3.625
 7808SOL    HW124323   6.418   3.171   3.561
 7808SOL    HW224324   6.312   3.173   3.685
 7809SOL     OW24325   3.190   4.969   4.196
 7809SOL    HW124326   3.092   4.953   4.204
 7809SOL    HW224327   3.206   5.047   4.136
 7810SOL     OW24328   3.526   0.190   4.458
 7810SOL    HW124329   3.466   0.114   4.432
 7810SOL    HW224330   3.595   0.204   4.387
 7811SOL     OW24331   1.818   5.309   2.102
 7811SOL    HW124332   1.873   5.297   2.019
 7811SOL    HW224333   1.877   5.301   2.182
 7812SOL     OW24334   6.769   1.917   4.078
 7812SOL    HW124335   6.850   1.975   4.078
 7812SOL    HW224336   6.784   1.837   4.137
 7813SOL     OW24337   5.103   2.610   7.004
 7813SOL    HW124338   5.099   2.653   0.072
 7813SOL    HW224339   5.192   2.568   6.991
 7814SOL     OW24340   0.457   3.379   3.347
 7814SOL    HW124341   0.502   3.349   3.430
 7814SOL    HW224342   0.519   3.437   3.294
 7815SOL     OW24343   5.590   1.398   5.378
 7815SOL    HW124344   5.670   1.361   5.425
 7815SOL    HW224345   5.525   1.433   5.446
 7816SOL     OW24346   1.664   2.572   6.455
 7816SOL    HW124347   1.726   2.526   6.391
 7816SOL    HW224348   1.626   2.504   6.518
 7817SOL     OW24349   5.142   4.917   3.231
 7817SOL    HW124350   5.191   5.002   3.215
 7817SOL    HW224351   5.068   4.908   3.166
 7818SOL     OW24352   4.201   0.938   1.882
 7818SOL    HW124353   4.242   0.919   1.793
 7818SOL    HW224354   4.113   0.893   1.889
 7819SOL     OW24355   0.136   3.574   2.053
 7819SOL    HW124356   0.045   3.608   2.077
 7819SOL    HW224357   0.148   3.482   2.091
 7820SOL     OW24358   0.946   1.684   5.775
 7820SOL    HW124359   0.945   1.759   5.709
 7820SOL    HW224360   1.031   1.632   5.765
 7821SOL     OW24361   5.584   5.687   0.652
 7821SOL    HW124362   5.548   5.752   0.585
 7821SOL    HW224363   5.507   5.641   0.698
 7822SOL     OW24364   1.955   2.222   6.303
 7822SOL    HW124365   1.999   2.153   6.361
 7822SOL    HW224366   1.859   2.198   6.291
 7823SOL     OW24367   2.538   3.561   5.378
 7823SOL    HW124368   2.616   3.511   5.341
 7823SOL    HW224369   2.557   3.659   5.377
 7824SOL     OW24370   6.215   0.458   3.918
 7824SOL    HW124371   6.141   0.394   3.941
 7824SOL    HW224372   6.177   0.535   3.867
 7825SOL     OW24373   1.471   3.129   0.942
 7825SOL    HW124374   1.487   3.075   1.025
 7825SOL    HW224375   1.489   3.072   0.862
 7826SOL     OW24376   6.106   1.413   0.935
 7826SOL    HW124377   6.122   1.378   1.028
 7826SOL    HW224378   6.025   1.472   0.936
 7827SOL     OW24379   2.820   5.339   1.152
 7827SOL    HW124380   2.861   5.314   1.064
 7827SOL    HW224381   2.889   5.383   1.209
 7828SOL     OW24382   1.460   4.509   6.752
 7828SOL    HW124383   1.470   4.414   6.721
 7828SOL    HW224384   1.518   4.524   6.832
 7829SOL     OW24385   2.568   3.491   1.270
 7829SOL    HW124386   2.534   3.578   1.306
 7829SOL    HW224387   2.536   3.480   1.175
 7830SOL     OW24388   2.618   4.498   5.723
 7830SOL    HW124389   2.532   4.461   5.688
 7830SOL    HW224390   2.620   4.489   5.822
 7831SOL     OW24391   1.748   6.139   1.241
 7831SOL    HW124392   1.718   6.173   1.151
 7831SOL    HW224393   1.725   6.207   1.311
 7832SOL     OW24394   4.711   1.007   3.172
 7832SOL    HW124395   4.749   1.029   3.082
 7832SOL    HW224396   4.717   0.909   3.187
 7833SOL     OW24397   0.675   0.952   6.329
 7833SOL    HW124398   0.658   1.011   6.251
 7833SOL    HW224399   0.589   0.937   6.378
 7834SOL     OW24400   6.112   1.878   4.295
 7834SOL    HW124401   6.117   1.978   4.300
 7834SOL    HW224402   6.052   1.851   4.219
 7835SOL     OW24403   3.308   2.069   5.537
 7835SOL    HW124404   3.257   2.111   5.462
 7835SOL    HW224405   3.272   1.977   5.553
 7836SOL     OW24406   3.034   3.092   4.894
 7836SOL    HW124407   3.095   3.030   4.943
 7836SOL    HW224408   2.939   3.070   4.918
 7837SOL     OW24409   6.516   5.592   0.580
 7837SOL    HW124410   6.550   5.683   0.606
 7837SOL    HW224411   6.487   5.594   0.485
 7838SOL     OW24412   4.249   6.913   0.179
 7838SOL    HW124413   4.171   6.927   0.240
 7838SOL    HW224414   4.300   6.998   0.170
 7839SOL     OW24415   6.162   4.905   4.851
 7839SOL    HW124416   6.077   4.852   4.847
 7839SOL    HW224417   6.214   4.879   4.932
 7840SOL     OW24418   6.177   2.663   3.958
 7840SOL    HW124419   6.155   2.627   3.867
 7840SOL    HW224420   6.271   2.637   3.982
 7841SOL     OW24421   3.795   2.210   6.786
 7841SOL    HW124422   3.845   2.289   6.823
 7841SOL    HW224423   3.815   2.202   6.688
 7842SOL     OW24424   2.398   1.941   2.856
 7842SOL    HW124425   2.402   1.896   2.767
 7842SOL    HW224426   2.333   2.017   2.852
 7843SOL     OW24427   6.251   5.679   2.720
 7843SOL    HW124428   6.215   5.585   2.723
 7843SOL    HW224429   6.175   5.743   2.716
 7844SOL     OW24430   3.659   6.400   2.179
 7844SOL    HW124431   3.616   6.329   2.123
 7844SOL    HW224432   3.739   6.436   2.132
 7845SOL     OW24433   5.202   1.751   3.762
 7845SOL    HW124434   5.226   1.682   3.831
 7845SOL    HW224435   5.203   1.710   3.671
 7846SOL     OW24436   1.133   1.007   2.500
 7846SOL    HW124437   1.080   0.937   2.453
 7846SOL    HW224438   1.072   1.082   2.528
 7847SOL     OW24439   0.071   1.813   3.073
 7847SOL    HW124440   0.013   1.811   2.991
 7847SOL    HW224441   0.139   1.740   3.067
 7848SOL     OW24442   3.575   3.333   0.276
 7848SOL    HW124443   3.559   3.429   0.254
 7848SOL    HW224444   3.488   3.283   0.272
 7849SOL     OW24445   5.711   4.336   3.686
 7849SOL    HW124446   5.763   4.323   3.601
 7849SOL    HW224447   5.714   4.252   3.740
 7850SOL     OW24448   0.322   2.331   5.191
 7850SOL    HW124449   0.289   2.394   5.262
 7850SOL    HW224450   0.378   2.260   5.232
 7851SOL     OW24451   6.733   1.124   1.935
 7851SOL    HW124452   6.644   1.144   1.894
 7851SOL    HW224453   6.794   1.202   1.923
 7852SOL     OW24454   2.632   1.707   6.164
 7852SOL    HW124455   2.706   1.768   6.135
 7852SOL    HW224456   2.650   1.673   6.256
 7853SOL     OW24457   4.713   2.267   1.122
 7853SOL    HW124458   4.685   2.302   1.033
 7853SOL    HW224459   4.784   2.197   1.109
 7854SOL     OW24460   4.012   3.172   0.013
 7854SOL    HW124461   3.940   3.165   0.082
 7854SOL    HW224462   4.091   3.218   0.054
 7855SOL     OW24463   4.654   5.473   4.549
 7855SOL    HW124464   4.693   5.406   4.485
 7855SOL    HW224465   4.710   5.475   4.632
 7856SOL     OW24466   6.265   4.860   5.122
 7856SOL    HW124467   6.273   4.773   5.171
 7856SOL    HW224468   6.215   4.926   5.178
 7857SOL     OW24469   5.617   1.889   5.798
 7857SOL    HW124470   5.676   1.809   5.791
 7857SOL    HW224471   5.551   1.889   5.723
 7858SOL     OW24472   5.502   6.231   4.128
 7858SOL    HW124473   5.505   6.162   4.055
 7858SOL    HW224474   5.437   6.202   4.198
 7859SOL     OW24475   4.407   2.812   6.717
 7859SOL    HW124476   4.319   2.778   6.683
 7859SOL    HW224477   4.405   2.912   6.722
 7860SOL     OW24478   3.761   0.112   2.529
 7860SOL    HW124479   3.779   0.096   2.432
 7860SOL    HW224480   3.677   0.065   2.556
 7861SOL     OW24481   3.539   4.810   1.657
 7861SOL    HW124482   3.527   4.894   1.709
 7861SOL    HW224483   3.555   4.734   1.720
 7862SOL     OW24484   2.448   3.750   1.398
 7862SOL    HW124485   2.447   3.850   1.409
 7862SOL    HW224486   2.439   3.707   1.488
 7863SOL     OW24487   0.797   5.480   3.883
 7863SOL    HW124488   0.776   5.386   3.854
 7863SOL    HW224489   0.728   5.511   3.948
 7864SOL     OW24490   0.629   5.262   5.130
 7864SOL    HW124491   0.608   5.172   5.093
 7864SOL    HW224492   0.715   5.257   5.183
 7865SOL     OW24493   6.192   6.223   3.869
 7865SOL    HW124494   6.253   6.287   3.822
 7865SOL    HW224495   6.102   6.225   3.827
 7866SOL     OW24496   1.262   1.232   6.450
 7866SOL    HW124497   1.350   1.278   6.453
 7866SOL    HW224498   1.195   1.291   6.406
 7867SOL     OW24499   6.109   5.974   3.442
 7867SOL    HW124500   6.045   6.028   3.388
 7867SOL    HW224501   6.070   5.957   3.533
 7868SOL     OW24502   5.797   6.470   1.343
 7868SOL    HW124503   5.813   6.408   1.267
 7868SOL    HW224504   5.757   6.419   1.419
 7869SOL     OW24505   6.191   3.772   0.373
 7869SOL    HW124506   6.291   3.767   0.362
 7869SOL    HW224507   6.149   3.790   0.285
 7870SOL     OW24508   4.011   4.757   3.577
 7870SOL    HW124509   3.990   4.759   3.479
 7870SOL    HW224510   4.109   4.742   3.589
 7871SOL     OW24511   4.791   2.872   2.434
 7871SOL    HW124512   4.765   2.810   2.359
 7871SOL    HW224513   4.713   2.886   2.494
 7872SOL     OW24514   2.043   4.426   3.458
 7872SOL    HW124515   2.141   4.442   3.450
 7872SOL    HW224516   1.994   4.513   3.452
 7873SOL     OW24517   5.843   0.663   5.714
 7873SOL    HW124518   5.819   0.694   5.622
 7873SOL    HW224519   5.892   0.736   5.763
 7874SOL     OW24520   5.417   1.975   0.038
 7874SOL    HW124521   5.381   1.892   7.016
 7874SOL    HW224522   5.404   2.053   7.000
 7875SOL     OW24523   5.066   2.927   6.977
 7875SOL    HW124524   5.093   2.840   6.937
 7875SOL    HW224525   4.971   2.946   6.955
 7876SOL     OW24526   0.947   0.314   4.918
 7876SOL    HW124527   0.923   0.244   4.985
 7876SOL    HW224528   0.992   0.270   4.840
 7877SOL     OW24529   0.801   2.221   3.235
 7877SOL    HW124530   0.770   2.203   3.141
 7877SOL    HW224531   0.722   2.240   3.293
 7878SOL     OW24532   5.717   5.024   4.715
 7878SOL    HW124533   5.661   5.085   4.770
 7878SOL    HW224534   5.671   5.006   4.627
 7879SOL     OW24535   4.677   4.689   3.494
 7879SOL    HW124536   4.603   4.626   3.518
 7879SOL    HW224537   4.758   4.637   3.467
 7880SOL     OW24538   1.698   5.078   0.811
 7880SOL    HW124539   1.759   5.092   0.889
 7880SOL    HW224540   1.749   5.089   0.726
 7881SOL     OW24541   6.145   4.440   4.598
 7881SOL    HW124542   6.088   4.511   4.557
 7881SOL    HW224543   6.185   4.383   4.526
 7882SOL     OW24544   1.036   2.845   1.765
 7882SOL    HW124545   0.957   2.828   1.825
 7882SOL    HW224546   1.089   2.761   1.754
 7883SOL     OW24547   1.083   0.723   0.599
 7883SOL    HW124548   1.059   0.725   0.502
 7883SOL    HW224549   1.145   0.799   0.620
 7884SOL     OW24550   2.045   3.963   4.032
 7884SOL    HW124551   1.992   3.927   3.955
 7884SOL    HW224552   2.114   4.026   3.998
 7885SOL     OW24553   6.842   4.947   2.250
 7885SOL    HW124554   6.786   5.013   2.301
 7885SOL    HW224555   6.903   4.900   2.314
 7886SOL     OW24556   3.460   5.424   6.832
 7886SOL    HW124557   3.366   5.458   6.843
 7886SOL    HW224558   3.461   5.325   6.843
 7887SOL     OW24559   3.311   2.729   5.190
 7887SOL    HW124560   3.264   2.797   5.246
 7887SOL    HW224561   3.263   2.641   5.199
 7888SOL     OW24562   6.608   0.133   4.945
 7888SOL    HW124563   6.557   0.214   4.975
 7888SOL    HW224564   6.616   0.069   5.022
 7889SOL     OW24565   1.404   5.043   0.354
 7889SOL    HW124566   1.500   5.067   0.366
 7889SOL    HW224567   1.370   4.997   0.436
 7890SOL     OW24568   1.225   2.559   3.596
 7890SOL    HW124569   1.279   2.577   3.513
 7890SOL    HW224570   1.247   2.627   3.666
 7891SOL     OW24571   2.604   4.600   3.832
 7891SOL    HW124572   2.548   4.520   3.809
 7891SOL    HW224573   2.677   4.610   3.764
 7892SOL     OW24574   1.788   1.093   3.929
 7892SOL    HW124575   1.746   1.044   4.006
 7892SOL    HW224576   1.877   1.052   3.908
 7893SOL     OW24577   6.516   6.345   2.743
 7893SOL    HW124578   6.595   6.293   2.776
 7893SOL    HW224579   6.526   6.361   2.645
 7894SOL     OW24580   3.690   6.794   0.251
 7894SOL    HW124581   3.724   6.845   0.172
 7894SOL    HW224582   3.752   6.718   0.272
 7895SOL     OW24583   5.704   0.643   5.023
 7895SOL    HW124584   5.676   0.736   5.046
 7895SOL    HW224585   5.724   0.636   4.926
 7896SOL     OW24586   4.516   3.460   1.039
 7896SOL    HW124587   4.502   3.500   1.130
 7896SOL    HW224588   4.604   3.491   1.002
 7897SOL     OW24589   3.136   3.705   0.450
 7897SOL    HW124590   3.193   3.623   0.459
 7897SOL    HW224591   3.183   3.772   0.392
 7898SOL     OW24592   3.691   1.939   2.987
 7898SOL    HW124593   3.711   1.842   2.976
 7898SOL    HW224594   3.776   1.988   3.006
 7899SOL     OW24595   5.628   0.071   1.489
 7899SOL    HW124596   5.636   0.170   1.497
 7899SOL    HW224597   5.547   0.048   1.436
 7900SOL     OW24598   1.643   4.750   2.162
 7900SOL    HW124599   1.630   4.846   2.188
 7900SOL    HW224600   1.585   4.692   2.219
 7901SOL     OW24601   5.012   1.640   6.361
 7901SOL    HW124602   4.938   1.650   6.293
 7901SOL    HW224603   5.089   1.699   6.335
 7902SOL     OW24604   6.016   6.546   1.153
 7902SOL    HW124605   5.930   6.527   1.201
 7902SOL    HW224606   6.065   6.620   1.200
 7903SOL     OW24607   5.387   1.147   1.219
 7903SOL    HW124608   5.383   1.048   1.237
 7903SOL    HW224609   5.443   1.164   1.138
 7904SOL     OW24610   5.636   0.283   3.603
 7904SOL    HW124611   5.558   0.276   3.667
 7904SOL    HW224612   5.716   0.318   3.652
 7905SOL     OW24613   4.934   2.533   0.276
 7905SOL    HW124614   4.922   2.439   0.245
 7905SOL    HW224615   5.031   2.552   0.291
 7906SOL     OW24616   0.480   5.591   0.723
 7906SOL    HW124617   0.415   5.546   0.784
 7906SOL    HW224618   0.441   5.676   0.688
 7907SOL     OW24619   5.136   2.376   2.601
 7907SOL    HW124620   5.235   2.362   2.601
 7907SOL    HW224621   5.092   2.304   2.546
 7908SOL     OW24622   1.414   1.270   5.407
 7908SOL    HW124623   1.326   1.268   5.455
 7908SOL    HW224624   1.487   1.250   5.472
 7909SOL     OW24625   5.839   4.289   4.697
 7909SOL    HW124626   5.857   4.265   4.601
 7909SOL    HW224627   5.823   4.205   4.750
 7910SOL     OW24628   2.875   3.475   5.783
 7910SOL    HW124629   2.873   3.572   5.758
 7910SOL    HW224630   2.969   3.447   5.799
 7911SOL     OW24631   2.170   3.660   0.131
 7911SOL    HW124632   2.162   3.603   0.049
 7911SOL    HW224633   2.131   3.612   0.209
 7912SOL     OW24634   0.033   4.876   1.193
 7912SOL    HW124635   0.096   4.942   1.233
 7912SOL    HW224636   6.974   4.923   1.160
 7913SOL     OW24637   1.642   4.251   0.475
 7913SOL    HW124638   1.581   4.192   0.528
 7913SOL    HW224639   1.594   4.335   0.450
 7914SOL     OW24640   0.418   4.132   0.396
 7914SOL    HW124641   0.350   4.188   0.443
 7914SOL    HW224642   0.378   4.043   0.372
 7915SOL     OW24643   5.105   2.743   1.830
 7915SOL    HW124644   5.027   2.805   1.833
 7915SOL    HW224645   5.167   2.770   1.757
 7916SOL     OW24646   0.858   4.009   5.005
 7916SOL    HW124647   0.925   4.069   4.961
 7916SOL    HW224648   0.774   4.007   4.950
 7917SOL     OW24649   4.145   3.621   4.700
 7917SOL    HW124650   4.156   3.661   4.791
 7917SOL    HW224651   4.131   3.694   4.633
 7918SOL     OW24652   0.275   1.285   5.627
 7918SOL    HW124653   0.345   1.349   5.595
 7918SOL    HW224654   0.318   1.200   5.657
 7919SOL     OW24655   1.916   4.027   2.786
 7919SOL    HW124656   1.871   4.113   2.810
 7919SOL    HW224657   2.014   4.042   2.777
 7920SOL     OW24658   0.277   6.296   0.657
 7920SOL    HW124659   0.200   6.233   0.656
 7920SOL    HW224660   0.313   6.306   0.564
 7921SOL     OW24661   5.445   6.529   0.717
 7921SOL    HW124662   5.403   6.560   0.631
 7921SOL    HW224663   5.436   6.601   0.786
 7922SOL     OW24664   0.080   6.803   0.642
 7922SOL    HW124665   0.007   6.751   0.598
 7922SOL    HW224666   0.166   6.751   0.637
 7923SOL     OW24667   3.246   0.012   1.601
 7923SOL    HW124668   3.176   6.996   1.541
 7923SOL    HW224669   3.236   0.111   1.604
 7924SOL     OW24670   4.365   6.904   1.764
 7924SOL    HW124671   4.384   6.911   1.862
 7924SOL    HW224672   4.315   6.985   1.735
 7925SOL     OW24673   0.740   1.818   6.774
 7925SOL    HW124674   0.769   1.724   6.762
 7925SOL    HW224675   0.813   1.880   6.746
 7926SOL     OW24676   4.847   1.952   5.682
 7926SOL    HW124677   4.892   2.041   5.675
 7926SOL    HW224678   4.861   1.900   5.597
 7927SOL     OW24679   4.033   5.809   2.448
 7927SOL    HW124680   4.095   5.759   2.387
 7927SOL    HW224681   3.956   5.844   2.396
 7928SOL     OW24682   1.421   1.871   4.508
 7928SOL    HW124683   1.459   1.858   4.600
 7928SOL    HW224684   1.339   1.928   4.513
 7929SOL     OW24685   4.135   4.978   6.113
 7929SOL    HW124686   4.183   4.892   6.098
 7929SOL    HW224687   4.135   4.999   6.211
 7930SOL     OW24688   4.105   5.683   4.868
 7930SOL    HW124689   4.087   5.699   4.771
 7930SOL    HW224690   4.096   5.586   4.888
 7931SOL     OW24691   2.127   2.250   0.113
 7931SOL    HW124692   2.070   2.175   0.146
 7931SOL    HW224693   2.210   2.255   0.168
 7932SOL     OW24694   1.382   6.410   6.484
 7932SOL    HW124695   1.337   6.377   6.401
 7932SOL    HW224696   1.360   6.506   6.498
 7933SOL     OW24697   0.436   6.012   6.026
 7933SOL    HW124698   0.523   6.053   6.050
 7933SOL    HW224699   0.362   6.056   6.077
 7934SOL     OW24700   2.485   4.790   6.973
 7934SOL    HW124701   2.476   4.723   6.899
 7934SOL    HW224702   2.524   4.875   6.936
 7935SOL     OW24703   5.943   5.560   0.178
 7935SOL    HW124704   6.042   5.565   0.189
 7935SOL    HW224705   5.903   5.509   0.255
 7936SOL     OW24706   3.850   6.257   2.321
 7936SOL    HW124707   3.896   6.198   2.254
 7936SOL    HW224708   3.780   6.312   2.274
 7937SOL     OW24709   6.913   6.117   3.341
 7937SOL    HW124710   6.976   6.166   3.401
 7937SOL    HW224711   6.861   6.051   3.395
 7938SOL     OW24712   6.229   5.459   4.053
 7938SOL    HW124713   6.176   5.452   4.137
 7938SOL    HW224714   6.304   5.393   4.055
 7939SOL     OW24715   1.529   2.529   5.508
 7939SOL    HW124716   1.605   2.587   5.537
 7939SOL    HW224717   1.491   2.481   5.588
 7940SOL     OW24718   1.741   3.543   1.940
 7940SOL    HW124719   1.669   3.611   1.925
 7940SOL    HW224720   1.748   3.483   1.860
 7941SOL     OW24721   5.518   1.135   0.962
 7941SOL    HW124722   5.577   1.208   0.929
 7941SOL    HW224723   5.499   1.072   0.887
 7942SOL     OW24724   6.326   6.201   2.860
 7942SOL    HW124725   6.347   6.201   2.958
 7942SOL    HW224726   6.399   6.248   2.811
 7943SOL     OW24727   6.329   3.187   0.475
 7943SOL    HW124728   6.271   3.264   0.449
 7943SOL    HW224729   6.371   3.148   0.393
 7944SOL     OW24730   0.182   2.551   1.269
 7944SOL    HW124731   0.134   2.602   1.198
 7944SOL    HW224732   0.242   2.484   1.227
 7945SOL     OW24733   5.965   5.592   1.532
 7945SOL    HW124734   5.911   5.670   1.562
 7945SOL    HW224735   6.017   5.556   1.609
 7946SOL     OW24736   2.361   1.347   5.409
 7946SOL    HW124737   2.453   1.365   5.372
 7946SOL    HW224738   2.293   1.390   5.350
 7947SOL     OW24739   3.817   1.966   6.280
 7947SOL    HW124740   3.914   1.966   6.255
 7947SOL    HW224741   3.763   1.997   6.201
 7948SOL     OW24742   1.109   6.802   0.938
 7948SOL    HW124743   1.046   6.798   0.860
 7948SOL    HW224744   1.082   6.733   1.006
 7949SOL     OW24745   4.324   4.739   4.874
 7949SOL    HW124746   4.394   4.686   4.826
 7949SOL    HW224747   4.298   4.692   4.958
 7950SOL     OW24748   5.435   5.232   4.504
 7950SOL    HW124749   5.373   5.274   4.437
 7950SOL    HW224750   5.422   5.133   4.504
 7951SOL     OW24751   2.256   4.057   1.843
 7951SOL    HW124752   2.281   4.108   1.761
 7951SOL    HW224753   2.264   3.959   1.826
 7952SOL     OW24754   0.486   3.399   6.954
 7952SOL    HW124755   0.458   3.473   6.893
 7952SOL    HW224756   0.448   3.415   0.023
 7953SOL     OW24757   2.209   2.663   3.898
 7953SOL    HW124758   2.208   2.616   3.987
 7953SOL    HW224759   2.302   2.696   3.880
 7954SOL     OW24760   4.516   4.246   5.847
 7954SOL    HW124761   4.463   4.182   5.792
 7954SOL    HW224762   4.489   4.340   5.826
 7955SOL     OW24763   1.196   6.703   6.775
 7955SOL    HW124764   1.113   6.746   6.741
 7955SOL    HW224765   1.176   6.609   6.804
 7956SOL     OW24766   3.560   5.953   2.703
 7956SOL    HW124767   3.624   6.030   2.702
 7956SOL    HW224768   3.467   5.987   2.689
 7957SOL     OW24769   1.241   0.580   1.903
 7957SOL    HW124770   1.265   0.507   1.966
 7957SOL    HW224771   1.213   0.541   1.815
 7958SOL     OW24772   3.899   4.994   4.922
 7958SOL    HW124773   3.890   5.091   4.898
 7958SOL    HW224774   3.988   4.960   4.890
 7959SOL     OW24775   4.190   5.839   0.889
 7959SOL    HW124776   4.242   5.875   0.811
 7959SOL    HW224777   4.246   5.847   0.972
 7960SOL     OW24778   2.680   1.001   6.997
 7960SOL    HW124779   2.615   0.927   7.014
 7960SOL    HW224780   2.715   0.995   6.903
 7961SOL     OW24781   0.318   0.582   1.086
 7961SOL    HW124782   0.394   0.599   1.148
 7961SOL    HW224783   0.284   0.670   1.050
 7962SOL     OW24784   1.282   0.418   0.031
 7962SOL    HW124785   1.260   0.470   0.114
 7962SOL    HW224786   1.356   0.355   0.051
 7963SOL     OW24787   6.773   0.261   4.086
 7963SOL    HW124788   6.750   0.313   4.168
 7963SOL    HW224789   6.863   0.218   4.098
 7964SOL     OW24790   0.273   4.895   3.905
 7964SOL    HW124791   0.241   4.825   3.842
 7964SOL    HW224792   0.372   4.899   3.904
 7965SOL     OW24793   3.546   2.471   5.944
 7965SOL    HW124794   3.643   2.483   5.965
 7965SOL    HW224795   3.525   2.512   5.855
 7966SOL     OW24796   1.011   2.638   5.405
 7966SOL    HW124797   1.020   2.641   5.305
 7966SOL    HW224798   0.948   2.565   5.431
 7967SOL     OW24799   2.685   6.132   3.371
 7967SOL    HW124800   2.585   6.140   3.376
 7967SOL    HW224801   2.718   6.073   3.445
 7968SOL     OW24802   1.902   2.911   3.425
 7968SOL    HW124803   1.921   2.833   3.485
 7968SOL    HW224804   1.988   2.954   3.398
 7969SOL     OW24805   3.981   5.885   0.549
 7969SOL    HW124806   3.882   5.888   0.559
 7969SOL    HW224807   4.005   5.829   0.470
 7970SOL     OW24808   6.474   3.041   2.511
 7970SOL    HW124809   6.400   2.974   2.518
 7970SOL    HW224810   6.562   2.993   2.508
 7971SOL     OW24811   4.460   2.024   0.924
 7971SOL    HW124812   4.417   2.015   0.834
 7971SOL    HW224813   4.539   1.962   0.930
 7972SOL     OW24814   2.040   3.119   0.772
 7972SOL    HW124815   2.087   3.206   0.787
 7972SOL    HW224816   2.040   3.066   0.856
 7973SOL     OW24817   4.496   4.890   3.726
 7973SOL    HW124818   4.423   4.948   3.764
 7973SOL    HW224819   4.583   4.914   3.768
 7974SOL     OW24820   5.932   1.548   5.862
 7974SOL    HW124821   5.855   1.593   5.817
 7974SOL    HW224822   5.898   1.493   5.938
 7975SOL     OW24823   6.001   1.343   2.328
 7975SOL    HW124824   6.044   1.316   2.242
 7975SOL    HW224825   6.071   1.376   2.391
 7976SOL     OW24826   0.805   0.375   6.431
 7976SOL    HW124827   0.834   0.461   6.473
 7976SOL    HW224828   0.732   0.334   6.485
 7977SOL     OW24829   5.156   6.131   1.820
 7977SOL    HW124830   5.159   6.138   1.919
 7977SOL    HW224831   5.079   6.184   1.785
 7978SOL     OW24832   6.137   3.292   6.536
 7978SOL    HW124833   6.116   3.386   6.510
 7978SOL    HW224834   6.056   3.235   6.522
 7979SOL     OW24835   4.113   6.344   5.248
 7979SOL    HW124836   4.052   6.277   5.291
 7979SOL    HW224837   4.095   6.434   5.287
 7980SOL     OW24838   2.514   5.084   6.914
 7980SOL    HW124839   2.480   5.161   6.968
 7980SOL    HW224840   2.598   5.111   6.867
 7981SOL     OW24841   0.762   5.567   1.630
 7981SOL    HW124842   0.775   5.471   1.652
 7981SOL    HW224843   0.784   5.623   1.710
 7982SOL     OW24844   6.957   1.564   0.164
 7982SOL    HW124845   0.021   1.535   0.204
 7982SOL    HW224846   6.934   1.505   0.087
 7983SOL     OW24847   5.777   1.899   1.774
 7983SOL    HW124848   5.853   1.840   1.803
 7983SOL    HW224849   5.731   1.936   1.855
 7984SOL     OW24850   1.688   1.279   0.876
 7984SOL    HW124851   1.766   1.310   0.930
 7984SOL    HW224852   1.617   1.244   0.937
 7985SOL     OW24853   2.486   0.821   3.684
 7985SOL    HW124854   2.456   0.764   3.760
 7985SOL    HW224855   2.567   0.780   3.641
 7986SOL     OW24856   3.495   1.523   6.838
 7986SOL    HW124857   3.431   1.563   6.903
 7986SOL    HW224858   3.450   1.507   6.751
 7987SOL     OW24859   1.461   2.897   6.645
 7987SOL    HW124860   1.393   2.832   6.613
 7987SOL    HW224861   1.420   2.956   6.715
 7988SOL     OW24862   1.225   2.423   3.937
 7988SOL    HW124863   1.197   2.378   3.852
 7988SOL    HW224864   1.258   2.354   4.002
 7989SOL     OW24865   3.631   3.138   5.159
 7989SOL    HW124866   3.659   3.042   5.166
 7989SOL    HW224867   3.624   3.176   5.251
 7990SOL     OW24868   6.921   3.035   3.707
 7990SOL    HW124869   6.887   2.959   3.762
 7990SOL    HW224870   6.883   3.029   3.614
 7991SOL     OW24871   6.377   0.115   3.933
 7991SOL    HW124872   6.420   0.050   3.996
 7991SOL    HW224873   6.383   0.080   3.840
 7992SOL     OW24874   1.469   6.223   1.553
 7992SOL    HW124875   1.383   6.223   1.604
 7992SOL    HW224876   1.467   6.151   1.484
 7993SOL     OW24877   0.541   0.072   6.218
 7993SOL    HW124878   0.526   0.058   6.120
 7993SOL    HW224879   0.527   0.168   6.240
 7994SOL     OW24880   4.280   6.581   3.114
 7994SOL    HW124881   4.270   6.617   3.021
 7994SOL    HW224882   4.375   6.556   3.130
 7995SOL     OW24883   4.829   4.828   3.682
 7995SOL    HW124884   4.838   4.904   3.617
 7995SOL    HW224885   4.755   4.768   3.653
 7996SOL     OW24886   3.346   0.006   4.633
 7996SOL    HW124887   3.256   6.999   4.664
 7996SOL    HW224888   3.350   0.106   4.633
 7997SOL     OW24889   0.609   1.642   1.575
 7997SOL    HW124890   0.605   1.728   1.626
 7997SOL    HW224891   0.688   1.644   1.513
 7998SOL     OW24892   3.013   5.674   1.499
 7998SOL    HW124893   3.057   5.601   1.551
 7998SOL    HW224894   3.043   5.763   1.532
 7999SOL     OW24895   0.536   6.961   5.974
 7999SOL    HW124896   0.525   6.867   6.005
 7999SOL    HW224897   0.495   6.973   5.884
 8000SOL     OW24898   5.157   0.396   6.923
 8000SOL    HW124899   5.204   0.369   7.007
 8000SOL    HW224900   5.067   0.351   6.920
 8001SOL     OW24901   3.432   5.800   1.059
 8001SOL    HW124902   3.454   5.897   1.048
 8001SOL    HW224903   3.509   5.744   1.027
 8002SOL     OW24904   0.435   2.652   5.813
 8002SOL    HW124905   0.524   2.611   5.793
 8002SOL    HW224906   0.438   2.696   5.903
 8003SOL     OW24907   3.349   5.221   2.750
 8003SOL    HW124908   3.413   5.219   2.673
 8003SOL    HW224909   3.374   5.297   2.811
 8004SOL     OW24910   2.052   3.171   3.838
 8004SOL    HW124911   2.090   3.082   3.860
 8004SOL    HW224912   2.059   3.188   3.740
 8005SOL     OW24913   3.464   0.139   1.893
 8005SOL    HW124914   3.438   0.198   1.970
 8005SOL    HW224915   3.478   0.196   1.811
 8006SOL     OW24916   2.065   0.344   6.439
 8006SOL    HW124917   2.003   0.323   6.363
 8006SOL    HW224918   2.073   0.264   6.498
 8007SOL     OW24919   6.548   1.041   4.516
 8007SOL    HW124920   6.642   1.014   4.498
 8007SOL    HW224921   6.515   1.099   4.441
 8008SOL     OW24922   4.661   6.119   5.908
 8008SOL    HW124923   4.743   6.063   5.896
 8008SOL    HW224924   4.622   6.141   5.819
 8009SOL     OW24925   5.813   1.424   3.046
 8009SOL    HW124926   5.839   1.341   2.998
 8009SOL    HW224927   5.766   1.486   2.983
 8010SOL     OW24928   0.727   1.176   7.019
 8010SOL    HW124929   0.705   1.226   0.080
 8010SOL    HW224930   0.692   1.083   0.004
 8011SOL     OW24931   3.183   2.319   0.559
 8011SOL    HW124932   3.183   2.397   0.621
 8011SOL    HW224933   3.277   2.286   0.547
 8012SOL     OW24934   1.860   3.925   1.394
 8012SOL    HW124935   1.924   3.920   1.317
 8012SOL    HW224936   1.911   3.936   1.479
 8013SOL     OW24937   0.859   5.244   3.573
 8013SOL    HW124938   0.901   5.234   3.483
 8013SOL    HW224939   0.885   5.333   3.613
 8014SOL     OW24940   1.426   6.605   4.990
 8014SOL    HW124941   1.441   6.566   4.899
 8014SOL    HW224942   1.464   6.697   4.994
 8015SOL     OW24943   2.420   0.928   0.185
 8015SOL    HW124944   2.515   0.916   0.212
 8015SOL    HW224945   2.409   0.902   0.089
 8016SOL     OW24946   5.599   0.605   5.801
 8016SOL    HW124947   5.582   0.665   5.879
 8016SOL    HW224948   5.685   0.631   5.758
 8017SOL     OW24949   6.283   6.769   0.759
 8017SOL    HW124950   6.311   6.853   0.806
 8017SOL    HW224951   6.354   6.700   0.771
 8018SOL     OW24952   3.095   2.129   5.819
 8018SOL    HW124953   3.059   2.142   5.727
 8018SOL    HW224954   3.173   2.190   5.833
 8019SOL     OW24955   2.252   4.515   6.261
 8019SOL    HW124956   2.298   4.488   6.176
 8019SOL    HW224957   2.176   4.576   6.240
 8020SOL     OW24958   6.023   6.848   0.548
 8020SOL    HW124959   6.074   6.821   0.630
 8020SOL    HW224960   6.043   6.943   0.525
 8021SOL     OW24961   1.633   1.760   1.253
 8021SOL    HW124962   1.690   1.682   1.226
 8021SOL    HW224963   1.676   1.844   1.221
 8022SOL     OW24964   5.220   6.679   2.779
 8022SOL    HW124965   5.139   6.622   2.791
 8022SOL    HW224966   5.259   6.702   2.868
 8023SOL     OW24967   6.050   5.409   3.002
 8023SOL    HW124968   6.147   5.388   3.008
 8023SOL    HW224969   6.003   5.339   2.948
 8024SOL     OW24970   2.743   4.710   6.810
 8024SOL    HW124971   2.744   4.632   6.871
 8024SOL    HW224972   2.797   4.784   6.850
 8025SOL     OW24973   2.574   6.360   6.686
 8025SOL    HW124974   2.614   6.403   6.768
 8025SOL    HW224975   2.489   6.314   6.711
 8026SOL     OW24976   0.878   4.625   6.629
 8026SOL    HW124977   0.933   4.636   6.712
 8026SOL    HW224978   0.865   4.528   6.611
 8027SOL     OW24979   4.871   0.559   5.390
 8027SOL    HW124980   4.882   0.644   5.441
 8027SOL    HW224981   4.778   0.554   5.355
 8028SOL     OW24982   3.153   5.085   4.564
 8028SOL    HW124983   3.095   5.156   4.524
 8028SOL    HW224984   3.115   5.056   4.652
 8029SOL     OW24985   5.030   3.259   1.291
 8029SOL    HW124986   4.986   3.201   1.222
 8029SOL    HW224987   4.978   3.344   1.301
 8030SOL     OW24988   4.182   4.591   0.285
 8030SOL    HW124989   4.206   4.681   0.321
 8030SOL    HW224990   4.260   4.552   0.237
 8031SOL     OW24991   5.456   6.765   2.640
 8031SOL    HW124992   5.375   6.730   2.687
 8031SOL    HW224993   5.482   6.853   2.679
 8032SOL     OW24994   6.508   5.018   0.151
 8032SOL    HW124995   6.522   5.048   0.056
 8032SOL    HW224996   6.411   5.005   0.168
 8033SOL     OW24997   4.922   2.592   5.740
 8033SOL    HW124998   5.001   2.628   5.691
 8033SOL    HW224999   4.948   2.569   5.834
 8034SOL     OW25000   6.356   0.318   5.013
 8034SOL    HW125001   6.377   0.281   5.103
 8034SOL    HW225002   6.259   0.343   5.008
 8035SOL     OW25003   4.928   1.830   4.401
 8035SOL    HW125004   4.837   1.857   4.368
 8035SOL    HW225005   4.994   1.836   4.326
 8036SOL     OW25006   0.873   4.314   2.631
 8036SOL    HW125007   0.786   4.266   2.623
 8036SOL    HW225008   0.862   4.396   2.687
 8037SOL     OW25009   1.875   3.229   1.401
 8037SOL    HW125010   1.811   3.196   1.470
 8037SOL    HW225011   1.932   3.302   1.440
 8038SOL     OW25012   3.557   0.480   2.973
 8038SOL    HW125013   3.523   0.427   2.895
 8038SOL    HW225014   3.501   0.562   2.984
 8039SOL     OW25015   0.548   2.013   4.358
 8039SOL    HW125016   0.615   2.061   4.415
 8039SOL    HW225017   0.592   1.987   4.272
 8040SOL     OW25018   1.691   6.074   0.164
 8040SOL    HW125019   1.723   6.168   0.155
 8040SOL    HW225020   1.598   6.073   0.200
 8041SOL     OW25021   3.028   0.882   2.105
 8041SOL    HW125022   2.958   0.920   2.166
 8041SOL    HW225023   3.097   0.834   2.160
 8042SOL     OW25024   2.992   3.285   3.453
 8042SOL    HW125025   2.984   3.359   3.519
 8042SOL    HW225026   2.969   3.320   3.362
 8043SOL     OW25027   4.058   6.589   2.582
 8043SOL    HW125028   3.958   6.582   2.589
 8043SOL    HW225029   4.083   6.683   2.558
 8044SOL     OW25030   3.829   2.792   0.897
 8044SOL    HW125031   3.870   2.743   0.821
 8044SOL    HW225032   3.892   2.794   0.974
 8045SOL     OW25033   5.284   0.766   1.914
 8045SOL    HW125034   5.274   0.864   1.932
 8045SOL    HW225035   5.227   0.714   1.977
 8046SOL     OW25036   0.320   5.431   0.881
 8046SOL    HW125037   0.253   5.464   0.814
 8046SOL    HW225038   0.274   5.376   0.950
 8047SOL     OW25039   3.943   5.699   4.496
 8047SOL    HW125040   3.972   5.792   4.473
 8047SOL    HW225041   3.975   5.636   4.426
 8048SOL     OW25042   5.259   1.335   5.833
 8048SOL    HW125043   5.228   1.366   5.923
 8048SOL    HW225044   5.225   1.243   5.815
 8049SOL     OW25045   0.562   0.323   6.951
 8049SOL    HW125046   0.478   0.270   6.968
 8049SOL    HW225047   0.538   0.419   6.935
 8050SOL     OW25048   1.713   3.829   3.003
 8050SOL    HW125049   1.624   3.785   2.992
 8050SOL    HW225050   1.727   3.895   2.929
 8051SOL     OW25051   4.500   5.498   2.754
 8051SOL    HW125052   4.438   5.531   2.683
 8051SOL    HW225053   4.461   5.417   2.798
 8052SOL     OW25054   4.519   1.856   1.989
 8052SOL    HW125055   4.470   1.938   2.019
 8052SOL    HW225056   4.592   1.882   1.926
 8053SOL     OW25057   2.928   3.801   3.006
 8053SOL    HW125058   2.934   3.865   3.082
 8053SOL    HW225059   3.010   3.744   3.002
 8054SOL     OW25060   4.861   0.385   4.668
 8054SOL    HW125061   4.912   0.458   4.715
 8054SOL    HW225062   4.807   0.425   4.594
 8055SOL     OW25063   0.336   0.138   5.374
 8055SOL    HW125064   0.419   0.173   5.330
 8055SOL    HW225065   0.309   0.200   5.447
 8056SOL     OW25066   3.462   1.834   4.289
 8056SOL    HW125067   3.376   1.854   4.336
 8056SOL    HW225068   3.507   1.920   4.264
 8057SOL     OW25069   2.920   1.831   3.323
 8057SOL    HW125070   2.960   1.747   3.361
 8057SOL    HW225071   2.832   1.809   3.280
 8058SOL     OW25072   4.911   0.685   1.862
 8058SOL    HW125073   4.963   0.667   1.779
 8058SOL    HW225074   4.815   0.698   1.838
 8059SOL     OW25075   4.036   1.600   4.650
 8059SOL    HW125076   4.046   1.523   4.714
 8059SOL    HW225077   3.982   1.672   4.694
 8060SOL     OW25078   6.850   2.170   3.773
 8060SOL    HW125079   6.886   2.192   3.683
 8060SOL    HW225080   6.897   2.090   3.810
 8061SOL     OW25081   0.521   1.089   2.877
 8061SOL    HW125082   0.534   1.180   2.915
 8061SOL    HW225083   0.512   1.023   2.951
 8062SOL     OW25084   3.397   5.259   4.410
 8062SOL    HW125085   3.318   5.210   4.447
 8062SOL    HW225086   3.463   5.275   4.484
 8063SOL     OW25087   0.874   2.279   0.951
 8063SOL    HW125088   0.970   2.252   0.951
 8063SOL    HW225089   0.864   2.367   0.998
 8064SOL     OW25090   0.526   4.336   1.860
 8064SOL    HW125091   0.549   4.346   1.957
 8064SOL    HW225092   0.561   4.249   1.827
 8065SOL     OW25093   2.982   5.794   4.330
 8065SOL    HW125094   3.076   5.825   4.324
 8065SOL    HW225095   2.921   5.863   4.290
 8066SOL     OW25096   0.220   2.217   5.724
 8066SOL    HW125097   0.126   2.183   5.734
 8066SOL    HW225098   0.272   2.154   5.667
 8067SOL     OW25099   4.561   2.778   1.822
 8067SOL    HW125100   4.589   2.873   1.838
 8067SOL    HW225101   4.582   2.723   1.904
 8068SOL     OW25102   0.220   4.010   0.912
 8068SOL    HW125103   0.155   3.960   0.969
 8068SOL    HW225104   0.194   4.107   0.911
 8069SOL     OW25105   1.979   6.475   1.184
 8069SOL    HW125106   2.049   6.526   1.133
 8069SOL    HW225107   1.902   6.456   1.123
 8070SOL     OW25108   3.334   3.191   0.268
 8070SOL    HW125109   3.269   3.127   0.309
 8070SOL    HW225110   3.285   3.264   0.221
 8071SOL     OW25111   2.881   6.430   4.915
 8071SOL    HW125112   2.806   6.421   4.850
 8071SOL    HW225113   2.854   6.490   4.990
 8072SOL     OW25114   3.418   0.903   0.209
 8072SOL    HW125115   3.473   0.963   0.152
 8072SOL    HW225116   3.400   0.947   0.297
 8073SOL     OW25117   3.745   5.764   5.002
 8073SOL    HW125118   3.647   5.774   4.986
 8073SOL    HW225119   3.772   5.669   4.986
 8074SOL     OW25120   3.977   2.292   0.542
 8074SOL    HW125121   3.943   2.229   0.473
 8074SOL    HW225122   3.901   2.328   0.596
 8075SOL     OW25123   6.757   0.639   0.234
 8075SOL    HW125124   6.702   0.592   0.302
 8075SOL    HW225125   6.703   0.709   0.188
 8076SOL     OW25126   5.883   2.123   5.546
 8076SOL    HW125127   5.893   2.089   5.640
 8076SOL    HW225128   5.851   2.048   5.487
 8077SOL     OW25129   2.337   5.461   1.254
 8077SOL    HW125130   2.414   5.471   1.191
 8077SOL    HW225131   2.371   5.449   1.348
 8078SOL     OW25132   6.316   1.634   0.513
 8078SOL    HW125133   6.342   1.708   0.451
 8078SOL    HW225134   6.396   1.577   0.532
 8079SOL     OW25135   4.650   1.601   3.306
 8079SOL    HW125136   4.720   1.556   3.362
 8079SOL    HW225137   4.624   1.541   3.231
 8080SOL     OW25138   0.267   2.871   0.298
 8080SOL    HW125139   0.325   2.797   0.333
 8080SOL    HW225140   0.222   2.917   0.374
 8081SOL     OW25141   5.056   6.662   4.401
 8081SOL    HW125142   4.994   6.613   4.463
 8081SOL    HW225143   5.115   6.722   4.455
 8082SOL     OW25144   5.098   6.670   1.925
 8082SOL    HW125145   5.196   6.685   1.940
 8082SOL    HW225146   5.061   6.615   2.000
 8083SOL     OW25147   4.924   4.042   2.708
 8083SOL    HW125148   4.975   4.124   2.734
 8083SOL    HW225149   4.988   3.971   2.679
 8084SOL     OW25150   4.745   0.538   0.475
 8084SOL    HW125151   4.695   0.455   0.502
 8084SOL    HW225152   4.776   0.529   0.380
 8085SOL     OW25153   5.986   6.698   2.252
 8085SOL    HW125154   5.978   6.793   2.282
 8085SOL    HW225155   5.914   6.677   2.186
 8086SOL     OW25156   4.468   0.900   3.668
 8086SOL    HW125157   4.512   0.827   3.721
 8086SOL    HW225158   4.539   0.957   3.626
 8087SOL     OW25159   2.865   1.193   0.594
 8087SOL    HW125160   2.832   1.220   0.684
 8087SOL    HW225161   2.917   1.107   0.602
 8088SOL     OW25162   5.261   2.990   1.706
 8088SOL    HW125163   5.229   3.012   1.614
 8088SOL    HW225164   5.226   3.057   1.771
 8089SOL     OW25165   5.223   2.460   0.730
 8089SOL    HW125166   5.164   2.449   0.649
 8089SOL    HW225167   5.314   2.489   0.700
 8090SOL     OW25168   4.561   1.934   6.871
 8090SOL    HW125169   4.560   1.889   6.781
 8090SOL    HW225170   4.498   1.887   6.932
 8091SOL     OW25171   2.543   3.608   6.064
 8091SOL    HW125172   2.467   3.544   6.075
 8091SOL    HW225173   2.603   3.604   6.143
 8092SOL     OW25174   7.022   2.808   5.132
 8092SOL    HW125175   0.018   2.751   5.212
 8092SOL    HW225176   0.064   2.884   5.129
 8093SOL     OW25177   4.827   5.053   2.697
 8093SOL    HW125178   4.773   4.995   2.758
 8093SOL    HW225179   4.782   5.142   2.688
 8094SOL     OW25180   1.614   3.539   5.038
 8094SOL    HW125181   1.683   3.495   4.980
 8094SOL    HW225182   1.523   3.508   5.012
 8095SOL     OW25183   6.519   4.383   5.345
 8095SOL    HW125184   6.528   4.403   5.442
 8095SOL    HW225185   6.539   4.465   5.291
 8096SOL     OW25186   2.704   5.897   3.767
 8096SOL    HW125187   2.712   5.989   3.804
 8096SOL    HW225188   2.725   5.829   3.838
 8097SOL     OW25189   4.705   6.758   3.880
 8097SOL    HW125190   4.764   6.679   3.897
 8097SOL    HW225191   4.746   6.840   3.921
 8098SOL     OW25192   1.935   6.748   3.930
 8098SOL    HW125193   1.902   6.688   3.856
 8098SOL    HW225194   1.888   6.724   4.014
 8099SOL     OW25195   4.284   0.550   4.070
 8099SOL    HW125196   4.257   0.455   4.085
 8099SOL    HW225197   4.313   0.591   4.156
 8100SOL     OW25198   5.804   6.867   0.359
 8100SOL    HW125199   5.869   6.849   0.433
 8100SOL    HW225200   5.771   6.962   0.367
 8101SOL     OW25201   2.046   0.240   3.663
 8101SOL    HW125202   1.977   0.186   3.713
 8101SOL    HW225203   2.013   0.258   3.570
 8102SOL     OW25204   0.712   5.154   4.135
 8102SOL    HW125205   0.771   5.075   4.150
 8102SOL    HW225206   0.629   5.144   4.190
 8103SOL     OW25207   4.366   0.591   1.353
 8103SOL    HW125208   4.421   0.572   1.272
 8103SOL    HW225209   4.318   0.677   1.341
 8104SOL     OW25210   2.964   0.380   6.273
 8104SOL    HW125211   3.012   0.343   6.193
 8104SOL    HW225212   2.986   0.325   6.353
 8105SOL     OW25213   0.798   2.290   3.644
 8105SOL    HW125214   0.711   2.323   3.606
 8105SOL    HW225215   0.868   2.360   3.632
 8106SOL     OW25216   1.977   6.236   2.840
 8106SOL    HW125217   2.045   6.184   2.788
 8106SOL    HW225218   1.991   6.220   2.937
 8107SOL     OW25219   0.429   5.773   4.806
 8107SOL    HW125220   0.367   5.701   4.836
 8107SOL    HW225221   0.524   5.745   4.822
 8108SOL     OW25222   6.273   3.141   5.247
 8108SOL    HW125223   6.255   3.203   5.171
 8108SOL    HW225224   6.371   3.144   5.270
 8109SOL     OW25225   1.965   3.691   4.288
 8109SOL    HW125226   2.007   3.733   4.208
 8109SOL    HW225227   2.005   3.730   4.371
 8110SOL     OW25228   2.951   6.380   0.633
 8110SOL    HW125229   2.907   6.451   0.688
 8110SOL    HW225230   2.900   6.368   0.547
 8111SOL     OW25231   3.843   0.760   4.576
 8111SOL    HW125232   3.748   0.732   4.558
 8111SOL    HW225233   3.851   0.791   4.671
 8112SOL     OW25234   2.321   2.397   4.514
 8112SOL    HW125235   2.329   2.365   4.420
 8112SOL    HW225236   2.391   2.466   4.532
 8113SOL     OW25237   3.217   3.275   1.083
 8113SOL    HW125238   3.136   3.330   1.104
 8113SOL    HW225239   3.297   3.314   1.128
 8114SOL     OW25240   2.313   3.774   1.765
 8114SOL    HW125241   2.236   3.773   1.702
 8114SOL    HW225242   2.295   3.711   1.841
 8115SOL     OW25243   3.328   0.231   0.331
 8115SOL    HW125244   3.330   0.240   0.231
 8115SOL    HW225245   3.246   0.181   0.358
 8116SOL     OW25246   4.660   6.095   5.444
 8116SOL    HW125247   4.614   6.132   5.525
 8116SOL    HW225248   4.626   6.003   5.424
 8117SOL     OW25249   1.822   1.238   4.225
 8117SOL    HW125250   1.864   1.328   4.233
 8117SOL    HW225251   1.887   1.168   4.254
 8118SOL     OW25252   5.758   3.517   5.839
 8118SOL    HW125253   5.802   3.586   5.897
 8118SOL    HW225254   5.755   3.430   5.889
 8119SOL     OW25255   6.433   6.196   5.158
 8119SOL    HW125256   6.379   6.125   5.113
 8119SOL    HW225257   6.385   6.283   5.150
 8120SOL     OW25258   2.444   4.598   6.801
 8120SOL    HW125259   2.457   4.516   6.857
 8120SOL    HW225260   2.524   4.612   6.743
 8121SOL     OW25261   0.393   4.797   1.472
 8121SOL    HW125262   0.351   4.888   1.463
 8121SOL    HW225263   0.338   4.730   1.423
 8122SOL     OW25264   1.748   5.675   2.154
 8122SOL    HW125265   1.701   5.738   2.093
 8122SOL    HW225266   1.831   5.641   2.110
 8123SOL     OW25267   6.839   0.105   6.841
 8123SOL    HW125268   6.744   0.093   6.870
 8123SOL    HW225269   6.901   0.075   6.914
 8124SOL     OW25270   7.003   6.174   0.937
 8124SOL    HW125271   6.912   6.206   0.963
 8124SOL    HW225272   0.014   6.111   1.007
 8125SOL     OW25273   1.312   1.010   3.657
 8125SOL    HW125274   1.360   0.933   3.613
 8125SOL    HW225275   1.375   1.056   3.720
 8126SOL     OW25276   5.770   4.672   2.710
 8126SOL    HW125277   5.692   4.628   2.756
 8126SOL    HW225278   5.854   4.625   2.735
 8127SOL     OW25279   3.098   6.495   6.723
 8127SOL    HW125280   3.015   6.441   6.711
 8127SOL    HW225281   3.097   6.572   6.659
 8128SOL     OW25282   3.013   2.660   1.356
 8128SOL    HW125283   3.046   2.754   1.360
 8128SOL    HW225284   2.968   2.637   1.443
 8129SOL     OW25285   4.409   0.712   5.698
 8129SOL    HW125286   4.337   0.761   5.748
 8129SOL    HW225287   4.382   0.616   5.686
 8130SOL     OW25288   0.033   4.073   7.010
 8130SOL    HW125289   7.017   3.980   7.015
 8130SOL    HW225290   0.023   4.118   0.076
 8131SOL     OW25291   3.619   1.552   0.835
 8131SOL    HW125292   3.665   1.606   0.765
 8131SOL    HW225293   3.533   1.597   0.861
 8132SOL     OW25294   5.444   6.208   6.491
 8132SOL    HW125295   5.525   6.263   6.474
 8132SOL    HW225296   5.375   6.263   6.538
 8133SOL     OW25297   2.919   4.818   1.628
 8133SOL    HW125298   2.822   4.810   1.653
 8133SOL    HW225299   2.972   4.842   1.710
 8134SOL     OW25300   1.058   2.353   5.204
 8134SOL    HW125301   1.136   2.307   5.246
 8134SOL    HW225302   0.983   2.356   5.270
 8135SOL     OW25303   2.110   5.846   0.687
 8135SOL    HW125304   2.017   5.880   0.699
 8135SOL    HW225305   2.112   5.747   0.703
 8136SOL     OW25306   5.111   4.973   2.890
 8136SOL    HW125307   5.187   5.018   2.936
 8136SOL    HW225308   5.139   4.944   2.799
 8137SOL     OW25309   2.962   1.071   4.636
 8137SOL    HW125310   2.944   1.150   4.578
 8137SOL    HW225311   3.058   1.071   4.663
 8138SOL     OW25312   5.470   2.159   0.420
 8138SOL    HW125313   5.459   2.060   0.416
 8138SOL    HW225314   5.506   2.185   0.510
 8139SOL     OW25315   1.613   1.642   4.276
 8139SOL    HW125316   1.625   1.601   4.185
 8139SOL    HW225317   1.629   1.572   4.346
 8140SOL     OW25318   4.413   6.907   0.689
 8140SOL    HW125319   4.346   6.971   0.727
 8140SOL    HW225320   4.368   6.845   0.625
 8141SOL     OW25321   4.581   6.732   5.233
 8141SOL    HW125322   4.618   6.689   5.316
 8141SOL    HW225323   4.504   6.678   5.199
 8142SOL     OW25324   1.658   5.131   0.218
 8142SOL    HW125325   1.648   5.032   0.226
 8142SOL    HW225326   1.751   5.153   0.189
 8143SOL     OW25327   6.448   4.899   0.398
 8143SOL    HW125328   6.541   4.863   0.391
 8143SOL    HW225329   6.450   4.998   0.381
 8144SOL     OW25330   0.459   6.654   6.056
 8144SOL    HW125331   0.415   6.585   6.114
 8144SOL    HW225332   0.550   6.621   6.029
 8145SOL     OW25333   6.029   5.167   0.749
 8145SOL    HW125334   6.050   5.155   0.847
 8145SOL    HW225335   5.977   5.089   0.716
 8146SOL     OW25336   5.662   0.713   5.451
 8146SOL    HW125337   5.562   0.716   5.447
 8146SOL    HW225338   5.696   0.640   5.392
 8147SOL     OW25339   6.568   0.886   1.910
 8147SOL    HW125340   6.637   0.958   1.905
 8147SOL    HW225341   6.477   0.927   1.922
 8148SOL     OW25342   5.415   4.904   0.934
 8148SOL    HW125343   5.483   4.975   0.953
 8148SOL    HW225344   5.355   4.935   0.860
 8149SOL     OW25345   2.295   6.508   3.450
 8149SOL    HW125346   2.197   6.531   3.450
 8149SOL    HW225347   2.329   6.512   3.544
 8150SOL     OW25348   2.167   3.613   0.673
 8150SOL    HW125349   2.204   3.579   0.586
 8150SOL    HW225350   2.095   3.680   0.654
 8151SOL     OW25351   5.960   4.836   3.032
 8151SOL    HW125352   5.967   4.909   3.100
 8151SOL    HW225353   5.884   4.776   3.055
 8152SOL     OW25354   6.366   3.121   3.181
 8152SOL    HW125355   6.375   3.042   3.241
 8152SOL    HW225356   6.305   3.188   3.224
 8153SOL     OW25357   0.649   1.805   3.819
 8153SOL    HW125358   0.718   1.830   3.752
 8153SOL    HW225359   0.582   1.744   3.777
 8154SOL     OW25360   3.449   6.065   2.333
 8154SOL    HW125361   3.459   5.982   2.388
 8154SOL    HW225362   3.384   6.049   2.259
 8155SOL     OW25363   1.446   3.248   1.961
 8155SOL    HW125364   1.391   3.171   1.994
 8155SOL    HW225365   1.508   3.278   2.033
 8156SOL     OW25366   4.611   6.247   0.609
 8156SOL    HW125367   4.601   6.284   0.517
 8156SOL    HW225368   4.576   6.154   0.613
 8157SOL     OW25369   6.770   4.895   5.869
 8157SOL    HW125370   6.790   4.841   5.787
 8157SOL    HW225371   6.840   4.966   5.879
 8158SOL     OW25372   4.801   4.130   0.359
 8158SOL    HW125373   4.753   4.079   0.286
 8158SOL    HW225374   4.883   4.172   0.321
 8159SOL     OW25375   2.733   5.407   3.102
 8159SOL    HW125376   2.633   5.418   3.101
 8159SOL    HW225377   2.757   5.318   3.064
 8160SOL     OW25378   5.332   0.651   3.962
 8160SOL    HW125379   5.366   0.558   3.946
 8160SOL    HW225380   5.379   0.690   4.041
 8161SOL     OW25381   6.258   3.057   6.471
 8161SOL    HW125382   6.249   3.075   6.373
 8161SOL    HW225383   6.236   3.141   6.522
 8162SOL     OW25384   5.760   6.674   6.657
 8162SOL    HW125385   5.737   6.577   6.647
 8162SOL    HW225386   5.841   6.683   6.715
 8163SOL     OW25387   2.599   4.675   5.108
 8163SOL    HW125388   2.580   4.609   5.181
 8163SOL    HW225389   2.697   4.674   5.086
 8164SOL     OW25390   5.194   2.580   0.289
 8164SOL    HW125391   5.241   2.666   0.266
 8164SOL    HW225392   5.233   2.506   0.235
 8165SOL     OW25393   0.247   3.907   5.867
 8165SOL    HW125394   0.330   3.884   5.817
 8165SOL    HW225395   0.171   3.853   5.832
 8166SOL     OW25396   1.229   0.681   3.840
 8166SOL    HW125397   1.244   0.582   3.837
 8166SOL    HW225398   1.298   0.724   3.898
 8167SOL     OW25399   6.908   0.713   3.765
 8167SOL    HW125400   6.883   0.654   3.841
 8167SOL    HW225401   6.990   0.765   3.789
 8168SOL     OW25402   2.985   1.622   2.039
 8168SOL    HW125403   3.081   1.641   2.059
 8168SOL    HW225404   2.979   1.544   1.976
 8169SOL     OW25405   4.741   2.033   0.256
 8169SOL    HW125406   4.663   2.086   0.289
 8169SOL    HW225407   4.812   2.031   0.327
 8170SOL     OW25408   1.299   5.544   1.961
 8170SOL    HW125409   1.201   5.565   1.957
 8170SOL    HW225410   1.314   5.470   2.027
 8171SOL     OW25411   1.746   2.064   6.191
 8171SOL    HW125412   1.737   2.047   6.093
 8171SOL    HW225413   1.802   1.992   6.233
 8172SOL     OW25414   0.288   1.751   2.761
 8172SOL    HW125415   0.344   1.688   2.707
 8172SOL    HW225416   0.293   1.725   2.858
 8173SOL     OW25417   5.465   1.926   1.840
 8173SOL    HW125418   5.488   2.010   1.890
 8173SOL    HW225419   5.366   1.915   1.837
 8174SOL     OW25420   6.618   1.080   2.348
 8174SOL    HW125421   6.665   0.992   2.341
 8174SOL    HW225422   6.559   1.080   2.429
 8175SOL     OW25423   0.494   3.400   6.248
 8175SOL    HW125424   0.538   3.459   6.180
 8175SOL    HW225425   0.397   3.422   6.254
 8176SOL     OW25426   2.295   5.073   1.336
 8176SOL    HW125427   2.243   5.048   1.417
 8176SOL    HW225428   2.232   5.097   1.262
 8177SOL     OW25429   3.517   0.089   3.632
 8177SOL    HW125430   3.510   0.124   3.725
 8177SOL    HW225431   3.427   0.094   3.588
 8178SOL     OW25432   3.069   6.920   0.620
 8178SOL    HW125433   2.994   6.879   0.672
 8178SOL    HW225434   3.138   6.954   0.684
 8179SOL     OW25435   4.623   1.521   4.243
 8179SOL    HW125436   4.718   1.543   4.265
 8179SOL    HW225437   4.597   1.568   4.158
 8180SOL     OW25438   6.377   1.063   5.601
 8180SOL    HW125439   6.352   1.039   5.507
 8180SOL    HW225440   6.304   1.117   5.642
 8181SOL     OW25441   1.377   1.740   0.459
 8181SOL    HW125442   1.344   1.834   0.458
 8181SOL    HW225443   1.303   1.678   0.430
 8182SOL     OW25444   3.148   3.389   5.840
 8182SOL    HW125445   3.124   3.319   5.907
 8182SOL    HW225446   3.135   3.353   5.748
 8183SOL     OW25447   6.396   2.453   4.944
 8183SOL    HW125448   6.433   2.361   4.956
 8183SOL    HW225449   6.297   2.449   4.939
 8184SOL     OW25450   6.343   0.318   0.510
 8184SOL    HW125451   6.299   0.407   0.524
 8184SOL    HW225452   6.413   0.304   0.580
 8185SOL     OW25453   1.849   0.047   6.935
 8185SOL    HW125454   1.866   7.006   6.860
 8185SOL    HW225455   1.921   0.038   7.004
 8186SOL     OW25456   3.768   4.613   5.341
 8186SOL    HW125457   3.698   4.684   5.341
 8186SOL    HW225458   3.728   4.527   5.308
 8187SOL     OW25459   2.387   1.598   5.279
 8187SOL    HW125460   2.317   1.605   5.208
 8187SOL    HW225461   2.473   1.568   5.238
 8188SOL     OW25462   5.381   2.924   3.456
 8188SOL    HW125463   5.467   2.971   3.477
 8188SOL    HW225464   5.304   2.988   3.468
 8189SOL     OW25465   5.234   5.135   3.100
 8189SOL    HW125466   5.323   5.169   3.071
 8189SOL    HW225467   5.164   5.204   3.080
 8190SOL     OW25468   5.184   4.413   4.422
 8190SOL    HW125469   5.240   4.399   4.340
 8190SOL    HW225470   5.087   4.417   4.396
 8191SOL     OW25471   3.777   6.244   1.771
 8191SOL    HW125472   3.754   6.172   1.706
 8191SOL    HW225473   3.715   6.239   1.849
 8192SOL     OW25474   3.347   5.403   0.583
 8192SOL    HW125475   3.411   5.355   0.523
 8192SOL    HW225476   3.261   5.418   0.534
 8193SOL     OW25477   6.635   6.049   5.754
 8193SOL    HW125478   6.614   5.951   5.759
 8193SOL    HW225479   6.664   6.071   5.661
 8194SOL     OW25480   4.939   2.431   1.080
 8194SOL    HW125481   4.845   2.400   1.070
 8194SOL    HW225482   4.944   2.499   1.153
 8195SOL     OW25483   1.451   7.015   3.109
 8195SOL    HW125484   1.404   0.081   3.106
 8195SOL    HW225485   1.540   0.003   3.152
 8196SOL     OW25486   4.074   5.818   5.825
 8196SOL    HW125487   4.163   5.795   5.787
 8196SOL    HW225488   4.043   5.746   5.886
 8197SOL     OW25489   4.626   1.746   0.241
 8197SOL    HW125490   4.679   1.830   0.250
 8197SOL    HW225491   4.636   1.691   0.324
 8198SOL     OW25492   2.934   6.606   2.821
 8198SOL    HW125493   2.984   6.539   2.876
 8198SOL    HW225494   2.922   6.572   2.728
 8199SOL     OW25495   5.764   3.120   6.237
 8199SOL    HW125496   5.823   3.039   6.230
 8199SOL    HW225497   5.767   3.155   6.330
 8200SOL     OW25498   5.714   5.034   1.648
 8200SOL    HW125499   5.692   4.940   1.674
 8200SOL    HW225500   5.799   5.062   1.692
 8201SOL     OW25501   5.731   0.948   3.853
 8201SOL    HW125502   5.660   0.993   3.907
 8201SOL    HW225503   5.812   0.934   3.909
 8202SOL     OW25504   0.333   5.777   4.153
 8202SOL    HW125505   0.430   5.769   4.173
 8202SOL    HW225506   0.286   5.692   4.179
 8203SOL     OW25507   3.942   2.676   6.759
 8203SOL    HW125508   3.897   2.630   6.836
 8203SOL    HW225509   4.041   2.675   6.773
 8204SOL     OW25510   3.401   5.150   6.899
 8204SOL    HW125511   3.388   5.155   6.800
 8204SOL    HW225512   3.379   5.058   6.931
 8205SOL     OW25513   0.623   4.857   0.735
 8205SOL    HW125514   0.712   4.901   0.724
 8205SOL    HW225515   0.629   4.761   0.709
 8206SOL     OW25516   5.035   2.282   6.495
 8206SOL    HW125517   5.026   2.192   6.451
 8206SOL    HW225518   5.129   2.296   6.524
 8207SOL     OW25519   3.050   3.853   3.933
 8207SOL    HW125520   3.058   3.929   3.868
 8207SOL    HW225521   3.141   3.820   3.957
 8208SOL     OW25522   1.841   0.146   1.477
 8208SOL    HW125523   1.927   0.145   1.527
 8208SOL    HW225524   1.789   0.228   1.502
 8209SOL     OW25525   0.397   1.394   5.299
 8209SOL    HW125526   0.464   1.339   5.248
 8209SOL    HW225527   0.420   1.391   5.397
 8210SOL     OW25528   2.297   1.208   1.625
 8210SOL    HW125529   2.206   1.201   1.583
 8210SOL    HW225530   2.326   1.304   1.624
 8211SOL     OW25531   3.906   4.248   1.607
 8211SOL    HW125532   3.820   4.285   1.641
 8211SOL    HW225533   3.891   4.158   1.567
 8212SOL     OW25534   2.177   1.592   2.017
 8212SOL    HW125535   2.115   1.577   2.093
 8212SOL    HW225536   2.238   1.513   2.008
 8213SOL     OW25537   6.867   4.404   2.714
 8213SOL    HW125538   6.886   4.433   2.807
 8213SOL    HW225539   6.907   4.313   2.699
 8214SOL     OW25540   6.364   5.489   5.158
 8214SOL    HW125541   6.455   5.495   5.119
 8214SOL    HW225542   6.321   5.402   5.131
 8215SOL     OW25543   2.597   5.931   6.391
 8215SOL    HW125544   2.532   5.857   6.373
 8215SOL    HW225545   2.559   5.992   6.461
 8216SOL     OW25546   5.172   5.314   3.749
 8216SOL    HW125547   5.187   5.406   3.711
 8216SOL    HW225548   5.259   5.265   3.753
 8217SOL     OW25549   1.660   3.579   0.409
 8217SOL    HW125550   1.616   3.623   0.488
 8217SOL    HW225551   1.636   3.482   0.407
 8218SOL     OW25552   0.155   6.941   5.276
 8218SOL    HW125553   0.232   7.004   5.269
 8218SOL    HW225554   0.069   6.990   5.261
 8219SOL     OW25555   3.889   3.532   0.436
 8219SOL    HW125556   3.871   3.507   0.341
 8219SOL    HW225557   3.968   3.593   0.440
 8220SOL     OW25558   2.918   3.624   3.912
 8220SOL    HW125559   2.913   3.589   4.005
 8220SOL    HW225560   2.944   3.720   3.914
 8221SOL     OW25561   6.018   6.377   3.493
 8221SOL    HW125562   6.044   6.323   3.413
 8221SOL    HW225563   5.956   6.450   3.464
 8222SOL     OW25564   5.389   1.409   1.092
 8222SOL    HW125565   5.358   1.427   0.998
 8222SOL    HW225566   5.351   1.323   1.123
 8223SOL     OW25567   0.740   4.278   5.305
 8223SOL    HW125568   0.710   4.260   5.212
 8223SOL    HW225569   0.839   4.262   5.312
 8224SOL     OW25570   5.403   1.821   2.220
 8224SOL    HW125571   5.448   1.785   2.139
 8224SOL    HW225572   5.317   1.864   2.193
 8225SOL     OW25573   3.367   1.771   1.204
 8225SOL    HW125574   3.363   1.871   1.203
 8225SOL    HW225575   3.283   1.734   1.242
 8226SOL     OW25576   3.861   6.594   0.276
 8226SOL    HW125577   3.941   6.580   0.219
 8226SOL    HW225578   3.796   6.519   0.260
 8227SOL     OW25579   0.571   1.082   2.431
 8227SOL    HW125580   0.482   1.122   2.409
 8227SOL    HW225581   0.559   0.985   2.452
 8228SOL     OW25582   6.696   1.830   6.135
 8228SOL    HW125583   6.730   1.769   6.063
 8228SOL    HW225584   6.737   1.920   6.125
 8229SOL     OW25585   4.573   3.447   0.708
 8229SOL    HW125586   4.640   3.507   0.750
 8229SOL    HW225587   4.504   3.420   0.776
 8230SOL     OW25588   3.408   0.430   4.926
 8230SOL    HW125589   3.498   0.472   4.909
 8230SOL    HW225590   3.379   0.381   4.844
 8231SOL     OW25591   2.956   3.307   1.220
 8231SOL    HW125592   2.899   3.379   1.260
 8231SOL    HW225593   2.899   3.227   1.201
 8232SOL     OW25594   4.270   2.222   1.637
 8232SOL    HW125595   4.314   2.293   1.581
 8232SOL    HW225596   4.296   2.132   1.603
 8233SOL     OW25597   0.736   6.554   5.971
 8233SOL    HW125598   0.802   6.625   5.994
 8233SOL    HW225599   0.780   6.464   5.975
 8234SOL     OW25600   2.835   3.248   6.484
 8234SOL    HW125601   2.885   3.221   6.566
 8234SOL    HW225602   2.882   3.326   6.440
 8235SOL     OW25603   0.643   2.555   0.251
 8235SOL    HW125604   0.690   2.633   0.210
 8235SOL    HW225605   0.657   2.474   0.193
 8236SOL     OW25606   0.678   4.541   0.728
 8236SOL    HW125607   0.733   4.460   0.705
 8236SOL    HW225608   0.600   4.513   0.783
 8237SOL     OW25609   5.035   6.353   5.614
 8237SOL    HW125610   5.077   6.423   5.555
 8237SOL    HW225611   5.083   6.351   5.701
 8238SOL     OW25612   0.702   5.330   6.398
 8238SOL    HW125613   0.622   5.341   6.457
 8238SOL    HW225614   0.674   5.291   6.311
 8239SOL     OW25615   0.393   1.063   5.705
 8239SOL    HW125616   0.387   0.991   5.774
 8239SOL    HW225617   0.489   1.080   5.682
 8240SOL     OW25618   3.818   3.754   2.431
 8240SOL    HW125619   3.767   3.782   2.512
 8240SOL    HW225620   3.856   3.835   2.387
 8241SOL     OW25621   3.679   6.364   5.855
 8241SOL    HW125622   3.779   6.365   5.853
 8241SOL    HW225623   3.646   6.448   5.899
 8242SOL     OW25624   0.397   4.157   6.449
 8242SOL    HW125625   0.394   4.139   6.351
 8242SOL    HW225626   0.306   4.143   6.488
 8243SOL     OW25627   0.336   3.157   0.544
 8243SOL    HW125628   0.246   3.192   0.519
 8243SOL    HW225629   0.337   3.058   0.536
 8244SOL     OW25630   0.420   1.011   4.222
 8244SOL    HW125631   0.410   0.934   4.286
 8244SOL    HW225632   0.498   0.996   4.163
 8245SOL     OW25633   4.019   2.122   2.193
 8245SOL    HW125634   3.923   2.094   2.195
 8245SOL    HW225635   4.042   2.170   2.277
 8246SOL     OW25636   1.067   3.515   5.862
 8246SOL    HW125637   1.097   3.522   5.767
 8246SOL    HW225638   1.048   3.606   5.898
 8247SOL     OW25639   1.905   0.660   2.899
 8247SOL    HW125640   1.826   0.678   2.840
 8247SOL    HW225641   1.928   0.563   2.895
 8248SOL     OW25642   6.933   4.933   4.759
 8248SOL    HW125643   6.953   5.000   4.831
 8248SOL    HW225644   6.933   4.980   4.670
 8249SOL     OW25645   1.850   2.430   5.772
 8249SOL    HW125646   1.844   2.435   5.871
 8249SOL    HW225647   1.821   2.517   5.732
 8250SOL     OW25648   2.741   3.115   1.461
 8250SOL    HW125649   2.672   3.151   1.522
 8250SOL    HW225650   2.822   3.088   1.514
 8251SOL     OW25651   4.817   3.093   4.518
 8251SOL    HW125652   4.841   3.142   4.602
 8251SOL    HW225653   4.718   3.079   4.516
 8252SOL     OW25654   3.430   1.405   5.867
 8252SOL    HW125655   3.501   1.341   5.896
 8252SOL    HW225656   3.388   1.448   5.947
 8253SOL     OW25657   4.703   5.417   5.829
 8253SOL    HW125658   4.616   5.367   5.832
 8253SOL    HW225659   4.687   5.513   5.853
 8254SOL     OW25660   4.488   4.351   5.365
 8254SOL    HW125661   4.572   4.296   5.367
 8254SOL    HW225662   4.409   4.292   5.378
 8255SOL     OW25663   1.867   6.989   5.171
 8255SOL    HW125664   1.837   6.956   5.082
 8255SOL    HW225665   1.792   6.984   5.236
 8256SOL     OW25666   6.879   5.933   1.725
 8256SOL    HW125667   6.937   5.852   1.715
 8256SOL    HW225668   6.820   5.941   1.644
 8257SOL     OW25669   5.465   4.191   2.737
 8257SOL    HW125670   5.449   4.144   2.651
 8257SOL    HW225671   5.477   4.124   2.811
 8258SOL     OW25672   5.293   3.014   1.033
 8258SOL    HW125673   5.199   2.990   1.008
 8258SOL    HW225674   5.346   2.930   1.050
 8259SOL     OW25675   3.810   1.780   4.697
 8259SOL    HW125676   3.805   1.837   4.779
 8259SOL    HW225677   3.768   1.829   4.620
 8260SOL     OW25678   2.181   0.040   0.972
 8260SOL    HW125679   2.163   0.117   1.033
 8260SOL    HW225680   2.163   0.068   0.878
 8261SOL     OW25681   5.368   6.659   1.999
 8261SOL    HW125682   5.446   6.661   1.936
 8261SOL    HW225683   5.358   6.567   2.037
 8262SOL     OW25684   0.774   2.780   0.186
 8262SOL    HW125685   0.870   2.753   0.193
 8262SOL    HW225686   0.766   2.878   0.205
 8263SOL     OW25687   0.138   2.523   6.047
 8263SOL    HW125688   0.077   2.521   6.126
 8263SOL    HW225689   0.104   2.592   5.982
 8264SOL     OW25690   1.891   5.896   1.409
 8264SOL    HW125691   1.840   5.835   1.348
 8264SOL    HW225692   1.988   5.873   1.406
 8265SOL     OW25693   6.679   0.925   1.048
 8265SOL    HW125694   6.691   0.826   1.036
 8265SOL    HW225695   6.628   0.962   0.970
 8266SOL     OW25696   2.369   1.246   4.469
 8266SOL    HW125697   2.338   1.151   4.468
 8266SOL    HW225698   2.347   1.288   4.557
 8267SOL     OW25699   1.936   3.493   1.233
 8267SOL    HW125700   1.853   3.447   1.201
 8267SOL    HW225701   1.931   3.508   1.331
 8268SOL     OW25702   2.260   6.594   6.150
 8268SOL    HW125703   2.191   6.571   6.218
 8268SOL    HW225704   2.307   6.511   6.120
 8269SOL     OW25705   4.339   1.294   1.956
 8269SOL    HW125706   4.300   1.304   2.047
 8269SOL    HW225707   4.437   1.276   1.963
 8270SOL     OW25708   3.334   6.303   4.799
 8270SOL    HW125709   3.393   6.255   4.734
 8270SOL    HW225710   3.359   6.277   4.892
 8271SOL     OW25711   0.386   6.974   3.174
 8271SOL    HW125712   0.441   0.024   3.133
 8271SOL    HW225713   0.446   6.903   3.211
 8272SOL     OW25714   6.665   1.626   3.015
 8272SOL    HW125715   6.635   1.659   2.925
 8272SOL    HW225716   6.765   1.616   3.015
 8273SOL     OW25717   2.197   1.230   1.277
 8273SOL    HW125718   2.266   1.165   1.308
 8273SOL    HW225719   2.130   1.245   1.350
 8274SOL     OW25720   4.524   5.254   4.260
 8274SOL    HW125721   4.517   5.177   4.196
 8274SOL    HW225722   4.569   5.331   4.215
 8275SOL     OW25723   5.722   0.958   4.337
 8275SOL    HW125724   5.767   0.892   4.397
 8275SOL    HW225725   5.721   0.923   4.243
 8276SOL     OW25726   0.294   2.280   4.630
 8276SOL    HW125727   0.386   2.317   4.616
 8276SOL    HW225728   0.290   2.186   4.595
 8277SOL     OW25729   0.987   6.163   6.276
 8277SOL    HW125730   0.920   6.234   6.296
 8277SOL    HW225731   0.990   6.098   6.352
 8278SOL     OW25732   3.458   1.058   6.668
 8278SOL    HW125733   3.414   0.970   6.650
 8278SOL    HW225734   3.436   1.088   6.761
 8279SOL     OW25735   0.815   6.406   4.509
 8279SOL    HW125736   0.797   6.471   4.583
 8279SOL    HW225737   0.744   6.336   4.507
 8280SOL     OW25738   2.732   2.672   0.445
 8280SOL    HW125739   2.645   2.669   0.494
 8280SOL    HW225740   2.726   2.613   0.365
 8281SOL     OW25741   2.321   4.192   1.614
 8281SOL    HW125742   2.311   4.291   1.623
 8281SOL    HW225743   2.343   4.170   1.519
 8282SOL     OW25744   4.668   3.962   0.168
 8282SOL    HW125745   4.651   3.875   0.213
 8282SOL    HW225746   4.591   3.984   0.108
 8283SOL     OW25747   1.319   4.985   5.251
 8283SOL    HW125748   1.276   5.064   5.295
 8283SOL    HW225749   1.411   5.011   5.220
 8284SOL     OW25750   1.041   3.688   1.546
 8284SOL    HW125751   0.948   3.653   1.535
 8284SOL    HW225752   1.081   3.652   1.630
 8285SOL     OW25753   3.445   4.112   4.825
 8285SOL    HW125754   3.510   4.059   4.880
 8285SOL    HW225755   3.366   4.136   4.881
 8286SOL     OW25756   5.308   1.890   4.951
 8286SOL    HW125757   5.306   1.977   4.901
 8286SOL    HW225758   5.397   1.878   4.994
 8287SOL     OW25759   1.101   4.833   4.590
 8287SOL    HW125760   1.035   4.789   4.529
 8287SOL    HW225761   1.185   4.852   4.540
 8288SOL     OW25762   2.850   2.241   2.274
 8288SOL    HW125763   2.878   2.147   2.294
 8288SOL    HW225764   2.873   2.265   2.180
 8289SOL     OW25765   0.652   6.618   6.385
 8289SOL    HW125766   0.598   6.694   6.347
 8289SOL    HW225767   0.609   6.585   6.469
 8290SOL     OW25768   5.406   1.803   1.012
 8290SOL    HW125769   5.370   1.734   0.948
 8290SOL    HW225770   5.367   1.892   0.990
 8291SOL     OW25771   4.571   5.395   4.971
 8291SOL    HW125772   4.547   5.483   4.930
 8291SOL    HW225773   4.663   5.369   4.942
 8292SOL     OW25774   3.084   6.546   6.326
 8292SOL    HW125775   3.023   6.475   6.361
 8292SOL    HW225776   3.127   6.594   6.402
 8293SOL     OW25777   1.866   5.368   0.884
 8293SOL    HW125778   1.911   5.281   0.864
 8293SOL    HW225779   1.788   5.380   0.822
 8294SOL     OW25780   5.918   3.941   5.524
 8294SOL    HW125781   5.916   3.922   5.623
 8294SOL    HW225782   6.004   3.986   5.501
 8295SOL     OW25783   4.890   4.708   1.752
 8295SOL    HW125784   4.945   4.779   1.796
 8295SOL    HW225785   4.948   4.655   1.690
 8296SOL     OW25786   2.001   4.874   6.909
 8296SOL    HW125787   2.051   4.850   6.825
 8296SOL    HW225788   2.058   4.934   6.965
 8297SOL     OW25789   0.017   3.098   2.985
 8297SOL    HW125790   0.016   3.168   2.914
 8297SOL    HW225791   0.049   3.138   3.071
 8298SOL     OW25792   6.271   1.812   1.079
 8298SOL    HW125793   6.240   1.770   1.164
 8298SOL    HW225794   6.303   1.740   1.017
 8299SOL     OW25795   0.687   2.358   2.538
 8299SOL    HW125796   0.756   2.368   2.610
 8299SOL    HW225797   0.652   2.264   2.537
 8300SOL     OW25798   0.004   5.612   3.736
 8300SOL    HW125799   0.065   5.592   3.659
 8300SOL    HW225800   6.950   5.548   3.736
 8301SOL     OW25801   3.870   1.234   0.401
 8301SOL    HW125802   3.774   1.249   0.426
 8301SOL    HW225803   3.911   1.169   0.465
 8302SOL     OW25804   5.698   0.068   6.493
 8302SOL    HW125805   5.713   0.153   6.543
 8302SOL    HW225806   5.703   7.013   6.555
 8303SOL     OW25807   6.038   0.690   3.796
 8303SOL    HW125808   5.993   0.763   3.846
 8303SOL    HW225809   6.082   0.728   3.715
 8304SOL     OW25810   5.808   3.124   1.393
 8304SOL    HW125811   5.879   3.144   1.461
 8304SOL    HW225812   5.805   3.197   1.325
 8305SOL     OW25813   4.855   4.362   3.638
 8305SOL    HW125814   4.788   4.354   3.563
 8305SOL    HW225815   4.821   4.426   3.706
 8306SOL     OW25816   5.236   1.575   4.198
 8306SOL    HW125817   5.309   1.642   4.215
 8306SOL    HW225818   5.241   1.503   4.266
 8307SOL     OW25819   3.174   5.114   1.793
 8307SOL    HW125820   3.147   5.135   1.700
 8307SOL    HW225821   3.242   5.041   1.793
 8308SOL     OW25822   2.083   5.228   0.546
 8308SOL    HW125823   2.160   5.290   0.563
 8308SOL    HW225824   2.101   5.175   0.463
 8309SOL     OW25825   6.521   5.837   3.234
 8309SOL    HW125826   6.446   5.894   3.268
 8309SOL    HW225827   6.559   5.877   3.151
 8310SOL     OW25828   0.680   5.650   1.394
 8310SOL    HW125829   0.708   5.621   1.485
 8310SOL    HW225830   0.761   5.679   1.342
 8311SOL     OW25831   7.013   2.450   5.660
 8311SOL    HW125832   6.990   2.404   5.574
 8311SOL    HW225833   0.089   2.463   5.665
 8312SOL     OW25834   4.315   0.554   0.327
 8312SOL    HW125835   4.254   0.555   0.249
 8312SOL    HW225836   4.381   0.479   0.318
 8313SOL     OW25837   5.369   6.967   7.012
 8313SOL    HW125838   5.458   6.982   6.969
 8313SOL    HW225839   5.296   6.982   6.945
 8314SOL     OW25840   5.595   6.718   0.033
 8314SOL    HW125841   5.513   6.774   0.047
 8314SOL    HW225842   5.581   6.658   6.976
 8315SOL     OW25843   3.899   3.356   1.717
 8315SOL    HW125844   3.840   3.278   1.738
 8315SOL    HW225845   3.850   3.441   1.734
 8316SOL     OW25846   1.555   2.343   2.041
 8316SOL    HW125847   1.541   2.431   1.996
 8316SOL    HW225848   1.651   2.316   2.031
 8317SOL     OW25849   1.405   2.407   2.488
 8317SOL    HW125850   1.402   2.505   2.508
 8317SOL    HW225851   1.355   2.388   2.404
 8318SOL     OW25852   4.011   1.879   5.853
 8318SOL    HW125853   3.935   1.843   5.907
 8318SOL    HW225854   3.984   1.884   5.757
 8319SOL     OW25855   1.281   1.475   1.268
 8319SOL    HW125856   1.325   1.461   1.357
 8319SOL    HW225857   1.290   1.392   1.213
 8320SOL     OW25858   3.191   3.921   2.365
 8320SOL    HW125859   3.147   3.978   2.295
 8320SOL    HW225860   3.122   3.887   2.429
 8321SOL     OW25861   6.286   6.808   6.614
 8321SOL    HW125862   6.190   6.795   6.639
 8321SOL    HW225863   6.336   6.723   6.629
 8322SOL     OW25864   6.398   0.116   0.770
 8322SOL    HW125865   6.468   0.173   0.727
 8322SOL    HW225866   6.441   0.037   0.813
 8323SOL     OW25867   5.318   5.288   1.803
 8323SOL    HW125868   5.260   5.214   1.770
 8323SOL    HW225869   5.398   5.298   1.743
 8324SOL     OW25870   6.245   6.616   1.770
 8324SOL    HW125871   6.158   6.659   1.796
 8324SOL    HW225872   6.317   6.685   1.769
 8325SOL     OW25873   1.785   3.392   4.862
 8325SOL    HW125874   1.797   3.300   4.900
 8325SOL    HW225875   1.871   3.424   4.824
 8326SOL     OW25876   4.608   3.570   5.710
 8326SOL    HW125877   4.645   3.504   5.775
 8326SOL    HW225878   4.672   3.582   5.635
 8327SOL     OW25879   0.274   0.368   5.517
 8327SOL    HW125880   0.205   0.426   5.561
 8327SOL    HW225881   0.353   0.424   5.492
 8328SOL     OW25882   2.586   5.705   6.815
 8328SOL    HW125883   2.536   5.686   6.731
 8328SOL    HW225884   2.653   5.633   6.831
 8329SOL     OW25885   1.059   2.888   5.851
 8329SOL    HW125886   1.034   2.816   5.785
 8329SOL    HW225887   0.989   2.959   5.851
 8330SOL     OW25888   2.968   1.219   6.223
 8330SOL    HW125889   3.000   1.187   6.134
 8330SOL    HW225890   2.874   1.251   6.215
 8331SOL     OW25891   3.117   0.520   1.081
 8331SOL    HW125892   3.057   0.457   1.129
 8331SOL    HW225893   3.210   0.513   1.118
 8332SOL     OW25894   5.479   5.349   2.642
 8332SOL    HW125895   5.493   5.423   2.577
 8332SOL    HW225896   5.409   5.286   2.608
 8333SOL     OW25897   0.488   5.156   6.246
 8333SOL    HW125898   0.448   5.089   6.309
 8333SOL    HW225899   0.420   5.226   6.225
 8334SOL     OW25900   3.695   1.429   4.473
 8334SOL    HW125901   3.666   1.384   4.388
 8334SOL    HW225902   3.795   1.439   4.472
 8335SOL     OW25903   5.232   1.111   0.263
 8335SOL    HW125904   5.314   1.142   0.311
 8335SOL    HW225905   5.199   1.026   0.305
 8336SOL     OW25906   0.477   4.733   3.341
 8336SOL    HW125907   0.409   4.762   3.408
 8336SOL    HW225908   0.463   4.636   3.320
 8337SOL     OW25909   1.687   5.972   3.291
 8337SOL    HW125910   1.587   5.980   3.297
 8337SOL    HW225911   1.727   5.979   3.382
 8338SOL     OW25912   3.824   5.289   1.802
 8338SOL    HW125913   3.748   5.265   1.863
 8338SOL    HW225914   3.834   5.217   1.732
 8339SOL     OW25915   6.648   0.665   1.569
 8339SOL    HW125916   6.649   0.621   1.659
 8339SOL    HW225917   6.563   0.716   1.558
 8340SOL     OW25918   5.188   3.234   0.880
 8340SOL    HW125919   5.123   3.161   0.899
 8340SOL    HW225920   5.272   3.219   0.933
 8341SOL     OW25921   3.052   6.906   0.189
 8341SOL    HW125922   3.044   7.005   0.202
 8341SOL    HW225923   3.144   6.876   0.213
 8342SOL     OW25924   4.765   6.620   0.468
 8342SOL    HW125925   4.702   6.643   0.542
 8342SOL    HW225926   4.830   6.695   0.455
 8343SOL     OW25927   0.624   5.689   4.457
 8343SOL    HW125928   0.543   5.735   4.494
 8343SOL    HW225929   0.599   5.597   4.427
 8344SOL     OW25930   5.557   6.227   5.112
 8344SOL    HW125931   5.472   6.180   5.090
 8344SOL    HW225932   5.537   6.319   5.146
 8345SOL     OW25933   3.822   2.051   2.509
 8345SOL    HW125934   3.801   2.110   2.431
 8345SOL    HW225935   3.913   2.012   2.498
 8346SOL     OW25936   3.881   4.832   0.217
 8346SOL    HW125937   3.797   4.878   0.190
 8346SOL    HW225938   3.889   4.744   0.169
 8347SOL     OW25939   3.833   6.145   3.942
 8347SOL    HW125940   3.909   6.097   3.987
 8347SOL    HW225941   3.857   6.164   3.847
 8348SOL     OW25942   2.034   1.287   1.499
 8348SOL    HW125943   1.954   1.228   1.514
 8348SOL    HW225944   2.003   1.379   1.477
 8349SOL     OW25945   6.548   0.059   1.933
 8349SOL    HW125946   6.553   0.044   1.834
 8349SOL    HW225947   6.571   0.154   1.954
 8350SOL     OW25948   3.209   6.902   5.998
 8350SOL    HW125949   3.202   6.918   5.899
 8350SOL    HW225950   3.118   6.907   6.039
 8351SOL     OW25951   6.160   5.176   4.835
 8351SOL    HW125952   6.169   5.077   4.832
 8351SOL    HW225953   6.079   5.204   4.784
 8352SOL     OW25954   0.146   6.983   3.799
 8352SOL    HW125955   0.048   6.987   3.821
 8352SOL    HW225956   0.168   6.894   3.760
 8353SOL     OW25957   6.964   3.686   1.380
 8353SOL    HW125958   7.020   3.632   1.317
 8353SOL    HW225959   6.901   3.743   1.328
 8354SOL     OW25960   4.273   6.977   5.142
 8354SOL    HW125961   4.183   6.935   5.150
 8354SOL    HW225962   4.327   6.930   5.073
 8355SOL     OW25963   2.940   0.938   6.280
 8355SOL    HW125964   2.965   1.035   6.281
 8355SOL    HW225965   3.003   0.888   6.221
 8356SOL     OW25966   0.601   6.903   1.254
 8356SOL    HW125967   0.616   6.807   1.279
 8356SOL    HW225968   0.509   6.914   1.215
 8357SOL     OW25969   3.620   7.012   4.941
 8357SOL    HW125970   3.716   6.992   4.959
 8357SOL    HW225971   3.566   6.928   4.944
 8358SOL     OW25972   1.677   4.347   4.450
 8358SOL    HW125973   1.732   4.266   4.468
 8358SOL    HW225974   1.712   4.425   4.501
 8359SOL     OW25975   2.886   0.715   4.851
 8359SOL    HW125976   2.811   0.651   4.868
 8359SOL    HW225977   2.865   0.771   4.771
 8360SOL     OW25978   3.816   6.176   0.758
 8360SOL    HW125979   3.788   6.251   0.818
 8360SOL    HW225980   3.841   6.213   0.669
 8361SOL     OW25981   3.170   0.207   2.143
 8361SOL    HW125982   3.220   0.280   2.097
 8361SOL    HW225983   3.226   0.124   2.144
 8362SOL     OW25984   3.983   1.790   0.924
 8362SOL    HW125985   3.911   1.823   0.863
 8362SOL    HW225986   3.947   1.781   1.016
 8363SOL     OW25987   5.277   3.291   6.801
 8363SOL    HW125988   5.184   3.254   6.793
 8363SOL    HW225989   5.278   3.386   6.770
 8364SOL     OW25990   0.954   2.530   3.636
 8364SOL    HW125991   0.914   2.622   3.639
 8364SOL    HW225992   1.051   2.537   3.613
 8365SOL     OW25993   1.638   2.957   2.029
 8365SOL    HW125994   1.616   2.948   2.126
 8365SOL    HW225995   1.707   3.028   2.016
 8366SOL     OW25996   1.766   5.603   1.340
 8366SOL    HW125997   1.838   5.643   1.283
 8366SOL    HW225998   1.808   5.543   1.408
 8367SOL     OW25999   4.659   6.140   4.415
 8367SOL    HW126000   4.725   6.066   4.408
 8367SOL    HW226001   4.654   6.188   4.328
 8368SOL     OW26002   1.602   6.726   6.568
 8368SOL    HW126003   1.588   6.687   6.659
 8368SOL    HW226004   1.516   6.726   6.518
 8369SOL     OW26005   0.820   6.954   6.229
 8369SOL    HW126006   0.830   6.902   6.313
 8369SOL    HW226007   0.782   0.022   6.250
 8370SOL     OW26008   3.072   1.125   6.005
 8370SOL    HW126009   3.107   1.127   5.911
 8370SOL    HW226010   3.127   1.061   6.059
 8371SOL     OW26011   2.255   4.408   0.418
 8371SOL    HW126012   2.322   4.482   0.417
 8371SOL    HW226013   2.164   4.445   0.399
 8372SOL     OW26014   1.682   4.706   1.887
 8372SOL    HW126015   1.655   4.789   1.839
 8372SOL    HW226016   1.662   4.716   1.985
 8373SOL     OW26017   1.735   0.103   4.220
 8373SOL    HW126018   1.645   0.135   4.249
 8373SOL    HW226019   1.792   0.182   4.194
 8374SOL     OW26020   0.162   1.022   5.155
 8374SOL    HW126021   0.205   0.988   5.238
 8374SOL    HW226022   0.064   1.034   5.171
 8375SOL     OW26023   3.353   6.637   5.122
 8375SOL    HW126024   3.304   6.610   5.039
 8375SOL    HW226025   3.359   6.559   5.185
 8376SOL     OW26026   0.515   1.359   4.401
 8376SOL    HW126027   0.501   1.456   4.421
 8376SOL    HW226028   0.443   1.305   4.444
 8377SOL     OW26029   5.217   5.817   0.682
 8377SOL    HW126030   5.145   5.886   0.675
 8377SOL    HW226031   5.301   5.860   0.715
 8378SOL     OW26032   4.659   5.295   3.084
 8378SOL    HW126033   4.591   5.344   3.139
 8378SOL    HW226034   4.729   5.256   3.144
 8379SOL     OW26035   5.510   3.380   1.324
 8379SOL    HW126036   5.601   3.362   1.287
 8379SOL    HW226037   5.449   3.304   1.301
 8380SOL     OW26038   0.466   0.628   2.797
 8380SOL    HW126039   0.564   0.647   2.785
 8380SOL    HW226040   0.421   0.631   2.708
 8381SOL     OW26041   0.006   3.340   4.755
 8381SOL    HW126042   0.038   3.285   4.679
 8381SOL    HW226043   0.051   3.310   4.839
 8382SOL     OW26044   2.759   6.942   2.705
 8382SOL    HW126045   2.719   6.882   2.635
 8382SOL    HW226046   2.802   6.886   2.775
 8383SOL     OW26047   2.672   0.059   5.989
 8383SOL    HW126048   2.622   0.110   5.919
 8383SOL    HW226049   2.609   7.022   6.039
 8384SOL     OW26050   6.785   0.898   1.469
 8384SOL    HW126051   6.740   0.821   1.513
 8384SOL    HW226052   6.861   0.929   1.526
 8385SOL     OW26053   5.553   2.713   0.787
 8385SOL    HW126054   5.523   2.681   0.877
 8385SOL    HW226055   5.648   2.744   0.794
 8386SOL     OW26056   2.098   5.505   1.743
 8386SOL    HW126057   2.027   5.570   1.717
 8386SOL    HW226058   2.100   5.430   1.676
 8387SOL     OW26059   1.266   1.399   1.736
 8387SOL    HW126060   1.333   1.384   1.809
 8387SOL    HW226061   1.251   1.312   1.688
 8388SOL     OW26062   2.029   6.483   0.186
 8388SOL    HW126063   1.997   6.399   0.228
 8388SOL    HW226064   2.116   6.466   0.140
 8389SOL     OW26065   0.080   3.303   3.178
 8389SOL    HW126066   7.018   3.348   3.209
 8389SOL    HW226067   0.137   3.369   3.129
 8390SOL     OW26068   4.441   1.209   0.226
 8390SOL    HW126069   4.391   1.295   0.240
 8390SOL    HW226070   4.519   1.226   0.167
 8391SOL     OW26071   6.346   4.925   0.886
 8391SOL    HW126072   6.377   4.834   0.915
 8391SOL    HW226073   6.416   4.966   0.827
 8392SOL     OW26074   6.618   4.576   5.173
 8392SOL    HW126075   6.656   4.668   5.166
 8392SOL    HW226076   6.660   4.517   5.103
 8393SOL     OW26077   0.536   6.585   2.522
 8393SOL    HW126078   0.488   6.511   2.475
 8393SOL    HW226079   0.471   6.659   2.541
 8394SOL     OW26080   6.055   2.812   2.126
 8394SOL    HW126081   6.146   2.846   2.151
 8394SOL    HW226082   5.995   2.889   2.108
 8395SOL     OW26083   1.851   6.588   5.002
 8395SOL    HW126084   1.942   6.568   4.965
 8395SOL    HW226085   1.834   6.529   5.081
 8396SOL     OW26086   4.330   5.423   2.557
 8396SOL    HW126087   4.231   5.411   2.552
 8396SOL    HW226088   4.361   5.478   2.480
 8397SOL     OW26089   2.578   0.108   2.718
 8397SOL    HW126090   2.654   0.044   2.709
 8397SOL    HW226091   2.556   0.146   2.628
 8398SOL     OW26092   4.410   1.863   6.643
 8398SOL    HW126093   4.462   1.857   6.558
 8398SOL    HW226094   4.344   1.937   6.636
 8399SOL     OW26095   5.958   6.080   6.986
 8399SOL    HW126096   5.933   6.017   0.038
 8399SOL    HW226097   5.927   6.042   6.899
 8400SOL     OW26098   1.695   1.460   4.457
 8400SOL    HW126099   1.612   1.475   4.512
 8400SOL    HW226100   1.733   1.370   4.478
 8401SOL     OW26101   2.716   1.385   6.201
 8401SOL    HW126102   2.730   1.438   6.118
 8401SOL    HW226103   2.737   1.441   6.281
 8402SOL     OW26104   4.117   1.890   5.417
 8402SOL    HW126105   4.052   1.833   5.367
 8402SOL    HW226106   4.197   1.908   5.360
 8403SOL     OW26107   0.975   2.082   4.656
 8403SOL    HW126108   1.009   2.006   4.710
 8403SOL    HW226109   0.965   2.163   4.715
 8404SOL     OW26110   4.730   6.909   5.745
 8404SOL    HW126111   4.757   6.942   5.835
 8404SOL    HW226112   4.636   6.877   5.747
 8405SOL     OW26113   1.975   0.612   5.794
 8405SOL    HW126114   2.069   0.645   5.804
 8405SOL    HW226115   1.976   0.517   5.762
 8406SOL     OW26116   5.718   0.098   0.373
 8406SOL    HW126117   5.653   0.083   0.448
 8406SOL    HW226118   5.770   0.181   0.391
 8407SOL     OW26119   3.520   6.388   3.704
 8407SOL    HW126120   3.581   6.436   3.768
 8407SOL    HW226121   3.567   6.376   3.616
 8408SOL     OW26122   5.931   3.999   1.880
 8408SOL    HW126123   5.899   4.086   1.842
 8408SOL    HW226124   5.950   4.010   1.977
 8409SOL     OW26125   5.324   2.357   3.445
 8409SOL    HW126126   5.332   2.261   3.421
 8409SOL    HW226127   5.325   2.367   3.545
 8410SOL     OW26128   5.464   1.012   2.045
 8410SOL    HW126129   5.556   0.977   2.027
 8410SOL    HW226130   5.460   1.109   2.020
 8411SOL     OW26131   0.590   4.605   0.219
 8411SOL    HW126132   0.581   4.556   0.306
 8411SOL    HW226133   0.505   4.599   0.168
 8412SOL     OW26134   3.126   1.142   1.385
 8412SOL    HW126135   3.130   1.236   1.350
 8412SOL    HW226136   3.090   1.082   1.314
 8413SOL     OW26137   4.218   5.437   6.645
 8413SOL    HW126138   4.297   5.383   6.673
 8413SOL    HW226139   4.202   5.510   6.712
 8414SOL     OW26140   3.548   4.892   3.382
 8414SOL    HW126141   3.586   4.884   3.290
 8414SOL    HW226142   3.621   4.886   3.449
 8415SOL     OW26143   0.169   6.214   4.209
 8415SOL    HW126144   0.180   6.294   4.268
 8415SOL    HW226145   0.096   6.156   4.245
 8416SOL     OW26146   5.256   3.794   2.293
 8416SOL    HW126147   5.168   3.834   2.270
 8416SOL    HW226148   5.329   3.848   2.251
 8417SOL     OW26149   1.549   4.093   5.745
 8417SOL    HW126150   1.628   4.034   5.728
 8417SOL    HW226151   1.572   4.187   5.721
 8418SOL     OW26152   6.095   4.864   0.822
 8418SOL    HW126153   6.189   4.899   0.830
 8418SOL    HW226154   6.067   4.865   0.726
 8419SOL     OW26155   5.593   6.761   2.223
 8419SOL    HW126156   5.517   6.769   2.159
 8419SOL    HW226157   5.574   6.814   2.305
 8420SOL     OW26158   4.077   0.221   0.581
 8420SOL    HW126159   4.135   0.163   0.524
 8420SOL    HW226160   4.039   0.295   0.526
 8421SOL     OW26161   1.431   5.381   6.843
 8421SOL    HW126162   1.478   5.364   6.930
 8421SOL    HW226163   1.471   5.322   6.772
 8422SOL     OW26164   4.043   1.512   0.962
 8422SOL    HW126165   4.041   1.606   0.928
 8422SOL    HW226166   4.023   1.450   0.886
 8423SOL     OW26167   3.250   4.430   5.589
 8423SOL    HW126168   3.241   4.334   5.615
 8423SOL    HW226169   3.275   4.436   5.492
 8424SOL     OW26170   2.265   2.191   2.635
 8424SOL    HW126171   2.235   2.203   2.729
 8424SOL    HW226172   2.365   2.193   2.631
 8425SOL     OW26173   4.937   5.055   6.265
 8425SOL    HW126174   4.866   5.100   6.320
 8425SOL    HW226175   5.022   5.107   6.271
 8426SOL     OW26176   3.521   3.761   3.390
 8426SOL    HW126177   3.609   3.735   3.430
 8426SOL    HW226178   3.511   3.718   3.300
 8427SOL     OW26179   3.814   3.958   4.628
 8427SOL    HW126180   3.894   3.928   4.681
 8427SOL    HW226181   3.779   4.043   4.667
 8428SOL     OW26182   0.697   4.886   1.433
 8428SOL    HW126183   0.734   4.794   1.417
 8428SOL    HW226184   0.598   4.882   1.436
 8429SOL     OW26185   1.589   5.544   4.059
 8429SOL    HW126186   1.556   5.450   4.050
 8429SOL    HW226187   1.681   5.544   4.098
 8430SOL     OW26188   3.827   5.331   3.255
 8430SOL    HW126189   3.801   5.357   3.348
 8430SOL    HW226190   3.905   5.387   3.226
 8431SOL     OW26191   3.072   4.699   0.559
 8431SOL    HW126192   3.038   4.785   0.598
 8431SOL    HW226193   3.111   4.642   0.631
 8432SOL     OW26194   5.722   0.038   6.228
 8432SOL    HW126195   5.731   0.065   6.323
 8432SOL    HW226196   5.687   6.967   6.223
 8433SOL     OW26197   4.960   2.300   0.483
 8433SOL    HW126198   5.005   2.276   0.398
 8433SOL    HW226199   4.937   2.398   0.483
 8434SOL     OW26200   2.864   6.925   4.815
 8434SOL    HW126201   2.883   6.894   4.909
 8434SOL    HW226202   2.801   7.003   4.818
 8435SOL     OW26203   6.327   1.000   1.985
 8435SOL    HW126204   6.335   1.097   1.962
 8435SOL    HW226205   6.280   0.990   2.073
 8436SOL     OW26206   3.782   7.004   3.619
 8436SOL    HW126207   3.685   7.017   3.601
 8436SOL    HW226208   3.829   6.978   3.534
 8437SOL     OW26209   2.189   0.677   4.485
 8437SOL    HW126210   2.227   0.721   4.404
 8437SOL    HW226211   2.177   0.579   4.468
 8438SOL     OW26212   2.418   4.530   2.310
 8438SOL    HW126213   2.462   4.510   2.398
 8438SOL    HW226214   2.488   4.547   2.241
 8439SOL     OW26215   6.684   5.185   2.682
 8439SOL    HW126216   6.698   5.088   2.664
 8439SOL    HW226217   6.587   5.203   2.698
 8440SOL     OW26218   1.579   2.292   3.806
 8440SOL    HW126219   1.536   2.383   3.808
 8440SOL    HW226220   1.663   2.295   3.860
 8441SOL     OW26221   6.208   6.542   0.646
 8441SOL    HW126222   6.120   6.548   0.597
 8441SOL    HW226223   6.236   6.634   0.675
 8442SOL     OW26224   3.231   1.772   5.220
 8442SOL    HW126225   3.146   1.802   5.178
 8442SOL    HW226226   3.216   1.687   5.269
 8443SOL     OW26227   2.441   5.008   3.967
 8443SOL    HW126228   2.445   5.054   4.056
 8443SOL    HW226229   2.405   5.071   3.898
 8444SOL     OW26230   2.519   6.006   3.971
 8444SOL    HW126231   2.484   6.040   3.884
 8444SOL    HW226232   2.606   6.052   3.992
 8445SOL     OW26233   4.034   6.480   0.845
 8445SOL    HW126234   4.106   6.410   0.844
 8445SOL    HW226235   3.992   6.483   0.936
 8446SOL     OW26236   4.533   4.403   6.596
 8446SOL    HW126237   4.444   4.449   6.590
 8446SOL    HW226238   4.593   4.454   6.656
 8447SOL     OW26239   4.797   1.508   2.075
 8447SOL    HW126240   4.798   1.594   2.024
 8447SOL    HW226241   4.809   1.526   2.172
 8448SOL     OW26242   4.139   5.882   4.383
 8448SOL    HW126243   4.168   5.828   4.304
 8448SOL    HW226244   4.218   5.929   4.422
 8449SOL     OW26245   6.691   2.749   3.603
 8449SOL    HW126246   6.611   2.766   3.661
 8449SOL    HW226247   6.667   2.765   3.507
 8450SOL     OW26248   0.477   6.443   1.088
 8450SOL    HW126249   0.555   6.456   1.149
 8450SOL    HW226250   0.510   6.427   0.995
 8451SOL     OW26251   4.234   1.881   0.453
 8451SOL    HW126252   4.235   1.833   0.365
 8451SOL    HW226253   4.211   1.977   0.439
 8452SOL     OW26254   5.823   1.796   2.683
 8452SOL    HW126255   5.918   1.804   2.653
 8452SOL    HW226256   5.763   1.800   2.604
 8453SOL     OW26257   0.392   4.210   6.882
 8453SOL    HW126258   0.379   4.226   6.980
 8453SOL    HW226259   0.306   4.182   6.840
 8454SOL     OW26260   6.751   6.530   1.915
 8454SOL    HW126261   6.842   6.555   1.948
 8454SOL    HW226262   6.758   6.454   1.851
 8455SOL     OW26263   6.144   2.697   1.879
 8455SOL    HW126264   6.093   2.739   1.803
 8455SOL    HW226265   6.107   2.730   1.966
 8456SOL     OW26266   3.978   5.782   2.972
 8456SOL    HW126267   4.038   5.862   2.969
 8456SOL    HW226268   3.910   5.789   2.899
 8457SOL     OW26269   6.632   6.860   4.449
 8457SOL    HW126270   6.633   6.871   4.548
 8457SOL    HW226271   6.539   6.876   4.415
 8458SOL     OW26272   3.273   1.556   6.609
 8458SOL    HW126273   3.302   1.647   6.577
 8458SOL    HW226274   3.339   1.487   6.578
 8459SOL     OW26275   2.735   5.613   1.985
 8459SOL    HW126276   2.724   5.638   1.889
 8459SOL    HW226277   2.646   5.592   2.024
 8460SOL     OW26278   4.278   4.206   5.374
 8460SOL    HW126279   4.234   4.236   5.289
 8460SOL    HW226280   4.290   4.106   5.371
 8461SOL     OW26281   0.427   4.064   4.370
 8461SOL    HW126282   0.411   3.967   4.385
 8461SOL    HW226283   0.448   4.080   4.273
 8462SOL     OW26284   2.684   2.777   6.481
 8462SOL    HW126285   2.621   2.700   6.477
 8462SOL    HW226286   2.714   2.801   6.389
 8463SOL     OW26287   6.670   0.361   1.464
 8463SOL    HW126288   6.615   0.443   1.476
 8463SOL    HW226289   6.658   0.325   1.371
 8464SOL     OW26290   5.675   3.108   4.547
 8464SOL    HW126291   5.745   3.178   4.557
 8464SOL    HW226292   5.596   3.132   4.603
 8465SOL     OW26293   0.792   2.792   0.768
 8465SOL    HW126294   0.891   2.785   0.757
 8465SOL    HW226295   0.747   2.742   0.694
 8466SOL     OW26296   7.007   0.135   4.141
 8466SOL    HW126297   0.037   0.164   4.061
 8466SOL    HW226298   0.035   0.158   4.224
 8467SOL     OW26299   4.277   0.072   0.447
 8467SOL    HW126300   4.323   0.020   0.375
 8467SOL    HW226301   4.236   0.009   0.512
 8468SOL     OW26302   3.505   2.357   6.413
 8468SOL    HW126303   3.531   2.300   6.490
 8468SOL    HW226304   3.569   2.342   6.337
 8469SOL     OW26305   3.278   2.059   6.570
 8469SOL    HW126306   3.281   2.133   6.503
 8469SOL    HW226307   3.256   2.096   6.660
 8470SOL     OW26308   1.334   3.672   6.825
 8470SOL    HW126309   1.259   3.738   6.835
 8470SOL    HW226310   1.411   3.715   6.778
 8471SOL     OW26311   3.217   1.218   3.523
 8471SOL    HW126312   3.293   1.266   3.479
 8471SOL    HW226313   3.229   1.120   3.512
 8472SOL     OW26314   6.826   1.011   4.969
 8472SOL    HW126315   6.831   0.993   5.067
 8472SOL    HW226316   6.896   0.957   4.922
 8473SOL     OW26317   6.669   5.802   6.584
 8473SOL    HW126318   6.717   5.885   6.611
 8473SOL    HW226319   6.621   5.817   6.498
 8474SOL     OW26320   3.538   2.851   1.463
 8474SOL    HW126321   3.565   2.922   1.528
 8474SOL    HW226322   3.442   2.827   1.478
 8475SOL     OW26323   6.967   2.259   3.551
 8475SOL    HW126324   6.928   2.346   3.521
 8475SOL    HW226325   6.986   2.201   3.472
 8476SOL     OW26326   0.108   2.243   0.938
 8476SOL    HW126327   0.111   2.193   0.852
 8476SOL    HW226328   0.039   2.315   0.932
 8477SOL     OW26329   4.769   6.366   0.987
 8477SOL    HW126330   4.765   6.462   0.959
 8477SOL    HW226331   4.859   6.346   1.025
 8478SOL     OW26332   1.243   6.517   5.903
 8478SOL    HW126333   1.300   6.508   5.984
 8478SOL    HW226334   1.201   6.608   5.901
 8479SOL     OW26335   0.669   2.166   1.111
 8479SOL    HW126336   0.757   2.193   1.073
 8479SOL    HW226337   0.684   2.101   1.185
 8480SOL     OW26338   4.645   1.606   0.477
 8480SOL    HW126339   4.587   1.633   0.553
 8480SOL    HW226340   4.630   1.509   0.457
 8481SOL     OW26341   3.988   2.227   3.995
 8481SOL    HW126342   4.060   2.269   3.939
 8481SOL    HW226343   3.983   2.129   3.973
 8482SOL     OW26344   4.225   5.815   1.729
 8482SOL    HW126345   4.296   5.823   1.660
 8482SOL    HW226346   4.141   5.859   1.696
 8483SOL     OW26347   4.564   6.270   2.525
 8483SOL    HW126348   4.503   6.200   2.488
 8483SOL    HW226349   4.656   6.256   2.490
 8484SOL     OW26350   0.622   6.007   3.390
 8484SOL    HW126351   0.672   5.983   3.474
 8484SOL    HW226352   0.538   5.954   3.386
 8485SOL     OW26353   3.723   3.208   0.051
 8485SOL    HW126354   3.665   3.276   0.006
 8485SOL    HW226355   3.697   3.116   0.019
 8486SOL     OW26356   3.750   0.655   3.006
 8486SOL    HW126357   3.709   0.568   2.980
 8486SOL    HW226358   3.699   0.695   3.083
 8487SOL     OW26359   5.638   1.748   6.087
 8487SOL    HW126360   5.637   1.844   6.063
 8487SOL    HW226361   5.575   1.698   6.028
 8488SOL     OW26362   5.882   5.765   6.873
 8488SOL    HW126363   5.814   5.756   6.800
 8488SOL    HW226364   5.845   5.730   6.958
 8489SOL     OW26365   6.287   1.684   1.343
 8489SOL    HW126366   6.196   1.716   1.372
 8489SOL    HW226367   6.321   1.618   1.410
 8490SOL     OW26368   4.320   6.700   4.018
 8490SOL    HW126369   4.232   6.732   3.986
 8490SOL    HW226370   4.322   6.600   4.017
 8491SOL     OW26371   2.317   6.187   0.358
 8491SOL    HW126372   2.372   6.220   0.281
 8491SOL    HW226373   2.263   6.108   0.329
 8492SOL     OW26374   4.631   4.072   6.394
 8492SOL    HW126375   4.683   3.988   6.409
 8492SOL    HW226376   4.694   4.148   6.376
 8493SOL     OW26377   2.442   2.789   6.170
 8493SOL    HW126378   2.401   2.699   6.183
 8493SOL    HW226379   2.372   2.860   6.177
 8494SOL     OW26380   3.211   5.598   1.099
 8494SOL    HW126381   3.130   5.649   1.129
 8494SOL    HW226382   3.286   5.662   1.084
 8495SOL     OW26383   6.719   5.170   2.368
 8495SOL    HW126384   6.649   5.169   2.440
 8495SOL    HW226385   6.681   5.211   2.286
 8496SOL     OW26386   0.696   2.314   2.074
 8496SOL    HW126387   0.647   2.358   1.999
 8496SOL    HW226388   0.724   2.383   2.141
 8497SOL     OW26389   5.776   1.337   3.573
 8497SOL    HW126390   5.802   1.251   3.527
 8497SOL    HW226391   5.768   1.410   3.505
 8498SOL     OW26392   0.422   6.785   2.895
 8498SOL    HW126393   0.420   6.837   2.981
 8498SOL    HW226394   0.516   6.757   2.875
 8499SOL     OW26395   2.186   4.320   6.493
 8499SOL    HW126396   2.203   4.347   6.398
 8499SOL    HW226397   2.146   4.397   6.543
 8500SOL     OW26398   2.086   6.443   5.210
 8500SOL    HW126399   2.100   6.528   5.260
 8500SOL    HW226400   1.992   6.411   5.223
 8501SOL     OW26401   0.569   1.877   6.996
 8501SOL    HW126402   0.640   1.887   6.926
 8501SOL    HW226403   0.486   1.924   6.966
 8502SOL     OW26404   1.504   4.196   1.315
 8502SOL    HW126405   1.442   4.152   1.251
 8502SOL    HW226406   1.488   4.295   1.315
 8503SOL     OW26407   1.955   0.030   4.412
 8503SOL    HW126408   2.003   0.030   4.324
 8503SOL    HW226409   1.873   0.087   4.404
 8504SOL     OW26410   2.515   5.272   2.468
 8504SOL    HW126411   2.580   5.221   2.411
 8504SOL    HW226412   2.532   5.251   2.564
 8505SOL     OW26413   4.888   3.390   3.662
 8505SOL    HW126414   4.896   3.468   3.600
 8505SOL    HW226415   4.866   3.308   3.609
 8506SOL     OW26416   6.891   1.332   6.732
 8506SOL    HW126417   6.967   1.288   6.684
 8506SOL    HW226418   6.817   1.266   6.745
 8507SOL     OW26419   3.433   0.871   5.645
 8507SOL    HW126420   3.492   0.806   5.597
 8507SOL    HW226421   3.479   0.960   5.651
 8508SOL     OW26422   6.307   1.962   5.266
 8508SOL    HW126423   6.336   1.912   5.184
 8508SOL    HW226424   6.217   1.929   5.295
 8509SOL     OW26425   4.438   1.645   3.452
 8509SOL    HW126426   4.519   1.627   3.397
 8509SOL    HW226427   4.465   1.675   3.543
 8510SOL     OW26428   5.658   3.860   3.478
 8510SOL    HW126429   5.656   3.763   3.453
 8510SOL    HW226430   5.646   3.916   3.396
 8511SOL     OW26431   6.849   3.796   1.801
 8511SOL    HW126432   6.851   3.717   1.863
 8511SOL    HW226433   6.921   3.787   1.733
 8512SOL     OW26434   3.613   1.950   1.504
 8512SOL    HW126435   3.570   1.860   1.505
 8512SOL    HW226436   3.702   1.945   1.550
 8513SOL     OW26437   4.949   3.964   1.294
 8513SOL    HW126438   4.939   3.883   1.237
 8513SOL    HW226439   5.027   3.952   1.356
 8514SOL     OW26440   2.509   2.451   3.749
 8514SOL    HW126441   2.471   2.481   3.662
 8514SOL    HW226442   2.496   2.523   3.818
 8515SOL     OW26443   5.696   1.851   0.833
 8515SOL    HW126444   5.786   1.813   0.814
 8515SOL    HW226445   5.657   1.805   0.913
 8516SOL     OW26446   6.626   2.086   1.511
 8516SOL    HW126447   6.706   2.028   1.495
 8516SOL    HW226448   6.543   2.036   1.488
 8517SOL     OW26449   1.556   3.176   6.105
 8517SOL    HW126450   1.550   3.267   6.145
 8517SOL    HW226451   1.583   3.110   6.176
 8518SOL     OW26452   5.045   3.920   0.374
 8518SOL    HW126453   5.058   3.981   0.296
 8518SOL    HW226454   5.045   3.973   0.459
 8519SOL     OW26455   1.212   4.206   1.526
 8519SOL    HW126456   1.243   4.198   1.621
 8519SOL    HW226457   1.217   4.117   1.481
 8520SOL     OW26458   3.655   2.961   7.009
 8520SOL    HW126459   3.591   2.926   6.940
 8520SOL    HW226460   3.728   2.894   0.001
 8521SOL     OW26461   2.072   5.342   6.110
 8521SOL    HW126462   1.992   5.284   6.099
 8521SOL    HW226463   2.072   5.381   6.202
 8522SOL     OW26464   1.244   6.604   2.074
 8522SOL    HW126465   1.160   6.559   2.105
 8522SOL    HW226466   1.229   6.645   1.984
 8523SOL     OW26467   1.683   6.659   6.811
 8523SOL    HW126468   1.680   6.711   6.896
 8523SOL    HW226469   1.658   6.564   6.829
 8524SOL     OW26470   0.431   2.343   4.923
 8524SOL    HW126471   0.397   2.345   5.017
 8524SOL    HW226472   0.354   2.333   4.860
 8525SOL     OW26473   6.272   3.962   2.778
 8525SOL    HW126474   6.227   4.049   2.797
 8525SOL    HW226475   6.240   3.926   2.691
 8526SOL     OW26476   3.843   5.714   6.269
 8526SOL    HW126477   3.901   5.633   6.259
 8526SOL    HW226478   3.897   5.796   6.247
 8527SOL     OW26479   3.185   1.000   6.461
 8527SOL    HW126480   3.123   0.932   6.502
 8527SOL    HW226481   3.164   1.090   6.499
 8528SOL     OW26482   3.905   1.388   6.411
 8528SOL    HW126483   3.887   1.300   6.457
 8528SOL    HW226484   3.985   1.430   6.452
 8529SOL     OW26485   1.287   0.640   1.264
 8529SOL    HW126486   1.242   0.551   1.274
 8529SOL    HW226487   1.218   0.710   1.246
 8530SOL     OW26488   3.332   3.816   5.093
 8530SOL    HW126489   3.337   3.717   5.085
 8530SOL    HW226490   3.260   3.840   5.158
 8531SOL     OW26491   6.476   5.406   2.380
 8531SOL    HW126492   6.413   5.338   2.343
 8531SOL    HW226493   6.559   5.410   2.325
 8532SOL     OW26494   4.172   4.755   4.307
 8532SOL    HW126495   4.190   4.665   4.268
 8532SOL    HW226496   4.258   4.807   4.310
 8533SOL     OW26497   1.367   0.047   6.786
 8533SOL    HW126498   1.367   0.133   6.838
 8533SOL    HW226499   1.436   0.052   6.714
 8534SOL     OW26500   6.420   2.848   3.869
 8534SOL    HW126501   6.500   2.907   3.854
 8534SOL    HW226502   6.403   2.792   3.788
 8535SOL     OW26503   6.476   1.665   4.563
 8535SOL    HW126504   6.414   1.654   4.641
 8535SOL    HW226505   6.440   1.734   4.501
 8536SOL     OW26506   6.824   2.662   4.964
 8536SOL    HW126507   6.887   2.720   5.016
 8536SOL    HW226508   6.875   2.589   4.919
 8537SOL     OW26509   5.319   1.474   2.172
 8537SOL    HW126510   5.381   1.530   2.227
 8537SOL    HW226511   5.273   1.532   2.104
 8538SOL     OW26512   0.607   1.034   6.758
 8538SOL    HW126513   0.537   1.103   6.776
 8538SOL    HW226514   0.695   1.079   6.741
 8539SOL     OW26515   5.375   0.813   2.517
 8539SOL    HW126516   5.335   0.862   2.440
 8539SOL    HW226517   5.318   0.733   2.538
 8540SOL     OW26518   4.543   0.693   6.934
 8540SOL    HW126519   4.588   0.753   7.000
 8540SOL    HW226520   4.590   0.605   6.931
 8541SOL     OW26521   2.644   1.867   4.631
 8541SOL    HW126522   2.700   1.786   4.614
 8541SOL    HW226523   2.597   1.857   4.719
 8542SOL     OW26524   3.856   4.556   6.658
 8542SOL    HW126525   3.776   4.610   6.686
 8542SOL    HW226526   3.825   4.476   6.606
 8543SOL     OW26527   3.331   0.618   0.745
 8543SOL    HW126528   3.238   0.583   0.749
 8543SOL    HW226529   3.376   0.604   0.833
 8544SOL     OW26530   5.281   3.366   4.588
 8544SOL    HW126531   5.223   3.439   4.551
 8544SOL    HW226532   5.376   3.396   4.588
 8545SOL     OW26533   4.729   6.637   5.044
 8545SOL    HW126534   4.686   6.666   5.130
 8545SOL    HW226535   4.704   6.700   4.971
 8546SOL     OW26536   0.009   1.135   3.542
 8546SOL    HW126537   6.997   1.054   3.590
 8546SOL    HW226538   6.961   1.205   3.540
 8547SOL     OW26539   1.186   6.860   6.365
 8547SOL    HW126540   1.202   6.946   6.315
 8547SOL    HW226541   1.177   6.785   6.299
 8548SOL     OW26542   6.112   3.539   5.338
 8548SOL    HW126543   6.152   3.465   5.393
 8548SOL    HW226544   6.184   3.580   5.282
 8549SOL     OW26545   1.035   2.950   4.285
 8549SOL    HW126546   1.093   2.912   4.213
 8549SOL    HW226547   1.043   2.894   4.368
 8550SOL     OW26548   1.663   4.902   0.464
 8550SOL    HW126549   1.645   4.853   0.378
 8550SOL    HW226550   1.663   4.837   0.540
 8551SOL     OW26551   3.133   3.575   6.391
 8551SOL    HW126552   3.228   3.604   6.381
 8551SOL    HW226553   3.078   3.616   6.318
 8552SOL     OW26554   2.439   0.611   3.846
 8552SOL    HW126555   2.427   0.550   3.767
 8552SOL    HW226556   2.352   0.620   3.894
 8553SOL     OW26557   4.205   4.133   6.643
 8553SOL    HW126558   4.258   4.092   6.569
 8553SOL    HW226559   4.227   4.231   6.650
 8554SOL     OW26560   1.081   4.661   0.415
 8554SOL    HW126561   1.089   4.689   0.511
 8554SOL    HW226562   1.169   4.671   0.370
 8555SOL     OW26563   1.938   1.458   3.572
 8555SOL    HW126564   1.897   1.511   3.646
 8555SOL    HW226565   2.012   1.402   3.608
 8556SOL     OW26566   1.691   5.941   4.926
 8556SOL    HW126567   1.720   5.941   5.022
 8556SOL    HW226568   1.692   6.035   4.891
 8557SOL     OW26569   5.629   6.601   2.911
 8557SOL    HW126570   5.566   6.655   2.854
 8557SOL    HW226571   5.613   6.503   2.895
 8558SOL     OW26572   2.583   4.539   3.103
 8558SOL    HW126573   2.494   4.492   3.106
 8558SOL    HW226574   2.576   4.626   3.150
 8559SOL     OW26575   1.431   0.106   2.803
 8559SOL    HW126576   1.491   0.041   2.758
 8559SOL    HW226577   1.391   0.065   2.885
 8560SOL     OW26578   6.764   6.286   1.765
 8560SOL    HW126579   6.789   6.241   1.679
 8560SOL    HW226580   6.768   6.219   1.839
 8561SOL     OW26581   2.930   0.402   2.753
 8561SOL    HW126582   2.871   0.427   2.676
 8561SOL    HW226583   2.930   0.475   2.820
 8562SOL     OW26584   4.267   6.328   5.621
 8562SOL    HW126585   4.253   6.373   5.709
 8562SOL    HW226586   4.292   6.232   5.636
 8563SOL     OW26587   1.650   4.535   6.962
 8563SOL    HW126588   1.742   4.502   6.941
 8563SOL    HW226589   1.656   4.629   6.997
 8564SOL     OW26590   2.916   0.683   5.130
 8564SOL    HW126591   2.954   0.681   5.037
 8564SOL    HW226592   2.873   0.771   5.147
 8565SOL     OW26593   3.611   5.678   1.271
 8565SOL    HW126594   3.535   5.739   1.248
 8565SOL    HW226595   3.586   5.584   1.251
 8566SOL     OW26596   1.889   0.371   1.154
 8566SOL    HW126597   1.855   0.277   1.158
 8566SOL    HW226598   1.815   0.432   1.126
 8567SOL     OW26599   0.437   2.415   2.859
 8567SOL    HW126600   0.438   2.458   2.769
 8567SOL    HW226601   0.515   2.448   2.913
 8568SOL     OW26602   5.202   1.180   6.657
 8568SOL    HW126603   5.246   1.231   6.731
 8568SOL    HW226604   5.132   1.120   6.696
 8569SOL     OW26605   5.153   1.021   6.156
 8569SOL    HW126606   5.219   0.949   6.137
 8569SOL    HW226607   5.200   1.109   6.168
 8570SOL     OW26608   1.372   1.698   5.419
 8570SOL    HW126609   1.415   1.639   5.351
 8570SOL    HW226610   1.404   1.672   5.511
 8571SOL     OW26611   1.725   6.041   5.190
 8571SOL    HW126612   1.659   6.115   5.184
 8571SOL    HW226613   1.688   5.969   5.250
 8572SOL     OW26614   3.087   4.414   6.451
 8572SOL    HW126615   3.129   4.482   6.391
 8572SOL    HW226616   3.087   4.448   6.545
 8573SOL     OW26617   2.992   6.032   6.193
 8573SOL    HW126618   2.998   5.933   6.186
 8573SOL    HW226619   3.067   6.067   6.249
 8574SOL     OW26620   6.950   5.866   5.853
 8574SOL    HW126621   0.018   5.834   5.879
 8574SOL    HW226622   6.885   5.844   5.926
 8575SOL     OW26623   2.276   2.824   4.443
 8575SOL    HW126624   2.235   2.775   4.520
 8575SOL    HW226625   2.333   2.899   4.477
 8576SOL     OW26626   1.750   5.422   6.113
 8576SOL    HW126627   1.782   5.327   6.104
 8576SOL    HW226628   1.809   5.482   6.058
 8577SOL     OW26629   0.541   6.520   4.885
 8577SOL    HW126630   0.489   6.473   4.956
 8577SOL    HW226631   0.539   6.466   4.801
 8578SOL     OW26632   5.509   6.988   3.871
 8578SOL    HW126633   5.477   6.897   3.848
 8578SOL    HW226634   5.595   6.982   3.921
 8579SOL     OW26635   1.620   6.859   2.430
 8579SOL    HW126636   1.706   6.875   2.383
 8579SOL    HW226637   1.545   6.901   2.378
 8580SOL     OW26638   1.869   6.205   1.913
 8580SOL    HW126639   1.860   6.253   2.000
 8580SOL    HW226640   1.780   6.200   1.868
 8581SOL     OW26641   3.256   3.959   1.876
 8581SOL    HW126642   3.234   3.863   1.891
 8581SOL    HW226643   3.295   3.998   1.959
 8582SOL     OW26644   4.469   4.676   3.202
 8582SOL    HW126645   4.507   4.648   3.114
 8582SOL    HW226646   4.510   4.763   3.229
 8583SOL     OW26647   5.935   0.517   4.139
 8583SOL    HW126648   5.945   0.436   4.080
 8583SOL    HW226649   6.025   0.542   4.175
 8584SOL     OW26650   1.280   4.593   5.532
 8584SOL    HW126651   1.354   4.573   5.467
 8584SOL    HW226652   1.314   4.650   5.606
 8585SOL     OW26653   0.868   6.325   5.883
 8585SOL    HW126654   0.882   6.235   5.924
 8585SOL    HW226655   0.788   6.323   5.823
 8586SOL     OW26656   2.535   6.659   2.144
 8586SOL    HW126657   2.570   6.752   2.141
 8586SOL    HW226658   2.541   6.624   2.238
 8587SOL     OW26659   1.193   6.915   3.991
 8587SOL    HW126660   1.140   6.846   4.040
 8587SOL    HW226661   1.209   6.884   3.897
 8588SOL     OW26662   2.699   1.106   0.403
 8588SOL    HW126663   2.611   1.154   0.407
 8588SOL    HW226664   2.741   1.105   0.494
 8589SOL     OW26665   4.801   3.113   5.267
 8589SOL    HW126666   4.773   3.208   5.275
 8589SOL    HW226667   4.747   3.056   5.329
 8590SOL     OW26668   6.694   6.018   4.302
 8590SOL    HW126669   6.633   6.013   4.223
 8590SOL    HW226670   6.658   6.085   4.367
 8591SOL     OW26671   0.763   3.932   0.363
 8591SOL    HW126672   0.745   3.850   0.418
 8591SOL    HW226673   0.860   3.937   0.342
 8592SOL     OW26674   6.544   3.040   6.195
 8592SOL    HW126675   6.531   3.138   6.178
 8592SOL    HW226676   6.472   2.989   6.148
 8593SOL     OW26677   2.339   0.567   1.240
 8593SOL    HW126678   2.350   0.598   1.145
 8593SOL    HW226679   2.415   0.507   1.264
 8594SOL     OW26680   4.415   2.448   5.457
 8594SOL    HW126681   4.463   2.389   5.522
 8594SOL    HW226682   4.461   2.536   5.453
 8595SOL     OW26683   0.381   1.945   3.296
 8595SOL    HW126684   0.408   2.029   3.344
 8595SOL    HW226685   0.283   1.948   3.278
 8596SOL     OW26686   0.790   5.614   3.303
 8596SOL    HW126687   0.778   5.577   3.395
 8596SOL    HW226688   0.703   5.610   3.254
 8597SOL     OW26689   4.151   1.644   1.258
 8597SOL    HW126690   4.202   1.731   1.260
 8597SOL    HW226691   4.063   1.659   1.214
 8598SOL     OW26692   6.011   7.000   0.978
 8598SOL    HW126693   6.009   6.921   0.916
 8598SOL    HW226694   5.918   7.018   1.010
 8599SOL     OW26695   1.037   2.785   4.516
 8599SOL    HW126696   1.050   2.841   4.598
 8599SOL    HW226697   0.949   2.739   4.520
 8600SOL     OW26698   5.052   5.348   4.629
 8600SOL    HW126699   5.067   5.257   4.589
 8600SOL    HW226700   5.080   5.347   4.725
 8601SOL     OW26701   0.992   1.059   4.889
 8601SOL    HW126702   1.069   1.067   4.826
 8601SOL    HW226703   0.996   0.970   4.935
 8602SOL     OW26704   2.718   5.095   2.321
 8602SOL    HW126705   2.814   5.105   2.347
 8602SOL    HW226706   2.710   5.096   2.222
 8603SOL     OW26707   4.207   6.004   0.657
 8603SOL    HW126708   4.126   5.955   0.626
 8603SOL    HW226709   4.188   6.102   0.662
 8604SOL     OW26710   0.293   2.527   5.380
 8604SOL    HW126711   0.287   2.505   5.477
 8604SOL    HW226712   0.378   2.576   5.362
 8605SOL     OW26713   3.016   5.960   4.040
 8605SOL    HW126714   3.088   5.923   3.981
 8605SOL    HW226715   3.052   6.034   4.096
 8606SOL     OW26716   1.607   3.794   6.285
 8606SOL    HW126717   1.677   3.823   6.220
 8606SOL    HW226718   1.629   3.831   6.376
 8607SOL     OW26719   3.432   6.127   0.993
 8607SOL    HW126720   3.526   6.101   1.013
 8607SOL    HW226721   3.430   6.192   0.917
 8608SOL     OW26722   3.900   5.150   2.841
 8608SOL    HW126723   3.929   5.141   2.746
 8608SOL    HW226724   3.980   5.144   2.901
 8609SOL     OW26725   4.826   0.661   2.724
 8609SOL    HW126726   4.745   0.690   2.776
 8609SOL    HW226727   4.892   0.735   2.721
 8610SOL     OW26728   1.620   2.488   2.888
 8610SOL    HW126729   1.586   2.394   2.879
 8610SOL    HW226730   1.584   2.543   2.813
 8611SOL     OW26731   2.964   1.542   4.900
 8611SOL    HW126732   2.895   1.608   4.929
 8611SOL    HW226733   2.968   1.466   4.965
 8612SOL     OW26734   3.017   3.195   1.452
 8612SOL    HW126735   2.994   3.232   1.363
 8612SOL    HW226736   3.102   3.237   1.485
 8613SOL     OW26737   2.659   1.755   1.540
 8613SOL    HW126738   2.675   1.845   1.500
 8613SOL    HW226739   2.614   1.765   1.628
 8614SOL     OW26740   1.099   2.500   2.104
 8614SOL    HW126741   1.074   2.463   2.193
 8614SOL    HW226742   1.032   2.470   2.036
 8615SOL     OW26743   4.760   1.653   5.589
 8615SOL    HW126744   4.663   1.669   5.608
 8615SOL    HW226745   4.778   1.555   5.590
 8616SOL     OW26746   3.081   4.612   1.691
 8616SOL    HW126747   3.018   4.654   1.626
 8616SOL    HW226748   3.030   4.578   1.770
 8617SOL     OW26749   6.744   0.994   6.759
 8617SOL    HW126750   6.741   0.896   6.741
 8617SOL    HW226751   6.836   1.019   6.790
 8618SOL     OW26752   6.201   5.528   0.346
 8618SOL    HW126753   6.196   5.437   0.304
 8618SOL    HW226754   6.294   5.564   0.339
 8619SOL     OW26755   3.643   4.971   1.886
 8619SOL    HW126756   3.740   4.948   1.874
 8619SOL    HW226757   3.593   4.889   1.915
 8620SOL     OW26758   1.677   0.553   4.109
 8620SOL    HW126759   1.600   0.560   4.172
 8620SOL    HW226760   1.646   0.515   4.022
 8621SOL     OW26761   5.460   1.821   3.004
 8621SOL    HW126762   5.443   1.920   3.006
 8621SOL    HW226763   5.527   1.800   2.932
 8622SOL     OW26764   5.306   3.573   0.580
 8622SOL    HW126765   5.308   3.647   0.647
 8622SOL    HW226766   5.238   3.505   0.609
 8623SOL     OW26767   1.068   3.774   4.455
 8623SOL    HW126768   1.023   3.690   4.423
 8623SOL    HW226769   1.151   3.790   4.401
 8624SOL     OW26770   1.367   3.634   4.829
 8624SOL    HW126771   1.320   3.668   4.748
 8624SOL    HW226772   1.423   3.555   4.805
 8625SOL     OW26773   4.594   0.297   5.630
 8625SOL    HW126774   4.555   0.264   5.545
 8625SOL    HW226775   4.688   0.264   5.638
 8626SOL     OW26776   3.596   3.121   5.446
 8626SOL    HW126777   3.649   3.140   5.528
 8626SOL    HW226778   3.550   3.032   5.455
 8627SOL     OW26779   0.861   1.169   3.548
 8627SOL    HW126780   0.762   1.152   3.552
 8627SOL    HW226781   0.907   1.108   3.612
 8628SOL     OW26782   6.672   6.291   0.716
 8628SOL    HW126783   6.639   6.249   0.800
 8628SOL    HW226784   6.724   6.225   0.663
 8629SOL     OW26785   1.306   5.586   5.070
 8629SOL    HW126786   1.235   5.520   5.044
 8629SOL    HW226787   1.356   5.614   4.988
 8630SOL     OW26788   5.340   4.278   3.659
 8630SOL    HW126789   5.399   4.200   3.638
 8630SOL    HW226790   5.310   4.273   3.754
 8631SOL     OW26791   1.130   4.854   6.193
 8631SOL    HW126792   1.152   4.798   6.272
 8631SOL    HW226793   1.048   4.908   6.212
 8632SOL     OW26794   3.710   5.618   4.269
 8632SOL    HW126795   3.745   5.625   4.362
 8632SOL    HW226796   3.705   5.709   4.228
 8633SOL     OW26797   4.908   1.686   5.885
 8633SOL    HW126798   4.916   1.590   5.859
 8633SOL    HW226799   4.848   1.734   5.820
 8634SOL     OW26800   5.162   3.736   0.799
 8634SOL    HW126801   5.151   3.820   0.852
 8634SOL    HW226802   5.153   3.657   0.859
 8635SOL     OW26803   5.239   4.161   6.463
 8635SOL    HW126804   5.173   4.229   6.432
 8635SOL    HW226805   5.285   4.120   6.384
 8636SOL     OW26806   4.903   5.653   1.034
 8636SOL    HW126807   4.893   5.571   1.090
 8636SOL    HW226808   4.962   5.633   0.956
 8637SOL     OW26809   2.073   1.037   0.339
 8637SOL    HW126810   2.093   1.076   0.249
 8637SOL    HW226811   1.974   1.033   0.352
 8638SOL     OW26812   2.367   3.074   6.038
 8638SOL    HW126813   2.276   3.079   5.998
 8638SOL    HW226814   2.361   3.093   6.136
 8639SOL     OW26815   5.449   2.800   1.144
 8639SOL    HW126816   5.531   2.846   1.177
 8639SOL    HW226817   5.476   2.719   1.091
 8640SOL     OW26818   4.329   3.803   0.097
 8640SOL    HW126819   4.339   3.898   0.069
 8640SOL    HW226820   4.264   3.757   0.037
 8641SOL     OW26821   4.949   4.769   4.386
 8641SOL    HW126822   4.865   4.782   4.439
 8641SOL    HW226823   5.025   4.750   4.448
 8642SOL     OW26824   2.279   6.132   3.157
 8642SOL    HW126825   2.184   6.160   3.144
 8642SOL    HW226826   2.289   6.035   3.138
 8643SOL     OW26827   2.820   6.960   6.667
 8643SOL    HW126828   2.840   6.921   6.577
 8643SOL    HW226829   2.725   6.938   6.692
 8644SOL     OW26830   5.501   2.189   5.318
 8644SOL    HW126831   5.579   2.200   5.378
 8644SOL    HW226832   5.532   2.179   5.223
 8645SOL     OW26833   4.626   4.569   1.494
 8645SOL    HW126834   4.657   4.664   1.489
 8645SOL    HW226835   4.701   4.512   1.528
 8646SOL     OW26836   6.869   1.287   1.646
 8646SOL    HW126837   6.937   1.257   1.579
 8646SOL    HW226838   6.823   1.369   1.612
 8647SOL     OW26839   3.029   5.746   6.278
 8647SOL    HW126840   2.939   5.762   6.319
 8647SOL    HW226841   3.065   5.658   6.310
 8648SOL     OW26842   6.236   0.600   3.430
 8648SOL    HW126843   6.322   0.552   3.449
 8648SOL    HW226844   6.225   0.676   3.493
 8649SOL     OW26845   5.408   5.295   5.917
 8649SOL    HW126846   5.503   5.325   5.922
 8649SOL    HW226847   5.385   5.240   5.998
 8650SOL     OW26848   2.392   5.146   4.814
 8650SOL    HW126849   2.332   5.067   4.828
 8650SOL    HW226850   2.442   5.165   4.898
 8651SOL     OW26851   3.579   0.181   0.200
 8651SOL    HW126852   3.585   0.261   0.260
 8651SOL    HW226853   3.646   0.190   0.126
 8652SOL     OW26854   1.848   4.398   4.053
 8652SOL    HW126855   1.920   4.391   3.983
 8652SOL    HW226856   1.766   4.437   4.012
 8653SOL     OW26857   5.780   0.493   6.319
 8653SOL    HW126858   5.785   0.495   6.219
 8653SOL    HW226859   5.871   0.507   6.358
 8654SOL     OW26860   1.139   4.957   1.636
 8654SOL    HW126861   1.222   5.007   1.664
 8654SOL    HW226862   1.066   5.022   1.618
 8655SOL     OW26863   6.855   1.511   4.111
 8655SOL    HW126864   6.781   1.476   4.054
 8655SOL    HW226865   6.932   1.447   4.108
 8656SOL     OW26866   6.608   0.520   0.807
 8656SOL    HW126867   6.521   0.550   0.847
 8656SOL    HW226868   6.683   0.555   0.862
 8657SOL     OW26869   5.244   4.476   0.561
 8657SOL    HW126870   5.241   4.572   0.535
 8657SOL    HW226871   5.263   4.419   0.481
 8658SOL     OW26872   5.150   6.587   0.375
 8658SOL    HW126873   5.132   6.492   0.401
 8658SOL    HW226874   5.067   6.641   0.388
 8659SOL     OW26875   4.719   2.167   2.208
 8659SOL    HW126876   4.621   2.157   2.191
 8659SOL    HW226877   4.769   2.161   2.121
 8660SOL     OW26878   6.473   4.379   1.707
 8660SOL    HW126879   6.533   4.429   1.769
 8660SOL    HW226880   6.409   4.442   1.664
 8661SOL     OW26881   5.884   4.067   0.840
 8661SOL    HW126882   5.969   4.113   0.866
 8661SOL    HW226883   5.817   4.076   0.913
 8662SOL     OW26884   4.537   5.617   1.309
 8662SOL    HW126885   4.437   5.620   1.308
 8662SOL    HW226886   4.568   5.555   1.381
 8663SOL     OW26887   3.607   5.832   1.547
 8663SOL    HW126888   3.509   5.847   1.561
 8663SOL    HW226889   3.623   5.801   1.454
 8664SOL     OW26890   1.467   6.015   1.075
 8664SOL    HW126891   1.480   6.036   0.978
 8664SOL    HW226892   1.527   5.939   1.101
 8665SOL     OW26893   5.265   6.432   4.760
 8665SOL    HW126894   5.212   6.516   4.768
 8665SOL    HW226895   5.317   6.418   4.845
 8666SOL     OW26896   4.959   1.557   3.939
 8666SOL    HW126897   5.036   1.601   3.985
 8666SOL    HW226898   4.994   1.485   3.878
 8667SOL     OW26899   4.259   2.295   3.193
 8667SOL    HW126900   4.339   2.245   3.228
 8667SOL    HW226901   4.288   2.356   3.120
 8668SOL     OW26902   4.941   3.571   3.057
 8668SOL    HW126903   4.911   3.505   2.987
 8668SOL    HW226904   5.026   3.538   3.099
 8669SOL     OW26905   1.612   6.330   6.616
 8669SOL    HW126906   1.543   6.339   6.543
 8669SOL    HW226907   1.703   6.341   6.576
 8670SOL     OW26908   4.006   4.002   5.125
 8670SOL    HW126909   3.981   4.032   5.217
 8670SOL    HW226910   4.017   3.903   5.124
 8671SOL     OW26911   5.087   1.451   2.953
 8671SOL    HW126912   5.166   1.502   2.922
 8671SOL    HW226913   5.009   1.513   2.965
 8672SOL     OW26914   1.682   4.830   4.438
 8672SOL    HW126915   1.620   4.818   4.516
 8672SOL    HW226916   1.632   4.874   4.363
 8673SOL     OW26917   5.909   2.591   0.161
 8673SOL    HW126918   5.909   2.613   0.258
 8673SOL    HW226919   5.998   2.615   0.121
 8674SOL     OW26920   5.770   6.021   3.422
 8674SOL    HW126921   5.697   6.051   3.484
 8674SOL    HW226922   5.803   5.931   3.451
 8675SOL     OW26923   2.934   2.283   4.086
 8675SOL    HW126924   2.948   2.270   4.184
 8675SOL    HW226925   2.845   2.327   4.070
 8676SOL     OW26926   4.457   0.377   2.223
 8676SOL    HW126927   4.486   0.338   2.135
 8676SOL    HW226928   4.526   0.356   2.293
 8677SOL     OW26929   2.342   5.682   5.827
 8677SOL    HW126930   2.304   5.679   5.734
 8677SOL    HW226931   2.319   5.598   5.876
 8678SOL     OW26932   6.807   0.640   0.950
 8678SOL    HW126933   6.895   0.666   0.912
 8678SOL    HW226934   6.821   0.585   1.032
 8679SOL     OW26935   6.985   2.213   3.269
 8679SOL    HW126936   6.914   2.201   3.199
 8679SOL    HW226937   0.011   2.299   3.253
 8680SOL     OW26938   0.979   3.689   1.051
 8680SOL    HW126939   0.884   3.710   1.029
 8680SOL    HW226940   1.022   3.768   1.094
 8681SOL     OW26941   5.200   5.309   0.131
 8681SOL    HW126942   5.177   5.284   0.037
 8681SOL    HW226943   5.120   5.292   0.189
 8682SOL     OW26944   4.848   6.591   2.605
 8682SOL    HW126945   4.913   6.609   2.532
 8682SOL    HW226946   4.812   6.498   2.597
 8683SOL     OW26947   1.346   2.062   3.361
 8683SOL    HW126948   1.328   2.100   3.270
 8683SOL    HW226949   1.333   2.133   3.430
 8684SOL     OW26950   6.876   3.122   5.210
 8684SOL    HW126951   6.953   3.072   5.249
 8684SOL    HW226952   6.835   3.068   5.136
 8685SOL     OW26953   0.386   1.669   6.208
 8685SOL    HW126954   0.306   1.702   6.257
 8685SOL    HW226955   0.399   1.722   6.124
 8686SOL     OW26956   0.106   1.784   2.403
 8686SOL    HW126957   0.174   1.805   2.333
 8686SOL    HW226958   0.016   1.776   2.361
 8687SOL     OW26959   4.542   5.083   1.722
 8687SOL    HW126960   4.576   5.155   1.782
 8687SOL    HW226961   4.493   5.015   1.776
 8688SOL     OW26962   2.400   5.339   7.006
 8688SOL    HW126963   2.456   5.382   0.054
 8688SOL    HW226964   2.380   5.405   6.933
 8689SOL     OW26965   3.913   4.021   1.465
 8689SOL    HW126966   3.997   4.004   1.414
 8689SOL    HW226967   3.903   3.953   1.537
 8690SOL     OW26968   1.597   3.594   3.185
 8690SOL    HW126969   1.531   3.624   3.254
 8690SOL    HW226970   1.583   3.646   3.100
 8691SOL     OW26971   3.083   1.707   6.008
 8691SOL    HW126972   3.040   1.634   5.954
 8691SOL    HW226973   3.179   1.686   6.023
 8692SOL     OW26974   2.404   1.813   4.871
 8692SOL    HW126975   2.332   1.810   4.941
 8692SOL    HW226976   2.370   1.864   4.791
 8693SOL     OW26977   6.105   0.974   0.117
 8693SOL    HW126978   6.036   0.928   0.060
 8693SOL    HW226979   6.195   0.938   0.095
 8694SOL     OW26980   4.970   0.840   5.510
 8694SOL    HW126981   4.925   0.919   5.469
 8694SOL    HW226982   5.053   0.818   5.458
 8695SOL     OW26983   4.138   2.863   5.982
 8695SOL    HW126984   4.083   2.802   5.925
 8695SOL    HW226985   4.082   2.899   6.056
 8696SOL     OW26986   2.012   5.192   6.833
 8696SOL    HW126987   2.059   5.124   6.890
 8696SOL    HW226988   2.077   5.231   6.768
 8697SOL     OW26989   6.815   2.423   6.349
 8697SOL    HW126990   6.782   2.515   6.365
 8697SOL    HW226991   6.745   2.356   6.376
 8698SOL     OW26992   5.350   6.333   5.726
 8698SOL    HW126993   5.364   6.400   5.653
 8698SOL    HW226994   5.355   6.240   5.688
 8699SOL     OW26995   1.924   2.170   5.419
 8699SOL    HW126996   1.914   2.091   5.359
 8699SOL    HW226997   1.844   2.230   5.409
 8700SOL     OW26998   0.716   1.140   4.544
 8700SOL    HW126999   0.713   1.048   4.584
 8700SOL    HW227000   0.623   1.173   4.528
 8701SOL     OW27001   0.429   1.551   0.788
 8701SOL    HW127002   0.500   1.581   0.723
 8701SOL    HW227003   0.472   1.516   0.871
 8702SOL     OW27004   5.543   5.274   1.665
 8702SOL    HW127005   5.628   5.325   1.654
 8702SOL    HW227006   5.560   5.176   1.650
 8703SOL     OW27007   2.672   5.104   6.600
 8703SOL    HW127008   2.710   5.188   6.640
 8703SOL    HW227009   2.579   5.121   6.570
 8704SOL     OW27010   0.239   3.636   3.284
 8704SOL    HW127011   0.285   3.593   3.362
 8704SOL    HW227012   0.233   3.570   3.209
 8705SOL     OW27013   5.452   1.462   6.367
 8705SOL    HW127014   5.373   1.465   6.428
 8705SOL    HW227015   5.509   1.542   6.382
 8706SOL     OW27016   5.102   1.798   6.772
 8706SOL    HW127017   5.069   1.716   6.725
 8706SOL    HW227018   5.026   1.844   6.818
 8707SOL     OW27019   6.796   1.580   6.651
 8707SOL    HW127020   6.844   1.502   6.611
 8707SOL    HW227021   6.698   1.573   6.632
 8708SOL     OW27022   4.533   2.063   2.852
 8708SOL    HW127023   4.434   2.066   2.864
 8708SOL    HW227024   4.560   2.127   2.781
 8709SOL     OW27025   0.157   6.867   6.835
 8709SOL    HW127026   0.177   6.917   6.919
 8709SOL    HW227027   0.095   6.921   6.778
 8710SOL     OW27028   1.995   3.436   4.000
 8710SOL    HW127029   2.044   3.361   3.955
 8710SOL    HW227030   2.044   3.522   3.982
 8711SOL     OW27031   1.684   6.664   3.175
 8711SOL    HW127032   1.744   6.597   3.132
 8711SOL    HW227033   1.589   6.634   3.167
 8712SOL     OW27034   4.068   2.179   4.869
 8712SOL    HW127035   3.988   2.165   4.927
 8712SOL    HW227036   4.113   2.264   4.894
 8713SOL     OW27037   6.418   3.142   3.948
 8713SOL    HW127038   6.406   3.045   3.929
 8713SOL    HW227039   6.357   3.169   4.023
 8714SOL     OW27040   0.663   0.747   6.127
 8714SOL    HW127041   0.752   0.712   6.098
 8714SOL    HW227042   0.676   0.824   6.190
 8715SOL     OW27043   4.572   0.552   0.936
 8715SOL    HW127044   4.608   0.626   0.880
 8715SOL    HW227045   4.643   0.482   0.949
 8716SOL     OW27046   6.854   6.705   1.721
 8716SOL    HW127047   6.821   6.685   1.813
 8716SOL    HW227048   6.781   6.691   1.655
 8717SOL     OW27049   3.403   3.209   3.880
 8717SOL    HW127050   3.462   3.130   3.896
 8717SOL    HW227051   3.307   3.179   3.883
 8718SOL     OW27052   1.368   3.883   5.002
 8718SOL    HW127053   1.457   3.924   4.979
 8718SOL    HW227054   1.359   3.795   4.957
 8719SOL     OW27055   3.546   0.590   6.686
 8719SOL    HW127056   3.534   0.562   6.591
 8719SOL    HW227057   3.625   0.544   6.725
 8720SOL     OW27058   6.955   5.483   5.872
 8720SOL    HW127059   6.917   5.435   5.793
 8720SOL    HW227060   6.887   5.486   5.945
 8721SOL     OW27061   6.670   3.164   2.127
 8721SOL    HW127062   6.765   3.134   2.121
 8721SOL    HW227063   6.651   3.197   2.219
 8722SOL     OW27064   3.908   1.567   0.083
 8722SOL    HW127065   3.839   1.504   0.048
 8722SOL    HW227066   3.867   1.658   0.095
 8723SOL     OW27067   5.582   5.896   1.123
 8723SOL    HW127068   5.566   5.802   1.095
 8723SOL    HW227069   5.512   5.955   1.082
 8724SOL     OW27070   4.932   6.947   5.205
 8724SOL    HW127071   4.896   6.929   5.296
 8724SOL    HW227072   4.862   6.926   5.137
 8725SOL     OW27073   1.957   6.010   6.111
 8725SOL    HW127074   2.030   5.942   6.117
 8725SOL    HW227075   1.904   5.995   6.028
 8726SOL     OW27076   6.879   1.104   3.166
 8726SOL    HW127077   6.888   1.071   3.072
 8726SOL    HW227078   6.891   1.203   3.168
 8727SOL     OW27079   6.257   6.340   2.478
 8727SOL    HW127080   6.257   6.249   2.435
 8727SOL    HW227081   6.343   6.386   2.457
 8728SOL     OW27082   6.170   0.508   2.372
 8728SOL    HW127083   6.165   0.432   2.307
 8728SOL    HW227084   6.210   0.476   2.458
 8729SOL     OW27085   4.170   6.198   4.947
 8729SOL    HW127086   4.205   6.216   5.038
 8729SOL    HW227087   4.144   6.102   4.939
 8730SOL     OW27088   6.836   3.980   2.562
 8730SOL    HW127089   6.849   3.881   2.571
 8730SOL    HW227090   6.745   3.999   2.525
 8731SOL     OW27091   2.024   2.675   2.627
 8731SOL    HW127092   2.096   2.646   2.564
 8731SOL    HW227093   1.955   2.603   2.634
 8732SOL     OW27094   6.247   5.158   1.726
 8732SOL    HW127095   6.279   5.173   1.632
 8732SOL    HW227096   6.241   5.060   1.743
 8733SOL     OW27097   1.409   5.131   1.287
 8733SOL    HW127098   1.429   5.182   1.204
 8733SOL    HW227099   1.473   5.158   1.359
 8734SOL     OW27100   1.350   4.179   2.082
 8734SOL    HW127101   1.434   4.234   2.085
 8734SOL    HW227102   1.301   4.188   2.169
 8735SOL     OW27103   1.384   2.399   0.587
 8735SOL    HW127104   1.442   2.360   0.658
 8735SOL    HW227105   1.414   2.492   0.566
 8736SOL     OW27106   0.505   5.930   6.723
 8736SOL    HW127107   0.486   5.932   6.625
 8736SOL    HW227108   0.538   6.019   6.753
 8737SOL     OW27109   1.699   6.050   6.647
 8737SOL    HW127110   1.659   6.140   6.663
 8737SOL    HW227111   1.793   6.049   6.681
 8738SOL     OW27112   2.529   5.601   4.726
 8738SOL    HW127113   2.546   5.699   4.716
 8738SOL    HW227114   2.601   5.550   4.681
 8739SOL     OW27115   5.580   5.427   6.541
 8739SOL    HW127116   5.629   5.341   6.529
 8739SOL    HW227117   5.593   5.460   6.635
 8740SOL     OW27118   4.855   1.058   4.551
 8740SOL    HW127119   4.876   1.142   4.602
 8740SOL    HW227120   4.826   1.082   4.459
 8741SOL     OW27121   2.721   1.294   2.536
 8741SOL    HW127122   2.652   1.226   2.559
 8741SOL    HW227123   2.798   1.288   2.599
 8742SOL     OW27124   5.813   6.077   1.458
 8742SOL    HW127125   5.894   6.036   1.415
 8742SOL    HW227126   5.757   6.121   1.387
 8743SOL     OW27127   1.242   6.955   2.473
 8743SOL    HW127128   1.317   6.982   2.413
 8743SOL    HW227129   1.157   6.951   2.420
 8744SOL     OW27130   3.405   2.811   6.126
 8744SOL    HW127131   3.389   2.724   6.172
 8744SOL    HW227132   3.337   2.823   6.053
 8745SOL     OW27133   6.013   2.656   6.628
 8745SOL    HW127134   5.991   2.670   6.531
 8745SOL    HW227135   5.939   2.607   6.673
 8746SOL     OW27136   4.819   5.080   4.366
 8746SOL    HW127137   4.853   5.031   4.287
 8746SOL    HW227138   4.779   5.015   4.431
 8747SOL     OW27139   0.641   2.573   2.998
 8747SOL    HW127140   0.740   2.570   2.992
 8747SOL    HW227141   0.613   2.605   3.088
 8748SOL     OW27142   6.612   1.490   4.923
 8748SOL    HW127143   6.629   1.589   4.923
 8748SOL    HW227144   6.655   1.449   5.003
 8749SOL     OW27145   2.558   0.811   5.332
 8749SOL    HW127146   2.637   0.773   5.381
 8749SOL    HW227147   2.578   0.906   5.306
 8750SOL     OW27148   3.195   3.535   5.134
 8750SOL    HW127149   3.274   3.479   5.110
 8750SOL    HW227150   3.212   3.582   5.221
 8751SOL     OW27151   5.736   1.039   2.282
 8751SOL    HW127152   5.804   1.042   2.208
 8751SOL    HW227153   5.755   1.113   2.347
 8752SOL     OW27154   2.980   3.125   0.580
 8752SOL    HW127155   2.891   3.164   0.554
 8752SOL    HW227156   3.016   3.175   0.658
 8753SOL     OW27157   3.948   2.255   5.911
 8753SOL    HW127158   3.875   2.226   5.849
 8753SOL    HW227159   4.036   2.252   5.864
 8754SOL     OW27160   2.033   3.466   5.834
 8754SOL    HW127161   2.006   3.546   5.780
 8754SOL    HW227162   1.952   3.427   5.877
 8755SOL     OW27163   1.883   0.550   0.713
 8755SOL    HW127164   1.981   0.558   0.729
 8755SOL    HW227165   1.858   0.453   0.703
 8756SOL     OW27166   1.017   3.112   3.684
 8756SOL    HW127167   0.938   3.078   3.633
 8756SOL    HW227168   0.986   3.172   3.758
 8757SOL     OW27169   3.991   5.499   6.304
 8757SOL    HW127170   4.044   5.574   6.344
 8757SOL    HW227171   4.051   5.420   6.290
 8758SOL     OW27172   5.339   5.821   2.254
 8758SOL    HW127173   5.331   5.775   2.343
 8758SOL    HW227174   5.248   5.834   2.216
 8759SOL     OW27175   4.698   2.634   0.184
 8759SOL    HW127176   4.632   2.560   0.195
 8759SOL    HW227177   4.788   2.604   0.216
 8760SOL     OW27178   2.184   1.003   4.764
 8760SOL    HW127179   2.092   0.976   4.791
 8760SOL    HW227180   2.227   1.054   4.839
 8761SOL     OW27181   6.154   1.873   1.912
 8761SOL    HW127182   6.106   1.809   1.852
 8761SOL    HW227183   6.223   1.922   1.858
 8762SOL     OW27184   1.560   3.923   2.779
 8762SOL    HW127185   1.495   3.980   2.729
 8762SOL    HW227186   1.652   3.938   2.743
 8763SOL     OW27187   6.907   6.508   6.046
 8763SOL    HW127188   6.977   6.454   5.998
 8763SOL    HW227189   6.869   6.576   5.983
 8764SOL     OW27190   4.996   0.599   4.817
 8764SOL    HW127191   4.916   0.620   4.872
 8764SOL    HW227192   5.035   0.684   4.782
 8765SOL     OW27193   5.091   6.517   3.590
 8765SOL    HW127194   5.083   6.605   3.639
 8765SOL    HW227195   5.059   6.529   3.496
 8766SOL     OW27196   4.736   4.126   3.739
 8766SOL    HW127197   4.800   4.199   3.714
 8766SOL    HW227198   4.698   4.084   3.657
 8767SOL     OW27199   5.085   5.701   2.622
 8767SOL    HW127200   5.026   5.781   2.620
 8767SOL    HW227201   5.166   5.720   2.677
 8768SOL     OW27202   1.345   1.994   0.518
 8768SOL    HW127203   1.331   2.092   0.534
 8768SOL    HW227204   1.442   1.972   0.531
 8769SOL     OW27205   0.336   0.654   4.278
 8769SOL    HW127206   0.262   0.586   4.274
 8769SOL    HW227207   0.389   0.650   4.194
 8770SOL     OW27208   5.016   4.575   2.615
 8770SOL    HW127209   4.955   4.528   2.679
 8770SOL    HW227210   5.067   4.507   2.562
 8771SOL     OW27211   0.887   1.538   6.706
 8771SOL    HW127212   0.890   1.485   6.791
 8771SOL    HW227213   0.832   1.489   6.638
 8772SOL     OW27214   5.311   0.772   6.159
 8772SOL    HW127215   5.244   0.757   6.086
 8772SOL    HW227216   5.291   0.711   6.236
 8773SOL     OW27217   4.701   2.630   3.266
 8773SOL    HW127218   4.795   2.597   3.258
 8773SOL    HW227219   4.699   2.709   3.328
 8774SOL     OW27220   1.057   0.769   0.277
 8774SOL    HW127221   1.091   0.854   0.236
 8774SOL    HW227222   1.129   0.700   0.275
 8775SOL     OW27223   5.801   0.106   5.196
 8775SOL    HW127224   5.806   0.200   5.228
 8775SOL    HW227225   5.710   0.069   5.214
 8776SOL     OW27226   3.440   2.900   6.433
 8776SOL    HW127227   3.385   2.859   6.360
 8776SOL    HW227228   3.448   2.835   6.509
 8777SOL     OW27229   0.210   4.407   2.171
 8777SOL    HW127230   0.259   4.320   2.167
 8777SOL    HW227231   0.275   4.480   2.192
 8778SOL     OW27232   5.286   2.635   5.043
 8778SOL    HW127233   5.276   2.641   5.142
 8778SOL    HW227234   5.383   2.625   5.020
 8779SOL     OW27235   2.522   5.225   2.774
 8779SOL    HW127236   2.425   5.203   2.772
 8779SOL    HW227237   2.574   5.141   2.791
 8780SOL     OW27238   0.628   6.514   2.249
 8780SOL    HW127239   0.589   6.602   2.224
 8780SOL    HW227240   0.690   6.526   2.326
 8781SOL     OW27241   5.356   1.299   3.157
 8781SOL    HW127242   5.415   1.305   3.237
 8781SOL    HW227243   5.307   1.212   3.157
 8782SOL     OW27244   6.597   6.138   1.217
 8782SOL    HW127245   6.521   6.194   1.185
 8782SOL    HW227246   6.585   6.119   1.315
 8783SOL     OW27247   6.149   4.450   3.489
 8783SOL    HW127248   6.177   4.498   3.572
 8783SOL    HW227249   6.163   4.509   3.409
 8784SOL     OW27250   6.464   4.037   6.324
 8784SOL    HW127251   6.529   4.018   6.397
 8784SOL    HW227252   6.514   4.063   6.241
 8785SOL     OW27253   5.616   3.990   0.331
 8785SOL    HW127254   5.571   4.071   0.294
 8785SOL    HW227255   5.573   3.908   0.293
 8786SOL     OW27256   2.090   0.228   0.350
 8786SOL    HW127257   2.170   0.169   0.352
 8786SOL    HW227258   2.009   0.177   0.378
 8787SOL     OW27259   3.468   2.170   1.504
 8787SOL    HW127260   3.491   2.075   1.527
 8787SOL    HW227261   3.464   2.225   1.587
 8788SOL     OW27262   6.884   1.664   5.907
 8788SOL    HW127263   6.961   1.701   5.960
 8788SOL    HW227264   6.894   1.565   5.899
 8789SOL     OW27265   6.425   0.009   4.573
 8789SOL    HW127266   6.361   0.071   4.617
 8789SOL    HW227267   6.519   0.040   4.589
 8790SOL     OW27268   1.117   0.385   6.707
 8790SOL    HW127269   1.102   0.375   6.805
 8790SOL    HW227270   1.029   0.385   6.660
 8791SOL     OW27271   5.249   6.776   4.549
 8791SOL    HW127272   5.337   6.810   4.582
 8791SOL    HW227273   5.205   6.723   4.621
 8792SOL     OW27274   2.644   6.612   2.828
 8792SOL    HW127275   2.743   6.601   2.830
 8792SOL    HW227276   2.600   6.522   2.821
 8793SOL     OW27277   1.180   4.303   3.321
 8793SOL    HW127278   1.148   4.355   3.401
 8793SOL    HW227279   1.162   4.356   3.238
 8794SOL     OW27280   4.652   6.990   2.513
 8794SOL    HW127281   4.678   6.946   2.599
 8794SOL    HW227282   4.734   7.018   2.463
 8795SOL     OW27283   1.675   5.297   5.589
 8795SOL    HW127284   1.620   5.351   5.652
 8795SOL    HW227285   1.764   5.278   5.630
 8796SOL     OW27286   3.793   1.986   4.865
 8796SOL    HW127287   3.821   2.043   4.787
 8796SOL    HW227288   3.697   2.004   4.886
 8797SOL     OW27289   6.783   6.796   6.869
 8797SOL    HW127290   6.749   6.865   6.806
 8797SOL    HW227291   6.862   6.832   6.919
 8798SOL     OW27292   5.162   5.747   5.706
 8798SOL    HW127293   5.172   5.803   5.788
 8798SOL    HW227294   5.066   5.742   5.680
 8799SOL     OW27295   2.777   4.749   3.675
 8799SOL    HW127296   2.855   4.790   3.721
 8799SOL    HW227297   2.695   4.802   3.695
 8800SOL     OW27298   6.443   3.861   5.518
 8800SOL    HW127299   6.358   3.913   5.529
 8800SOL    HW227300   6.521   3.922   5.526
 8801SOL     OW27301   0.110   1.499   4.887
 8801SOL    HW127302   0.183   1.549   4.934
 8801SOL    HW227303   0.149   1.420   4.839
 8802SOL     OW27304   2.005   6.670   0.411
 8802SOL    HW127305   1.987   6.579   0.373
 8802SOL    HW227306   1.924   6.727   0.399
 8803SOL     OW27307   6.601   6.064   6.957
 8803SOL    HW127308   6.630   6.125   6.884
 8803SOL    HW227309   6.510   6.027   6.936
 8804SOL     OW27310   2.284   6.774   2.046
 8804SOL    HW127311   2.352   6.713   2.088
 8804SOL    HW227312   2.272   6.855   2.103
 8805SOL     OW27313   2.892   6.345   3.998
 8805SOL    HW127314   2.865   6.386   3.911
 8805SOL    HW227315   2.992   6.343   4.004
 8806SOL     OW27316   3.089   5.794   2.338
 8806SOL    HW127317   3.077   5.812   2.241
 8806SOL    HW227318   3.130   5.704   2.350
 8807SOL     OW27319   4.856   0.519   0.236
 8807SOL    HW127320   4.848   0.518   0.136
 8807SOL    HW227321   4.953   0.520   0.261
 8808SOL     OW27322   5.889   2.928   6.920
 8808SOL    HW127323   5.860   2.976   7.002
 8808SOL    HW227324   5.980   2.959   6.893
 8809SOL     OW27325   5.196   5.663   3.388
 8809SOL    HW127326   5.106   5.645   3.350
 8809SOL    HW227327   5.254   5.705   3.318
 8810SOL     OW27328   5.946   1.014   5.263
 8810SOL    HW127329   5.928   1.098   5.212
 8810SOL    HW227330   6.001   0.952   5.206
 8811SOL     OW27331   2.960   0.575   2.956
 8811SOL    HW127332   2.888   0.642   2.938
 8811SOL    HW227333   2.942   0.528   3.042
 8812SOL     OW27334   1.673   0.284   0.884
 8812SOL    HW127335   1.668   0.373   0.929
 8812SOL    HW227336   1.757   0.278   0.830
 8813SOL     OW27337   2.519   4.757   1.562
 8813SOL    HW127338   2.564   4.668   1.570
 8813SOL    HW227339   2.559   4.808   1.485
 8814SOL     OW27340   5.545   6.794   1.345
 8814SOL    HW127341   5.617   6.838   1.291
 8814SOL    HW227342   5.586   6.756   1.429
 8815SOL     OW27343   5.720   0.002   1.032
 8815SOL    HW127344   5.677   0.092   1.044
 8815SOL    HW227345   5.697   6.988   0.942
 8816SOL     OW27346   0.941   6.452   0.268
 8816SOL    HW127347   0.934   6.435   0.366
 8816SOL    HW227348   0.961   6.549   0.252
 8817SOL     OW27349   0.440   5.254   3.828
 8817SOL    HW127350   0.531   5.220   3.853
 8817SOL    HW227351   0.450   5.337   3.773
 8818SOL     OW27352   0.540   4.660   4.629
 8818SOL    HW127353   0.458   4.651   4.572
 8818SOL    HW227354   0.578   4.569   4.646
 8819SOL     OW27355   5.671   5.379   5.067
 8819SOL    HW127356   5.729   5.458   5.085
 8819SOL    HW227357   5.716   5.296   5.102
 8820SOL     OW27358   2.347   0.617   5.145
 8820SOL    HW127359   2.293   0.533   5.150
 8820SOL    HW227360   2.317   0.680   5.217
 8821SOL     OW27361   1.883   5.980   1.086
 8821SOL    HW127362   1.848   6.026   1.168
 8821SOL    HW227363   1.872   6.040   1.007
 8822SOL     OW27364   0.686   0.180   4.639
 8822SOL    HW127365   0.778   0.183   4.678
 8822SOL    HW227366   0.621   0.152   4.710
 8823SOL     OW27367   2.339   0.979   2.058
 8823SOL    HW127368   2.371   1.068   2.090
 8823SOL    HW227369   2.256   0.953   2.106
 8824SOL     OW27370   1.098   1.921   0.417
 8824SOL    HW127371   1.013   1.942   0.465
 8824SOL    HW227372   1.171   1.981   0.450
 8825SOL     OW27373   2.670   1.314   1.435
 8825SOL    HW127374   2.620   1.393   1.399
 8825SOL    HW227375   2.640   1.294   1.528
 8826SOL     OW27376   6.232   3.509   0.107
 8826SOL    HW127377   6.154   3.496   0.045
 8826SOL    HW227378   6.312   3.536   0.054
 8827SOL     OW27379   4.243   1.663   2.187
 8827SOL    HW127380   4.161   1.623   2.147
 8827SOL    HW227381   4.323   1.611   2.159
 8828SOL     OW27382   4.549   6.205   5.653
 8828SOL    HW127383   4.467   6.149   5.637
 8828SOL    HW227384   4.521   6.296   5.684
 8829SOL     OW27385   5.527   3.169   0.989
 8829SOL    HW127386   5.584   3.132   0.916
 8829SOL    HW227387   5.437   3.125   0.988
 8830SOL     OW27388   1.555   1.781   2.905
 8830SOL    HW127389   1.510   1.748   2.988
 8830SOL    HW227390   1.633   1.722   2.884
 8831SOL     OW27391   3.800   2.124   4.152
 8831SOL    HW127392   3.824   2.182   4.075
 8831SOL    HW227393   3.869   2.133   4.224
 8832SOL     OW27394   0.097   6.323   2.857
 8832SOL    HW127395   0.179   6.374   2.884
 8832SOL    HW227396   0.065   6.269   2.934
 8833SOL     OW27397   2.792   4.832   5.814
 8833SOL    HW127398   2.776   4.826   5.912
 8833SOL    HW227399   2.721   4.889   5.772
 8834SOL     OW27400   5.525   3.965   4.737
 8834SOL    HW127401   5.480   3.920   4.814
 8834SOL    HW227402   5.620   3.936   4.732
 8835SOL     OW27403   5.112   1.083   5.809
 8835SOL    HW127404   5.197   1.041   5.839
 8835SOL    HW227405   5.042   1.012   5.798
 8836SOL     OW27406   5.280   2.754   0.509
 8836SOL    HW127407   5.327   2.666   0.508
 8836SOL    HW227408   5.330   2.819   0.452
 8837SOL     OW27409   0.160   6.153   2.215
 8837SOL    HW127410   0.094   6.159   2.290
 8837SOL    HW227411   0.239   6.210   2.236
 8838SOL     OW27412   2.036   5.340   3.529
 8838SOL    HW127413   1.972   5.275   3.570
 8838SOL    HW227414   2.093   5.380   3.602
 8839SOL     OW27415   5.991   5.231   2.818
 8839SOL    HW127416   6.076   5.198   2.778
 8839SOL    HW227417   5.925   5.156   2.825
 8840SOL     OW27418   0.093   2.115   2.205
 8840SOL    HW127419   0.087   2.193   2.268
 8840SOL    HW227420   0.110   2.149   2.112
 8841SOL     OW27421   0.638   0.817   5.431
 8841SOL    HW127422   0.637   0.819   5.331
 8841SOL    HW227423   0.715   0.762   5.462
 8842SOL     OW27424   3.246   2.939   2.356
 8842SOL    HW127425   3.285   2.935   2.264
 8842SOL    HW227426   3.319   2.963   2.421
 8843SOL     OW27427   1.762   3.295   5.238
 8843SOL    HW127428   1.822   3.250   5.172
 8843SOL    HW227429   1.788   3.268   5.331
 8844SOL     OW27430   0.122   1.542   6.506
 8844SOL    HW127431   0.095   1.449   6.481
 8844SOL    HW227432   0.178   1.539   6.589
 8845SOL     OW27433   3.726   3.562   0.755
 8845SOL    HW127434   3.659   3.498   0.792
 8845SOL    HW227435   3.816   3.519   0.754
 8846SOL     OW27436   3.602   5.435   4.102
 8846SOL    HW127437   3.671   5.486   4.153
 8846SOL    HW227438   3.643   5.353   4.062
 8847SOL     OW27439   2.537   0.626   3.159
 8847SOL    HW127440   2.595   0.548   3.186
 8847SOL    HW227441   2.530   0.690   3.236
 8848SOL     OW27442   2.798   1.779   2.136
 8848SOL    HW127443   2.862   1.716   2.092
 8848SOL    HW227444   2.796   1.760   2.234
 8849SOL     OW27445   2.888   6.247   3.640
 8849SOL    HW127446   2.981   6.239   3.675
 8849SOL    HW227447   2.855   6.156   3.613
 8850SOL     OW27448   0.823   1.906   0.091
 8850SOL    HW127449   0.727   1.890   0.072
 8850SOL    HW227450   0.835   1.927   0.188
 8851SOL     OW27451   1.232   4.500   2.826
 8851SOL    HW127452   1.202   4.537   2.738
 8851SOL    HW227453   1.325   4.464   2.818
 8852SOL     OW27454   5.802   2.856   5.352
 8852SOL    HW127455   5.733   2.868   5.424
 8852SOL    HW227456   5.833   2.946   5.321
 8853SOL     OW27457   2.725   0.950   1.080
 8853SOL    HW127458   2.678   1.020   1.134
 8853SOL    HW227459   2.679   0.862   1.092
 8854SOL     OW27460   3.212   2.583   5.518
 8854SOL    HW127461   3.164   2.528   5.586
 8854SOL    HW227462   3.232   2.527   5.437
 8855SOL     OW27463   0.127   5.484   1.507
 8855SOL    HW127464   0.088   5.408   1.560
 8855SOL    HW227465   0.221   5.462   1.481
 8856SOL     OW27466   0.342   6.451   6.193
 8856SOL    HW127467   0.246   6.477   6.200
 8856SOL    HW227468   0.351   6.370   6.136
 8857SOL     OW27469   6.401   1.829   4.347
 8857SOL    HW127470   6.302   1.839   4.339
 8857SOL    HW227471   6.446   1.886   4.279
 8858SOL     OW27472   0.887   3.591   5.488
 8858SOL    HW127473   0.909   3.579   5.391
 8858SOL    HW227474   0.969   3.581   5.543
 8859SOL     OW27475   0.171   0.397   4.116
 8859SOL    HW127476   0.127   0.486   4.119
 8859SOL    HW227477   0.150   0.352   4.029
 8860SOL     OW27478   6.667   2.592   2.898
 8860SOL    HW127479   6.754   2.544   2.889
 8860SOL    HW227480   6.683   2.690   2.905
 8861SOL     OW27481   4.235   1.582   6.035
 8861SOL    HW127482   4.149   1.630   6.054
 8861SOL    HW227483   4.222   1.484   6.049
 8862SOL     OW27484   5.398   0.360   3.962
 8862SOL    HW127485   5.427   0.320   4.049
 8862SOL    HW227486   5.395   0.289   3.892
 8863SOL     OW27487   2.032   4.907   4.255
 8863SOL    HW127488   2.041   4.991   4.309
 8863SOL    HW227489   1.958   4.851   4.293
 8864SOL     OW27490   2.864   4.916   6.609
 8864SOL    HW127491   2.794   4.981   6.580
 8864SOL    HW227492   2.820   4.838   6.654
 8865SOL     OW27493   2.903   0.179   5.502
 8865SOL    HW127494   2.886   0.272   5.536
 8865SOL    HW227495   2.817   0.133   5.483
 8866SOL     OW27496   5.028   0.237   2.823
 8866SOL    HW127497   5.113   0.254   2.773
 8866SOL    HW227498   5.012   0.138   2.830
 8867SOL     OW27499   5.665   4.264   3.055
 8867SOL    HW127500   5.733   4.311   3.110
 8867SOL    HW227501   5.704   4.241   2.966
 8868SOL     OW27502   6.590   2.561   1.263
 8868SOL    HW127503   6.495   2.577   1.289
 8868SOL    HW227504   6.598   2.472   1.219
 8869SOL     OW27505   4.278   5.507   5.156
 8869SOL    HW127506   4.240   5.445   5.087
 8869SOL    HW227507   4.368   5.474   5.184
 8870SOL     OW27508   2.756   0.500   0.572
 8870SOL    HW127509   2.705   0.519   0.488
 8870SOL    HW227510   2.850   0.474   0.549
 8871SOL     OW27511   2.451   1.391   3.826
 8871SOL    HW127512   2.511   1.326   3.779
 8871SOL    HW227513   2.356   1.363   3.813
 8872SOL     OW27514   1.226   4.380   4.801
 8872SOL    HW127515   1.180   4.462   4.769
 8872SOL    HW227516   1.294   4.351   4.733
 8873SOL     OW27517   0.503   6.443   1.824
 8873SOL    HW127518   0.466   6.477   1.738
 8873SOL    HW227519   0.428   6.410   1.882
 8874SOL     OW27520   1.874   6.517   2.804
 8874SOL    HW127521   1.904   6.422   2.813
 8874SOL    HW227522   1.775   6.520   2.793
 8875SOL     OW27523   0.199   3.724   5.165
 8875SOL    HW127524   0.133   3.747   5.093
 8875SOL    HW227525   0.260   3.803   5.179
 8876SOL     OW27526   2.256   6.498   5.576
 8876SOL    HW127527   2.207   6.412   5.565
 8876SOL    HW227528   2.231   6.561   5.503
 8877SOL     OW27529   3.222   2.118   4.310
 8877SOL    HW127530   3.263   2.090   4.223
 8877SOL    HW227531   3.145   2.179   4.293
 8878SOL     OW27532   6.196   4.896   0.517
 8878SOL    HW127533   6.277   4.901   0.459
 8878SOL    HW227534   6.118   4.936   0.469
 8879SOL     OW27535   4.881   4.465   2.860
 8879SOL    HW127536   4.790   4.439   2.891
 8879SOL    HW227537   4.937   4.493   2.938
 8880SOL     OW27538   4.899   6.527   4.592
 8880SOL    HW127539   4.878   6.440   4.638
 8880SOL    HW227540   4.814   6.571   4.564
 8881SOL     OW27541   4.894   6.571   3.910
 8881SOL    HW127542   4.982   6.535   3.881
 8881SOL    HW227543   4.898   6.596   4.007
 8882SOL     OW27544   5.430   0.704   0.900
 8882SOL    HW127545   5.397   0.710   0.806
 8882SOL    HW227546   5.408   0.788   0.949
 8883SOL     OW27547   1.764   6.217   6.143
 8883SOL    HW127548   1.759   6.239   6.241
 8883SOL    HW227549   1.816   6.133   6.130
 8884SOL     OW27550   6.702   4.195   5.298
 8884SOL    HW127551   6.795   4.225   5.276
 8884SOL    HW227552   6.646   4.274   5.323
 8885SOL     OW27553   5.890   4.263   1.795
 8885SOL    HW127554   5.937   4.289   1.880
 8885SOL    HW227555   5.957   4.225   1.731
 8886SOL     OW27556   2.886   6.056   4.534
 8886SOL    HW127557   2.960   6.045   4.601
 8886SOL    HW227558   2.915   6.117   4.461
 8887SOL     OW27559   3.594   0.441   0.359
 8887SOL    HW127560   3.550   0.389   0.432
 8887SOL    HW227561   3.570   0.538   0.368
 8888SOL     OW27562   1.733   1.587   5.716
 8888SOL    HW127563   1.739   1.528   5.635
 8888SOL    HW227564   1.772   1.539   5.794
 8889SOL     OW27565   6.625   0.103   7.019
 8889SOL    HW127566   6.618   0.059   0.086
 8889SOL    HW227567   6.534   0.111   6.978
 8890SOL     OW27568   0.049   5.800   5.258
 8890SOL    HW127569   0.148   5.793   5.244
 8890SOL    HW227570   0.024   5.752   5.342
 8891SOL     OW27571   4.127   3.111   6.666
 8891SOL    HW127572   4.083   3.034   6.620
 8891SOL    HW227573   4.058   3.166   6.713
 8892SOL     OW27574   3.704   5.516   2.662
 8892SOL    HW127575   3.708   5.453   2.740
 8892SOL    HW227576   3.608   5.536   2.640
 8893SOL     OW27577   1.035   5.658   4.111
 8893SOL    HW127578   0.991   5.568   4.118
 8893SOL    HW227579   1.132   5.650   4.132
 8894SOL     OW27580   3.244   2.669   6.409
 8894SOL    HW127581   3.256   2.609   6.331
 8894SOL    HW227582   3.189   2.749   6.383
 8895SOL     OW27583   6.425   2.759   2.311
 8895SOL    HW127584   6.396   2.830   2.247
 8895SOL    HW227585   6.372   2.766   2.395
 8896SOL     OW27586   2.381   3.155   5.725
 8896SOL    HW127587   2.364   3.058   5.712
 8896SOL    HW227588   2.421   3.194   5.642
 8897SOL     OW27589   2.111   3.049   3.086
 8897SOL    HW127590   2.104   3.035   2.987
 8897SOL    HW227591   2.116   2.960   3.132
 8898SOL     OW27592   4.903   3.661   2.227
 8898SOL    HW127593   4.855   3.659   2.140
 8898SOL    HW227594   4.941   3.570   2.245
 8899SOL     OW27595   1.562   4.907   1.699
 8899SOL    HW127596   1.498   4.981   1.723
 8899SOL    HW227597   1.650   4.947   1.671
 8900SOL     OW27598   5.587   2.816   2.533
 8900SOL    HW127599   5.539   2.732   2.510
 8900SOL    HW227600   5.675   2.819   2.486
 8901SOL     OW27601   1.658   1.005   4.775
 8901SOL    HW127602   1.614   0.916   4.784
 8901SOL    HW227603   1.620   1.053   4.695
 8902SOL     OW27604   1.623   6.385   0.419
 8902SOL    HW127605   1.595   6.462   0.362
 8902SOL    HW227606   1.722   6.383   0.426
 8903SOL     OW27607   0.292   1.587   4.457
 8903SOL    HW127608   0.241   1.632   4.530
 8903SOL    HW227609   0.381   1.630   4.446
 8904SOL     OW27610   6.384   0.917   4.713
 8904SOL    HW127611   6.448   0.910   4.789
 8904SOL    HW227612   6.426   0.969   4.639
 8905SOL     OW27613   2.090   3.805   3.434
 8905SOL    HW127614   2.003   3.832   3.393
 8905SOL    HW227615   2.127   3.726   3.384
 8906SOL     OW27616   0.543   6.199   7.013
 8906SOL    HW127617   0.606   6.208   6.935
 8906SOL    HW227618   0.452   6.174   6.979
 8907SOL     OW27619   2.844   2.684   5.436
 8907SOL    HW127620   2.841   2.756   5.504
 8907SOL    HW227621   2.753   2.644   5.424
 8908SOL     OW27622   1.219   5.150   6.786
 8908SOL    HW127623   1.179   5.240   6.771
 8908SOL    HW227624   1.257   5.115   6.700
 8909SOL     OW27625   2.272   1.385   5.966
 8909SOL    HW127626   2.335   1.384   5.888
 8909SOL    HW227627   2.228   1.296   5.974
 8910SOL     OW27628   0.396   2.997   5.818
 8910SOL    HW127629   0.490   2.978   5.845
 8910SOL    HW227630   0.390   2.998   5.718
 8911SOL     OW27631   4.627   2.088   4.573
 8911SOL    HW127632   4.648   2.014   4.638
 8911SOL    HW227633   4.657   2.175   4.611
 8912SOL     OW27634   3.546   3.606   6.671
 8912SOL    HW127635   3.457   3.561   6.659
 8912SOL    HW227636   3.619   3.541   6.647
 8913SOL     OW27637   4.293   5.726   5.725
 8913SOL    HW127638   4.281   5.627   5.731
 8913SOL    HW227639   4.349   5.748   5.646
 8914SOL     OW27640   4.435   6.914   4.864
 8914SOL    HW127641   4.500   6.848   4.826
 8914SOL    HW227642   4.465   7.007   4.843
 8915SOL     OW27643   0.970   2.505   4.001
 8915SOL    HW127644   0.945   2.431   4.063
 8915SOL    HW227645   1.058   2.485   3.959
 8916SOL     OW27646   6.522   2.784   0.846
 8916SOL    HW127647   6.589   2.744   0.908
 8916SOL    HW227648   6.543   2.880   0.831
 8917SOL     OW27649   6.136   3.324   0.329
 8917SOL    HW127650   6.135   3.235   0.284
 8917SOL    HW227651   6.171   3.393   0.266
 8918SOL     OW27652   6.819   4.134   1.354
 8918SOL    HW127653   6.912   4.115   1.324
 8918SOL    HW227654   6.809   4.109   1.451
 8919SOL     OW27655   3.994   4.244   0.615
 8919SOL    HW127656   3.996   4.323   0.553
 8919SOL    HW227657   3.899   4.218   0.633
 8920SOL     OW27658   0.397   1.200   6.791
 8920SOL    HW127659   0.311   1.193   6.842
 8920SOL    HW227660   0.426   1.296   6.790
 8921SOL     OW27661   2.056   2.117   2.008
 8921SOL    HW127662   2.105   2.179   2.069
 8921SOL    HW227663   2.091   2.127   1.915
 8922SOL     OW27664   4.445   4.903   1.271
 8922SOL    HW127665   4.353   4.868   1.249
 8922SOL    HW227666   4.437   4.983   1.330
 8923SOL     OW27667   2.125   2.002   6.416
 8923SOL    HW127668   2.144   1.980   6.320
 8923SOL    HW227669   2.206   1.980   6.471
 8924SOL     OW27670   3.891   5.798   5.631
 8924SOL    HW127671   3.915   5.709   5.591
 8924SOL    HW227672   3.956   5.819   5.704
 8925SOL     OW27673   1.294   1.310   3.144
 8925SOL    HW127674   1.250   1.318   3.234
 8925SOL    HW227675   1.294   1.215   3.115
 8926SOL     OW27676   6.399   2.884   5.986
 8926SOL    HW127677   6.481   2.912   5.937
 8926SOL    HW227678   6.378   2.788   5.964
 8927SOL     OW27679   0.063   0.743   4.487
 8927SOL    HW127680   0.055   0.707   4.395
 8927SOL    HW227681   7.014   0.704   4.545
 8928SOL     OW27682   1.230   6.700   6.132
 8928SOL    HW127683   1.171   6.741   6.062
 8928SOL    HW227684   1.325   6.729   6.116
 8929SOL     OW27685   5.810   1.746   4.754
 8929SOL    HW127686   5.849   1.792   4.675
 8929SOL    HW227687   5.786   1.814   4.824
 8930SOL     OW27688   2.158   3.286   4.815
 8930SOL    HW127689   2.139   3.355   4.746
 8930SOL    HW227690   2.151   3.327   4.906
 8931SOL     OW27691   2.688   3.114   0.763
 8931SOL    HW127692   2.590   3.116   0.742
 8931SOL    HW227693   2.731   3.040   0.712
 8932SOL     OW27694   6.172   1.371   1.202
 8932SOL    HW127695   6.209   1.408   1.287
 8932SOL    HW227696   6.226   1.291   1.175
 8933SOL     OW27697   2.058   2.591   6.396
 8933SOL    HW127698   2.093   2.550   6.481
 8933SOL    HW227699   2.114   2.560   6.319
 8934SOL     OW27700   2.948   5.259   4.505
 8934SOL    HW127701   2.947   5.359   4.507
 8934SOL    HW227702   2.943   5.228   4.410
 8935SOL     OW27703   0.493   4.444   0.911
 8935SOL    HW127704   0.515   4.463   1.006
 8935SOL    HW227705   0.535   4.357   0.884
 8936SOL     OW27706   1.256   3.082   2.076
 8936SOL    HW127707   1.232   3.077   2.173
 8936SOL    HW227708   1.263   2.990   2.038
 8937SOL     OW27709   0.639   0.063   5.607
 8937SOL    HW127710   0.660   0.109   5.520
 8937SOL    HW227711   0.552   0.098   5.642
 8938SOL     OW27712   0.161   6.663   1.040
 8938SOL    HW127713   0.131   6.575   1.003
 8938SOL    HW227714   0.105   6.737   1.001
 8939SOL     OW27715   5.487   3.899   4.088
 8939SOL    HW127716   5.558   3.905   4.158
 8939SOL    HW227717   5.399   3.880   4.132
 8940SOL     OW27718   0.251   0.878   1.834
 8940SOL    HW127719   0.350   0.893   1.839
 8940SOL    HW227720   0.232   0.781   1.842
 8941SOL     OW27721   5.590   2.472   5.210
 8941SOL    HW127722   5.606   2.422   5.295
 8941SOL    HW227723   5.498   2.512   5.212
 8942SOL     OW27724   6.393   5.640   5.784
 8942SOL    HW127725   6.449   5.613   5.707
 8942SOL    HW227726   6.381   5.562   5.846
 8943SOL     OW27727   3.634   5.614   6.913
 8943SOL    HW127728   3.725   5.588   6.880
 8943SOL    HW227729   3.567   5.546   6.883
 8944SOL     OW27730   5.663   5.367   5.762
 8944SOL    HW127731   5.612   5.362   5.676
 8944SOL    HW227732   5.646   5.455   5.806
 8945SOL     OW27733   1.353   0.876   3.219
 8945SOL    HW127734   1.318   0.911   3.306
 8945SOL    HW227735   1.436   0.926   3.194
 8946SOL     OW27736   2.751   1.678   5.010
 8946SOL    HW127737   2.683   1.617   4.970
 8946SOL    HW227738   2.732   1.772   4.981
 8947SOL     OW27739   2.085   2.950   5.823
 8947SOL    HW127740   2.100   3.033   5.876
 8947SOL    HW227741   1.989   2.924   5.827
 8948SOL     OW27742   5.817   5.996   4.910
 8948SOL    HW127743   5.721   5.982   4.935
 8948SOL    HW227744   5.864   5.908   4.911
 8949SOL     OW27745   2.742   6.266   0.442
 8949SOL    HW127746   2.730   6.311   0.353
 8949SOL    HW227747   2.781   6.175   0.428
 8950SOL     OW27748   4.645   4.016   6.673
 8950SOL    HW127749   4.733   3.969   6.675
 8950SOL    HW227750   4.598   3.996   6.588
 8951SOL     OW27751   1.671   1.482   5.052
 8951SOL    HW127752   1.658   1.412   4.982
 8951SOL    HW227753   1.718   1.560   5.011
 8952SOL     OW27754   1.413   6.045   2.277
 8952SOL    HW127755   1.449   5.952   2.280
 8952SOL    HW227756   1.331   6.051   2.334
 8953SOL     OW27757   1.705   3.976   6.848
 8953SOL    HW127758   1.651   3.900   6.811
 8953SOL    HW227759   1.742   3.951   6.938
 8954SOL     OW27760   0.670   6.861   4.664
 8954SOL    HW127761   0.573   6.844   4.648
 8954SOL    HW227762   0.708   6.912   4.587
 8955SOL     OW27763   0.123   5.357   2.554
 8955SOL    HW127764   0.087   5.343   2.646
 8955SOL    HW227765   0.084   5.288   2.493
 8956SOL     OW27766   2.045   1.334   6.682
 8956SOL    HW127767   2.128   1.361   6.633
 8956SOL    HW227768   2.054   1.354   6.779
 8957SOL     OW27769   2.422   4.508   0.784
 8957SOL    HW127770   2.419   4.433   0.719
 8957SOL    HW227771   2.486   4.486   0.858
 8958SOL     OW27772   0.135   1.834   4.559
 8958SOL    HW127773   0.068   1.908   4.568
 8958SOL    HW227774   0.089   1.746   4.564
 8959SOL     OW27775   1.779   4.360   2.327
 8959SOL    HW127776   1.708   4.346   2.397
 8959SOL    HW227777   1.792   4.276   2.275
 8960SOL     OW27778   4.473   5.174   2.611
 8960SOL    HW127779   4.425   5.259   2.590
 8960SOL    HW227780   4.532   5.150   2.534
 8961SOL     OW27781   2.860   0.772   3.765
 8961SOL    HW127782   2.814   0.744   3.849
 8961SOL    HW227783   2.949   0.728   3.759
 8962SOL     OW27784   6.977   5.719   2.653
 8962SOL    HW127785   6.972   5.623   2.625
 8962SOL    HW227786   0.021   5.767   2.596
 8963SOL     OW27787   4.102   6.618   4.676
 8963SOL    HW127788   4.131   6.534   4.723
 8963SOL    HW227789   4.133   6.616   4.581
 8964SOL     OW27790   5.377   3.748   2.789
 8964SOL    HW127791   5.308   3.807   2.831
 8964SOL    HW227792   5.355   3.653   2.807
 8965SOL     OW27793   2.929   4.407   0.574
 8965SOL    HW127794   2.984   4.350   0.513
 8965SOL    HW227795   2.932   4.501   0.543
 8966SOL     OW27796   0.209   4.304   0.447
 8966SOL    HW127797   0.251   4.357   0.521
 8966SOL    HW227798   0.110   4.316   0.449
 8967SOL     OW27799   4.483   0.117   1.103
 8967SOL    HW127800   4.544   0.038   1.102
 8967SOL    HW227801   4.539   0.201   1.104
 8968SOL     OW27802   4.498   5.565   3.027
 8968SOL    HW127803   4.415   5.610   2.994
 8968SOL    HW227804   4.550   5.529   2.950
 8969SOL     OW27805   6.172   1.015   4.420
 8969SOL    HW127806   6.149   1.071   4.499
 8969SOL    HW227807   6.214   1.072   4.349
 8970SOL     OW27808   2.578   3.253   0.005
 8970SOL    HW127809   2.548   3.164   6.994
 8970SOL    HW227810   2.539   3.325   6.970
 8971SOL     OW27811   6.052   5.012   1.444
 8971SOL    HW127812   6.053   4.957   1.361
 8971SOL    HW227813   6.040   4.952   1.523
 8972SOL     OW27814   5.261   3.932   0.010
 8972SOL    HW127815   5.319   3.855   0.034
 8972SOL    HW227816   5.318   4.012   7.012
 8973SOL     OW27817   0.362   3.001   2.828
 8973SOL    HW127818   0.380   3.080   2.770
 8973SOL    HW227819   0.350   3.030   2.922
 8974SOL     OW27820   1.094   4.632   4.779
 8974SOL    HW127821   1.010   4.608   4.829
 8974SOL    HW227822   1.073   4.702   4.712
 8975SOL     OW27823   1.754   6.354   5.885
 8975SOL    HW127824   1.761   6.453   5.889
 8975SOL    HW227825   1.777   6.315   5.974
 8976SOL     OW27826   0.199   5.622   5.652
 8976SOL    HW127827   0.238   5.600   5.562
 8976SOL    HW227828   0.181   5.720   5.657
 8977SOL     OW27829   6.755   3.082   6.610
 8977SOL    HW127830   6.679   3.059   6.549
 8977SOL    HW227831   6.720   3.097   6.703
 8978SOL     OW27832   5.342   6.428   3.452
 8978SOL    HW127833   5.365   6.356   3.517
 8978SOL    HW227834   5.280   6.493   3.496
 8979SOL     OW27835   1.013   3.953   4.646
 8979SOL    HW127836   1.030   3.872   4.589
 8979SOL    HW227837   1.022   3.927   4.742
 8980SOL     OW27838   3.841   2.774   5.529
 8980SOL    HW127839   3.765   2.833   5.502
 8980SOL    HW227840   3.914   2.780   5.461
 8981SOL     OW27841   4.167   1.112   5.905
 8981SOL    HW127842   4.091   1.072   5.956
 8981SOL    HW227843   4.171   1.071   5.814
 8982SOL     OW27844   0.833   1.858   1.669
 8982SOL    HW127845   0.930   1.846   1.691
 8982SOL    HW227846   0.804   1.950   1.694
 8983SOL     OW27847   1.234   5.657   6.334
 8983SOL    HW127848   1.220   5.622   6.242
 8983SOL    HW227849   1.242   5.581   6.398
 8984SOL     OW27850   6.678   0.084   3.478
 8984SOL    HW127851   6.715   0.021   3.546
 8984SOL    HW227852   6.611   0.037   3.420
 8985SOL     OW27853   2.751   1.909   0.824
 8985SOL    HW127854   2.826   1.975   0.810
 8985SOL    HW227855   2.719   1.915   0.919
 8986SOL     OW27856   4.231   5.005   1.831
 8986SOL    HW127857   4.263   5.100   1.830
 8986SOL    HW227858   4.194   4.981   1.742
 8987SOL     OW27859   5.450   6.827   0.920
 8987SOL    HW127860   5.455   6.769   1.001
 8987SOL    HW227861   5.371   6.888   0.927
 8988SOL     OW27862   1.441   4.090   6.245
 8988SOL    HW127863   1.394   4.054   6.165
 8988SOL    HW227864   1.531   4.049   6.253
 8989SOL     OW27865   5.031   3.906   2.200
 8989SOL    HW127866   4.965   3.831   2.203
 8989SOL    HW227867   4.995   3.984   2.251
 8990SOL     OW27868   2.072   5.660   2.830
 8990SOL    HW127869   2.139   5.707   2.773
 8990SOL    HW227870   2.114   5.634   2.917
 8991SOL     OW27871   1.831   1.954   6.773
 8991SOL    HW127872   1.749   2.007   6.794
 8991SOL    HW227873   1.907   1.986   6.830
 8992SOL     OW27874   6.410   1.783   0.301
 8992SOL    HW127875   6.344   1.750   0.234
 8992SOL    HW227876   6.479   1.839   0.255
 8993SOL     OW27877   4.431   2.415   1.934
 8993SOL    HW127878   4.448   2.375   1.844
 8993SOL    HW227879   4.339   2.389   1.965
 8994SOL     OW27880   1.587   5.047   4.707
 8994SOL    HW127881   1.603   4.984   4.782
 8994SOL    HW227882   1.488   5.058   4.694
 8995SOL     OW27883   0.579   2.442   6.995
 8995SOL    HW127884   0.608   2.359   0.019
 8995SOL    HW227885   0.544   2.420   6.904
 8996SOL     OW27886   6.382   5.157   1.037
 8996SOL    HW127887   6.455   5.218   1.004
 8996SOL    HW227888   6.384   5.072   0.986
 8997SOL     OW27889   4.687   1.114   6.272
 8997SOL    HW127890   4.683   1.099   6.173
 8997SOL    HW227891   4.729   1.203   6.291
 8998SOL     OW27892   6.860   3.975   5.152
 8998SOL    HW127893   6.762   3.995   5.156
 8998SOL    HW227894   6.877   3.900   5.089
 8999SOL     OW27895   4.727   6.174   0.139
 8999SOL    HW127896   4.759   6.079   0.139
 8999SOL    HW227897   4.801   6.234   0.168
 9000SOL     OW27898   2.932   3.818   0.637
 9000SOL    HW127899   3.006   3.783   0.580
 9000SOL    HW227900   2.959   3.814   0.733
 9001SOL     OW27901   1.258   5.134   2.498
 9001SOL    HW127902   1.201   5.146   2.417
 9001SOL    HW227903   1.333   5.200   2.496
 9002SOL     OW27904   0.206   5.002   5.181
 9002SOL    HW127905   0.272   4.938   5.220
 9002SOL    HW227906   0.244   5.095   5.185
 9003SOL     OW27907   4.907   2.962   1.521
 9003SOL    HW127908   4.854   2.879   1.541
 9003SOL    HW227909   4.845   3.038   1.503
 9004SOL     OW27910   4.283   6.444   1.112
 9004SOL    HW127911   4.297   6.386   1.032
 9004SOL    HW227912   4.226   6.522   1.086
 9005SOL     OW27913   4.957   2.475   4.162
 9005SOL    HW127914   4.967   2.401   4.229
 9005SOL    HW227915   4.995   2.559   4.200
 9006SOL     OW27916   2.786   6.538   0.816
 9006SOL    HW127917   2.753   6.447   0.843
 9006SOL    HW227918   2.853   6.571   0.883
 9007SOL     OW27919   4.255   0.972   4.157
 9007SOL    HW127920   4.232   0.971   4.254
 9007SOL    HW227921   4.172   0.955   4.103
 9008SOL     OW27922   0.918   5.952   2.963
 9008SOL    HW127923   0.833   5.985   3.003
 9008SOL    HW227924   0.995   6.005   2.998
 9009SOL     OW27925   3.101   1.071   0.256
 9009SOL    HW127926   3.005   1.093   0.239
 9009SOL    HW227927   3.120   0.978   0.226
 9010SOL     OW27928   1.444   6.570   4.052
 9010SOL    HW127929   1.372   6.501   4.041
 9010SOL    HW227930   1.517   6.533   4.109
 9011SOL     OW27931   4.772   2.450   1.623
 9011SOL    HW127932   4.757   2.548   1.610
 9011SOL    HW227933   4.748   2.401   1.539
 9012SOL     OW27934   2.737   4.389   1.472
 9012SOL    HW127935   2.648   4.420   1.438
 9012SOL    HW227936   2.730   4.294   1.503
 9013SOL     OW27937   6.971   6.278   5.224
 9013SOL    HW127938   6.915   6.348   5.181
 9013SOL    HW227939   6.984   6.202   5.160
 9014SOL     OW27940   6.884   1.554   0.442
 9014SOL    HW127941   6.875   1.563   0.343
 9014SOL    HW227942   6.959   1.491   0.463
 9015SOL     OW27943   5.262   2.155   1.421
 9015SOL    HW127944   5.238   2.201   1.335
 9015SOL    HW227945   5.358   2.128   1.418
 9016SOL     OW27946   0.806   6.928   6.791
 9016SOL    HW127947   0.851   7.010   6.756
 9016SOL    HW227948   0.875   6.859   6.814
 9017SOL     OW27949   4.435   2.097   2.050
 9017SOL    HW127950   4.497   2.121   1.975
 9017SOL    HW227951   4.361   2.164   2.055
 9018SOL     OW27952   4.147   2.000   6.591
 9018SOL    HW127953   4.171   1.923   6.531
 9018SOL    HW227954   4.058   2.037   6.563
 9019SOL     OW27955   1.040   6.952   2.303
 9019SOL    HW127956   1.069   0.008   2.248
 9019SOL    HW227957   0.965   6.980   2.363
 9020SOL     OW27958   0.718   3.585   1.828
 9020SOL    HW127959   0.748   3.578   1.923
 9020SOL    HW227960   0.628   3.543   1.819
 9021SOL     OW27961   6.372   0.770   4.082
 9021SOL    HW127962   6.296   0.833   4.065
 9021SOL    HW227963   6.376   0.749   4.180
 9022SOL     OW27964   2.939   1.670   6.988
 9022SOL    HW127965   2.866   1.635   6.928
 9022SOL    HW227966   3.021   1.688   6.934
 9023SOL     OW27967   3.106   3.560   2.444
 9023SOL    HW127968   3.156   3.525   2.365
 9023SOL    HW227969   3.080   3.484   2.503
 9024SOL     OW27970   0.435   4.815   4.860
 9024SOL    HW127971   0.456   4.772   4.772
 9024SOL    HW227972   0.335   4.817   4.872
 9025SOL     OW27973   0.923   5.282   0.117
 9025SOL    HW127974   0.951   5.267   0.023
 9025SOL    HW227975   0.917   5.194   0.165
 9026SOL     OW27976   4.149   3.215   1.024
 9026SOL    HW127977   4.101   3.185   1.107
 9026SOL    HW227978   4.156   3.138   0.960
 9027SOL     OW27979   1.183   2.116   4.187
 9027SOL    HW127980   1.198   2.057   4.108
 9027SOL    HW227981   1.271   2.140   4.227
 9028SOL     OW27982   2.461   3.640   5.822
 9028SOL    HW127983   2.425   3.556   5.782
 9028SOL    HW227984   2.510   3.619   5.906
 9029SOL     OW27985   3.422   5.974   4.834
 9029SOL    HW127986   3.458   5.978   4.927
 9029SOL    HW227987   3.343   5.912   4.831
 9030SOL     OW27988   2.095   2.221   3.267
 9030SOL    HW127989   2.185   2.185   3.243
 9030SOL    HW227990   2.050   2.254   3.183
 9031SOL     OW27991   4.086   5.941   4.903
 9031SOL    HW127992   3.991   5.966   4.920
 9031SOL    HW227993   4.094   5.842   4.896
 9032SOL     OW27994   4.031   3.782   0.151
 9032SOL    HW127995   3.934   3.802   0.168
 9032SOL    HW227996   4.040   3.731   0.066
 9033SOL     OW27997   1.003   4.252   3.723
 9033SOL    HW127998   0.913   4.218   3.751
 9033SOL    HW227999   1.050   4.292   3.801
 9034SOL     OW28000   2.951   0.371   5.702
 9034SOL    HW128001   2.981   0.441   5.767
 9034SOL    HW228002   2.920   0.290   5.753
 9035SOL     OW28003   1.353   4.819   6.009
 9035SOL    HW128004   1.326   4.827   5.913
 9035SOL    HW228005   1.276   4.844   6.068
 9036SOL     OW28006   2.043   1.167   5.960
 9036SOL    HW128007   2.046   1.199   5.866
 9036SOL    HW228008   1.947   1.155   5.988
 9037SOL     OW28009   1.632   3.865   5.466
 9037SOL    HW128010   1.669   3.800   5.533
 9037SOL    HW228011   1.606   3.815   5.383
 9038SOL     OW28012   4.400   6.974   5.973
 9038SOL    HW128013   4.435   6.930   5.890
 9038SOL    HW228014   4.358   6.905   6.032
 9039SOL     OW28015   3.031   4.839   5.033
 9039SOL    HW128016   3.014   4.892   5.116
 9039SOL    HW228017   2.972   4.758   5.032
 9040SOL     OW28018   3.213   1.963   2.895
 9040SOL    HW128019   3.155   2.025   2.843
 9040SOL    HW228020   3.156   1.899   2.947
 9041SOL     OW28021   1.075   2.271   1.771
 9041SOL    HW128022   1.111   2.202   1.708
 9041SOL    HW228023   0.983   2.246   1.799
 9042SOL     OW28024   2.914   0.203   3.913
 9042SOL    HW128025   2.862   0.285   3.887
 9042SOL    HW228026   3.001   0.202   3.863
 9043SOL     OW28027   1.521   1.165   6.704
 9043SOL    HW128028   1.444   1.127   6.755
 9043SOL    HW228029   1.541   1.105   6.626
 9044SOL     OW28030   5.736   0.937   0.943
 9044SOL    HW128031   5.751   1.035   0.960
 9044SOL    HW228032   5.823   0.888   0.950
 9045SOL     OW28033   2.181   1.205   2.568
 9045SOL    HW128034   2.193   1.210   2.667
 9045SOL    HW228035   2.266   1.173   2.526
 9046SOL     OW28036   3.535   3.740   3.670
 9046SOL    HW128037   3.633   3.751   3.690
 9046SOL    HW228038   3.516   3.770   3.577
 9047SOL     OW28039   1.233   3.075   5.972
 9047SOL    HW128040   1.270   3.039   6.057
 9047SOL    HW228041   1.165   3.011   5.935
 9048SOL     OW28042   5.702   2.379   6.335
 9048SOL    HW128043   5.674   2.454   6.275
 9048SOL    HW228044   5.631   2.308   6.335
 9049SOL     OW28045   3.615   6.856   5.990
 9049SOL    HW128046   3.583   6.910   6.068
 9049SOL    HW228047   3.617   6.760   6.015
 9050SOL     OW28048   0.382   3.423   0.178
 9050SOL    HW128049   0.403   3.428   0.275
 9050SOL    HW228050   0.298   3.371   0.164
 9051SOL     OW28051   4.173   6.266   0.872
 9051SOL    HW128052   4.266   6.231   0.878
 9051SOL    HW228053   4.110   6.202   0.915
 9052SOL     OW28054   2.165   2.559   4.175
 9052SOL    HW128055   2.070   2.578   4.199
 9052SOL    HW228056   2.224   2.630   4.214
 9053SOL     OW28057   2.418   1.372   2.780
 9053SOL    HW128058   2.480   1.408   2.850
 9053SOL    HW228059   2.414   1.436   2.703
 9054SOL     OW28060   2.226   6.049   2.789
 9054SOL    HW128061   2.229   5.965   2.735
 9054SOL    HW228062   2.289   6.115   2.750
 9055SOL     OW28063   5.944   3.027   3.987
 9055SOL    HW128064   5.968   2.947   4.043
 9055SOL    HW228065   5.892   3.091   4.043
 9056SOL     OW28066   0.957   0.826   2.398
 9056SOL    HW128067   0.882   0.872   2.350
 9056SOL    HW228068   0.964   0.732   2.366
 9057SOL     OW28069   5.697   5.097   5.788
 9057SOL    HW128070   5.773   5.078   5.726
 9057SOL    HW228071   5.674   5.194   5.785
 9058SOL     OW28072   2.523   1.732   3.009
 9058SOL    HW128073   2.557   1.646   2.970
 9058SOL    HW228074   2.502   1.796   2.935
 9059SOL     OW28075   1.241   2.095   4.499
 9059SOL    HW128076   1.159   2.085   4.555
 9059SOL    HW228077   1.242   2.186   4.458
 9060SOL     OW28078   6.009   2.934   3.420
 9060SOL    HW128079   5.924   2.910   3.373
 9060SOL    HW228080   5.988   2.987   3.503
 9061SOL     OW28081   2.282   5.621   1.995
 9061SOL    HW128082   2.182   5.631   2.005
 9061SOL    HW228083   2.309   5.651   1.903
 9062SOL     OW28084   1.892   5.739   1.732
 9062SOL    HW128085   1.804   5.701   1.759
 9062SOL    HW228086   1.878   5.819   1.675
 9063SOL     OW28087   1.894   0.011   2.890
 9063SOL    HW128088   1.836   0.047   2.818
 9063SOL    HW228089   1.918   6.939   2.870
 9064SOL     OW28090   6.702   2.191   5.673
 9064SOL    HW128091   6.776   2.173   5.609
 9064SOL    HW228092   6.634   2.118   5.668
 9065SOL     OW28093   3.251   6.916   5.684
 9065SOL    HW128094   3.345   6.881   5.689
 9065SOL    HW228095   3.241   6.973   5.602
 9066SOL     OW28096   4.995   5.975   0.574
 9066SOL    HW128097   5.002   6.069   0.608
 9066SOL    HW228098   4.916   5.967   0.514
 9067SOL     OW28099   6.382   0.833   4.393
 9067SOL    HW128100   6.474   0.868   4.410
 9067SOL    HW228101   6.315   0.900   4.422
 9068SOL     OW28102   2.201   6.706   4.826
 9068SOL    HW128103   2.215   6.693   4.728
 9068SOL    HW228104   2.284   6.681   4.876
 9069SOL     OW28105   1.850   3.124   2.025
 9069SOL    HW128106   1.901   3.163   1.947
 9069SOL    HW228107   1.912   3.067   2.079
 9070SOL     OW28108   1.669   4.137   4.794
 9070SOL    HW128109   1.764   4.164   4.781
 9070SOL    HW228110   1.661   4.077   4.873
 9071SOL     OW28111   5.346   0.030   1.237
 9071SOL    HW128112   5.266   0.059   1.184
 9071SOL    HW228113   5.319   6.985   1.305
 9072SOL     OW28114   0.310   1.419   1.987
 9072SOL    HW128115   0.243   1.369   2.042
 9072SOL    HW228116   0.367   1.476   2.047
 9073SOL     OW28117   3.272   6.950   2.420
 9073SOL    HW128118   3.212   6.874   2.446
 9073SOL    HW228119   3.266   7.022   2.489
 9074SOL     OW28120   2.339   1.355   1.936
 9074SOL    HW128121   2.339   1.400   1.847
 9074SOL    HW228122   2.431   1.324   1.958
 9075SOL     OW28123   1.396   1.266   2.756
 9075SOL    HW128124   1.350   1.209   2.825
 9075SOL    HW228125   1.338   1.344   2.733
 9076SOL     OW28126   6.050   2.326   5.265
 9076SOL    HW128127   5.979   2.380   5.218
 9076SOL    HW228128   6.137   2.374   5.259
 9077SOL     OW28129   5.139   0.161   0.613
 9077SOL    HW128130   5.202   0.232   0.645
 9077SOL    HW228131   5.156   0.142   0.517
 9078SOL     OW28132   4.598   3.768   6.182
 9078SOL    HW128133   4.574   3.817   6.099
 9078SOL    HW228134   4.592   3.670   6.166
 9079SOL     OW28135   3.155   0.331   4.091
 9079SOL    HW128136   3.224   0.395   4.124
 9079SOL    HW228137   3.105   0.373   4.015
 9080SOL     OW28138   4.701   2.807   6.967
 9080SOL    HW128139   4.668   2.772   0.032
 9080SOL    HW228140   4.772   2.745   6.931
 9081SOL     OW28141   3.446   6.314   2.424
 9081SOL    HW128142   3.352   6.302   2.457
 9081SOL    HW228143   3.478   6.228   2.385
 9082SOL     OW28144   2.306   0.491   5.941
 9082SOL    HW128145   2.296   0.580   5.897
 9082SOL    HW228146   2.228   0.475   6.002
 9083SOL     OW28147   3.134   6.236   5.767
 9083SOL    HW128148   3.140   6.148   5.814
 9083SOL    HW228149   3.210   6.294   5.795
 9084SOL     OW28150   2.906   3.741   4.514
 9084SOL    HW128151   2.972   3.776   4.448
 9084SOL    HW228152   2.826   3.802   4.516
 9085SOL     OW28153   2.534   5.795   1.159
 9085SOL    HW128154   2.521   5.792   1.258
 9085SOL    HW228155   2.611   5.855   1.137
 9086SOL     OW28156   1.126   4.376   0.250
 9086SOL    HW128157   1.216   4.373   0.207
 9086SOL    HW228158   1.064   4.428   0.193
 9087SOL     OW28159   4.731   2.725   1.582
 9087SOL    HW128160   4.678   2.746   1.500
 9087SOL    HW228161   4.671   2.730   1.662
 9088SOL     OW28162   6.695   6.812   0.765
 9088SOL    HW128163   6.698   6.837   0.861
 9088SOL    HW228164   6.611   6.761   0.746
 9089SOL     OW28165   4.995   5.897   5.302
 9089SOL    HW128166   5.017   5.968   5.368
 9089SOL    HW228167   5.012   5.930   5.209
 9090SOL     OW28168   0.046   1.153   3.850
 9090SOL    HW128169   6.970   1.154   3.863
 9090SOL    HW228170   0.077   1.243   3.818
 9091SOL     OW28171   3.259   4.274   0.073
 9091SOL    HW128172   3.184   4.315   0.126
 9091SOL    HW228173   3.253   4.306   7.001
 9092SOL     OW28174   6.930   0.853   0.253
 9092SOL    HW128175   6.928   0.918   0.329
 9092SOL    HW228176   6.870   0.776   0.272
 9093SOL     OW28177   1.280   6.295   5.387
 9093SOL    HW128178   1.247   6.388   5.402
 9093SOL    HW228179   1.364   6.297   5.333
 9094SOL     OW28180   6.702   4.981   3.021
 9094SOL    HW128181   6.795   5.000   2.989
 9094SOL    HW228182   6.646   5.064   3.014
 9095SOL     OW28183   5.149   4.402   5.815
 9095SOL    HW128184   5.069   4.348   5.786
 9095SOL    HW228185   5.184   4.454   5.738
 9096SOL     OW28186   6.022   4.450   2.493
 9096SOL    HW128187   6.061   4.359   2.475
 9096SOL    HW228188   6.016   4.465   2.592
 9097SOL     OW28189   1.326   1.749   1.199
 9097SOL    HW128190   1.295   1.655   1.214
 9097SOL    HW228191   1.409   1.766   1.252
 9098SOL     OW28192   3.585   1.577   5.135
 9098SOL    HW128193   3.542   1.623   5.057
 9098SOL    HW228194   3.680   1.556   5.114
 9099SOL     OW28195   3.565   2.818   5.565
 9099SOL    HW128196   3.467   2.833   5.578
 9099SOL    HW228197   3.579   2.765   5.481
 9100SOL     OW28198   0.333   3.127   3.060
 9100SOL    HW128199   0.260   3.171   3.113
 9100SOL    HW228200   0.390   3.196   3.017
 9101SOL     OW28201   2.737   2.351   2.487
 9101SOL    HW128202   2.777   2.316   2.402
 9101SOL    HW228203   2.772   2.444   2.504
 9102SOL     OW28204   3.126   6.223   1.745
 9102SOL    HW128205   3.126   6.309   1.695
 9102SOL    HW228206   3.128   6.147   1.681
 9103SOL     OW28207   6.541   2.960   6.481
 9103SOL    HW128208   6.555   2.947   6.383
 9103SOL    HW228209   6.458   3.014   6.497
 9104SOL     OW28210   0.290   5.741   2.058
 9104SOL    HW128211   0.318   5.709   2.148
 9104SOL    HW228212   0.221   5.812   2.067
 9105SOL     OW28213   0.725   1.316   6.394
 9105SOL    HW128214   0.627   1.338   6.399
 9105SOL    HW228215   0.750   1.262   6.474
 9106SOL     OW28216   6.508   3.828   1.226
 9106SOL    HW128217   6.434   3.812   1.160
 9106SOL    HW228218   6.519   3.926   1.240
 9107SOL     OW28219   2.521   0.545   6.824
 9107SOL    HW128220   2.548   0.627   6.774
 9107SOL    HW228221   2.504   0.471   6.758
 9108SOL     OW28222   5.161   4.739   5.108
 9108SOL    HW128223   5.173   4.652   5.062
 9108SOL    HW228224   5.068   4.772   5.094
 9109SOL     OW28225   6.576   3.365   3.356
 9109SOL    HW128226   6.595   3.274   3.392
 9109SOL    HW228227   6.478   3.381   3.353
 9110SOL     OW28228   1.842   4.672   4.306
 9110SOL    HW128229   1.773   4.729   4.350
 9110SOL    HW228230   1.819   4.659   4.210
 9111SOL     OW28231   5.296   2.288   0.231
 9111SOL    HW128232   5.380   2.277   0.284
 9111SOL    HW228233   5.244   2.203   0.233
 9112SOL     OW28234   1.557   5.730   2.786
 9112SOL    HW128235   1.516   5.640   2.773
 9112SOL    HW228236   1.650   5.720   2.821
 9113SOL     OW28237   4.651   2.687   2.680
 9113SOL    HW128238   4.671   2.660   2.586
 9113SOL    HW228239   4.561   2.652   2.707
 9114SOL     OW28240   0.190   5.602   3.534
 9114SOL    HW128241   0.200   5.549   3.449
 9114SOL    HW228242   0.250   5.682   3.530
 9115SOL     OW28243   6.626   5.848   4.696
 9115SOL    HW128244   6.717   5.858   4.656
 9115SOL    HW228245   6.612   5.753   4.723
 9116SOL     OW28246   0.494   0.247   2.514
 9116SOL    HW128247   0.574   0.301   2.541
 9116SOL    HW228248   0.488   0.166   2.572
 9117SOL     OW28249   3.662   2.871   5.823
 9117SOL    HW128250   3.657   2.848   5.725
 9117SOL    HW228251   3.595   2.943   5.843
 9118SOL     OW28252   6.927   3.387   6.853
 9118SOL    HW128253   6.842   3.422   6.813
 9118SOL    HW228254   6.949   3.299   6.812
 9119SOL     OW28255   3.881   0.969   2.293
 9119SOL    HW128256   3.897   1.062   2.260
 9119SOL    HW228257   3.875   0.970   2.393
 9120SOL     OW28258   6.693   1.645   5.680
 9120SOL    HW128259   6.599   1.611   5.675
 9120SOL    HW228260   6.723   1.644   5.776
 9121SOL     OW28261   3.600   6.490   4.561
 9121SOL    HW128262   3.505   6.459   4.552
 9121SOL    HW228263   3.647   6.433   4.629
 9122SOL     OW28264   2.451   4.414   2.026
 9122SOL    HW128265   2.445   4.389   1.929
 9122SOL    HW228266   2.528   4.475   2.040
 9123SOL     OW28267   1.903   0.886   4.867
 9123SOL    HW128268   1.918   0.818   4.796
 9123SOL    HW228269   1.837   0.954   4.835
 9124SOL     OW28270   4.179   5.341   0.285
 9124SOL    HW128271   4.086   5.373   0.267
 9124SOL    HW228272   4.207   5.277   0.212
 9125SOL     OW28273   4.123   4.584   0.929
 9125SOL    HW128274   4.042   4.610   0.982
 9125SOL    HW228275   4.143   4.487   0.945
 9126SOL     OW28276   6.176   3.817   1.328
 9126SOL    HW128277   6.229   3.735   1.352
 9126SOL    HW228278   6.227   3.899   1.355
 9127SOL     OW28279   6.476   1.608   6.328
 9127SOL    HW128280   6.512   1.519   6.355
 9127SOL    HW228281   6.550   1.666   6.294
 9128SOL     OW28282   6.316   2.285   5.464
 9128SOL    HW128283   6.292   2.362   5.404
 9128SOL    HW228284   6.283   2.200   5.424
 9129SOL     OW28285   6.582   2.035   0.199
 9129SOL    HW128286   6.538   2.107   0.146
 9129SOL    HW228287   6.668   2.008   0.155
 9130SOL     OW28288   1.544   4.192   6.799
 9130SOL    HW128289   1.618   4.132   6.828
 9130SOL    HW228290   1.543   4.199   6.700
 9131SOL     OW28291   5.449   3.312   6.236
 9131SOL    HW128292   5.434   3.275   6.145
 9131SOL    HW228293   5.368   3.296   6.293
 9132SOL     OW28294   1.139   5.832   4.364
 9132SOL    HW128295   1.141   5.922   4.320
 9132SOL    HW228296   1.197   5.768   4.313
 9133SOL     OW28297   3.829   6.681   1.202
 9133SOL    HW128298   3.784   6.692   1.290
 9133SOL    HW228299   3.773   6.721   1.130
 9134SOL     OW28300   4.007   5.253   1.340
 9134SOL    HW128301   3.931   5.296   1.389
 9134SOL    HW228302   4.018   5.297   1.251
 9135SOL     OW28303   0.498   0.319   1.486
 9135SOL    HW128304   0.521   0.222   1.498
 9135SOL    HW228305   0.565   0.362   1.426
 9136SOL     OW28306   4.717   6.015   6.245
 9136SOL    HW128307   4.648   6.043   6.178
 9136SOL    HW228308   4.768   5.937   6.210
 9137SOL     OW28309   3.827   0.475   6.732
 9137SOL    HW128310   3.907   0.533   6.748
 9137SOL    HW228311   3.828   0.440   6.639
 9138SOL     OW28312   0.347   4.664   6.466
 9138SOL    HW128313   0.397   4.579   6.484
 9138SOL    HW228314   0.252   4.643   6.444
 9139SOL     OW28315   1.618   1.223   2.595
 9139SOL    HW128316   1.635   1.130   2.561
 9139SOL    HW228317   1.543   1.220   2.662
 9140SOL     OW28318   0.800   3.628   2.083
 9140SOL    HW128319   0.895   3.647   2.059
 9140SOL    HW228320   0.742   3.702   2.048
 9141SOL     OW28321   6.195   6.505   1.501
 9141SOL    HW128322   6.217   6.536   1.593
 9141SOL    HW228323   6.103   6.467   1.499
 9142SOL     OW28324   0.532   4.044   1.500
 9142SOL    HW128325   0.585   3.973   1.453
 9142SOL    HW228326   0.590   4.122   1.520
 9143SOL     OW28327   6.574   3.220   0.628
 9143SOL    HW128328   6.480   3.205   0.596
 9143SOL    HW228329   6.582   3.190   0.723
 9144SOL     OW28330   3.266   5.344   5.031
 9144SOL    HW128331   3.337   5.311   4.968
 9144SOL    HW228332   3.176   5.328   4.990
 9145SOL     OW28333   0.578   6.273   6.483
 9145SOL    HW128334   0.609   6.205   6.549
 9145SOL    HW228335   0.655   6.330   6.455
 9146SOL     OW28336   5.245   3.501   2.847
 9146SOL    HW128337   5.235   3.492   2.946
 9146SOL    HW228338   5.269   3.412   2.808
 9147SOL     OW28339   6.887   0.590   5.383
 9147SOL    HW128340   6.905   0.684   5.412
 9147SOL    HW228341   6.804   0.588   5.327
 9148SOL     OW28342   5.302   6.459   2.594
 9148SOL    HW128343   5.260   6.542   2.631
 9148SOL    HW228344   5.283   6.382   2.655
 9149SOL     OW28345   5.471   3.960   2.249
 9149SOL    HW128346   5.474   4.058   2.267
 9149SOL    HW228347   5.564   3.924   2.243
 9150SOL     OW28348   3.658   4.829   0.666
 9150SOL    HW128349   3.667   4.928   0.681
 9150SOL    HW228350   3.582   4.794   0.721
 9151SOL     OW28351   1.858   4.258   3.557
 9151SOL    HW128352   1.933   4.308   3.513
 9151SOL    HW228353   1.771   4.287   3.518
 9152SOL     OW28354   2.245   4.186   4.612
 9152SOL    HW128355   2.208   4.094   4.601
 9152SOL    HW228356   2.310   4.204   4.538
 9153SOL     OW28357   0.259   2.605   6.753
 9153SOL    HW128358   0.284   2.664   6.676
 9153SOL    HW228359   0.163   2.579   6.745
 9154SOL     OW28360   4.928   4.452   4.356
 9154SOL    HW128361   4.858   4.510   4.313
 9154SOL    HW228362   4.905   4.438   4.452
 9155SOL     OW28363   2.626   4.959   2.618
 9155SOL    HW128364   2.672   4.994   2.536
 9155SOL    HW228365   2.660   4.866   2.638
 9156SOL     OW28366   6.473   1.522   1.519
 9156SOL    HW128367   6.441   1.582   1.591
 9156SOL    HW228368   6.558   1.477   1.548
 9157SOL     OW28369   3.507   3.970   6.899
 9157SOL    HW128370   3.521   4.035   6.973
 9157SOL    HW228371   3.588   3.912   6.888
 9158SOL     OW28372   6.664   3.885   4.081
 9158SOL    HW128373   6.762   3.885   4.061
 9158SOL    HW228374   6.646   3.939   4.163
 9159SOL     OW28375   2.285   0.348   3.805
 9159SOL    HW128376   2.358   0.339   3.737
 9159SOL    HW228377   2.208   0.290   3.778
 9160SOL     OW28378   0.630   6.333   5.757
 9160SOL    HW128379   0.606   6.426   5.786
 9160SOL    HW228380   0.546   6.279   5.745
 9161SOL     OW28381   6.363   4.596   3.024
 9161SOL    HW128382   6.403   4.522   2.970
 9161SOL    HW228383   6.432   4.635   3.085
 9162SOL     OW28384   3.956   0.021   2.716
 9162SOL    HW128385   3.896   0.066   2.650
 9162SOL    HW228386   3.910   0.013   2.804
 9163SOL     OW28387   6.833   3.224   3.476
 9163SOL    HW128388   6.825   3.274   3.562
 9163SOL    HW228389   6.800   3.282   3.401
 9164SOL     OW28390   1.886   0.627   6.722
 9164SOL    HW128391   1.902   0.726   6.725
 9164SOL    HW228392   1.935   0.583   6.797
 9165SOL     OW28393   4.567   2.252   6.010
 9165SOL    HW128394   4.616   2.173   6.045
 9165SOL    HW228395   4.581   2.260   5.911
 9166SOL     OW28396   4.661   5.776   1.117
 9166SOL    HW128397   4.745   5.732   1.087
 9166SOL    HW228398   4.614   5.716   1.182
 9167SOL     OW28399   1.565   2.338   6.333
 9167SOL    HW128400   1.595   2.305   6.422
 9167SOL    HW228401   1.635   2.398   6.294
 9168SOL     OW28402   6.952   6.342   6.679
 9168SOL    HW128403   6.939   6.441   6.680
 9168SOL    HW228404   6.974   6.311   6.587
 9169SOL     OW28405   0.083   6.549   6.241
 9169SOL    HW128406   0.040   6.635   6.269
 9169SOL    HW228407   0.028   6.505   6.171
 9170SOL     OW28408   1.924   0.166   6.183
 9170SOL    HW128409   1.957   0.084   6.229
 9170SOL    HW228410   1.833   0.189   6.217
 9171SOL     OW28411   3.390   5.985   0.582
 9171SOL    HW128412   3.305   6.007   0.630
 9171SOL    HW228413   3.370   5.924   0.505
 9172SOL     OW28414   4.343   1.874   4.048
 9172SOL    HW128415   4.268   1.841   4.106
 9172SOL    HW228416   4.311   1.883   3.954
 9173SOL     OW28417   6.037   3.012   5.020
 9173SOL    HW128418   5.999   2.920   5.016
 9173SOL    HW228419   6.137   3.006   5.026
 9174SOL     OW28420   0.804   5.949   6.937
 9174SOL    HW128421   0.858   5.895   6.873
 9174SOL    HW228422   0.760   5.889   7.004
 9175SOL     OW28423   1.424   0.039   0.244
 9175SOL    HW128424   1.418   0.095   0.326
 9175SOL    HW228425   1.503   0.066   0.190
 9176SOL     OW28426   2.424   6.936   1.775
 9176SOL    HW128427   2.489   6.889   1.715
 9176SOL    HW228428   2.353   6.979   1.719
 9177SOL     OW28429   1.521   2.575   3.852
 9177SOL    HW128430   1.500   2.634   3.930
 9177SOL    HW228431   1.605   2.607   3.807
 9178SOL     OW28432   1.929   5.822   6.433
 9178SOL    HW128433   1.877   5.748   6.390
 9178SOL    HW228434   2.026   5.811   6.413
 9179SOL     OW28435   1.788   5.657   5.098
 9179SOL    HW128436   1.730   5.588   5.055
 9179SOL    HW228437   1.820   5.721   5.028
 9180SOL     OW28438   6.396   2.622   3.224
 9180SOL    HW128439   6.322   2.571   3.179
 9180SOL    HW228440   6.484   2.580   3.199
 9181SOL     OW28441   4.819   2.964   3.654
 9181SOL    HW128442   4.773   2.907   3.722
 9181SOL    HW228443   4.868   3.038   3.700
 9182SOL     OW28444   3.333   0.178   3.448
 9182SOL    HW128445   3.256   0.135   3.401
 9182SOL    HW228446   3.306   0.270   3.478
 9183SOL     OW28447   4.798   4.242   6.809
 9183SOL    HW128448   4.746   4.171   6.762
 9183SOL    HW228449   4.850   4.295   6.741
 9184SOL     OW28450   3.583   2.059   0.537
 9184SOL    HW128451   3.544   1.991   0.599
 9184SOL    HW228452   3.515   2.130   0.519
 9185SOL     OW28453   0.042   6.703   5.254
 9185SOL    HW128454   6.990   6.702   5.187
 9185SOL    HW228455   0.073   6.796   5.269
 9186SOL     OW28456   5.335   1.031   5.398
 9186SOL    HW128457   5.296   1.122   5.388
 9186SOL    HW228458   5.272   0.963   5.360
 9187SOL     OW28459   4.864   1.874   6.924
 9187SOL    HW128460   4.767   1.868   6.947
 9187SOL    HW228461   4.917   1.888   7.007
 9188SOL     OW28462   1.555   0.384   2.057
 9188SOL    HW128463   1.611   0.397   1.975
 9188SOL    HW228464   1.585   0.302   2.106
 9189SOL     OW28465   2.733   6.663   3.258
 9189SOL    HW128466   2.800   6.694   3.326
 9189SOL    HW228467   2.686   6.582   3.292
 9190SOL     OW28468   0.124   3.496   5.277
 9190SOL    HW128469   0.147   3.583   5.233
 9190SOL    HW228470   0.120   3.509   5.376
 9191SOL     OW28471   5.842   0.580   6.634
 9191SOL    HW128472   5.893   0.586   6.720
 9191SOL    HW228473   5.754   0.626   6.643
 9192SOL     OW28474   6.366   3.092   5.663
 9192SOL    HW128475   6.439   3.076   5.729
 9192SOL    HW228476   6.388   3.046   5.577
 9193SOL     OW28477   3.808   3.465   3.971
 9193SOL    HW128478   3.729   3.475   4.031
 9193SOL    HW228479   3.891   3.492   4.020
 9194SOL     OW28480   3.984   6.142   2.112
 9194SOL    HW128481   4.014   6.217   2.053
 9194SOL    HW228482   3.908   6.095   2.068
 9195SOL     OW28483   1.654   2.793   3.265
 9195SOL    HW128484   1.629   2.876   3.216
 9195SOL    HW228485   1.741   2.808   3.313
 9196SOL     OW28486   5.823   0.512   3.698
 9196SOL    HW128487   5.743   0.551   3.744
 9196SOL    HW228488   5.902   0.571   3.714
 9197SOL     OW28489   3.630   5.693   0.174
 9197SOL    HW128490   3.581   5.773   0.138
 9197SOL    HW228491   3.662   5.637   0.097
 9198SOL     OW28492   5.812   4.612   6.368
 9198SOL    HW128493   5.895   4.560   6.347
 9198SOL    HW228494   5.735   4.575   6.316
 9199SOL     OW28495   6.980   2.793   6.425
 9199SOL    HW128496   0.016   2.865   6.463
 9199SOL    HW228497   6.885   2.809   6.452
 9200SOL     OW28498   2.416   5.721   6.616
 9200SOL    HW128499   2.392   5.815   6.591
 9200SOL    HW228500   2.370   5.658   6.555
 9201SOL     OW28501   0.248   3.315   0.834
 9201SOL    HW128502   0.203   3.401   0.811
 9201SOL    HW228503   0.293   3.278   0.753
 9202SOL     OW28504   1.386   6.079   3.853
 9202SOL    HW128505   1.457   6.028   3.804
 9202SOL    HW228506   1.383   6.047   3.948
 9203SOL     OW28507   5.405   2.543   6.432
 9203SOL    HW128508   5.469   2.535   6.509
 9203SOL    HW228509   5.354   2.629   6.441
 9204SOL     OW28510   4.839   3.706   3.681
 9204SOL    HW128511   4.836   3.625   3.623
 9204SOL    HW228512   4.859   3.786   3.625
 9205SOL     OW28513   5.156   4.782   2.671
 9205SOL    HW128514   5.229   4.746   2.728
 9205SOL    HW228515   5.100   4.707   2.636
 9206SOL     OW28516   3.139   0.175   3.777
 9206SOL    HW128517   3.160   0.271   3.761
 9206SOL    HW228518   3.206   0.135   3.839
 9207SOL     OW28519   3.473   5.556   6.248
 9207SOL    HW128520   3.535   5.624   6.210
 9207SOL    HW228521   3.413   5.600   6.315
 9208SOL     OW28522   5.492   4.231   2.276
 9208SOL    HW128523   5.507   4.256   2.180
 9208SOL    HW228524   5.530   4.302   2.335
 9209SOL     OW28525   3.920   0.481   1.837
 9209SOL    HW128526   3.958   0.437   1.918
 9209SOL    HW228527   3.985   0.474   1.761
 9210SOL     OW28528   0.824   0.904   1.489
 9210SOL    HW128529   0.880   0.869   1.564
 9210SOL    HW228530   0.831   1.004   1.484
 9211SOL     OW28531   5.330   3.298   5.910
 9211SOL    HW128532   5.407   3.238   5.885
 9211SOL    HW228533   5.245   3.258   5.877
 9212SOL     OW28534   5.142   4.098   5.357
 9212SOL    HW128535   5.195   4.028   5.308
 9212SOL    HW228536   5.067   4.054   5.407
 9213SOL     OW28537   5.121   5.566   4.266
 9213SOL    HW128538   5.158   5.622   4.192
 9213SOL    HW228539   5.138   5.611   4.354
 9214SOL     OW28540   0.198   2.819   5.381
 9214SOL    HW128541   0.226   2.730   5.418
 9214SOL    HW228542   0.248   2.837   5.297
 9215SOL     OW28543   0.964   4.813   2.836
 9215SOL    HW128544   1.029   4.859   2.897
 9215SOL    HW228545   0.991   4.829   2.741
 9216SOL     OW28546   2.841   6.879   4.464
 9216SOL    HW128547   2.868   6.941   4.538
 9216SOL    HW228548   2.784   6.805   4.500
 9217SOL     OW28549   5.853   1.633   6.985
 9217SOL    HW128550   5.761   1.666   7.007
 9217SOL    HW228551   5.919   1.681   0.020
 9218SOL     OW28552   3.867   1.239   6.825
 9218SOL    HW128553   3.826   1.315   6.874
 9218SOL    HW228554   3.830   1.236   6.731
 9219SOL     OW28555   4.231   3.484   5.897
 9219SOL    HW128556   4.153   3.428   5.869
 9219SOL    HW228557   4.215   3.579   5.870
 9220SOL     OW28558   1.732   6.107   2.806
 9220SOL    HW128559   1.788   6.043   2.753
 9220SOL    HW228560   1.788   6.185   2.834
 9221SOL     OW28561   2.728   0.153   4.870
 9221SOL    HW128562   2.772   0.197   4.791
 9221SOL    HW228563   2.769   0.188   4.954
 9222SOL     OW28564   2.325   4.726   5.028
 9222SOL    HW128565   2.422   4.712   5.047
 9222SOL    HW228566   2.271   4.654   5.072
 9223SOL     OW28567   1.101   2.830   3.920
 9223SOL    HW128568   1.173   2.834   3.851
 9223SOL    HW228569   1.133   2.778   3.999
 9224SOL     OW28570   1.619   4.007   3.394
 9224SOL    HW128571   1.598   4.031   3.489
 9224SOL    HW228572   1.534   3.993   3.344
 9225SOL     OW28573   4.236   5.459   6.138
 9225SOL    HW128574   4.262   5.453   6.234
 9225SOL    HW228575   4.303   5.513   6.088
 9226SOL     OW28576   0.952   0.473   1.398
 9226SOL    HW128577   0.870   0.524   1.372
 9226SOL    HW228578   1.011   0.463   1.318
 9227SOL     OW28579   1.653   5.908   1.541
 9227SOL    HW128580   1.574   5.935   1.487
 9227SOL    HW228581   1.736   5.916   1.485
 9228SOL     OW28582   2.027   1.991   0.096
 9228SOL    HW128583   2.066   1.940   0.019
 9228SOL    HW228584   1.965   1.932   0.147
 9229SOL     OW28585   0.547   4.950   5.958
 9229SOL    HW128586   0.599   5.026   5.918
 9229SOL    HW228587   0.589   4.923   6.045
 9230SOL     OW28588   4.903   3.433   2.564
 9230SOL    HW128589   4.941   3.341   2.567
 9230SOL    HW228590   4.858   3.447   2.476
 9231SOL     OW28591   0.561   3.761   5.029
 9231SOL    HW128592   0.606   3.779   5.116
 9231SOL    HW228593   0.558   3.845   4.975
 9232SOL     OW28594   2.763   5.590   0.836
 9232SOL    HW128595   2.671   5.582   0.875
 9232SOL    HW228596   2.814   5.660   0.887
 9233SOL     OW28597   0.414   6.997   0.663
 9233SOL    HW128598   0.346   0.047   0.676
 9233SOL    HW228599   0.366   6.910   0.646
 9234SOL     OW28600   1.863   5.959   0.686
 9234SOL    HW128601   1.827   5.897   0.756
 9234SOL    HW228602   1.799   5.963   0.609
 9235SOL     OW28603   2.041   2.720   3.140
 9235SOL    HW128604   1.960   2.728   3.082
 9235SOL    HW228605   2.019   2.665   3.220
 9236SOL     OW28606   2.705   3.593   6.298
 9236SOL    HW128607   2.750   3.675   6.332
 9236SOL    HW228608   2.774   3.530   6.262
 9237SOL     OW28609   0.947   5.443   2.570
 9237SOL    HW128610   0.872   5.506   2.591
 9237SOL    HW228611   0.958   5.436   2.470
 9238SOL     OW28612   2.745   2.473   5.984
 9238SOL    HW128613   2.832   2.515   6.011
 9238SOL    HW228614   2.679   2.546   5.964
 9239SOL     OW28615   6.931   4.299   6.852
 9239SOL    HW128616   6.885   4.268   6.769
 9239SOL    HW228617   6.949   4.221   6.912
 9240SOL     OW28618   5.021   2.710   2.281
 9240SOL    HW128619   4.929   2.728   2.248
 9240SOL    HW228620   5.016   2.681   2.377
 9241SOL     OW28621   0.354   5.947   0.830
 9241SOL    HW128622   0.414   5.936   0.751
 9241SOL    HW228623   0.392   6.015   0.892
 9242SOL     OW28624   2.057   3.342   1.961
 9242SOL    HW128625   2.031   3.306   1.872
 9242SOL    HW228626   2.112   3.425   1.949
 9243SOL     OW28627   0.177   0.625   1.793
 9243SOL    HW128628   0.095   0.618   1.736
 9243SOL    HW228629   0.204   0.534   1.823
 9244SOL     OW28630   2.901   6.690   6.147
 9244SOL    HW128631   2.805   6.667   6.163
 9244SOL    HW228632   2.959   6.633   6.205
 9245SOL     OW28633   0.591   4.214   3.669
 9245SOL    HW128634   0.622   4.255   3.584
 9245SOL    HW228635   0.497   4.182   3.659
 9246SOL     OW28636   5.592   0.695   3.587
 9246SOL    HW128637   5.631   0.712   3.678
 9246SOL    HW228638   5.523   0.624   3.593
 9247SOL     OW28639   3.523   5.295   2.512
 9247SOL    HW128640   3.452   5.365   2.501
 9247SOL    HW228641   3.574   5.286   2.427
 9248SOL     OW28642   2.982   2.159   5.094
 9248SOL    HW128643   2.924   2.218   5.037
 9248SOL    HW228644   3.072   2.200   5.105
 9249SOL     OW28645   4.862   5.258   1.694
 9249SOL    HW128646   4.899   5.249   1.602
 9249SOL    HW228647   4.931   5.302   1.753
 9250SOL     OW28648   6.880   2.777   3.786
 9250SOL    HW128649   6.960   2.717   3.784
 9250SOL    HW228650   6.813   2.746   3.719
 9251SOL     OW28651   4.031   1.884   1.982
 9251SOL    HW128652   4.060   1.946   2.056
 9251SOL    HW228653   4.007   1.795   2.021
 9252SOL     OW28654   5.695   0.626   4.751
 9252SOL    HW128655   5.615   0.680   4.723
 9252SOL    HW228656   5.778   0.672   4.719
 9253SOL     OW28657   5.315   5.288   5.324
 9253SOL    HW128658   5.315   5.368   5.384
 9253SOL    HW228659   5.238   5.294   5.260
 9254SOL     OW28660   4.383   4.749   2.558
 9254SOL    HW128661   4.383   4.719   2.653
 9254SOL    HW228662   4.419   4.675   2.500
 9255SOL     OW28663   5.135   3.486   0.151
 9255SOL    HW128664   5.039   3.503   0.126
 9255SOL    HW228665   5.163   3.552   0.221
 9256SOL     OW28666   2.284   0.021   2.189
 9256SOL    HW128667   2.234   0.101   2.156
 9256SOL    HW228668   2.264   0.006   2.286
 9257SOL     OW28669   5.972   5.338   3.522
 9257SOL    HW128670   6.026   5.318   3.604
 9257SOL    HW228671   6.022   5.401   3.464
 9258SOL     OW28672   4.197   3.752   1.674
 9258SOL    HW128673   4.217   3.744   1.577
 9258SOL    HW228674   4.218   3.666   1.720
 9259SOL     OW28675   1.966   1.057   0.661
 9259SOL    HW128676   2.035   1.038   0.591
 9259SOL    HW228677   1.962   1.155   0.678
 9260SOL     OW28678   6.517   2.811   5.628
 9260SOL    HW128679   6.520   2.809   5.728
 9260SOL    HW228680   6.426   2.785   5.597
 9261SOL     OW28681   4.519   1.462   6.780
 9261SOL    HW128682   4.510   1.540   6.842
 9261SOL    HW228683   4.480   1.381   6.822
 9262SOL     OW28684   0.562   6.236   4.972
 9262SOL    HW128685   0.540   6.140   4.990
 9262SOL    HW228686   0.573   6.250   4.874
 9263SOL     OW28687   3.133   5.456   2.371
 9263SOL    HW128688   3.086   5.483   2.455
 9263SOL    HW228689   3.066   5.430   2.302
 9264SOL     OW28690   4.674   3.706   0.257
 9264SOL    HW128691   4.615   3.633   0.222
 9264SOL    HW228692   4.754   3.666   0.300
 9265SOL     OW28693   3.965   2.479   0.333
 9265SOL    HW128694   3.987   2.574   0.352
 9265SOL    HW228695   3.990   2.423   0.412
 9266SOL     OW28696   0.693   6.109   1.115
 9266SOL    HW128697   0.598   6.084   1.134
 9266SOL    HW228698   0.753   6.031   1.133
 9267SOL     OW28699   0.336   2.039   4.537
 9267SOL    HW128700   0.398   2.050   4.460
 9267SOL    HW228701   0.284   1.954   4.527
 9268SOL     OW28702   1.119   7.015   2.699
 9268SOL    HW128703   1.022   7.001   2.680
 9268SOL    HW228704   1.172   7.006   2.615
 9269SOL     OW28705   4.403   0.056   6.383
 9269SOL    HW128706   4.396   0.150   6.350
 9269SOL    HW228707   4.469   0.005   6.326
 9270SOL     OW28708   3.948   6.914   5.749
 9270SOL    HW128709   3.943   6.944   5.654
 9270SOL    HW228710   3.871   6.952   5.800
 9271SOL     OW28711   6.051   0.442   0.295
 9271SOL    HW128712   6.109   0.504   0.348
 9271SOL    HW228713   6.105   0.364   0.265
 9272SOL     OW28714   0.976   6.492   6.589
 9272SOL    HW128715   1.058   6.435   6.589
 9272SOL    HW228716   0.982   6.559   6.515
 9273SOL     OW28717   6.590   6.032   3.674
 9273SOL    HW128718   6.573   6.131   3.672
 9273SOL    HW228719   6.503   5.983   3.664
 9274SOL     OW28720   6.823   2.361   6.944
 9274SOL    HW128721   6.894   2.292   6.960
 9274SOL    HW228722   6.790   2.353   6.850
 9275SOL     OW28723   6.456   0.723   0.477
 9275SOL    HW128724   6.427   0.650   0.415
 9275SOL    HW228725   6.387   0.795   0.479
 9276SOL     OW28726   1.596   4.803   0.197
 9276SOL    HW128727   1.543   4.732   0.244
 9276SOL    HW228728   1.587   4.790   0.098
 9277SOL     OW28729   4.518   5.285   2.079
 9277SOL    HW128730   4.427   5.325   2.082
 9277SOL    HW228731   4.554   5.290   1.985
 9278SOL     OW28732   1.792   0.602   6.034
 9278SOL    HW128733   1.844   0.582   5.950
 9278SOL    HW228734   1.734   0.524   6.056
 9279SOL     OW28735   3.590   6.676   1.653
 9279SOL    HW128736   3.624   6.704   1.563
 9279SOL    HW228737   3.561   6.758   1.703
 9280SOL     OW28738   2.584   1.065   2.608
 9280SOL    HW128739   2.679   1.050   2.636
 9280SOL    HW228740   2.534   0.979   2.612
 9281SOL     OW28741   3.053   4.471   6.723
 9281SOL    HW128742   3.062   4.570   6.737
 9281SOL    HW228743   2.959   4.443   6.740
 9282SOL     OW28744   5.068   1.292   3.494
 9282SOL    HW128745   5.006   1.237   3.438
 9282SOL    HW228746   5.088   1.378   3.447
 9283SOL     OW28747   5.389   0.515   4.841
 9283SOL    HW128748   5.421   0.514   4.746
 9283SOL    HW228749   5.303   0.464   4.847
 9284SOL     OW28750   2.579   3.216   5.493
 9284SOL    HW128751   2.583   3.116   5.482
 9284SOL    HW228752   2.621   3.259   5.413
 9285SOL     OW28753   4.796   3.476   1.296
 9285SOL    HW128754   4.733   3.553   1.293
 9285SOL    HW228755   4.778   3.415   1.220
 9286SOL     OW28756   5.685   5.273   0.705
 9286SOL    HW128757   5.668   5.210   0.629
 9286SOL    HW228758   5.687   5.367   0.671
 9287SOL     OW28759   3.776   4.696   6.091
 9287SOL    HW128760   3.836   4.776   6.090
 9287SOL    HW228761   3.721   4.693   6.007
 9288SOL     OW28762   4.442   1.412   2.269
 9288SOL    HW128763   4.495   1.449   2.345
 9288SOL    HW228764   4.439   1.479   2.195
 9289SOL     OW28765   4.819   0.844   0.843
 9289SOL    HW128766   4.767   0.926   0.869
 9289SOL    HW228767   4.761   0.785   0.787
 9290SOL     OW28768   5.988   1.131   3.788
 9290SOL    HW128769   5.994   1.228   3.810
 9290SOL    HW228770   5.938   1.120   3.702
 9291SOL     OW28771   1.358   5.466   5.743
 9291SOL    HW128772   1.448   5.496   5.775
 9291SOL    HW228773   1.309   5.421   5.818
 9292SOL     OW28774   2.104   1.853   6.879
 9292SOL    HW128775   2.055   1.767   6.864
 9292SOL    HW228776   2.203   1.836   6.875
 9293SOL     OW28777   5.769   3.865   6.584
 9293SOL    HW128778   5.680   3.864   6.538
 9293SOL    HW228779   5.840   3.840   6.518
 9294SOL     OW28780   5.229   1.437   6.523
 9294SOL    HW128781   5.213   1.345   6.559
 9294SOL    HW228782   5.152   1.496   6.548
 9295SOL     OW28783   5.767   0.507   5.266
 9295SOL    HW128784   5.755   0.552   5.178
 9295SOL    HW228785   5.701   0.432   5.275
 9296SOL     OW28786   1.915   4.951   0.319
 9296SOL    HW128787   1.816   4.948   0.329
 9296SOL    HW228788   1.944   4.884   0.252
 9297SOL     OW28789   0.543   6.975   3.516
 9297SOL    HW128790   0.500   6.994   3.604
 9297SOL    HW228791   0.545   0.037   3.461
 9298SOL     OW28792   1.527   6.148   5.828
 9298SOL    HW128793   1.499   6.228   5.880
 9298SOL    HW228794   1.502   6.159   5.732
 9299SOL     OW28795   1.038   1.723   4.529
 9299SOL    HW128796   0.958   1.664   4.523
 9299SOL    HW228797   1.056   1.765   4.440
 9300SOL     OW28798   6.999   5.261   5.408
 9300SOL    HW128799   0.068   5.230   5.382
 9300SOL    HW228800   7.007   5.338   5.472
 9301SOL     OW28801   6.519   4.985   4.969
 9301SOL    HW128802   6.582   5.041   5.023
 9301SOL    HW228803   6.441   4.959   5.026
 9302SOL     OW28804   2.155   3.440   4.571
 9302SOL    HW128805   2.247   3.411   4.597
 9302SOL    HW228806   2.153   3.459   4.473
 9303SOL     OW28807   2.761   3.675   0.897
 9303SOL    HW128808   2.822   3.754   0.891
 9303SOL    HW228809   2.815   3.591   0.897
 9304SOL     OW28810   4.338   5.504   0.449
 9304SOL    HW128811   4.293   5.455   0.375
 9304SOL    HW228812   4.418   5.453   0.480
 9305SOL     OW28813   3.589   1.002   0.700
 9305SOL    HW128814   3.622   0.958   0.617
 9305SOL    HW228815   3.490   0.989   0.708
 9306SOL     OW28816   1.522   4.252   5.218
 9306SOL    HW128817   1.433   4.267   5.177
 9306SOL    HW228818   1.512   4.197   5.301
 9307SOL     OW28819   1.274   3.482   0.659
 9307SOL    HW128820   1.243   3.552   0.724
 9307SOL    HW228821   1.206   3.408   0.655
 9308SOL     OW28822   1.265   3.804   1.996
 9308SOL    HW128823   1.204   3.874   1.960
 9308SOL    HW228824   1.212   3.723   2.021
 9309SOL     OW28825   3.749   6.093   5.798
 9309SOL    HW128826   3.774   6.117   5.892
 9309SOL    HW228827   3.824   6.118   5.736
 9310SOL     OW28828   5.619   6.523   5.555
 9310SOL    HW128829   5.539   6.572   5.520
 9310SOL    HW228830   5.682   6.589   5.597
 9311SOL     OW28831   5.419   4.347   1.670
 9311SOL    HW128832   5.369   4.372   1.752
 9311SOL    HW228833   5.362   4.361   1.589
 9312SOL     OW28834   1.662   2.000   1.092
 9312SOL    HW128835   1.758   2.025   1.090
 9312SOL    HW228836   1.624   2.004   0.999
 9313SOL     OW28837   6.774   0.334   1.706
 9313SOL    HW128838   6.726   0.310   1.622
 9313SOL    HW228839   6.801   0.250   1.754
 9314SOL     OW28840   6.434   3.384   0.265
 9314SOL    HW128841   6.355   3.428   0.223
 9314SOL    HW228842   6.443   3.417   0.360
 9315SOL     OW28843   6.339   0.065   5.578
 9315SOL    HW128844   6.337   0.146   5.636
 9315SOL    HW228845   6.258   0.064   5.519
 9316SOL     OW28846   6.003   0.098   5.532
 9316SOL    HW128847   6.006   0.198   5.535
 9316SOL    HW228848   5.915   0.068   5.496
 9317SOL     OW28849   4.068   5.489   2.862
 9317SOL    HW128850   4.129   5.409   2.868
 9317SOL    HW228851   4.024   5.504   2.950
 9318SOL     OW28852   5.305   6.992   0.256
 9318SOL    HW128853   5.315   6.910   0.312
 9318SOL    HW228854   5.331   6.972   0.162
 9319SOL     OW28855   2.558   2.553   1.295
 9319SOL    HW128856   2.628   2.624   1.302
 9319SOL    HW228857   2.468   2.596   1.297
 9320SOL     OW28858   4.302   0.501   5.160
 9320SOL    HW128859   4.281   0.411   5.198
 9320SOL    HW228860   4.219   0.542   5.123
 9321SOL     OW28861   0.905   1.031   5.437
 9321SOL    HW128862   0.808   1.007   5.428
 9321SOL    HW228863   0.924   1.111   5.380
 9322SOL     OW28864   6.829   4.555   0.059
 9322SOL    HW128865   6.848   4.509   6.995
 9322SOL    HW228866   6.730   4.555   0.076
 9323SOL     OW28867   1.735   1.084   5.041
 9323SOL    HW128868   1.774   1.026   5.112
 9323SOL    HW228869   1.705   1.026   4.964
 9324SOL     OW28870   2.176   3.790   2.527
 9324SOL    HW128871   2.156   3.733   2.606
 9324SOL    HW228872   2.244   3.746   2.469
 9325SOL     OW28873   6.989   0.040   0.606
 9325SOL    HW128874   0.001   6.971   0.625
 9325SOL    HW228875   0.035   0.108   0.632
 9326SOL     OW28876   2.968   4.938   6.901
 9326SOL    HW128877   3.050   4.901   6.858
 9326SOL    HW228878   2.981   4.942   7.000
 9327SOL     OW28879   4.315   6.477   2.691
 9327SOL    HW128880   4.238   6.536   2.663
 9327SOL    HW228881   4.295   6.383   2.665
 9328SOL     OW28882   1.702   0.692   4.978
 9328SOL    HW128883   1.794   0.729   4.967
 9328SOL    HW228884   1.696   0.644   5.066
 9329SOL     OW28885   6.831   5.335   1.082
 9329SOL    HW128886   6.846   5.388   0.999
 9329SOL    HW228887   6.916   5.331   1.135
 9330SOL     OW28888   0.084   0.020   5.751
 9330SOL    HW128889   0.123   6.981   5.682
 9330SOL    HW228890   0.014   6.994   5.803
 9331SOL     OW28891   1.903   1.581   6.268
 9331SOL    HW128892   1.914   1.680   6.258
 9331SOL    HW228893   1.954   1.534   6.196
 9332SOL     OW28894   4.285   5.732   0.263
 9332SOL    HW128895   4.292   5.677   0.346
 9332SOL    HW228896   4.350   5.808   0.267
 9333SOL     OW28897   3.738   5.330   6.451
 9333SOL    HW128898   3.753   5.322   6.352
 9333SOL    HW228899   3.736   5.427   6.476
 9334SOL     OW28900   4.955   6.665   4.149
 9334SOL    HW128901   4.907   6.753   4.145
 9334SOL    HW228902   4.995   6.653   4.240
 9335SOL     OW28903   1.574   1.810   6.858
 9335SOL    HW128904   1.577   1.909   6.843
 9335SOL    HW228905   1.483   1.776   6.836
 9336SOL     OW28906   5.359   6.825   4.250
 9336SOL    HW128907   5.313   6.800   4.335
 9336SOL    HW228908   5.295   6.815   4.174
 9337SOL     OW28909   4.948   1.206   5.972
 9337SOL    HW128910   4.851   1.180   5.973
 9337SOL    HW228911   4.998   1.145   5.910
 9338SOL     OW28912   6.511   6.576   0.840
 9338SOL    HW128913   6.460   6.518   0.904
 9338SOL    HW228914   6.608   6.572   0.861
 9339SOL     OW28915   5.902   5.864   0.169
 9339SOL    HW128916   5.949   5.778   0.191
 9339SOL    HW228917   5.810   5.862   0.207
 9340SOL     OW28918   3.785   4.894   2.619
 9340SOL    HW128919   3.874   4.924   2.585
 9340SOL    HW228920   3.720   4.891   2.543
 9341SOL     OW28921   6.203   4.370   0.679
 9341SOL    HW128922   6.243   4.462   0.676
 9341SOL    HW228923   6.248   4.312   0.611
 9342SOL     OW28924   2.018   0.586   4.724
 9342SOL    HW128925   2.076   0.616   4.648
 9342SOL    HW228926   2.070   0.526   4.784
 9343SOL     OW28927   4.780   3.935   1.831
 9343SOL    HW128928   4.789   4.019   1.884
 9343SOL    HW228929   4.824   3.860   1.881
 9344SOL     OW28930   5.228   5.442   0.524
 9344SOL    HW128931   5.240   5.523   0.581
 9344SOL    HW228932   5.266   5.362   0.571
 9345SOL     OW28933   6.937   4.760   2.426
 9345SOL    HW128934   6.992   4.680   2.448
 9345SOL    HW228935   6.841   4.733   2.412
 9346SOL     OW28936   4.749   0.191   2.077
 9346SOL    HW128937   4.755   0.231   2.168
 9346SOL    HW228938   4.815   0.236   2.017
 9347SOL     OW28939   2.859   6.130   0.191
 9347SOL    HW128940   2.959   6.129   0.199
 9347SOL    HW228941   2.829   6.221   0.164
 9348SOL     OW28942   2.641   5.842   2.279
 9348SOL    HW128943   2.716   5.775   2.274
 9348SOL    HW228944   2.587   5.837   2.195
 9349SOL     OW28945   6.474   5.389   2.646
 9349SOL    HW128946   6.535   5.458   2.683
 9349SOL    HW228947   6.480   5.389   2.546
 9350SOL     OW28948   6.710   1.731   4.269
 9350SOL    HW128949   6.755   1.648   4.303
 9350SOL    HW228950   6.611   1.723   4.285
 9351SOL     OW28951   2.720   0.320   6.391
 9351SOL    HW128952   2.788   0.369   6.337
 9351SOL    HW228953   2.629   0.351   6.366
 9352SOL     OW28954   3.068   2.757   5.714
 9352SOL    HW128955   3.135   2.741   5.641
 9352SOL    HW228956   3.000   2.823   5.683
 9353SOL     OW28957   1.978   4.414   0.929
 9353SOL    HW128958   1.942   4.346   0.993
 9353SOL    HW228959   2.033   4.481   0.979
 9354SOL     OW28960   6.319   1.927   0.032
 9354SOL    HW128961   6.396   1.984   0.058
 9354SOL    HW228962   6.303   1.937   6.956
 9355SOL     OW28963   6.480   2.146   4.638
 9355SOL    HW128964   6.516   2.181   4.552
 9355SOL    HW228965   6.517   2.056   4.656
 9356SOL     OW28966   4.382   5.910   1.522
 9356SOL    HW128967   4.447   5.888   1.448
 9356SOL    HW228968   4.385   6.008   1.541
 9357SOL     OW28969   3.201   3.144   6.310
 9357SOL    HW128970   3.231   3.202   6.386
 9357SOL    HW228971   3.102   3.151   6.300
 9358SOL     OW28972   6.453   3.381   2.101
 9358SOL    HW128973   6.473   3.477   2.084
 9358SOL    HW228974   6.507   3.324   2.039
 9359SOL     OW28975   1.149   3.314   6.045
 9359SOL    HW128976   1.201   3.241   6.000
 9359SOL    HW228977   1.134   3.389   5.980
 9360SOL     OW28978   1.315   0.015   6.149
 9360SOL    HW128979   1.374   6.961   6.122
 9360SOL    HW228980   1.227   0.007   6.102
 9361SOL     OW28981   1.758   6.022   3.530
 9361SOL    HW128982   1.724   5.943   3.581
 9361SOL    HW228983   1.757   6.103   3.588
 9362SOL     OW28984   1.326   2.373   2.199
 9362SOL    HW128985   1.408   2.370   2.142
 9362SOL    HW228986   1.263   2.442   2.163
 9363SOL     OW28987   3.926   5.762   1.865
 9363SOL    HW128988   3.955   5.836   1.804
 9363SOL    HW228989   3.838   5.726   1.834
 9364SOL     OW28990   4.407   2.910   5.645
 9364SOL    HW128991   4.375   2.816   5.655
 9364SOL    HW228992   4.359   2.954   5.568
 9365SOL     OW28993   2.623   1.939   4.998
 9365SOL    HW128994   2.630   2.011   5.066
 9365SOL    HW228995   2.527   1.921   4.976
 9366SOL     OW28996   3.430   0.477   0.086
 9366SOL    HW128997   3.499   0.526   0.140
 9366SOL    HW228998   3.421   0.520   7.019
 9367SOL     OW28999   6.703   6.166   2.837
 9367SOL    HW129000   6.752   6.230   2.895
 9367SOL    HW229001   6.758   6.083   2.825
 9368SOL     OW29002   2.875   1.504   4.158
 9368SOL    HW129003   2.936   1.439   4.113
 9368SOL    HW229004   2.781   1.486   4.132
 9369SOL     OW29005   6.845   0.343   4.960
 9369SOL    HW129006   6.899   0.386   5.032
 9369SOL    HW229007   6.870   0.382   4.871
 9370SOL     OW29008   4.429   6.967   2.320
 9370SOL    HW129009   4.385   0.019   2.272
 9370SOL    HW229010   4.489   7.003   2.391
 9371SOL     OW29011   2.004   4.834   0.631
 9371SOL    HW129012   1.906   4.836   0.608
 9371SOL    HW229013   2.056   4.805   0.551
 9372SOL     OW29014   5.201   6.037   2.933
 9372SOL    HW129015   5.161   5.962   2.987
 9372SOL    HW229016   5.284   6.004   2.887
 9373SOL     OW29017   4.008   2.179   2.718
 9373SOL    HW129018   4.029   2.128   2.801
 9373SOL    HW229019   3.911   2.169   2.696
 9374SOL     OW29020   0.571   2.770   0.953
 9374SOL    HW129021   0.648   2.763   0.890
 9374SOL    HW229022   0.548   2.680   0.989
 9375SOL     OW29023   6.177   1.764   3.087
 9375SOL    HW129024   6.275   1.773   3.071
 9375SOL    HW229025   6.152   1.667   3.090
 9376SOL     OW29026   2.668   4.299   1.031
 9376SOL    HW129027   2.634   4.236   0.961
 9376SOL    HW229028   2.768   4.293   1.035
 9377SOL     OW29029   2.016   5.445   3.929
 9377SOL    HW129030   1.979   5.534   3.904
 9377SOL    HW229031   2.046   5.446   4.024
 9378SOL     OW29032   1.321   1.164   4.855
 9378SOL    HW129033   1.367   1.168   4.766
 9378SOL    HW229034   1.267   1.247   4.868
 9379SOL     OW29035   4.508   6.107   4.983
 9379SOL    HW129036   4.480   6.104   4.887
 9379SOL    HW229037   4.492   6.199   5.020
 9380SOL     OW29038   5.709   4.877   4.967
 9380SOL    HW129039   5.727   4.918   4.877
 9380SOL    HW229040   5.616   4.842   4.971
 9381SOL     OW29041   3.223   3.041   5.804
 9381SOL    HW129042   3.125   3.037   5.823
 9381SOL    HW229043   3.238   3.038   5.705
 9382SOL     OW29044   3.568   0.804   3.189
 9382SOL    HW129045   3.625   0.845   3.260
 9382SOL    HW229046   3.545   0.874   3.121
 9383SOL     OW29047   1.930   5.951   4.669
 9383SOL    HW129048   2.005   5.901   4.626
 9383SOL    HW229049   1.966   6.037   4.707
 9384SOL     OW29050   2.871   6.778   1.523
 9384SOL    HW129051   2.776   6.783   1.555
 9384SOL    HW229052   2.924   6.722   1.587
 9385SOL     OW29053   3.964   0.640   2.831
 9385SOL    HW129054   4.038   0.576   2.849
 9385SOL    HW229055   3.913   0.656   2.916
 9386SOL     OW29056   2.335   6.318   5.148
 9386SOL    HW129057   2.330   6.221   5.171
 9386SOL    HW229058   2.247   6.362   5.166
 9387SOL     OW29059   2.526   1.510   0.475
 9387SOL    HW129060   2.619   1.537   0.451
 9387SOL    HW229061   2.497   1.436   0.414
 9388SOL     OW29062   1.936   5.361   2.766
 9388SOL    HW129063   1.955   5.279   2.820
 9388SOL    HW229064   1.999   5.364   2.688
 9389SOL     OW29065   1.814   6.487   4.655
 9389SOL    HW129066   1.820   6.521   4.562
 9389SOL    HW229067   1.902   6.497   4.701
 9390SOL     OW29068   4.561   4.929   4.854
 9390SOL    HW129069   4.519   4.854   4.802
 9390SOL    HW229070   4.623   4.980   4.794
 9391SOL     OW29071   2.309   1.166   4.930
 9391SOL    HW129072   2.408   1.172   4.928
 9391SOL    HW229073   2.279   1.142   5.022
 9392SOL     OW29074   6.852   0.881   5.207
 9392SOL    HW129075   6.757   0.877   5.238
 9392SOL    HW229076   6.913   0.873   5.286
 9393SOL     OW29077   3.168   0.107   5.464
 9393SOL    HW129078   3.072   0.132   5.471
 9393SOL    HW229079   3.178   0.032   5.398
 9394SOL     OW29080   0.506   1.620   2.110
 9394SOL    HW129081   0.561   1.701   2.089
 9394SOL    HW229082   0.565   1.540   2.114
 9395SOL     OW29083   2.750   1.720   0.634
 9395SOL    HW129084   2.768   1.783   0.709
 9395SOL    HW229085   2.681   1.760   0.573
 9396SOL     OW29086   2.194   5.418   4.161
 9396SOL    HW129087   2.239   5.330   4.144
 9396SOL    HW229088   2.230   5.458   4.245
 9397SOL     OW29089   3.741   6.936   0.016
 9397SOL    HW129090   3.786   6.891   6.961
 9397SOL    HW229091   3.771   0.008   0.021
 9398SOL     OW29092   6.954   1.243   4.885
 9398SOL    HW129093   0.026   1.224   4.908
 9398SOL    HW229094   6.899   1.161   4.896
 9399SOL     OW29095   0.058   1.768   6.076
 9399SOL    HW129096   0.093   1.774   6.169
 9399SOL    HW229097   0.095   1.844   6.022
 9400SOL     OW29098   4.219   1.274   2.206
 9400SOL    HW129099   4.294   1.333   2.236
 9400SOL    HW229100   4.145   1.278   2.274
 9401SOL     OW29101   5.753   0.054   3.499
 9401SOL    HW129102   5.851   0.065   3.515
 9401SOL    HW229103   5.703   0.125   3.548
 9402SOL     OW29104   1.114   4.753   3.617
 9402SOL    HW129105   1.137   4.769   3.521
 9402SOL    HW229106   1.065   4.832   3.653
 9403SOL     OW29107   6.667   1.811   2.771
 9403SOL    HW129108   6.649   1.839   2.677
 9403SOL    HW229109   6.581   1.812   2.823
 9404SOL     OW29110   1.488   3.087   6.441
 9404SOL    HW129111   1.498   3.001   6.490
 9404SOL    HW229112   1.394   3.121   6.453
 9405SOL     OW29113   1.761   5.209   2.419
 9405SOL    HW129114   1.727   5.139   2.356
 9405SOL    HW229115   1.684   5.265   2.452
 9406SOL     OW29116   6.572   3.023   5.830
 9406SOL    HW129117   6.627   3.106   5.836
 9406SOL    HW229118   6.628   2.948   5.796
 9407SOL     OW29119   2.886   5.105   3.224
 9407SOL    HW129120   2.795   5.109   3.266
 9407SOL    HW229121   2.944   5.043   3.277
 9408SOL     OW29122   4.848   2.359   6.678
 9408SOL    HW129123   4.807   2.269   6.667
 9408SOL    HW229124   4.917   2.373   6.606
 9409SOL     OW29125   6.221   5.200   6.570
 9409SOL    HW129126   6.287   5.214   6.496
 9409SOL    HW229127   6.183   5.289   6.596
 9410SOL     OW29128   3.139   7.012   1.912
 9410SOL    HW129129   3.215   7.012   1.978
 9410SOL    HW229130   3.146   6.931   1.853
 9411SOL     OW29131   3.245   3.188   2.014
 9411SOL    HW129132   3.244   3.288   2.006
 9411SOL    HW229133   3.169   3.159   2.073
 9412SOL     OW29134   6.791   2.832   1.871
 9412SOL    HW129135   6.888   2.831   1.850
 9412SOL    HW229136   6.741   2.776   1.804
 9413SOL     OW29137   3.378   6.203   3.849
 9413SOL    HW129138   3.427   6.267   3.791
 9413SOL    HW229139   3.296   6.171   3.801
 9414SOL     OW29140   3.097   0.644   3.399
 9414SOL    HW129141   3.051   0.733   3.404
 9414SOL    HW229142   3.185   0.654   3.353
 9415SOL     OW29143   3.082   6.761   2.124
 9415SOL    HW129144   3.059   6.675   2.169
 9415SOL    HW229145   3.030   6.836   2.166
 9416SOL     OW29146   0.518   2.384   0.948
 9416SOL    HW129147   0.552   2.370   0.855
 9416SOL    HW229148   0.585   2.352   1.014
 9417SOL     OW29149   4.048   0.013   6.122
 9417SOL    HW129150   3.974   7.017   6.057
 9417SOL    HW229151   4.074   0.109   6.117
 9418SOL     OW29152   3.729   6.378   0.946
 9418SOL    HW129153   3.643   6.376   0.997
 9418SOL    HW229154   3.801   6.417   1.004
 9419SOL     OW29155   3.771   5.457   5.940
 9419SOL    HW129156   3.691   5.423   5.988
 9419SOL    HW229157   3.841   5.386   5.936
 9420SOL     OW29158   6.301   3.617   5.590
 9420SOL    HW129159   6.353   3.697   5.559
 9420SOL    HW229160   6.280   3.559   5.512
 9421SOL     OW29161   2.126   0.015   4.689
 9421SOL    HW129162   2.082   7.020   4.601
 9421SOL    HW229163   2.207   6.979   4.698
 9422SOL     OW29164   4.176   5.979   3.188
 9422SOL    HW129165   4.199   5.909   3.256
 9422SOL    HW229166   4.247   5.980   3.117
 9423SOL     OW29167   4.008   0.892   4.061
 9423SOL    HW129168   4.051   0.829   3.996
 9423SOL    HW229169   3.909   0.895   4.043
 9424SOL     OW29170   5.038   0.915   4.726
 9424SOL    HW129171   5.098   0.913   4.646
 9424SOL    HW229172   4.962   0.978   4.710
 9425SOL     OW29173   6.224   3.340   6.808
 9425SOL    HW129174   6.144   3.341   6.869
 9425SOL    HW229175   6.197   3.299   6.721
 9426SOL     OW29176   3.174   2.087   6.864
 9426SOL    HW129177   3.239   2.156   6.893
 9426SOL    HW229178   3.159   2.022   6.938
 9427SOL     OW29179   3.246   5.174   3.578
 9427SOL    HW129180   3.146   5.176   3.586
 9427SOL    HW229181   3.286   5.199   3.666
 9428SOL     OW29182   6.216   0.551   1.295
 9428SOL    HW129183   6.168   0.631   1.331
 9428SOL    HW229184   6.149   0.484   1.263
 9429SOL     OW29185   2.011   3.531   2.374
 9429SOL    HW129186   2.030   3.520   2.472
 9429SOL    HW229187   1.935   3.595   2.363
 9430SOL     OW29188   0.349   4.024   2.484
 9430SOL    HW129189   0.425   3.975   2.528
 9430SOL    HW229190   0.286   4.055   2.555
 9431SOL     OW29191   6.356   4.456   1.320
 9431SOL    HW129192   6.277   4.470   1.261
 9431SOL    HW229193   6.326   4.450   1.415
 9432SOL     OW29194   4.535   0.635   3.126
 9432SOL    HW129195   4.440   0.605   3.128
 9432SOL    HW229196   4.556   0.684   3.211
 9433SOL     OW29197   2.761   5.126   2.992
 9433SOL    HW129198   2.825   5.107   2.917
 9433SOL    HW229199   2.807   5.110   3.079
 9434SOL     OW29200   5.469   4.979   2.801
 9434SOL    HW129201   5.486   4.882   2.787
 9434SOL    HW229202   5.542   5.019   2.856
 9435SOL     OW29203   0.582   2.809   4.703
 9435SOL    HW129204   0.544   2.732   4.753
 9435SOL    HW229205   0.567   2.796   4.605
 9436SOL     OW29206   1.302   2.843   1.604
 9436SOL    HW129207   1.229   2.906   1.629
 9436SOL    HW229208   1.379   2.854   1.667
 9437SOL     OW29209   2.468   5.727   2.892
 9437SOL    HW129210   2.424   5.647   2.854
 9437SOL    HW229211   2.559   5.703   2.926
 9438SOL     OW29212   0.037   0.365   1.568
 9438SOL    HW129213   6.964   0.360   1.598
 9438SOL    HW229214   0.059   0.459   1.544
 9439SOL     OW29215   0.515   3.253   1.495
 9439SOL    HW129216   0.547   3.158   1.498
 9439SOL    HW229217   0.425   3.259   1.539
 9440SOL     OW29218   3.920   5.150   3.464
 9440SOL    HW129219   3.911   5.051   3.469
 9440SOL    HW229220   3.929   5.178   3.369
 9441SOL     OW29221   0.876   3.180   5.112
 9441SOL    HW129222   0.951   3.205   5.050
 9441SOL    HW229223   0.819   3.260   5.129
 9442SOL     OW29224   4.136   3.124   0.354
 9442SOL    HW129225   4.045   3.092   0.326
 9442SOL    HW229226   4.178   3.175   0.279
 9443SOL     OW29227   2.001   5.496   0.558
 9443SOL    HW129228   2.058   5.527   0.633
 9443SOL    HW229229   2.010   5.397   0.547
 9444SOL     OW29230   1.481   3.475   6.605
 9444SOL    HW129231   1.509   3.568   6.631
 9444SOL    HW229232   1.410   3.481   6.534
 9445SOL     OW29233   5.360   3.295   3.526
 9445SOL    HW129234   5.401   3.240   3.453
 9445SOL    HW229235   5.304   3.367   3.486
 9446SOL     OW29236   6.091   5.741   4.234
 9446SOL    HW129237   6.081   5.645   4.261
 9446SOL    HW229238   6.017   5.795   4.275
 9447SOL     OW29239   5.980   3.821   5.187
 9447SOL    HW129240   5.967   3.735   5.137
 9447SOL    HW229241   5.961   3.807   5.284
 9448SOL     OW29242   0.003   7.014   6.663
 9448SOL    HW129243   6.960   0.032   6.727
 9448SOL    HW229244   7.000   0.017   6.569
 9449SOL     OW29245   6.890   6.234   0.335
 9449SOL    HW129246   6.824   6.166   0.368
 9449SOL    HW229247   6.884   6.240   0.235
 9450SOL     OW29248   2.506   5.380   5.226
 9450SOL    HW129249   2.498   5.476   5.251
 9450SOL    HW229250   2.592   5.343   5.261
 9451SOL     OW29251   4.187   6.754   5.776
 9451SOL    HW129252   4.119   6.825   5.792
 9451SOL    HW229253   4.196   6.739   5.677
 9452SOL     OW29254   2.064   4.030   0.109
 9452SOL    HW129255   2.139   4.049   0.173
 9452SOL    HW229256   2.101   3.988   0.027
 9453SOL     OW29257   1.908   4.664   3.474
 9453SOL    HW129258   1.930   4.714   3.390
 9453SOL    HW229259   1.812   4.680   3.498
 9454SOL     OW29260   3.398   3.072   6.812
 9454SOL    HW129261   3.376   3.156   6.861
 9454SOL    HW229262   3.364   2.993   6.863
 9455SOL     OW29263   3.137   1.615   3.347
 9455SOL    HW129264   3.200   1.671   3.402
 9455SOL    HW229265   3.163   1.622   3.250
 9456SOL     OW29266   1.228   3.190   1.126
 9456SOL    HW129267   1.308   3.180   1.067
 9456SOL    HW229268   1.153   3.232   1.073
 9457SOL     OW29269   2.258   3.746   5.270
 9457SOL    HW129270   2.167   3.768   5.235
 9457SOL    HW229271   2.322   3.818   5.243
 9458SOL     OW29272   1.281   3.464   6.413
 9458SOL    HW129273   1.285   3.533   6.340
 9458SOL    HW229274   1.265   3.374   6.372
 9459SOL     OW29275   5.195   4.644   3.306
 9459SOL    HW129276   5.190   4.743   3.298
 9459SOL    HW229277   5.272   4.610   3.253
 9460SOL     OW29278   0.293   2.834   3.833
 9460SOL    HW129279   0.305   2.897   3.910
 9460SOL    HW229280   0.291   2.886   3.748
 9461SOL     OW29281   6.351   1.474   2.080
 9461SOL    HW129282   6.404   1.395   2.112
 9461SOL    HW229283   6.396   1.558   2.110
 9462SOL     OW29284   2.086   3.504   3.355
 9462SOL    HW129285   2.092   3.478   3.452
 9462SOL    HW229286   2.095   3.423   3.298
 9463SOL     OW29287   0.137   1.154   1.790
 9463SOL    HW129288   0.057   1.181   1.737
 9463SOL    HW229289   0.165   1.061   1.764
 9464SOL     OW29290   6.429   0.359   1.037
 9464SOL    HW129291   6.412   0.450   0.999
 9464SOL    HW229292   6.353   0.299   1.014
 9465SOL     OW29293   1.597   5.235   2.996
 9465SOL    HW129294   1.623   5.139   2.987
 9465SOL    HW229295   1.644   5.275   3.075
 9466SOL     OW29296   4.483   4.854   5.822
 9466SOL    HW129297   4.393   4.834   5.859
 9466SOL    HW229298   4.548   4.784   5.852
 9467SOL     OW29299   1.350   3.109   1.719
 9467SOL    HW129300   1.387   3.199   1.698
 9467SOL    HW229301   1.423   3.049   1.752
 9468SOL     OW29302   5.940   3.320   5.827
 9468SOL    HW129303   5.893   3.320   5.915
 9468SOL    HW229304   5.961   3.414   5.800
 9469SOL     OW29305   6.452   5.871   2.020
 9469SOL    HW129306   6.376   5.867   2.085
 9469SOL    HW229307   6.528   5.816   2.054
 9470SOL     OW29308   4.395   3.643   5.548
 9470SOL    HW129309   4.462   3.600   5.608
 9470SOL    HW229310   4.325   3.688   5.603
 9471SOL     OW29311   6.769   2.503   4.502
 9471SOL    HW129312   6.821   2.586   4.523
 9471SOL    HW229313   6.722   2.471   4.584
 9472SOL     OW29314   5.803   4.008   5.143
 9472SOL    HW129315   5.870   3.934   5.141
 9472SOL    HW229316   5.803   4.051   5.234
 9473SOL     OW29317   3.133   5.341   6.289
 9473SOL    HW129318   3.109   5.270   6.223
 9473SOL    HW229319   3.198   5.303   6.356
 9474SOL     OW29320   0.215   2.808   0.026
 9474SOL    HW129321   0.288   2.740   0.014
 9474SOL    HW229322   0.200   2.823   0.123
 9475SOL     OW29323   3.421   3.323   6.518
 9475SOL    HW129324   3.463   3.249   6.570
 9475SOL    HW229325   3.327   3.338   6.551
 9476SOL     OW29326   3.182   4.107   4.956
 9476SOL    HW129327   3.189   4.176   5.027
 9476SOL    HW229328   3.088   4.105   4.920
 9477SOL     OW29329   0.331   3.181   1.689
 9477SOL    HW129330   0.277   3.263   1.709
 9477SOL    HW229331   0.277   3.100   1.711
 9478SOL     OW29332   5.325   3.316   0.236
 9478SOL    HW129333   5.247   3.371   0.205
 9478SOL    HW229334   5.328   3.231   0.184
 9479SOL     OW29335   4.349   6.077   6.932
 9479SOL    HW129336   4.343   6.152   6.998
 9479SOL    HW229337   4.412   6.007   6.967
 9480SOL     OW29338   4.617   3.805   1.013
 9480SOL    HW129339   4.571   3.799   0.925
 9480SOL    HW229340   4.553   3.837   1.083
 9481SOL     OW29341   5.257   3.567   2.174
 9481SOL    HW129342   5.275   3.645   2.233
 9481SOL    HW229343   5.320   3.493   2.196
 9482SOL     OW29344   6.919   0.582   2.985
 9482SOL    HW129345   6.831   0.557   2.946
 9482SOL    HW229346   6.969   0.499   3.010
 9483SOL     OW29347   1.092   1.805   1.748
 9483SOL    HW129348   1.084   1.710   1.717
 9483SOL    HW229349   1.167   1.812   1.813
 9484SOL     OW29350   3.083   1.402   3.879
 9484SOL    HW129351   3.042   1.489   3.853
 9484SOL    HW229352   3.067   1.335   3.807
 9485SOL     OW29353   0.312   0.290   1.656
 9485SOL    HW129354   0.228   0.334   1.623
 9485SOL    HW229355   0.381   0.293   1.584
 9486SOL     OW29356   2.734   6.248   0.931
 9486SOL    HW129357   2.732   6.168   0.990
 9486SOL    HW229358   2.642   6.270   0.899
 9487SOL     OW29359   3.773   3.630   3.378
 9487SOL    HW129360   3.864   3.670   3.379
 9487SOL    HW229361   3.778   3.534   3.405
 9488SOL     OW29362   1.564   6.348   0.730
 9488SOL    HW129363   1.587   6.395   0.645
 9488SOL    HW229364   1.528   6.414   0.797
 9489SOL     OW29365   4.334   4.413   1.689
 9489SOL    HW129366   4.388   4.437   1.609
 9489SOL    HW229367   4.381   4.343   1.742
 9490SOL     OW29368   0.041   5.403   1.237
 9490SOL    HW129369   0.131   5.366   1.217
 9490SOL    HW229370   0.039   5.438   1.330
 9491SOL     OW29371   6.212   4.827   3.911
 9491SOL    HW129372   6.253   4.908   3.954
 9491SOL    HW229373   6.137   4.794   3.968
 9492SOL     OW29374   3.383   2.903   2.892
 9492SOL    HW129375   3.461   2.927   2.949
 9492SOL    HW229376   3.301   2.899   2.950
 9493SOL     OW29377   3.731   5.207   4.043
 9493SOL    HW129378   3.687   5.119   4.062
 9493SOL    HW229379   3.817   5.191   3.994
 9494SOL     OW29380   4.485   4.849   1.935
 9494SOL    HW129381   4.396   4.822   1.899
 9494SOL    HW229382   4.556   4.827   1.870
 9495SOL     OW29383   6.297   1.966   3.459
 9495SOL    HW129384   6.198   1.964   3.466
 9495SOL    HW229385   6.334   1.877   3.487
 9496SOL     OW29386   6.122   4.732   1.370
 9496SOL    HW129387   6.192   4.770   1.310
 9496SOL    HW229388   6.117   4.633   1.359
 9497SOL     OW29389   5.677   6.119   6.718
 9497SOL    HW129390   5.686   6.030   6.763
 9497SOL    HW229391   5.582   6.133   6.690
 9498SOL     OW29392   4.898   6.994   4.744
 9498SOL    HW129393   4.855   0.009   4.661
 9498SOL    HW229394   4.997   6.994   4.732
 9499SOL     OW29395   1.798   5.143   6.149
 9499SOL    HW129396   1.712   5.144   6.201
 9499SOL    HW229397   1.787   5.089   6.066
 9500SOL     OW29398   5.697   0.672   0.689
 9500SOL    HW129399   5.698   0.754   0.632
 9500SOL    HW229400   5.659   0.694   0.779
 9501SOL     OW29401   3.062   1.207   5.125
 9501SOL    HW129402   3.094   1.293   5.166
 9501SOL    HW229403   3.097   1.200   5.032
 9502SOL     OW29404   6.353   2.459   5.276
 9502SOL    HW129405   6.416   2.459   5.198
 9502SOL    HW229406   6.338   2.553   5.307
 9503SOL     OW29407   0.369   1.644   1.451
 9503SOL    HW129408   0.457   1.648   1.498
 9503SOL    HW229409   0.338   1.737   1.430
 9504SOL     OW29410   6.834   2.379   1.133
 9504SOL    HW129411   6.746   2.333   1.144
 9504SOL    HW229412   6.833   2.432   1.048
 9505SOL     OW29413   5.330   5.042   3.512
 9505SOL    HW129414   5.376   4.981   3.448
 9505SOL    HW229415   5.284   4.989   3.583
 9506SOL     OW29416   0.622   2.477   6.039
 9506SOL    HW129417   0.636   2.410   6.111
 9506SOL    HW229418   0.709   2.522   6.018
 9507SOL     OW29419   1.069   2.210   3.314
 9507SOL    HW129420   1.089   2.211   3.412
 9507SOL    HW229421   0.970   2.221   3.300
 9508SOL     OW29422   6.457   3.073   0.910
 9508SOL    HW129423   6.472   3.107   1.003
 9508SOL    HW229424   6.359   3.069   0.891
 9509SOL     OW29425   0.677   0.748   4.392
 9509SOL    HW129426   0.744   0.810   4.350
 9509SOL    HW229427   0.660   0.671   4.331
 9510SOL     OW29428   1.555   3.557   2.501
 9510SOL    HW129429   1.601   3.630   2.451
 9510SOL    HW229430   1.482   3.596   2.558
 9511SOL     OW29431   0.896   0.718   1.058
 9511SOL    HW129432   0.994   0.728   1.076
 9511SOL    HW229433   0.883   0.701   0.960
 9512SOL     OW29434   5.749   1.432   1.367
 9512SOL    HW129435   5.675   1.488   1.402
 9512SOL    HW229436   5.814   1.490   1.317
 9513SOL     OW29437   1.781   3.380   5.907
 9513SOL    HW129438   1.760   3.343   5.998
 9513SOL    HW229439   1.697   3.394   5.856
 9514SOL     OW29440   1.747   5.004   6.506
 9514SOL    HW129441   1.653   4.991   6.473
 9514SOL    HW229442   1.752   4.979   6.603
 9515SOL     OW29443   1.449   6.003   1.360
 9515SOL    HW129444   1.379   5.954   1.308
 9515SOL    HW229445   1.514   6.045   1.296
 9516SOL     OW29446   5.116   4.366   5.441
 9516SOL    HW129447   5.095   4.280   5.394
 9516SOL    HW229448   5.040   4.390   5.502
 9517SOL     OW29449   1.397   4.717   1.075
 9517SOL    HW129450   1.408   4.761   1.164
 9517SOL    HW229451   1.478   4.733   1.019
 9518SOL     OW29452   1.590   2.096   6.868
 9518SOL    HW129453   1.668   2.145   6.907
 9518SOL    HW229454   1.509   2.111   6.924
 9519SOL     OW29455   3.899   4.000   4.136
 9519SOL    HW129456   3.842   4.017   4.216
 9519SOL    HW229457   3.895   4.079   4.075
 9520SOL     OW29458   0.719   1.568   3.273
 9520SOL    HW129459   0.667   1.525   3.347
 9520SOL    HW229460   0.806   1.519   3.262
 9521SOL     OW29461   5.156   5.087   1.680
 9521SOL    HW129462   5.246   5.085   1.636
 9521SOL    HW229463   5.095   5.022   1.634
 9522SOL     OW29464   3.989   4.975   1.335
 9522SOL    HW129465   3.894   4.952   1.317
 9522SOL    HW229466   4.003   5.073   1.328
 9523SOL     OW29467   2.655   4.972   4.809
 9523SOL    HW129468   2.565   5.008   4.787
 9523SOL    HW229469   2.649   4.873   4.823
 9524SOL     OW29470   3.208   3.124   0.853
 9524SOL    HW129471   3.224   3.184   0.931
 9524SOL    HW229472   3.180   3.034   0.886
 9525SOL     OW29473   2.305   2.095   5.925
 9525SOL    HW129474   2.389   2.042   5.934
 9525SOL    HW229475   2.317   2.166   5.855
 9526SOL     OW29476   6.406   4.720   1.071
 9526SOL    HW129477   6.493   4.673   1.058
 9526SOL    HW229478   6.407   4.770   1.157
 9527SOL     OW29479   0.438   1.149   4.589
 9527SOL    HW129480   0.404   1.209   4.662
 9527SOL    HW229481   0.379   1.068   4.583
 9528SOL     OW29482   6.530   1.277   1.042
 9528SOL    HW129483   6.501   1.338   1.117
 9528SOL    HW229484   6.630   1.271   1.041
 9529SOL     OW29485   6.367   3.681   6.373
 9529SOL    HW129486   6.302   3.736   6.425
 9529SOL    HW229487   6.321   3.641   6.293
 9530SOL     OW29488   1.901   3.057   2.825
 9530SOL    HW129489   1.829   3.126   2.832
 9530SOL    HW229490   1.989   3.101   2.813
 9531SOL     OW29491   5.079   5.230   2.715
 9531SOL    HW129492   5.005   5.164   2.725
 9531SOL    HW229493   5.159   5.184   2.677
 9532SOL     OW29494   0.272   6.199   1.362
 9532SOL    HW129495   0.366   6.182   1.389
 9532SOL    HW229496   0.261   6.296   1.338
 9533SOL     OW29497   0.321   5.740   5.207
 9533SOL    HW129498   0.394   5.680   5.240
 9533SOL    HW229499   0.341   5.834   5.234
 9534SOL     OW29500   0.030   4.136   5.033
 9534SOL    HW129501   0.059   4.086   4.951
 9534SOL    HW229502   6.980   4.086   5.079
 9535SOL     OW29503   2.171   0.643   6.667
 9535SOL    HW129504   2.174   0.740   6.643
 9535SOL    HW229505   2.088   0.602   6.629
 9536SOL     OW29506   2.981   3.964   6.105
 9536SOL    HW129507   2.908   3.909   6.065
 9536SOL    HW229508   3.058   3.968   6.041
 9537SOL     OW29509   2.749   6.936   4.186
 9537SOL    HW129510   2.790   6.929   4.277
 9537SOL    HW229511   2.650   6.934   4.193
 9538SOL     OW29512   5.531   1.039   3.526
 9538SOL    HW129513   5.456   1.005   3.584
 9538SOL    HW229514   5.608   1.066   3.584
 9539SOL     OW29515   3.469   3.698   4.775
 9539SOL    HW129516   3.535   3.722   4.704
 9539SOL    HW229517   3.517   3.684   4.862
 9540SOL     OW29518   6.155   4.110   4.409
 9540SOL    HW129519   6.179   4.049   4.333
 9540SOL    HW229520   6.229   4.175   4.424
 9541SOL     OW29521   3.258   0.667   6.070
 9541SOL    HW129522   3.316   0.676   6.151
 9541SOL    HW229523   3.298   0.599   6.008
 9542SOL     OW29524   4.871   4.052   4.808
 9542SOL    HW129525   4.882   4.031   4.711
 9542SOL    HW229526   4.869   4.151   4.821
 9543SOL     OW29527   3.494   0.349   5.992
 9543SOL    HW129528   3.420   0.288   6.019
 9543SOL    HW229529   3.582   0.302   6.004
 9544SOL     OW29530   6.855   2.207   2.946
 9544SOL    HW129531   6.932   2.150   2.917
 9544SOL    HW229532   6.784   2.150   2.987
 9545SOL     OW29533   5.645   5.557   4.481
 9545SOL    HW129534   5.597   5.580   4.566
 9545SOL    HW229535   5.729   5.610   4.475
 9546SOL     OW29536   3.690   2.038   5.499
 9546SOL    HW129537   3.597   2.001   5.494
 9546SOL    HW229538   3.716   2.075   5.410
 9547SOL     OW29539   2.475   5.754   4.421
 9547SOL    HW129540   2.434   5.788   4.505
 9547SOL    HW229541   2.462   5.821   4.348
 9548SOL     OW29542   6.321   5.610   6.295
 9548SOL    HW129543   6.240   5.634   6.242
 9548SOL    HW229544   6.301   5.622   6.393
 9549SOL     OW29545   2.485   3.077   1.157
 9549SOL    HW129546   2.450   3.036   1.241
 9549SOL    HW229547   2.410   3.085   1.091
 9550SOL     OW29548   0.219   1.522   0.238
 9550SOL    HW129549   0.222   1.430   0.199
 9550SOL    HW229550   0.282   1.581   0.188
 9551SOL     OW29551   5.431   1.843   4.427
 9551SOL    HW129552   5.415   1.825   4.331
 9551SOL    HW229553   5.365   1.794   4.483
 9552SOL     OW29554   1.292   6.790   4.224
 9552SOL    HW129555   1.245   6.745   4.300
 9552SOL    HW229556   1.333   6.721   4.165
 9553SOL     OW29557   6.159   3.014   6.013
 9553SOL    HW129558   6.254   2.984   6.012
 9553SOL    HW229559   6.124   3.018   5.919
 9554SOL     OW29560   2.087   6.365   1.445
 9554SOL    HW129561   2.054   6.425   1.372
 9554SOL    HW229562   2.012   6.347   1.509
 9555SOL     OW29563   1.018   0.629   3.214
 9555SOL    HW129564   0.988   0.621   3.309
 9555SOL    HW229565   0.949   0.678   3.161
 9556SOL     OW29566   1.720   3.408   1.687
 9556SOL    HW129567   1.760   3.469   1.619
 9556SOL    HW229568   1.621   3.422   1.690
 9557SOL     OW29569   0.417   6.270   2.305
 9557SOL    HW129570   0.506   6.310   2.327
 9557SOL    HW229571   0.346   6.313   2.361
 9558SOL     OW29572   6.057   6.154   5.036
 9558SOL    HW129573   5.984   6.109   4.985
 9558SOL    HW229574   6.063   6.250   5.007
 9559SOL     OW29575   0.270   4.322   1.031
 9559SOL    HW129576   0.325   4.379   0.969
 9559SOL    HW229577   0.313   4.319   1.121
 9560SOL     OW29578   1.823   1.147   3.145
 9560SOL    HW129579   1.894   1.079   3.129
 9560SOL    HW229580   1.852   1.207   3.220
 9561SOL     OW29581   1.548   0.053   0.512
 9561SOL    HW129582   1.641   0.086   0.529
 9561SOL    HW229583   1.488   0.084   0.585
 9562SOL     OW29584   3.302   7.018   5.165
 9562SOL    HW129585   3.323   6.992   5.071
 9562SOL    HW229586   3.242   0.076   5.165
 9563SOL     OW29587   6.120   5.717   0.748
 9563SOL    HW129588   6.118   5.782   0.672
 9563SOL    HW229589   6.204   5.729   0.800
 9564SOL     OW29590   3.002   0.243   0.951
 9564SOL    HW129591   2.911   0.270   0.982
 9564SOL    HW229592   3.053   0.324   0.923
 9565SOL     OW29593   3.705   0.435   4.943
 9565SOL    HW129594   3.752   0.410   4.858
 9565SOL    HW229595   3.663   0.353   4.982
 9566SOL     OW29596   1.925   5.179   0.144
 9566SOL    HW129597   1.985   5.255   0.120
 9566SOL    HW229598   1.979   5.100   0.172
 9567SOL     OW29599   5.301   5.137   0.573
 9567SOL    HW129600   5.361   5.064   0.605
 9567SOL    HW229601   5.328   5.165   0.481
 9568SOL     OW29602   4.399   2.469   6.918
 9568SOL    HW129603   4.418   2.374   6.940
 9568SOL    HW229604   4.482   2.512   6.883
 9569SOL     OW29605   0.971   1.547   2.530
 9569SOL    HW129606   0.933   1.580   2.444
 9569SOL    HW229607   0.897   1.510   2.587
 9570SOL     OW29608   0.708   2.979   2.079
 9570SOL    HW129609   0.697   2.883   2.103
 9570SOL    HW229610   0.628   3.011   2.029
 9571SOL     OW29611   4.097   4.369   5.898
 9571SOL    HW129612   4.025   4.301   5.887
 9571SOL    HW229613   4.162   4.362   5.822
 9572SOL     OW29614   1.937   4.769   2.027
 9572SOL    HW129615   1.864   4.821   1.982
 9572SOL    HW229616   1.898   4.707   2.094
 9573SOL     OW29617   0.449   1.554   6.920
 9573SOL    HW129618   0.393   1.537   6.838
 9573SOL    HW229619   0.530   1.495   6.918
 9574SOL     OW29620   3.836   3.152   3.517
 9574SOL    HW129621   3.738   3.135   3.526
 9574SOL    HW229622   3.876   3.165   3.607
 9575SOL     OW29623   0.064   1.265   1.264
 9575SOL    HW129624   7.017   1.244   1.196
 9575SOL    HW229625   0.143   1.308   1.219
 9576SOL     OW29626   2.078   0.079   1.846
 9576SOL    HW129627   2.046   7.020   1.894
 9576SOL    HW229628   2.129   0.052   1.765
 9577SOL     OW29629   1.522   0.644   6.433
 9577SOL    HW129630   1.620   0.630   6.443
 9577SOL    HW229631   1.473   0.559   6.456
 9578SOL     OW29632   0.625   3.702   3.870
 9578SOL    HW129633   0.569   3.635   3.919
 9578SOL    HW229634   0.659   3.770   3.935
 9579SOL     OW29635   1.636   4.968   2.869
 9579SOL    HW129636   1.663   4.902   2.940
 9579SOL    HW229637   1.543   4.948   2.839
 9580SOL     OW29638   3.992   3.300   0.551
 9580SOL    HW129639   3.967   3.384   0.502
 9580SOL    HW229640   4.045   3.241   0.490
 9581SOL     OW29641   0.835   5.569   6.447
 9581SOL    HW129642   0.918   5.532   6.489
 9581SOL    HW229643   0.773   5.494   6.424
 9582SOL     OW29644   4.415   5.368   5.881
 9582SOL    HW129645   4.342   5.407   5.825
 9582SOL    HW229646   4.376   5.299   5.943
 9583SOL     OW29647   4.154   4.571   1.340
 9583SOL    HW129648   4.239   4.517   1.343
 9583SOL    HW229649   4.096   4.545   1.417
 9584SOL     OW29650   6.730   6.040   0.461
 9584SOL    HW129651   6.754   5.946   0.486
 9584SOL    HW229652   6.679   6.039   0.374
 9585SOL     OW29653   6.094   0.833   4.199
 9585SOL    HW129654   6.118   0.867   4.290
 9585SOL    HW229655   6.106   0.734   4.197
 9586SOL     OW29656   6.232   3.882   2.522
 9586SOL    HW129657   6.312   3.855   2.467
 9586SOL    HW229658   6.149   3.845   2.480
 9587SOL     OW29659   0.440   1.104   2.103
 9587SOL    HW129660   0.355   1.059   2.129
 9587SOL    HW229661   0.464   1.077   2.010
 9588SOL     OW29662   0.522   1.797   1.854
 9588SOL    HW129663   0.583   1.803   1.933
 9588SOL    HW229664   0.462   1.717   1.865
 9589SOL     OW29665   2.426   5.111   5.873
 9589SOL    HW129666   2.518   5.142   5.898
 9589SOL    HW229667   2.385   5.176   5.809
 9590SOL     OW29668   0.074   3.270   1.776
 9590SOL    HW129669   7.008   3.304   1.809
 9590SOL    HW229670   0.062   3.227   1.687
 9591SOL     OW29671   3.244   6.143   6.173
 9591SOL    HW129672   3.270   6.232   6.135
 9591SOL    HW229673   3.298   6.072   6.129
 9592SOL     OW29674   3.448   4.122   1.078
 9592SOL    HW129675   3.427   4.203   1.024
 9592SOL    HW229676   3.368   4.097   1.133
 9593SOL     OW29677   0.052   0.882   4.896
 9593SOL    HW129678   0.082   0.930   4.979
 9593SOL    HW229679   0.124   0.885   4.828
 9594SOL     OW29680   1.516   6.370   3.009
 9594SOL    HW129681   1.548   6.278   3.034
 9594SOL    HW229682   1.528   6.383   2.910
 9595SOL     OW29683   1.532   4.418   5.429
 9595SOL    HW129684   1.514   4.374   5.341
 9595SOL    HW229685   1.627   4.399   5.456
 9596SOL     OW29686   0.352   5.759   0.256
 9596SOL    HW129687   0.376   5.714   0.170
 9596SOL    HW229688   0.329   5.854   0.239
 9597SOL     OW29689   0.676   4.421   1.175
 9597SOL    HW129690   0.582   4.449   1.192
 9597SOL    HW229691   0.691   4.329   1.212
 9598SOL     OW29692   1.577   3.115   4.733
 9598SOL    HW129693   1.582   3.160   4.644
 9598SOL    HW229694   1.618   3.173   4.803
 9599SOL     OW29695   4.198   0.243   5.325
 9599SOL    HW129696   4.112   0.265   5.279
 9599SOL    HW229697   4.179   0.194   5.410
 9600SOL     OW29698   2.103   0.035   0.037
 9600SOL    HW129699   2.174   0.029   0.107
 9600SOL    HW229700   2.133   7.010   6.977
 9601SOL     OW29701   6.330   3.766   1.015
 9601SOL    HW129702   6.293   3.789   0.925
 9601SOL    HW229703   6.278   3.690   1.054
 9602SOL     OW29704   0.028   5.386   6.628
 9602SOL    HW129705   6.997   5.323   6.685
 9602SOL    HW229706   0.112   5.341   6.599
 9603SOL     OW29707   3.833   1.504   5.019
 9603SOL    HW129708   3.849   1.447   4.939
 9603SOL    HW229709   3.920   1.530   5.059
 9604SOL     OW29710   3.887   0.807   6.923
 9604SOL    HW129711   3.803   0.806   6.867
 9604SOL    HW229712   3.934   0.894   6.909
 9605SOL     OW29713   0.021   4.907   3.980
 9605SOL    HW129714   0.111   4.916   3.938
 9605SOL    HW229715   0.001   4.989   4.034
 9606SOL     OW29716   2.128   6.322   5.957
 9606SOL    HW129717   2.202   6.364   5.906
 9606SOL    HW229718   2.138   6.222   5.953
 9607SOL     OW29719   1.591   1.432   1.520
 9607SOL    HW129720   1.555   1.487   1.595
 9607SOL    HW229721   1.670   1.478   1.480
 9608SOL     OW29722   6.991   6.294   2.086
 9608SOL    HW129723   0.053   6.254   2.121
 9608SOL    HW229724   6.962   6.245   2.003
 9609SOL     OW29725   1.970   3.758   6.296
 9609SOL    HW129726   2.022   3.760   6.211
 9609SOL    HW229727   1.956   3.664   6.325
 9610SOL     OW29728   2.161   4.997   4.053
 9610SOL    HW129729   2.251   5.026   4.087
 9610SOL    HW229730   2.098   4.985   4.130
 9611SOL     OW29731   0.453   6.862   6.929
 9611SOL    HW129732   0.398   6.829   6.851
 9611SOL    HW229733   0.490   6.783   6.979
 9612SOL     OW29734   0.419   3.275   2.047
 9612SOL    HW129735   0.342   3.267   2.111
 9612SOL    HW229736   0.493   3.327   2.090
 9613SOL     OW29737   4.494   6.570   3.791
 9613SOL    HW129738   4.560   6.632   3.833
 9613SOL    HW229739   4.401   6.604   3.809
 9614SOL     OW29740   3.932   2.241   1.110
 9614SOL    HW129741   3.915   2.330   1.067
 9614SOL    HW229742   3.860   2.221   1.176
 9615SOL     OW29743   0.313   7.022   1.390
 9615SOL    HW129744   0.398   0.032   1.430
 9615SOL    HW229745   0.245   0.072   1.392
 9616SOL     OW29746   4.456   3.449   1.333
 9616SOL    HW129747   4.526   3.520   1.325
 9616SOL    HW229748   4.498   3.363   1.362
 9617SOL     OW29749   1.685   3.653   4.251
 9617SOL    HW129750   1.638   3.705   4.180
 9617SOL    HW229751   1.782   3.679   4.252
 9618SOL     OW29752   3.731   6.758   5.541
 9618SOL    HW129753   3.784   6.695   5.598
 9618SOL    HW229754   3.648   6.785   5.590
 9619SOL     OW29755   0.704   0.149   0.451
 9619SOL    HW129756   0.713   0.143   0.550
 9619SOL    HW229757   0.793   0.170   0.411
 9620SOL     OW29758   5.262   3.106   0.017
 9620SOL    HW129759   5.184   3.057   7.002
 9620SOL    HW229760   5.287   3.182   6.979
 9621SOL     OW29761   1.481   0.647   2.911
 9621SOL    HW129762   1.444   0.609   2.996
 9621SOL    HW229763   1.471   0.746   2.912
 9622SOL     OW29764   5.591   0.711   0.145
 9622SOL    HW129765   5.681   0.742   0.174
 9622SOL    HW229766   5.534   0.693   0.225
 9623SOL     OW29767   4.177   4.928   5.050
 9623SOL    HW129768   4.257   4.985   5.068
 9623SOL    HW229769   4.172   4.907   4.953
 9624SOL     OW29770   6.128   4.455   3.840
 9624SOL    HW129771   6.037   4.476   3.804
 9624SOL    HW229772   6.198   4.484   3.775
 9625SOL     OW29773   5.111   5.257   6.907
 9625SOL    HW129774   5.197   5.268   6.857
 9625SOL    HW229775   5.035   5.287   6.849
 9626SOL     OW29776   2.430   6.463   0.279
 9626SOL    HW129777   2.356   6.529   0.284
 9626SOL    HW229778   2.504   6.491   0.340
 9627SOL     OW29779   6.910   3.892   3.713
 9627SOL    HW129780   6.849   3.820   3.680
 9627SOL    HW229781   7.004   3.869   3.687
 9628SOL     OW29782   6.530   4.630   0.008
 9628SOL    HW129783   6.589   4.711   0.003
 9628SOL    HW229784   6.435   4.657   7.013
 9629SOL     OW29785   6.805   6.379   2.979
 9629SOL    HW129786   6.787   6.446   2.907
 9629SOL    HW229787   6.882   6.411   3.035
 9630SOL     OW29788   6.066   6.425   5.018
 9630SOL    HW129789   6.050   6.409   4.921
 9630SOL    HW229790   5.990   6.478   5.056
 9631SOL     OW29791   5.542   1.348   0.110
 9631SOL    HW129792   5.587   1.330   0.023
 9631SOL    HW229793   5.443   1.347   0.098
 9632SOL     OW29794   2.199   5.122   2.106
 9632SOL    HW129795   2.158   5.035   2.135
 9632SOL    HW229796   2.231   5.172   2.186
 9633SOL     OW29797   4.848   4.998   6.968
 9633SOL    HW129798   4.764   4.987   7.022
 9633SOL    HW229799   4.921   5.032   0.004
 9634SOL     OW29800   0.458   6.525   4.462
 9634SOL    HW129801   0.542   6.559   4.418
 9634SOL    HW229802   0.423   6.595   4.524
 9635SOL     OW29803   2.604   4.514   5.339
 9635SOL    HW129804   2.624   4.589   5.401
 9635SOL    HW229805   2.686   4.457   5.328
 9636SOL     OW29806   4.306   1.621   6.303
 9636SOL    HW129807   4.298   1.716   6.333
 9636SOL    HW229808   4.295   1.617   6.203
 9637SOL     OW29809   3.121   2.643   6.966
 9637SOL    HW129810   3.166   2.674   0.027
 9637SOL    HW229811   3.170   2.680   6.886
 9638SOL     OW29812   0.150   3.952   6.382
 9638SOL    HW129813   0.099   4.016   6.440
 9638SOL    HW229814   0.162   3.992   6.291
 9639SOL     OW29815   4.472   1.589   2.067
 9639SOL    HW129816   4.448   1.683   2.041
 9639SOL    HW229817   4.570   1.574   2.051
 9640SOL     OW29818   3.214   1.308   3.068
 9640SOL    HW129819   3.256   1.314   3.158
 9640SOL    HW229820   3.142   1.238   3.069
 9641SOL     OW29821   5.565   5.636   1.058
 9641SOL    HW129822   5.581   5.576   1.137
 9641SOL    HW229823   5.468   5.659   1.053
 9642SOL     OW29824   2.133   5.739   4.994
 9642SOL    HW129825   2.063   5.733   4.923
 9642SOL    HW229826   2.193   5.660   4.989
 9643SOL     OW29827   5.806   4.969   4.072
 9643SOL    HW129828   5.836   5.040   4.009
 9643SOL    HW229829   5.748   5.008   4.143
 9644SOL     OW29830   0.202   4.699   4.650
 9644SOL    HW129831   0.248   4.610   4.652
 9644SOL    HW229832   0.179   4.728   4.743
 9645SOL     OW29833   3.186   4.902   3.834
 9645SOL    HW129834   3.228   4.854   3.757
 9645SOL    HW229835   3.251   4.970   3.870
 9646SOL     OW29836   2.625   4.623   2.146
 9646SOL    HW129837   2.712   4.612   2.098
 9646SOL    HW229838   2.607   4.720   2.160
 9647SOL     OW29839   1.035   5.517   1.944
 9647SOL    HW129840   1.065   5.426   1.915
 9647SOL    HW229841   0.937   5.514   1.967
 9648SOL     OW29842   3.482   1.897   0.024
 9648SOL    HW129843   3.438   1.938   0.103
 9648SOL    HW229844   3.490   1.965   6.973
 9649SOL     OW29845   2.130   4.490   6.870
 9649SOL    HW129846   2.169   4.569   6.918
 9649SOL    HW229847   2.190   4.411   6.882
 9650SOL     OW29848   4.501   4.618   2.924
 9650SOL    HW129849   4.412   4.640   2.885
 9650SOL    HW229850   4.522   4.522   2.908
 9651SOL     OW29851   5.557   1.487   0.739
 9651SOL    HW129852   5.503   1.456   0.661
 9651SOL    HW229853   5.588   1.408   0.792
 9652SOL     OW29854   2.347   4.174   1.002
 9652SOL    HW129855   2.382   4.172   0.909
 9652SOL    HW229856   2.252   4.142   1.002
 9653SOL     OW29857   4.308   5.185   5.238
 9653SOL    HW129858   4.341   5.177   5.144
 9653SOL    HW229859   4.377   5.147   5.301
 9654SOL     OW29860   3.496   3.448   2.477
 9654SOL    HW129861   3.466   3.506   2.552
 9654SOL    HW229862   3.567   3.495   2.424
 9655SOL     OW29863   0.143   1.550   0.502
 9655SOL    HW129864   0.178   1.502   0.583
 9655SOL    HW229865   0.178   1.506   0.420
 9656SOL     OW29866   4.740   1.868   0.997
 9656SOL    HW129867   4.681   1.825   1.065
 9656SOL    HW229868   4.774   1.955   1.034
 9657SOL     OW29869   6.189   2.761   3.512
 9657SOL    HW129870   6.155   2.667   3.515
 9657SOL    HW229871   6.125   2.818   3.461
 9658SOL     OW29872   5.606   2.255   2.411
 9658SOL    HW129873   5.562   2.211   2.334
 9658SOL    HW229874   5.705   2.240   2.406
 9659SOL     OW29875   6.921   3.091   0.111
 9659SOL    HW129876   6.877   3.177   0.137
 9659SOL    HW229877   7.006   3.111   0.063
 9660SOL     OW29878   0.527   6.817   1.904
 9660SOL    HW129879   0.594   6.855   1.967
 9660SOL    HW229880   0.563   6.820   1.811
 9661SOL     OW29881   3.284   6.435   1.381
 9661SOL    HW129882   3.279   6.509   1.314
 9661SOL    HW229883   3.380   6.407   1.392
 9662SOL     OW29884   4.291   2.913   5.388
 9662SOL    HW129885   4.200   2.871   5.382
 9662SOL    HW229886   4.359   2.851   5.347
 9663SOL     OW29887   6.383   0.025   3.115
 9663SOL    HW129888   6.310   0.073   3.164
 9663SOL    HW229889   6.350   7.018   3.026
 9664SOL     OW29890   5.290   6.317   4.515
 9664SOL    HW129891   5.223   6.259   4.560
 9664SOL    HW229892   5.318   6.390   4.576
 9665SOL     OW29893   5.829   6.335   6.867
 9665SOL    HW129894   5.927   6.348   6.848
 9665SOL    HW229895   5.789   6.277   6.796
 9666SOL     OW29896   6.935   3.668   2.610
 9666SOL    HW129897   6.889   3.612   2.542
 9666SOL    HW229898   6.874   3.682   2.688
 9667SOL     OW29899   4.316   3.373   6.140
 9667SOL    HW129900   4.314   3.383   6.040
 9667SOL    HW229901   4.249   3.305   6.168
 9668SOL     OW29902   6.568   0.468   6.128
 9668SOL    HW129903   6.490   0.409   6.150
 9668SOL    HW229904   6.647   0.410   6.105
 9669SOL     OW29905   2.121   0.173   2.864
 9669SOL    HW129906   2.201   0.114   2.853
 9669SOL    HW229907   2.041   0.117   2.883
 9670SOL     OW29908   6.230   4.606   6.690
 9670SOL    HW129909   6.288   4.628   6.612
 9670SOL    HW229910   6.277   4.632   6.775
 9671SOL     OW29911   6.261   4.671   6.959
 9671SOL    HW129912   6.216   4.616   0.007
 9671SOL    HW229913   6.227   4.765   6.963
 9672SOL     OW29914   1.778   5.432   3.635
 9672SOL    HW129915   1.855   5.469   3.583
 9672SOL    HW229916   1.809   5.403   3.725
 9673SOL     OW29917   4.790   3.431   0.995
 9673SOL    HW129918   4.828   3.339   1.005
 9673SOL    HW229919   4.828   3.474   0.913
 9674SOL     OW29920   2.537   6.694   2.619
 9674SOL    HW129921   2.604   6.682   2.692
 9674SOL    HW229922   2.445   6.678   2.655
 9675SOL     OW29923   5.640   2.699   0.278
 9675SOL    HW129924   5.739   2.687   0.275
 9675SOL    HW229925   5.597   2.620   0.322
 9676SOL     OW29926   1.783   3.943   5.809
 9676SOL    HW129927   1.743   3.867   5.759
 9676SOL    HW229928   1.874   3.963   5.772
 9677SOL     OW29929   0.233   5.650   4.933
 9677SOL    HW129930   0.276   5.683   5.017
 9677SOL    HW229931   0.141   5.690   4.925
 9678SOL     OW29932   2.985   3.911   3.245
 9678SOL    HW129933   2.961   3.833   3.302
 9678SOL    HW229934   3.081   3.934   3.258
 9679SOL     OW29935   2.949   1.533   3.564
 9679SOL    HW129936   2.951   1.600   3.638
 9679SOL    HW229937   3.010   1.563   3.490
 9680SOL     OW29938   4.535   1.322   2.920
 9680SOL    HW129939   4.608   1.369   2.971
 9680SOL    HW229940   4.446   1.362   2.946
 9681SOL     OW29941   3.178   2.042   0.322
 9681SOL    HW129942   3.156   2.013   0.415
 9681SOL    HW229943   3.100   2.089   0.282
 9682SOL     OW29944   5.190   4.656   3.742
 9682SOL    HW129945   5.133   4.633   3.820
 9682SOL    HW229946   5.285   4.630   3.761
 9683SOL     OW29947   2.582   5.443   0.543
 9683SOL    HW129948   2.616   5.397   0.624
 9683SOL    HW229949   2.652   5.507   0.509
 9684SOL     OW29950   0.245   3.465   6.249
 9684SOL    HW129951   0.229   3.515   6.163
 9684SOL    HW229952   0.157   3.442   6.290
 9685SOL     OW29953   3.486   4.805   1.021
 9685SOL    HW129954   3.585   4.809   1.034
 9685SOL    HW229955   3.442   4.879   1.071
 9686SOL     OW29956   6.613   1.780   6.927
 9686SOL    HW129957   6.633   1.706   6.990
 9686SOL    HW229958   6.698   1.811   6.883
 9687SOL     OW29959   1.752   0.806   4.319
 9687SOL    HW129960   1.697   0.733   4.361
 9687SOL    HW229961   1.828   0.829   4.380
 9688SOL     OW29962   0.739   3.208   2.645
 9688SOL    HW129963   0.748   3.273   2.721
 9688SOL    HW229964   0.796   3.237   2.569
 9689SOL     OW29965   0.890   4.656   6.321
 9689SOL    HW129966   0.941   4.572   6.340
 9689SOL    HW229967   0.905   4.684   6.227
 9690SOL     OW29968   5.597   5.362   6.803
 9690SOL    HW129969   5.642   5.411   6.877
 9690SOL    HW229970   5.630   5.267   6.802
 9691SOL     OW29971   3.098   5.618   0.758
 9691SOL    HW129972   3.111   5.526   0.794
 9691SOL    HW229973   3.005   5.649   0.777
 9692SOL     OW29974   3.323   5.098   3.070
 9692SOL    HW129975   3.338   5.124   3.165
 9692SOL    HW229976   3.386   5.148   3.011
 9693SOL     OW29977   5.906   4.644   2.021
 9693SOL    HW129978   5.939   4.585   1.947
 9693SOL    HW229979   5.815   4.614   2.049
 9694SOL     OW29980   2.299   0.885   0.820
 9694SOL    HW129981   2.287   0.876   0.721
 9694SOL    HW229982   2.209   0.878   0.865
 9695SOL     OW29983   6.958   2.932   2.771
 9695SOL    HW129984   7.008   2.968   2.850
 9695SOL    HW229985   7.020   2.879   2.714
 9696SOL     OW29986   5.281   3.559   1.183
 9696SOL    HW129987   5.300   3.657   1.191
 9696SOL    HW229988   5.366   3.508   1.196
 9697SOL     OW29989   0.373   5.344   6.990
 9697SOL    HW129990   0.327   5.323   0.053
 9697SOL    HW229991   0.307   5.380   6.924
 9698SOL     OW29992   4.535   1.947   6.084
 9698SOL    HW129993   4.633   1.936   6.099
 9698SOL    HW229994   4.517   1.951   5.986
 9699SOL     OW29995   6.699   4.846   6.733
 9699SOL    HW129996   6.698   4.855   6.833
 9699SOL    HW229997   6.715   4.935   6.692
 9700SOL     OW29998   4.686   5.700   4.998
 9700SOL    HW129999   4.586   5.704   4.997
 9700SOL    HW230000   4.723   5.793   5.006
 9701SOL     OW30001   4.603   4.961   5.610
 9701SOL    HW130002   4.550   4.907   5.676
 9701SOL    HW230003   4.650   5.035   5.658
 9702SOL     OW30004   4.536   0.705   6.506
 9702SOL    HW130005   4.602   0.639   6.544
 9702SOL    HW230006   4.581   0.793   6.492
 9703SOL     OW30007   4.832   3.931   3.521
 9703SOL    HW130008   4.823   3.943   3.422
 9703SOL    HW230009   4.902   3.992   3.556
 9704SOL     OW30010   3.586   0.673   2.543
 9704SOL    HW130011   3.685   0.666   2.556
 9704SOL    HW230012   3.542   0.693   2.630
 9705SOL     OW30013   5.674   4.723   6.035
 9705SOL    HW130014   5.578   4.749   6.048
 9705SOL    HW230015   5.696   4.645   6.093
 9706SOL     OW30016   1.640   3.259   0.327
 9706SOL    HW130017   1.586   3.263   0.243
 9706SOL    HW230018   1.621   3.173   0.375
 9707SOL     OW30019   6.720   4.932   2.558
 9707SOL    HW130020   6.783   4.866   2.516
 9707SOL    HW230021   6.643   4.948   2.496
 9708SOL     OW30022   1.501   1.821   3.321
 9708SOL    HW130023   1.476   1.913   3.350
 9708SOL    HW230024   1.598   1.804   3.339
 9709SOL     OW30025   5.390   6.060   3.181
 9709SOL    HW130026   5.335   6.141   3.160
 9709SOL    HW230027   5.483   6.073   3.149
 9710SOL     OW30028   0.061   1.151   1.499
 9710SOL    HW130029   0.077   1.190   1.408
 9710SOL    HW230030   0.110   1.064   1.507
 9711SOL     OW30031   2.685   5.111   5.859
 9711SOL    HW130032   2.726   5.034   5.908
 9711SOL    HW230033   2.749   5.144   5.790
 9712SOL     OW30034   5.534   3.573   6.621
 9712SOL    HW130035   5.541   3.639   6.546
 9712SOL    HW230036   5.615   3.580   6.679
 9713SOL     OW30037   0.880   4.575   3.419
 9713SOL    HW130038   0.801   4.521   3.448
 9713SOL    HW230039   0.962   4.544   3.468
 9714SOL     OW30040   3.809   6.676   6.449
 9714SOL    HW130041   3.751   6.640   6.521
 9714SOL    HW230042   3.756   6.741   6.393
 9715SOL     OW30043   5.710   3.841   6.191
 9715SOL    HW130044   5.628   3.784   6.204
 9715SOL    HW230045   5.684   3.926   6.145
 9716SOL     OW30046   3.969   4.026   6.611
 9716SOL    HW130047   3.945   3.956   6.678
 9716SOL    HW230048   4.051   4.074   6.641
 9717SOL     OW30049   5.245   6.367   6.628
 9717SOL    HW130050   5.258   6.350   6.725
 9717SOL    HW230051   5.253   6.465   6.609
 9718SOL     OW30052   4.722   2.898   0.479
 9718SOL    HW130053   4.773   2.905   0.564
 9718SOL    HW230054   4.656   2.823   0.485
 9719SOL     OW30055   6.466   1.353   5.725
 9719SOL    HW130056   6.394   1.290   5.755
 9719SOL    HW230057   6.433   1.447   5.730
 9720SOL     OW30058   0.350   5.133   2.647
 9720SOL    HW130059   0.408   5.188   2.587
 9720SOL    HW230060   0.256   5.139   2.616
 9721SOL     OW30061   6.800   1.551   1.128
 9721SOL    HW130062   6.802   1.460   1.086
 9721SOL    HW230063   6.710   1.567   1.168
 9722SOL     OW30064   5.988   1.192   4.250
 9722SOL    HW130065   6.023   1.132   4.321
 9722SOL    HW230066   6.036   1.174   4.164
 9723SOL     OW30067   2.150   6.602   2.296
 9723SOL    HW130068   2.080   6.543   2.257
 9723SOL    HW230069   2.113   6.651   2.375
 9724SOL     OW30070   2.006   4.514   0.473
 9724SOL    HW130071   1.955   4.465   0.544
 9724SOL    HW230072   1.942   4.547   0.403
 9725SOL     OW30073   4.108   5.036   6.376
 9725SOL    HW130074   4.096   5.114   6.438
 9725SOL    HW230075   4.097   4.951   6.428
 9726SOL     OW30076   5.000   1.297   4.596
 9726SOL    HW130077   5.031   1.232   4.526
 9726SOL    HW230078   4.980   1.385   4.554
 9727SOL     OW30079   1.362   3.639   6.224
 9727SOL    HW130080   1.425   3.713   6.201
 9727SOL    HW230081   1.268   3.672   6.221
 9728SOL     OW30082   0.417   0.874   5.908
 9728SOL    HW130083   0.340   0.840   5.961
 9728SOL    HW230084   0.480   0.799   5.887
 9729SOL     OW30085   0.897   3.807   4.206
 9729SOL    HW130086   0.857   3.846   4.288
 9729SOL    HW230087   0.849   3.842   4.125
 9730SOL     OW30088   1.089   3.673   3.943
 9730SOL    HW130089   1.071   3.743   4.012
 9730SOL    HW230090   1.187   3.654   3.940
 9731SOL     OW30091   4.913   4.857   1.175
 9731SOL    HW130092   4.891   4.944   1.129
 9731SOL    HW230093   4.839   4.834   1.238
 9732SOL     OW30094   6.310   5.369   3.128
 9732SOL    HW130095   6.329   5.467   3.123
 9732SOL    HW230096   6.296   5.343   3.224
 9733SOL     OW30097   6.062   5.232   0.473
 9733SOL    HW130098   6.054   5.239   0.572
 9733SOL    HW230099   5.992   5.290   0.430
 9734SOL     OW30100   6.616   1.479   1.809
 9734SOL    HW130101   6.550   1.553   1.801
 9734SOL    HW230102   6.649   1.473   1.903
 9735SOL     OW30103   1.997   4.330   3.833
 9735SOL    HW130104   1.925   4.324   3.764
 9735SOL    HW230105   2.051   4.412   3.818
 9736SOL     OW30106   6.357   0.824   6.557
 9736SOL    HW130107   6.294   0.851   6.485
 9736SOL    HW230108   6.308   0.817   6.644
 9737SOL     OW30109   5.325   2.683   3.587
 9737SOL    HW130110   5.298   2.762   3.532
 9737SOL    HW230111   5.270   2.679   3.670
 9738SOL     OW30112   1.529   0.219   1.642
 9738SOL    HW130113   1.570   0.160   1.711
 9738SOL    HW230114   1.591   0.296   1.623
 9739SOL     OW30115   6.059   4.768   2.383
 9739SOL    HW130116   5.977   4.729   2.424
 9739SOL    HW230117   6.086   4.849   2.435
 9740SOL     OW30118   6.499   1.544   3.218
 9740SOL    HW130119   6.520   1.594   3.134
 9740SOL    HW230120   6.443   1.602   3.278
 9741SOL     OW30121   3.410   0.713   2.777
 9741SOL    HW130122   3.381   0.807   2.795
 9741SOL    HW230123   3.360   0.651   2.837
 9742SOL     OW30124   4.502   0.247   0.762
 9742SOL    HW130125   4.504   0.290   0.852
 9742SOL    HW230126   4.416   0.197   0.751
 9743SOL     OW30127   6.904   2.134   5.494
 9743SOL    HW130128   6.867   2.101   5.407
 9743SOL    HW230129   6.956   2.061   5.538
 9744SOL     OW30130   0.733   0.007   2.926
 9744SOL    HW130131   0.809   6.974   2.961
 9744SOL    HW230132   0.737   0.009   2.826
 9745SOL     OW30133   5.486   3.745   5.847
 9745SOL    HW130134   5.460   3.657   5.886
 9745SOL    HW230135   5.526   3.802   5.919
 9746SOL     OW30136   6.688   0.171   5.385
 9746SOL    HW130137   6.680   0.252   5.328
 9746SOL    HW230138   6.700   0.198   5.481
 9747SOL     OW30139   2.107   0.727   1.812
 9747SOL    HW130140   2.071   0.803   1.866
 9747SOL    HW230141   2.199   0.704   1.844
 9748SOL     OW30142   0.443   1.292   3.269
 9748SOL    HW130143   0.471   1.313   3.362
 9748SOL    HW230144   0.343   1.282   3.266
 9749SOL     OW30145   2.610   1.217   4.884
 9749SOL    HW130146   2.615   1.201   4.785
 9749SOL    HW230147   2.639   1.134   4.932
 9750SOL     OW30148   5.505   4.486   3.575
 9750SOL    HW130149   5.422   4.435   3.597
 9750SOL    HW230150   5.583   4.446   3.624
 9751SOL     OW30151   1.301   1.001   1.321
 9751SOL    HW130152   1.248   0.956   1.394
 9751SOL    HW230153   1.380   1.047   1.362
 9752SOL     OW30154   4.588   2.175   5.468
 9752SOL    HW130155   4.545   2.119   5.539
 9752SOL    HW230156   4.521   2.197   5.397
 9753SOL     OW30157   6.265   6.032   5.775
 9753SOL    HW130158   6.302   6.060   5.864
 9753SOL    HW230159   6.206   5.953   5.787
 9754SOL     OW30160   0.901   1.216   6.218
 9754SOL    HW130161   0.986   1.265   6.236
 9754SOL    HW230162   0.834   1.239   6.289
 9755SOL     OW30163   3.578   3.129   4.482
 9755SOL    HW130164   3.505   3.190   4.452
 9755SOL    HW230165   3.538   3.043   4.514
 9756SOL     OW30166   6.542   3.629   0.750
 9756SOL    HW130167   6.605   3.592   0.818
 9756SOL    HW230168   6.450   3.631   0.788
 9757SOL     OW30169   5.643   3.754   3.909
 9757SOL    HW130170   5.596   3.722   3.827
 9757SOL    HW230171   5.580   3.808   3.965
 9758SOL     OW30172   2.208   6.489   6.661
 9758SOL    HW130173   2.198   6.468   6.564
 9758SOL    HW230174   2.117   6.492   6.704
 9759SOL     OW30175   1.586   0.115   0.005
 9759SOL    HW130176   1.572   0.191   0.068
 9759SOL    HW230177   1.682   0.112   7.000
 9760SOL     OW30178   4.361   2.416   4.848
 9760SOL    HW130179   4.447   2.463   4.869
 9760SOL    HW230180   4.291   2.445   4.913
 9761SOL     OW30181   5.699   1.565   2.823
 9761SOL    HW130182   5.768   1.620   2.776
 9761SOL    HW230183   5.665   1.494   2.762
 9762SOL     OW30184   3.263   1.057   4.655
 9762SOL    HW130185   3.286   1.110   4.573
 9762SOL    HW230186   3.234   0.966   4.628
 9763SOL     OW30187   5.232   2.110   2.009
 9763SOL    HW130188   5.197   2.134   1.919
 9763SOL    HW230189   5.271   2.191   2.053
 9764SOL     OW30190   0.022   2.734   2.590
 9764SOL    HW130191   0.110   2.691   2.610
 9764SOL    HW230192   6.976   2.663   2.574
 9765SOL     OW30193   6.802   1.165   3.894
 9765SOL    HW130194   6.782   1.070   3.871
 9765SOL    HW230195   6.719   1.211   3.925
 9766SOL     OW30196   2.988   0.046   2.956
 9766SOL    HW130197   2.922   0.120   2.967
 9766SOL    HW230198   2.941   6.980   2.963
 9767SOL     OW30199   5.168   1.020   4.944
 9767SOL    HW130200   5.132   0.986   4.857
 9767SOL    HW230201   5.102   1.083   4.986
 9768SOL     OW30202   5.475   2.072   2.918
 9768SOL    HW130203   5.522   2.079   2.830
 9768SOL    HW230204   5.513   2.140   2.981
 9769SOL     OW30205   3.472   0.998   3.039
 9769SOL    HW130206   3.412   1.001   2.960
 9769SOL    HW230207   3.533   1.076   3.038
 9770SOL     OW30208   5.463   0.112   6.668
 9770SOL    HW130209   5.519   0.194   6.685
 9770SOL    HW230210   5.438   0.071   6.756
 9771SOL     OW30211   2.963   5.751   0.359
 9771SOL    HW130212   2.904   5.734   0.438
 9771SOL    HW230213   3.028   5.676   0.349
 9772SOL     OW30214   1.271   5.983   2.794
 9772SOL    HW130215   1.196   6.011   2.853
 9772SOL    HW230216   1.358   6.009   2.835
 9773SOL     OW30217   5.962   5.263   4.650
 9773SOL    HW130218   5.863   5.270   4.637
 9773SOL    HW230219   6.006   5.349   4.623
 9774SOL     OW30220   0.266   4.823   2.134
 9774SOL    HW130221   0.167   4.812   2.141
 9774SOL    HW230222   0.288   4.881   2.055
 9775SOL     OW30223   2.339   0.359   3.384
 9775SOL    HW130224   2.280   0.349   3.304
 9775SOL    HW230225   2.378   0.270   3.408
 9776SOL     OW30226   1.530   4.421   4.214
 9776SOL    HW130227   1.480   4.337   4.196
 9776SOL    HW230228   1.585   4.410   4.297
 9777SOL     OW30229   5.965   5.362   6.319
 9777SOL    HW130230   6.053   5.343   6.363
 9777SOL    HW230231   5.978   5.367   6.220
 9778SOL     OW30232   0.247   0.838   4.022
 9778SOL    HW130233   0.335   0.793   4.009
 9778SOL    HW230234   0.228   0.846   4.120
 9779SOL     OW30235   1.523   1.506   5.273
 9779SOL    HW130236   1.566   1.496   5.183
 9779SOL    HW230237   1.455   1.433   5.286
 9780SOL     OW30238   2.905   1.597   1.546
 9780SOL    HW130239   2.814   1.636   1.564
 9780SOL    HW230240   2.951   1.579   1.633
 9781SOL     OW30241   1.823   4.097   4.501
 9781SOL    HW130242   1.864   4.052   4.421
 9781SOL    HW230243   1.872   4.070   4.584
 9782SOL     OW30244   6.619   1.205   1.506
 9782SOL    HW130245   6.678   1.272   1.462
 9782SOL    HW230246   6.650   1.112   1.483
 9783SOL     OW30247   4.489   2.181   3.273
 9783SOL    HW130248   4.495   2.106   3.338
 9783SOL    HW230249   4.546   2.161   3.193
 9784SOL     OW30250   4.189   1.129   4.372
 9784SOL    HW130251   4.231   1.188   4.441
 9784SOL    HW230252   4.126   1.066   4.416
 9785SOL     OW30253   0.809   3.420   5.908
 9785SOL    HW130254   0.773   3.479   5.836
 9785SOL    HW230255   0.903   3.393   5.885
 9786SOL     OW30256   2.294   4.218   6.741
 9786SOL    HW130257   2.245   4.245   6.659
 9786SOL    HW230258   2.386   4.186   6.717
 9787SOL     OW30259   4.629   4.152   1.678
 9787SOL    HW130260   4.666   4.063   1.705
 9787SOL    HW230261   4.559   4.180   1.743
 9788SOL     OW30262   0.471   0.298   3.669
 9788SOL    HW130263   0.378   0.262   3.662
 9788SOL    HW230264   0.535   0.222   3.685
 9789SOL     OW30265   1.271   5.194   0.644
 9789SOL    HW130266   1.343   5.135   0.680
 9789SOL    HW230267   1.277   5.196   0.544
 9790SOL     OW30268   5.734   4.150   6.398
 9790SOL    HW130269   5.720   4.143   6.300
 9790SOL    HW230270   5.792   4.075   6.430
 9791SOL     OW30271   0.873   0.611   2.856
 9791SOL    HW130272   0.940   0.593   2.785
 9791SOL    HW230273   0.806   0.677   2.823
 9792SOL     OW30274   4.846   5.448   1.229
 9792SOL    HW130275   4.873   5.476   1.321
 9792SOL    HW230276   4.775   5.377   1.236
 9793SOL     OW30277   4.704   5.981   3.678
 9793SOL    HW130278   4.719   6.057   3.616
 9793SOL    HW230279   4.730   6.008   3.771
 9794SOL     OW30280   6.850   4.394   0.907
 9794SOL    HW130281   6.887   4.484   0.885
 9794SOL    HW230282   6.786   4.402   0.983
 9795SOL     OW30283   2.186   1.608   4.304
 9795SOL    HW130284   2.223   1.598   4.212
 9795SOL    HW230285   2.133   1.693   4.309
 9796SOL     OW30286   4.058   2.459   1.336
 9796SOL    HW130287   4.132   2.432   1.275
 9796SOL    HW230288   4.015   2.377   1.375
 9797SOL     OW30289   2.400   5.159   6.487
 9797SOL    HW130290   2.358   5.096   6.422
 9797SOL    HW230291   2.409   5.249   6.446
 9798SOL     OW30292   2.800   0.414   1.084
 9798SOL    HW130293   2.736   0.425   1.160
 9798SOL    HW230294   2.781   0.483   1.014
 9799SOL     OW30295   3.844   3.775   3.938
 9799SOL    HW130296   3.870   3.679   3.935
 9799SOL    HW230297   3.886   3.818   4.018
 9800SOL     OW30298   3.922   6.443   4.470
 9800SOL    HW130299   3.988   6.419   4.542
 9800SOL    HW230300   3.893   6.538   4.482
 9801SOL     OW30301   4.712   4.104   0.643
 9801SOL    HW130302   4.710   4.008   0.614
 9801SOL    HW230303   4.767   4.157   0.579
 9802SOL     OW30304   0.778   3.373   1.474
 9802SOL    HW130305   0.801   3.355   1.570
 9802SOL    HW230306   0.691   3.331   1.452
 9803SOL     OW30307   0.424   2.339   6.522
 9803SOL    HW130308   0.510   2.382   6.549
 9803SOL    HW230309   0.348   2.392   6.558
 9804SOL     OW30310   0.971   6.879   2.974
 9804SOL    HW130311   1.019   6.867   3.061
 9804SOL    HW230312   1.033   6.859   2.898
 9805SOL     OW30313   1.118   0.746   5.202
 9805SOL    HW130314   1.178   0.820   5.174
 9805SOL    HW230315   1.151   0.708   5.289
 9806SOL     OW30316   1.787   1.105   0.360
 9806SOL    HW130317   1.764   1.133   0.453
 9806SOL    HW230318   1.735   1.024   0.335
 9807SOL     OW30319   2.435   3.510   0.149
 9807SOL    HW130320   2.405   3.604   0.163
 9807SOL    HW230321   2.523   3.510   0.101
 9808SOL     OW30322   4.598   0.903   5.640
 9808SOL    HW130323   4.584   0.853   5.555
 9808SOL    HW230324   4.533   0.871   5.709
 9809SOL     OW30325   0.629   2.190   0.081
 9809SOL    HW130326   0.706   2.171   0.020
 9809SOL    HW230327   0.648   2.152   0.171
 9810SOL     OW30328   2.173   3.107   3.391
 9810SOL    HW130329   2.133   3.174   3.454
 9810SOL    HW230330   2.167   3.142   3.298
 9811SOL     OW30331   5.450   4.806   3.855
 9811SOL    HW130332   5.512   4.879   3.827
 9811SOL    HW230333   5.488   4.759   3.935
 9812SOL     OW30334   3.533   1.816   5.875
 9812SOL    HW130335   3.442   1.801   5.913
 9812SOL    HW230336   3.527   1.825   5.775
 9813SOL     OW30337   5.736   0.431   0.069
 9813SOL    HW130338   5.706   0.481   0.151
 9813SOL    HW230339   5.829   0.397   0.083
 9814SOL     OW30340   0.785   0.487   0.483
 9814SOL    HW130341   0.882   0.469   0.497
 9814SOL    HW230342   0.731   0.412   0.522
 9815SOL     OW30343   5.619   3.972   3.228
 9815SOL    HW130344   5.548   3.912   3.192
 9815SOL    HW230345   5.588   4.067   3.224
 9816SOL     OW30346   6.846   1.108   6.387
 9816SOL    HW130347   6.867   1.038   6.318
 9816SOL    HW230348   6.755   1.091   6.424
 9817SOL     OW30349   2.349   6.215   2.382
 9817SOL    HW130350   2.435   6.166   2.372
 9817SOL    HW230351   2.334   6.272   2.301
 9818SOL     OW30352   1.537   0.772   4.793
 9818SOL    HW130353   1.447   0.761   4.836
 9818SOL    HW230354   1.606   0.726   4.849
 9819SOL     OW30355   4.970   3.134   3.801
 9819SOL    HW130356   5.000   3.143   3.896
 9819SOL    HW230357   4.938   3.223   3.767
 9820SOL     OW30358   4.595   3.099   5.949
 9820SOL    HW130359   4.505   3.065   5.923
 9820SOL    HW230360   4.662   3.071   5.881
 9821SOL     OW30361   5.206   0.543   0.798
 9821SOL    HW130362   5.139   0.586   0.737
 9821SOL    HW230363   5.213   0.595   0.882
 9822SOL     OW30364   2.821   5.967   3.531
 9822SOL    HW130365   2.908   5.952   3.483
 9822SOL    HW230366   2.817   5.911   3.613
 9823SOL     OW30367   2.697   0.470   1.324
 9823SOL    HW130368   2.748   0.471   1.410
 9823SOL    HW230369   2.635   0.391   1.323
 9824SOL     OW30370   1.834   5.522   4.198
 9824SOL    HW130371   1.907   5.571   4.245
 9824SOL    HW230372   1.807   5.442   4.251
 9825SOL     OW30373   5.423   6.484   4.025
 9825SOL    HW130374   5.463   6.393   4.037
 9825SOL    HW230375   5.385   6.515   4.112
 9826SOL     OW30376   4.229   5.718   5.307
 9826SOL    HW130377   4.139   5.699   5.348
 9826SOL    HW230378   4.248   5.651   5.236
 9827SOL     OW30379   1.596   3.607   3.570
 9827SOL    HW130380   1.670   3.608   3.502
 9827SOL    HW230381   1.510   3.581   3.526
 9828SOL     OW30382   2.988   2.435   5.359
 9828SOL    HW130383   3.063   2.454   5.295
 9828SOL    HW230384   2.945   2.521   5.387
 9829SOL     OW30385   4.638   5.778   6.502
 9829SOL    HW130386   4.606   5.705   6.442
 9829SOL    HW230387   4.733   5.801   6.479
 9830SOL     OW30388   5.390   1.548   1.844
 9830SOL    HW130389   5.312   1.600   1.810
 9830SOL    HW230390   5.392   1.458   1.800
 9831SOL     OW30391   1.163   4.997   2.888
 9831SOL    HW130392   1.189   4.951   2.973
 9831SOL    HW230393   1.096   5.068   2.907
 9832SOL     OW30394   5.040   5.437   2.514
 9832SOL    HW130395   5.072   5.374   2.585
 9832SOL    HW230396   5.028   5.528   2.553
 9833SOL     OW30397   3.583   3.546   4.124
 9833SOL    HW130398   3.493   3.508   4.102
 9833SOL    HW230399   3.572   3.641   4.154
 9834SOL     OW30400   2.162   4.558   5.276
 9834SOL    HW130401   2.154   4.535   5.179
 9834SOL    HW230402   2.156   4.657   5.287
 9835SOL     OW30403   3.713   3.336   4.365
 9835SOL    HW130404   3.673   3.246   4.381
 9835SOL    HW230405   3.645   3.396   4.321
 9836SOL     OW30406   0.393   4.131   3.944
 9836SOL    HW130407   0.458   4.178   4.004
 9836SOL    HW230408   0.384   4.036   3.973
 9837SOL     OW30409   4.156   0.846   2.333
 9837SOL    HW130410   4.192   0.754   2.314
 9837SOL    HW230411   4.073   0.861   2.281
 9838SOL     OW30412   1.877   6.845   0.259
 9838SOL    HW130413   1.813   6.794   0.202
 9838SOL    HW230414   1.971   6.817   0.237
 9839SOL     OW30415   5.088   6.815   3.705
 9839SOL    HW130416   5.024   6.880   3.745
 9839SOL    HW230417   5.181   6.852   3.708
 9840SOL     OW30418   5.453   1.977   0.745
 9840SOL    HW130419   5.371   1.986   0.802
 9840SOL    HW230420   5.530   1.947   0.801
 9841SOL     OW30421   1.004   4.296   4.577
 9841SOL    HW130422   1.093   4.251   4.577
 9841SOL    HW230423   0.946   4.255   4.507
 9842SOL     OW30424   3.269   3.585   1.430
 9842SOL    HW130425   3.209   3.510   1.403
 9842SOL    HW230426   3.364   3.555   1.425
 9843SOL     OW30427   6.530   0.407   2.502
 9843SOL    HW130428   6.432   0.413   2.516
 9843SOL    HW230429   6.560   0.482   2.443
 9844SOL     OW30430   5.871   1.172   3.348
 9844SOL    HW130431   5.837   1.221   3.267
 9844SOL    HW230432   5.891   1.077   3.323
 9845SOL     OW30433   1.567   1.714   3.944
 9845SOL    HW130434   1.585   1.648   3.871
 9845SOL    HW230435   1.603   1.803   3.919
 9846SOL     OW30436   3.640   2.727   1.222
 9846SOL    HW130437   3.618   2.630   1.212
 9846SOL    HW230438   3.628   2.755   1.317
 9847SOL     OW30439   3.885   3.014   2.560
 9847SOL    HW130440   3.935   3.101   2.553
 9847SOL    HW230441   3.853   3.002   2.654
 9848SOL     OW30442   4.364   4.513   5.800
 9848SOL    HW130443   4.358   4.498   5.898
 9848SOL    HW230444   4.415   4.598   5.782
 9849SOL     OW30445   1.185   0.146   6.591
 9849SOL    HW130446   1.193   0.083   6.669
 9849SOL    HW230447   1.172   0.239   6.625
 9850SOL     OW30448   6.687   0.890   3.774
 9850SOL    HW130449   6.754   0.820   3.799
 9850SOL    HW230450   6.595   0.850   3.772
 9851SOL     OW30451   1.609   0.347   4.347
 9851SOL    HW130452   1.635   0.430   4.397
 9851SOL    HW230453   1.571   0.372   4.258
 9852SOL     OW30454   2.302   1.933   4.628
 9852SOL    HW130455   2.231   1.994   4.591
 9852SOL    HW230456   2.283   1.839   4.600
 9853SOL     OW30457   6.226   3.341   5.485
 9853SOL    HW130458   6.246   3.273   5.414
 9853SOL    HW230459   6.248   3.303   5.574
 9854SOL     OW30460   0.434   6.151   4.350
 9854SOL    HW130461   0.437   6.205   4.266
 9854SOL    HW230462   0.367   6.077   4.340
 9855SOL     OW30463   2.176   3.346   1.421
 9855SOL    HW130464   2.127   3.385   1.343
 9855SOL    HW230465   2.268   3.319   1.392
 9856SOL     OW30466   4.995   4.525   3.910
 9856SOL    HW130467   5.028   4.431   3.920
 9856SOL    HW230468   5.008   4.573   3.996
 9857SOL     OW30469   5.074   2.490   2.856
 9857SOL    HW130470   5.091   2.443   2.770
 9857SOL    HW230471   5.156   2.541   2.884
 9858SOL     OW30472   0.280   6.467   1.293
 9858SOL    HW130473   0.334   6.461   1.209
 9858SOL    HW230474   0.212   6.540   1.283
 9859SOL     OW30475   6.629   5.622   3.335
 9859SOL    HW130476   6.584   5.691   3.278
 9859SOL    HW230477   6.591   5.624   3.427
 9860SOL     OW30478   2.422   2.226   4.774
 9860SOL    HW130479   2.483   2.181   4.710
 9860SOL    HW230480   2.372   2.299   4.727
 9861SOL     OW30481   2.871   0.006   3.313
 9861SOL    HW130482   2.804   0.072   3.278
 9861SOL    HW230483   2.832   6.937   3.310
 9862SOL     OW30484   2.514   3.430   6.821
 9862SOL    HW130485   2.467   3.360   6.767
 9862SOL    HW230486   2.593   3.463   6.769
 9863SOL     OW30487   2.719   5.984   1.113
 9863SOL    HW130488   2.650   6.055   1.125
 9863SOL    HW230489   2.785   5.989   1.188
 9864SOL     OW30490   3.364   0.558   4.473
 9864SOL    HW130491   3.310   0.514   4.545
 9864SOL    HW230492   3.303   0.599   4.405
 9865SOL     OW30493   1.217   6.599   4.407
 9865SOL    HW130494   1.186   6.565   4.496
 9865SOL    HW230495   1.316   6.615   4.410
 9866SOL     OW30496   5.975   4.810   5.958
 9866SOL    HW130497   5.875   4.811   5.957
 9866SOL    HW230498   6.010   4.902   5.973
 9867SOL     OW30499   6.960   1.376   1.895
 9867SOL    HW130500   6.989   1.471   1.881
 9867SOL    HW230501   6.916   1.343   1.812
 9868SOL     OW30502   0.033   3.186   4.243
 9868SOL    HW130503   0.046   3.163   4.147
 9868SOL    HW230504   7.005   3.272   4.250
 9869SOL     OW30505   7.019   2.390   1.391
 9869SOL    HW130506   0.056   2.460   1.353
 9869SOL    HW230507   6.948   2.367   1.324
 9870SOL     OW30508   4.161   5.693   2.668
 9870SOL    HW130509   4.126   5.607   2.705
 9870SOL    HW230510   4.095   5.732   2.604
 9871SOL     OW30511   6.531   4.598   5.762
 9871SOL    HW130512   6.577   4.633   5.680
 9871SOL    HW230513   6.598   4.552   5.821
 9872SOL     OW30514   3.280   5.544   4.468
 9872SOL    HW130515   3.189   5.509   4.446
 9872SOL    HW230516   3.349   5.480   4.435
 9873SOL     OW30517   2.152   2.477   0.744
 9873SOL    HW130518   2.124   2.383   0.762
 9873SOL    HW230519   2.241   2.477   0.697
 9874SOL     OW30520   6.911   2.999   5.735
 9874SOL    HW130521   6.921   2.941   5.654
 9874SOL    HW230522   7.001   3.025   5.769
 9875SOL     OW30523   6.214   5.956   2.937
 9875SOL    HW130524   6.276   6.027   2.904
 9875SOL    HW230525   6.228   5.941   3.034
 9876SOL     OW30526   5.510   0.268   4.176
 9876SOL    HW130527   5.581   0.329   4.211
 9876SOL    HW230528   5.502   0.189   4.237
 9877SOL     OW30529   6.989   4.569   4.246
 9877SOL    HW130530   6.977   4.501   4.317
 9877SOL    HW230531   0.043   4.628   4.268
 9878SOL     OW30532   3.145   3.240   6.055
 9878SOL    HW130533   3.201   3.294   6.118
 9878SOL    HW230534   3.140   3.145   6.087
 9879SOL     OW30535   5.607   4.875   5.642
 9879SOL    HW130536   5.631   4.955   5.698
 9879SOL    HW230537   5.545   4.904   5.568
 9880SOL     OW30538   2.739   1.035   0.804
 9880SOL    HW130539   2.701   0.992   0.885
 9880SOL    HW230540   2.834   1.006   0.792
 9881SOL     OW30541   6.952   2.027   4.544
 9881SOL    HW130542   6.867   1.984   4.516
 9881SOL    HW230543   6.933   2.101   4.609
 9882SOL     OW30544   2.895   3.736   5.749
 9882SOL    HW130545   2.808   3.768   5.713
 9882SOL    HW230546   2.962   3.810   5.745
 9883SOL     OW30547   0.966   6.516   1.155
 9883SOL    HW130548   0.963   6.459   1.073
 9883SOL    HW230549   0.939   6.609   1.132
 9884SOL     OW30550   4.378   1.585   1.008
 9884SOL    HW130551   4.299   1.550   1.058
 9884SOL    HW230552   4.350   1.660   0.948
 9885SOL     OW30553   0.595   3.211   4.794
 9885SOL    HW130554   0.687   3.172   4.803
 9885SOL    HW230555   0.588   3.293   4.851
 9886SOL     OW30556   0.724   6.258   1.440
 9886SOL    HW130557   0.820   6.237   1.457
 9886SOL    HW230558   0.676   6.176   1.410
 9887SOL     OW30559   3.733   0.200   6.967
 9887SOL    HW130560   3.736   0.187   6.868
 9887SOL    HW230561   3.774   0.288   6.990
 9888SOL     OW30562   5.930   4.998   3.238
 9888SOL    HW130563   5.868   5.013   3.315
 9888SOL    HW230564   5.992   5.075   3.230
 9889SOL     OW30565   0.305   4.458   1.761
 9889SOL    HW130566   0.231   4.421   1.817
 9889SOL    HW230567   0.392   4.419   1.790
 9890SOL     OW30568   0.315   2.770   0.843
 9890SOL    HW130569   0.405   2.763   0.885
 9890SOL    HW230570   0.278   2.679   0.828
 9891SOL     OW30571   5.961   4.518   1.414
 9891SOL    HW130572   5.973   4.445   1.346
 9891SOL    HW230573   5.868   4.553   1.409
 9892SOL     OW30574   1.543   5.500   3.282
 9892SOL    HW130575   1.528   5.557   3.201
 9892SOL    HW230576   1.612   5.430   3.261
 9893SOL     OW30577   6.335   7.012   2.234
 9893SOL    HW130578   6.287   6.984   2.150
 9893SOL    HW230579   6.419   6.958   2.243
 9894SOL     OW30580   2.860   1.826   6.125
 9894SOL    HW130581   2.939   1.775   6.090
 9894SOL    HW230582   2.885   1.873   6.209
 9895SOL     OW30583   6.277   2.737   5.278
 9895SOL    HW130584   6.201   2.796   5.305
 9895SOL    HW230585   6.247   2.674   5.206
 9896SOL     OW30586   5.011   1.826   1.014
 9896SOL    HW130587   5.050   1.741   1.050
 9896SOL    HW230588   4.912   1.817   1.006
 9897SOL     OW30589   4.633   0.763   2.892
 9897SOL    HW130590   4.579   0.713   2.960
 9897SOL    HW230591   4.594   0.854   2.879
 9898SOL     OW30592   6.874   4.475   5.313
 9898SOL    HW130593   6.915   4.400   5.365
 9898SOL    HW230594   6.850   4.443   5.222
 9899SOL     OW30595   6.688   5.691   2.451
 9899SOL    HW130596   6.600   5.648   2.473
 9899SOL    HW230597   6.683   5.788   2.471
 9900SOL     OW30598   1.487   2.666   2.730
 9900SOL    HW130599   1.415   2.734   2.715
 9900SOL    HW230600   1.548   2.663   2.651
 9901SOL     OW30601   1.924   1.236   7.005
 9901SOL    HW130602   1.828   1.229   6.978
 9901SOL    HW230603   1.930   1.262   0.079
 9902SOL     OW30604   4.148   3.918   1.337
 9902SOL    HW130605   4.191   3.831   1.364
 9902SOL    HW230606   4.183   3.946   1.247
 9903SOL     OW30607   4.826   6.759   2.198
 9903SOL    HW130608   4.750   6.694   2.194
 9903SOL    HW230609   4.829   6.812   2.113
 9904SOL     OW30610   0.299   3.918   6.807
 9904SOL    HW130611   0.305   3.930   6.906
 9904SOL    HW230612   0.253   3.997   6.767
 9905SOL     OW30613   1.321   6.677   6.520
 9905SOL    HW130614   1.271   6.691   6.606
 9905SOL    HW230615   1.292   6.745   6.453
 9906SOL     OW30616   2.146   3.357   6.954
 9906SOL    HW130617   2.186   3.438   6.911
 9906SOL    HW230618   2.189   3.344   0.022
 9907SOL     OW30619   1.537   0.427   3.646
 9907SOL    HW130620   1.608   0.495   3.627
 9907SOL    HW230621   1.552   0.346   3.590
 9908SOL     OW30622   0.704   3.563   5.719
 9908SOL    HW130623   0.635   3.505   5.676
 9908SOL    HW230624   0.753   3.615   5.649
 9909SOL     OW30625   3.205   0.295   3.054
 9909SOL    HW130626   3.293   0.301   3.102
 9909SOL    HW230627   3.217   0.243   2.970
 9910SOL     OW30628   1.384   5.124   1.678
 9910SOL    HW130629   1.454   5.145   1.609
 9910SOL    HW230630   1.394   5.186   1.755
 9911SOL     OW30631   4.380   6.075   2.512
 9911SOL    HW130632   4.325   6.134   2.572
 9911SOL    HW230633   4.377   5.981   2.547
 9912SOL     OW30634   4.294   0.871   1.298
 9912SOL    HW130635   4.333   0.862   1.206
 9912SOL    HW230636   4.194   0.881   1.291
 9913SOL     OW30637   6.099   4.168   1.644
 9913SOL    HW130638   6.165   4.197   1.575
 9913SOL    HW230639   6.084   4.070   1.637
 9914SOL     OW30640   0.872   0.708   5.522
 9914SOL    HW130641   0.965   0.705   5.485
 9914SOL    HW230642   0.868   0.772   5.598
 9915SOL     OW30643   4.898   2.876   4.022
 9915SOL    HW130644   4.986   2.918   4.001
 9915SOL    HW230645   4.855   2.846   3.937
 9916SOL     OW30646   1.939   2.321   3.471
 9916SOL    HW130647   1.996   2.322   3.553
 9916SOL    HW230648   1.986   2.269   3.399
 9917SOL     OW30649   3.348   3.817   4.557
 9917SOL    HW130650   3.363   3.784   4.650
 9917SOL    HW230651   3.354   3.917   4.556
 9918SOL     OW30652   0.666   2.211   1.661
 9918SOL    HW130653   0.674   2.272   1.741
 9918SOL    HW230654   0.705   2.257   1.581
 9919SOL     OW30655   2.528   5.585   0.974
 9919SOL    HW130656   2.523   5.661   1.038
 9919SOL    HW230657   2.453   5.592   0.908
 9920SOL     OW30658   3.550   6.965   2.570
 9920SOL    HW130659   3.481   6.936   2.504
 9920SOL    HW230660   3.561   6.895   2.640
 9921SOL     OW30661   4.670   6.711   4.524
 9921SOL    HW130662   4.617   6.660   4.455
 9921SOL    HW230663   4.639   6.806   4.526
 9922SOL     OW30664   4.716   4.745   0.982
 9922SOL    HW130665   4.706   4.681   1.057
 9922SOL    HW230666   4.649   4.819   0.991
 9923SOL     OW30667   6.992   3.155   6.728
 9923SOL    HW130668   0.008   3.086   6.790
 9923SOL    HW230669   6.901   3.126   6.700
 9924SOL     OW30670   4.811   2.127   3.605
 9924SOL    HW130671   4.863   2.089   3.681
 9924SOL    HW230672   4.762   2.053   3.559
 9925SOL     OW30673   1.518   4.391   3.910
 9925SOL    HW130674   1.514   4.368   3.812
 9925SOL    HW230675   1.446   4.342   3.958
 9926SOL     OW30676   3.550   2.498   0.463
 9926SOL    HW130677   3.636   2.543   0.436
 9926SOL    HW230678   3.485   2.568   0.494
 9927SOL     OW30679   0.808   1.952   0.523
 9927SOL    HW130680   0.829   1.854   0.522
 9927SOL    HW230681   0.778   1.979   0.615
 9928SOL     OW30682   5.316   3.655   2.526
 9928SOL    HW130683   5.267   3.711   2.460
 9928SOL    HW230684   5.315   3.701   2.615
 9929SOL     OW30685   3.807   4.188   5.135
 9929SOL    HW130686   3.742   4.161   5.065
 9929SOL    HW230687   3.894   4.141   5.121
 9930SOL     OW30688   0.781   0.242   5.988
 9930SOL    HW130689   0.811   0.230   5.894
 9930SOL    HW230690   0.709   0.175   6.008
 9931SOL     OW30691   6.840   5.513   4.635
 9931SOL    HW130692   6.792   5.439   4.588
 9931SOL    HW230693   6.912   5.549   4.576
 9932SOL     OW30694   1.661   1.479   6.682
 9932SOL    HW130695   1.700   1.454   6.593
 9932SOL    HW230696   1.735   1.497   6.747
 9933SOL     OW30697   1.532   1.208   4.239
 9933SOL    HW130698   1.623   1.246   4.224
 9933SOL    HW230699   1.464   1.280   4.226
 9934SOL     OW30700   6.237   1.487   6.795
 9934SOL    HW130701   6.251   1.389   6.806
 9934SOL    HW230702   6.272   1.535   6.876
 9935SOL     OW30703   2.310   0.746   0.342
 9935SOL    HW130704   2.345   0.805   0.269
 9935SOL    HW230705   2.290   0.655   0.304
 9936SOL     OW30706   6.812   5.393   6.790
 9936SOL    HW130707   6.879   5.451   6.835
 9936SOL    HW230708   6.742   5.449   6.746
 9937SOL     OW30709   1.747   0.851   3.393
 9937SOL    HW130710   1.847   0.854   3.401
 9937SOL    HW230711   1.706   0.911   3.462
 9938SOL     OW30712   6.020   0.291   3.991
 9938SOL    HW130713   6.028   0.220   4.060
 9938SOL    HW230714   5.981   0.253   3.907
 9939SOL     OW30715   2.382   2.450   0.968
 9939SOL    HW130716   2.410   2.546   0.975
 9939SOL    HW230717   2.406   2.403   1.053
 9940SOL     OW30718   0.856   0.360   3.637
 9940SOL    HW130719   0.776   0.305   3.659
 9940SOL    HW230720   0.939   0.306   3.651
 9941SOL     OW30721   2.840   5.585   5.270
 9941SOL    HW130722   2.901   5.510   5.297
 9941SOL    HW230723   2.814   5.638   5.351
 9942SOL     OW30724   4.803   5.700   1.557
 9942SOL    HW130725   4.726   5.713   1.619
 9942SOL    HW230726   4.849   5.788   1.544
 9943SOL     OW30727   0.971   4.029   6.462
 9943SOL    HW130728   1.017   4.071   6.384
 9943SOL    HW230729   1.023   3.949   6.492
 9944SOL     OW30730   0.519   5.478   6.593
 9944SOL    HW130731   0.512   5.571   6.555
 9944SOL    HW230732   0.513   5.482   6.692
 9945SOL     OW30733   5.426   4.064   6.661
 9945SOL    HW130734   5.428   3.965   6.646
 9945SOL    HW230735   5.369   4.106   6.591
 9946SOL     OW30736   5.861   0.304   2.996
 9946SOL    HW130737   5.869   0.397   2.961
 9946SOL    HW230738   5.898   0.300   3.089
 9947SOL     OW30739   2.498   1.646   4.446
 9947SOL    HW130740   2.568   1.703   4.489
 9947SOL    HW230741   2.459   1.696   4.368
 9948SOL     OW30742   6.927   5.745   5.542
 9948SOL    HW130743   6.840   5.784   5.512
 9948SOL    HW230744   6.961   5.797   5.620
 9949SOL     OW30745   6.785   5.144   4.259
 9949SOL    HW130746   6.712   5.186   4.206
 9949SOL    HW230747   6.763   5.047   4.273
 9950SOL     OW30748   0.027   6.108   5.730
 9950SOL    HW130749   6.992   6.039   5.772
 9950SOL    HW230750   0.015   6.107   5.630
 9951SOL     OW30751   1.856   2.460   2.638
 9951SOL    HW130752   1.914   2.425   2.564
 9951SOL    HW230753   1.767   2.415   2.634
 9952SOL     OW30754   1.561   3.707   0.620
 9952SOL    HW130755   1.554   3.695   0.719
 9952SOL    HW230756   1.568   3.804   0.598
 9953SOL     OW30757   5.321   3.035   3.801
 9953SOL    HW130758   5.291   3.067   3.711
 9953SOL    HW230759   5.396   2.970   3.789
 9954SOL     OW30760   1.502   6.861   4.969
 9954SOL    HW130761   1.466   6.872   4.876
 9954SOL    HW230762   1.599   6.883   4.970
 9955SOL     OW30763   3.869   3.736   6.755
 9955SOL    HW130764   3.878   3.659   6.691
 9955SOL    HW230765   3.800   3.800   6.721
 9956SOL     OW30766   0.518   3.688   2.343
 9956SOL    HW130767   0.617   3.698   2.349
 9956SOL    HW230768   0.483   3.646   2.426
 9957SOL     OW30769   5.924   0.019   1.970
 9957SOL    HW130770   5.870   0.018   1.886
 9957SOL    HW230771   5.954   0.113   1.989
 9958SOL     OW30772   3.434   6.238   5.906
 9958SOL    HW130773   3.460   6.151   5.948
 9958SOL    HW230774   3.515   6.290   5.881
 9959SOL     OW30775   4.158   3.416   2.316
 9959SOL    HW130776   4.252   3.446   2.332
 9959SOL    HW230777   4.149   3.384   2.222
 9960SOL     OW30778   0.701   6.476   1.271
 9960SOL    HW130779   0.797   6.503   1.257
 9960SOL    HW230780   0.697   6.402   1.338
 9961SOL     OW30781   2.020   4.281   2.951
 9961SOL    HW130782   1.988   4.333   3.031
 9961SOL    HW230783   2.112   4.246   2.968
 9962SOL     OW30784   3.831   0.559   2.250
 9962SOL    HW130785   3.751   0.608   2.216
 9962SOL    HW230786   3.914   0.601   2.212
 9963SOL     OW30787   2.758   3.095   6.039
 9963SOL    HW130788   2.763   3.193   6.019
 9963SOL    HW230789   2.689   3.053   5.981
 9964SOL     OW30790   4.262   5.019   5.774
 9964SOL    HW130791   4.360   5.030   5.790
 9964SOL    HW230792   4.248   4.948   5.705
 9965SOL     OW30793   3.544   4.962   5.103
 9965SOL    HW130794   3.602   4.959   5.022
 9965SOL    HW230795   3.460   5.012   5.083
 9966SOL     OW30796   2.307   4.507   1.627
 9966SOL    HW130797   2.282   4.524   1.531
 9966SOL    HW230798   2.257   4.569   1.686
 9967SOL     OW30799   6.217   5.067   2.506
 9967SOL    HW130800   6.145   5.078   2.438
 9967SOL    HW230801   6.178   5.070   2.598
 9968SOL     OW30802   3.736   6.044   6.316
 9968SOL    HW130803   3.831   6.018   6.298
 9968SOL    HW230804   3.695   5.980   6.381
 9969SOL     OW30805   1.264   3.327   3.739
 9969SOL    HW130806   1.205   3.267   3.793
 9969SOL    HW230807   1.352   3.283   3.724
 9970SOL     OW30808   0.279   4.741   2.542
 9970SOL    HW130809   0.225   4.659   2.521
 9970SOL    HW230810   0.365   4.714   2.586
 9971SOL     OW30811   2.341   3.959   0.601
 9971SOL    HW130812   2.312   3.929   0.692
 9971SOL    HW230813   2.336   3.883   0.537
 9972SOL     OW30814   3.428   4.716   0.758
 9972SOL    HW130815   3.363   4.642   0.741
 9972SOL    HW230816   3.425   4.741   0.855
 9973SOL     OW30817   4.090   1.882   4.719
 9973SOL    HW130818   4.068   1.859   4.814
 9973SOL    HW230819   4.030   1.955   4.687
 9974SOL     OW30820   6.616   3.062   3.088
 9974SOL    HW130821   6.648   3.141   3.035
 9974SOL    HW230822   6.522   3.079   3.119
 9975SOL     OW30823   0.202   4.733   6.894
 9975SOL    HW130824   0.139   4.662   6.864
 9975SOL    HW230825   0.250   4.770   6.815
 9976SOL     OW30826   6.950   5.015   5.235
 9976SOL    HW130827   0.017   5.004   5.191
 9976SOL    HW230828   6.945   5.105   5.279
 9977SOL     OW30829   6.771   5.493   6.082
 9977SOL    HW130830   6.685   5.541   6.101
 9977SOL    HW230831   6.763   5.399   6.115
 9978SOL     OW30832   6.299   1.663   5.171
 9978SOL    HW130833   6.295   1.572   5.130
 9978SOL    HW230834   6.208   1.706   5.166
 9979SOL     OW30835   6.405   4.317   6.033
 9979SOL    HW130836   6.451   4.401   6.004
 9979SOL    HW230837   6.307   4.325   6.018
 9980SOL     OW30838   1.557   0.970   0.309
 9980SOL    HW130839   1.477   1.024   0.334
 9980SOL    HW230840   1.548   0.941   0.213
 9981SOL     OW30841   2.811   1.476   0.254
 9981SOL    HW130842   2.793   1.567   0.290
 9981SOL    HW230843   2.850   1.482   0.162
 9982SOL     OW30844   0.436   1.979   3.860
 9982SOL    HW130845   0.531   1.952   3.845
 9982SOL    HW230846   0.391   1.994   3.772
 9983SOL     OW30847   1.194   0.857   1.545
 9983SOL    HW130848   1.241   0.769   1.532
 9983SOL    HW230849   1.122   0.846   1.613
 9984SOL     OW30850   0.488   0.231   0.303
 9984SOL    HW130851   0.436   0.275   0.377
 9984SOL    HW230852   0.573   0.194   0.341
 9985SOL     OW30853   3.623   0.104   1.408
 9985SOL    HW130854   3.552   0.038   1.384
 9985SOL    HW230855   3.712   0.060   1.406
 9986SOL     OW30856   5.131   4.284   6.858
 9986SOL    HW130857   5.145   4.343   6.778
 9986SOL    HW230858   5.118   4.190   6.828
 9987SOL     OW30859   6.119   1.680   2.138
 9987SOL    HW130860   6.132   1.714   2.045
 9987SOL    HW230861   6.149   1.585   2.143
 9988SOL     OW30862   0.003   4.827   4.479
 9988SOL    HW130863   0.017   4.922   4.506
 9988SOL    HW230864   0.049   4.767   4.544
 9989SOL     OW30865   5.583   3.621   3.234
 9989SOL    HW130866   5.561   3.536   3.283
 9989SOL    HW230867   5.673   3.614   3.193
 9990SOL     OW30868   2.467   0.435   3.614
 9990SOL    HW130869   2.565   0.412   3.614
 9990SOL    HW230870   2.427   0.405   3.527
 9991SOL     OW30871   1.311   3.037   4.644
 9991SOL    HW130872   1.395   3.054   4.696
 9991SOL    HW230873   1.276   3.124   4.609
 9992SOL     OW30874   3.568   3.357   0.843
 9992SOL    HW130875   3.501   3.424   0.877
 9992SOL    HW230876   3.644   3.350   0.908
 9993SOL     OW30877   3.762   6.396   3.182
 9993SOL    HW130878   3.776   6.474   3.243
 9993SOL    HW230879   3.725   6.427   3.095
 9994SOL     OW30880   0.066   3.830   3.367
 9994SOL    HW130881   0.125   3.766   3.317
 9994SOL    HW230882   6.994   3.821   3.335
 9995SOL     OW30883   3.080   6.973   3.558
 9995SOL    HW130884   3.078   0.032   3.616
 9995SOL    HW230885   3.076   7.001   3.462
 9996SOL     OW30886   2.950   2.898   1.187
 9996SOL    HW130887   2.890   2.973   1.161
 9996SOL    HW230888   3.024   2.933   1.245
 9997SOL     OW30889   5.093   1.297   1.062
 9997SOL    HW130890   5.167   1.323   0.999
 9997SOL    HW230891   5.084   1.198   1.063
 9998SOL     OW30892   5.462   3.925   2.579
 9998SOL    HW130893   5.469   3.927   2.479
 9998SOL    HW230894   5.385   3.868   2.606
 9999SOL     OW30895   6.707   5.807   5.376
 9999SOL    HW130896   6.614   5.777   5.355
 9999SOL    HW230897   6.717   5.903   5.347
10000SOL     OW30898   6.041   2.162   6.586
10000SOL    HW130899   6.010   2.081   6.636
10000SOL    HW230900   6.035   2.242   6.646
10001SOL     OW30901   4.039   0.424   1.586
10001SOL    HW130902   4.010   0.433   1.491
10001SOL    HW230903   4.138   0.418   1.591
10002SOL     OW30904   1.409   1.341   1.984
10002SOL    HW130905   1.416   1.248   2.020
10002SOL    HW230906   1.335   1.390   2.030
10003SOL     OW30907   3.100   2.110   2.280
10003SOL    HW130908   3.054   2.198   2.292
10003SOL    HW230909   3.175   2.102   2.346
10004SOL     OW30910   5.433   3.146   4.691
10004SOL    HW130911   5.373   3.224   4.674
10004SOL    HW230912   5.397   3.065   4.644
10005SOL     OW30913   3.738   5.388   2.899
10005SOL    HW130914   3.779   5.450   2.966
10005SOL    HW230915   3.806   5.322   2.869
10006SOL     OW30916   5.359   1.630   5.428
10006SOL    HW130917   5.376   1.546   5.480
10006SOL    HW230918   5.270   1.667   5.454
10007SOL     OW30919   0.860   3.244   4.581
10007SOL    HW130920   0.855   3.215   4.485
10007SOL    HW230921   0.833   3.168   4.640
10008SOL     OW30922   4.085   1.623   2.856
10008SOL    HW130923   4.152   1.613   2.783
10008SOL    HW230924   4.013   1.554   2.844
10009SOL     OW30925   1.993   4.052   1.603
10009SOL    HW130926   1.959   4.026   1.694
10009SOL    HW230927   2.001   4.152   1.598
10010SOL     OW30928   2.001   6.140   0.238
10010SOL    HW130929   2.009   6.117   0.335
10010SOL    HW230930   1.928   6.085   0.197
10011SOL     OW30931   0.630   3.604   6.661
10011SOL    HW130932   0.543   3.578   6.618
10011SOL    HW230933   0.619   3.692   6.706
10012SOL     OW30934   5.006   6.650   2.386
10012SOL    HW130935   4.950   6.725   2.351
10012SOL    HW230936   5.019   6.581   2.314
10013SOL     OW30937   2.029   1.840   4.407
10013SOL    HW130938   2.020   1.933   4.444
10013SOL    HW230939   1.956   1.782   4.445
10014SOL     OW30940   0.351   1.918   1.435
10014SOL    HW130941   0.380   1.971   1.355
10014SOL    HW230942   0.398   1.952   1.516
10015SOL     OW30943   4.153   4.872   0.311
10015SOL    HW130944   4.063   4.846   0.276
10015SOL    HW230945   4.146   4.960   0.359
10016SOL     OW30946   1.837   0.233   4.856
10016SOL    HW130947   1.796   0.149   4.823
10016SOL    HW230948   1.765   0.296   4.886
10017SOL     OW30949   2.053   1.485   2.538
10017SOL    HW130950   2.056   1.505   2.440
10017SOL    HW230951   2.087   1.393   2.555
10018SOL     OW30952   6.539   4.839   6.031
10018SOL    HW130953   6.621   4.846   5.974
10018SOL    HW230954   6.495   4.929   6.039
10019SOL     OW30955   0.530   1.910   3.039
10019SOL    HW130956   0.613   1.859   3.061
10019SOL    HW230957   0.466   1.904   3.116
10020SOL     OW30958   0.519   1.035   1.097
10020SOL    HW130959   0.470   0.980   1.164
10020SOL    HW230960   0.575   1.103   1.144
10021SOL     OW30961   0.956   1.975   2.528
10021SOL    HW130962   1.006   1.908   2.583
10021SOL    HW230963   0.861   1.979   2.558
10022SOL     OW30964   3.924   6.932   0.999
10022SOL    HW130965   3.966   6.858   0.948
10022SOL    HW230966   3.880   6.996   0.936
10023SOL     OW30967   2.178   4.833   5.338
10023SOL    HW130968   2.250   4.812   5.405
10023SOL    HW230969   2.216   4.888   5.264
10024SOL     OW30970   1.632   6.271   1.770
10024SOL    HW130971   1.605   6.256   1.675
10024SOL    HW230972   1.551   6.282   1.827
10025SOL     OW30973   2.265   2.067   1.550
10025SOL    HW130974   2.362   2.049   1.568
10025SOL    HW230975   2.209   1.993   1.586
10026SOL     OW30976   4.426   6.194   3.278
10026SOL    HW130977   4.359   6.193   3.204
10026SOL    HW230978   4.471   6.105   3.284
10027SOL     OW30979   1.093   3.848   4.983
10027SOL    HW130980   1.035   3.914   5.030
10027SOL    HW230981   1.184   3.887   4.971
10028SOL     OW30982   1.188   1.484   2.102
10028SOL    HW130983   1.219   1.534   2.183
10028SOL    HW230984   1.090   1.500   2.089
10029SOL     OW30985   2.529   1.732   4.004
10029SOL    HW130986   2.604   1.727   4.069
10029SOL    HW230987   2.565   1.751   3.913
10030SOL     OW30988   2.114   0.420   4.465
10030SOL    HW130989   2.156   0.341   4.420
10030SOL    HW230990   2.018   0.400   4.485
10031SOL     OW30991   5.777   4.700   4.009
10031SOL    HW130992   5.681   4.677   4.026
10031SOL    HW230993   5.789   4.799   4.015
10032SOL     OW30994   3.742   0.558   5.349
10032SOL    HW130995   3.777   0.614   5.274
10032SOL    HW230996   3.659   0.511   5.319
10033SOL     OW30997   4.149   1.515   4.246
10033SOL    HW130998   4.129   1.582   4.174
10033SOL    HW230999   4.169   1.427   4.203
10034SOL     OW31000   3.712   0.227   4.255
10034SOL    HW131001   3.677   0.208   4.163
10034SOL    HW231002   3.730   0.325   4.264
10035SOL     OW31003   0.021   4.528   2.907
10035SOL    HW131004   0.086   4.475   2.853
10035SOL    HW231005   0.018   4.622   2.874
10036SOL     OW31006   6.075   0.352   1.135
10036SOL    HW131007   6.013   0.292   1.186
10036SOL    HW231008   6.138   0.297   1.080
10037SOL     OW31009   5.636   1.666   1.080
10037SOL    HW131010   5.541   1.697   1.073
10037SOL    HW231011   5.666   1.677   1.175
10038SOL     OW31012   4.368   1.257   6.381
10038SOL    HW131013   4.328   1.185   6.325
10038SOL    HW231014   4.409   1.327   6.322
10039SOL     OW31015   4.067   6.790   5.119
10039SOL    HW131016   4.112   6.759   5.035
10039SOL    HW231017   3.987   6.845   5.096
10040SOL     OW31018   4.341   5.698   6.276
10040SOL    HW131019   4.410   5.724   6.208
10040SOL    HW231020   4.308   5.780   6.323
10041SOL     OW31021   4.231   5.911   6.439
10041SOL    HW131022   4.257   6.008   6.434
10041SOL    HW231023   4.244   5.878   6.532
10042SOL     OW31024   1.302   2.078   4.786
10042SOL    HW131025   1.368   2.109   4.717
10042SOL    HW231026   1.240   2.154   4.808
10043SOL     OW31027   0.310   2.661   4.323
10043SOL    HW131028   0.244   2.736   4.315
10043SOL    HW231029   0.263   2.576   4.342
10044SOL     OW31030   2.551   1.465   4.981
10044SOL    HW131031   2.480   1.507   4.925
10044SOL    HW231032   2.571   1.374   4.946
10045SOL     OW31033   5.180   0.074   3.539
10045SOL    HW131034   5.240   0.012   3.490
10045SOL    HW231035   5.084   0.048   3.523
10046SOL     OW31036   1.897   3.515   1.517
10046SOL    HW131037   1.849   3.596   1.486
10046SOL    HW231038   1.979   3.542   1.567
10047SOL     OW31039   6.577   3.939   5.113
10047SOL    HW131040   6.543   3.917   5.022
10047SOL    HW231041   6.549   3.868   5.178
10048SOL     OW31042   6.031   1.049   2.752
10048SOL    HW131043   5.992   0.994   2.678
10048SOL    HW231044   6.116   1.091   2.721
10049SOL     OW31045   0.014   0.372   6.783
10049SOL    HW131046   0.060   0.417   6.859
10049SOL    HW231047   0.017   0.272   6.795
10050SOL     OW31048   5.845   3.363   4.534
10050SOL    HW131049   5.899   3.421   4.594
10050SOL    HW231050   5.852   3.396   4.440
10051SOL     OW31051   5.166   2.383   4.925
10051SOL    HW131052   5.188   2.460   4.985
10051SOL    HW231053   5.103   2.414   4.853
10052SOL     OW31054   2.392   1.870   2.567
10052SOL    HW131055   2.476   1.923   2.555
10052SOL    HW231056   2.337   1.875   2.484
10053SOL     OW31057   3.068   5.942   2.619
10053SOL    HW131058   3.098   5.847   2.623
10053SOL    HW231059   3.071   5.975   2.525
10054SOL     OW31060   5.294   5.742   6.439
10054SOL    HW131061   5.315   5.801   6.361
10054SOL    HW231062   5.264   5.652   6.406
10055SOL     OW31063   5.726   2.311   4.836
10055SOL    HW131064   5.698   2.393   4.787
10055SOL    HW231065   5.802   2.267   4.788
10056SOL     OW31066   5.444   4.154   3.337
10056SOL    HW131067   5.352   4.192   3.341
10056SOL    HW231068   5.472   4.123   3.428
10057SOL     OW31069   4.105   1.831   5.005
10057SOL    HW131070   4.081   1.928   5.014
10057SOL    HW231071   4.203   1.819   5.021
10058SOL     OW31072   0.459   3.605   4.256
10058SOL    HW131073   0.410   3.518   4.254
10058SOL    HW231074   0.557   3.588   4.265
10059SOL     OW31075   6.278   0.304   1.635
10059SOL    HW131076   6.304   0.230   1.573
10059SOL    HW231077   6.304   0.281   1.728
10060SOL     OW31078   1.474   2.251   1.705
10060SOL    HW131079   1.482   2.173   1.767
10060SOL    HW231080   1.389   2.244   1.652
10061SOL     OW31081   4.340   1.435   3.701
10061SOL    HW131082   4.433   1.459   3.673
10061SOL    HW231083   4.285   1.415   3.620
10062SOL     OW31084   6.054   6.965   4.483
10062SOL    HW131085   5.970   6.971   4.429
10062SOL    HW231086   6.128   7.011   4.434
10063SOL     OW31087   2.496   1.015   3.895
10063SOL    HW131088   2.500   0.940   3.829
10063SOL    HW231089   2.532   1.098   3.854
10064SOL     OW31090   4.870   6.809   0.129
10064SOL    HW131091   4.922   6.724   0.135
10064SOL    HW231092   4.794   6.797   0.065
10065SOL     OW31093   2.355   0.599   2.291
10065SOL    HW131094   2.349   0.552   2.203
10065SOL    HW231095   2.268   0.646   2.309
10066SOL     OW31096   0.508   2.606   4.104
10066SOL    HW131097   0.452   2.643   4.178
10066SOL    HW231098   0.566   2.533   4.140
10067SOL     OW31099   6.934   3.952   5.395
10067SOL    HW131100   6.884   3.874   5.430
10067SOL    HW231101   6.908   3.969   5.300
10068SOL     OW31102   0.492   2.861   3.139
10068SOL    HW131103   0.582   2.859   3.094
10068SOL    HW231104   0.464   2.956   3.153
10069SOL     OW31105   2.350   4.922   2.488
10069SOL    HW131106   2.254   4.915   2.512
10069SOL    HW231107   2.401   4.846   2.529
10070SOL     OW31108   6.737   6.228   4.962
10070SOL    HW131109   6.740   6.128   4.958
10070SOL    HW231110   6.741   6.265   4.869
10071SOL     OW31111   6.024   5.953   4.685
10071SOL    HW131112   5.958   6.024   4.662
10071SOL    HW231113   6.117   5.986   4.666
10072SOL     OW31114   6.936   6.642   3.974
10072SOL    HW131115   7.008   6.579   3.947
10072SOL    HW231116   6.976   6.716   4.029
10073SOL     OW31117   5.863   4.659   5.293
10073SOL    HW131118   5.847   4.740   5.237
10073SOL    HW231119   5.780   4.603   5.295
10074SOL     OW31120   2.094   0.621   5.458
10074SOL    HW131121   2.059   0.563   5.384
10074SOL    HW231122   2.193   0.612   5.463
10075SOL     OW31123   1.865   2.813   2.773
10075SOL    HW131124   1.884   2.910   2.790
10075SOL    HW231125   1.945   2.770   2.731
10076SOL     OW31126   6.402   0.542   4.566
10076SOL    HW131127   6.377   0.619   4.507
10076SOL    HW231128   6.502   0.537   4.574
10077SOL     OW31129   4.004   2.650   6.205
10077SOL    HW131130   4.052   2.737   6.212
10077SOL    HW231131   3.994   2.610   6.297
10078SOL     OW31132   0.471   5.873   3.874
10078SOL    HW131133   0.444   5.866   3.778
10078SOL    HW231134   0.490   5.782   3.910
10079SOL     OW31135   5.669   3.523   4.063
10079SOL    HW131136   5.664   3.580   3.980
10079SOL    HW231137   5.624   3.570   4.138
10080SOL     OW31138   4.585   0.514   5.312
10080SOL    HW131139   4.506   0.476   5.264
10080SOL    HW231140   4.604   0.460   5.393
10081SOL     OW31141   6.701   0.611   0.559
10081SOL    HW131142   6.629   0.664   0.513
10081SOL    HW231143   6.672   0.591   0.653
10082SOL     OW31144   0.409   5.192   1.720
10082SOL    HW131145   0.436   5.287   1.703
10082SOL    HW231146   0.491   5.137   1.737
10083SOL     OW31147   3.547   0.675   3.559
10083SOL    HW131148   3.624   0.676   3.494
10083SOL    HW231149   3.489   0.596   3.540
10084SOL     OW31150   2.271   0.976   5.724
10084SOL    HW131151   2.345   1.016   5.777
10084SOL    HW231152   2.288   0.989   5.627
10085SOL     OW31153   2.302   5.410   0.565
10085SOL    HW131154   2.349   5.365   0.489
10085SOL    HW231155   2.369   5.464   0.617
10086SOL     OW31156   4.762   5.817   2.563
10086SOL    HW131157   4.812   5.844   2.481
10086SOL    HW231158   4.707   5.893   2.595
10087SOL     OW31159   6.844   7.016   4.380
10087SOL    HW131160   6.919   6.967   4.423
10087SOL    HW231161   6.759   6.964   4.390
10088SOL     OW31162   6.510   0.413   2.187
10088SOL    HW131163   6.431   0.474   2.188
10088SOL    HW231164   6.525   0.379   2.094
10089SOL     OW31165   3.035   1.807   3.021
10089SOL    HW131166   3.076   1.717   3.004
10089SOL    HW231167   3.000   1.810   3.115
10090SOL     OW31168   0.896   4.889   1.825
10090SOL    HW131169   0.831   4.825   1.786
10090SOL    HW231170   0.975   4.899   1.765
10091SOL     OW31171   6.918   4.674   6.587
10091SOL    HW131172   6.894   4.607   6.517
10091SOL    HW231173   6.835   4.704   6.634
10092SOL     OW31174   2.161   2.597   5.612
10092SOL    HW131175   2.127   2.673   5.557
10092SOL    HW231176   2.112   2.513   5.587
10093SOL     OW31177   5.895   3.093   5.268
10093SOL    HW131178   5.959   3.091   5.192
10093SOL    HW231179   5.829   3.167   5.255
10094SOL     OW31180   3.372   5.555   1.517
10094SOL    HW131181   3.288   5.531   1.565
10094SOL    HW231182   3.374   5.653   1.500
10095SOL     OW31183   5.896   2.119   5.141
10095SOL    HW131184   5.800   2.145   5.148
10095SOL    HW231185   5.952   2.186   5.190
10096SOL     OW31186   4.457   5.252   2.865
10096SOL    HW131187   4.537   5.221   2.917
10096SOL    HW231188   4.454   5.204   2.777
10097SOL     OW31189   0.824   1.534   0.030
10097SOL    HW131190   0.893   1.528   0.102
10097SOL    HW231191   0.763   1.611   0.049
10098SOL     OW31192   2.870   0.214   5.121
10098SOL    HW131193   2.885   0.291   5.182
10098SOL    HW231194   2.955   0.192   5.073
10099SOL     OW31195   0.524   5.139   1.064
10099SOL    HW131196   0.618   5.171   1.057
10099SOL    HW231197   0.519   5.044   1.032
10100SOL     OW31198   4.680   6.325   5.260
10100SOL    HW131199   4.648   6.239   5.300
10100SOL    HW231200   4.722   6.382   5.331
10101SOL     OW31201   6.179   3.612   2.151
10101SOL    HW131202   6.210   3.518   2.161
10101SOL    HW231203   6.166   3.633   2.054
10102SOL     OW31204   0.091   1.284   2.096
10102SOL    HW131205   0.056   1.301   2.004
10102SOL    HW231206   0.069   1.361   2.155
10103SOL     OW31207   3.435   0.570   5.882
10103SOL    HW131208   3.514   0.628   5.903
10103SOL    HW231209   3.450   0.478   5.919
10104SOL     OW31210   1.791   1.733   4.839
10104SOL    HW131211   1.714   1.793   4.819
10104SOL    HW231212   1.852   1.729   4.759
10105SOL     OW31213   1.602   0.600   6.754
10105SOL    HW131214   1.696   0.621   6.724
10105SOL    HW231215   1.565   0.679   6.803
10106SOL     OW31216   3.893   6.230   0.496
10106SOL    HW131217   3.951   6.311   0.483
10106SOL    HW231218   3.927   6.156   0.437
10107SOL     OW31219   5.734   1.665   5.696
10107SOL    HW131220   5.774   1.663   5.604
10107SOL    HW231221   5.658   1.599   5.701
10108SOL     OW31222   6.406   0.603   0.227
10108SOL    HW131223   6.445   0.694   0.212
10108SOL    HW231224   6.419   0.547   0.145
10109SOL     OW31225   5.744   1.223   0.480
10109SOL    HW131226   5.758   1.291   0.553
10109SOL    HW231227   5.831   1.206   0.434
10110SOL     OW31228   4.516   4.578   4.737
10110SOL    HW131229   4.518   4.508   4.666
10110SOL    HW231230   4.513   4.533   4.827
10111SOL     OW31231   5.947   3.635   3.968
10111SOL    HW131232   5.859   3.670   3.999
10111SOL    HW231233   5.978   3.686   3.888
10112SOL     OW31234   5.785   3.875   3.721
10112SOL    HW131235   5.740   3.810   3.783
10112SOL    HW231236   5.739   3.873   3.632
10113SOL     OW31237   4.485   6.903   6.575
10113SOL    HW131238   4.456   6.973   6.509
10113SOL    HW231239   4.406   6.848   6.602
10114SOL     OW31240   4.401   2.399   1.480
10114SOL    HW131241   4.389   2.483   1.533
10114SOL    HW231242   4.378   2.416   1.384
10115SOL     OW31243   3.790   0.733   5.093
10115SOL    HW131244   3.826   0.686   5.012
10115SOL    HW231245   3.858   0.800   5.125
10116SOL     OW31246   0.616   6.858   0.521
10116SOL    HW131247   0.675   6.919   0.467
10116SOL    HW231248   0.537   6.909   0.554
10117SOL     OW31249   6.973   6.253   6.190
10117SOL    HW131250   6.945   6.340   6.151
10117SOL    HW231251   6.895   6.192   6.197
10118SOL     OW31252   2.278   4.148   3.033
10118SOL    HW131253   2.277   4.127   2.935
10118SOL    HW231254   2.343   4.088   3.079
10119SOL     OW31255   7.007   5.739   4.886
10119SOL    HW131256   6.991   5.772   4.793
10119SOL    HW231257   6.921   5.739   4.936
10120SOL     OW31258   2.195   3.159   4.341
10120SOL    HW131259   2.156   3.121   4.425
10120SOL    HW231260   2.163   3.253   4.329
10121SOL     OW31261   5.860   3.812   6.882
10121SOL    HW131262   5.845   3.829   6.785
10121SOL    HW231263   5.772   3.812   6.930
10122SOL     OW31264   5.600   3.098   2.455
10122SOL    HW131265   5.574   3.096   2.358
10122SOL    HW231266   5.611   3.004   2.488
10123SOL     OW31267   5.752   5.652   0.865
10123SOL    HW131268   5.691   5.620   0.938
10123SOL    HW231269   5.697   5.688   0.790
10124SOL     OW31270   1.402   4.584   0.674
10124SOL    HW131271   1.325   4.633   0.715
10124SOL    HW231272   1.486   4.637   0.686
10125SOL     OW31273   1.588   1.543   1.984
10125SOL    HW131274   1.555   1.631   2.018
10125SOL    HW231275   1.512   1.479   1.975
10126SOL     OW31276   6.612   7.020   0.273
10126SOL    HW131277   6.653   0.035   0.357
10126SOL    HW231278   6.645   6.927   0.258
10127SOL     OW31279   2.648   3.882   7.002
10127SOL    HW131280   2.683   3.790   0.000
10127SOL    HW231281   2.640   3.893   6.903
10128SOL     OW31282   3.185   1.273   6.739
10128SOL    HW131283   3.263   1.232   6.786
10128SOL    HW231284   3.208   1.287   6.642
10129SOL     OW31285   6.252   1.254   2.701
10129SOL    HW131286   6.274   1.222   2.793
10129SOL    HW231287   6.317   1.325   2.674
10130SOL     OW31288   1.142   2.185   0.940
10130SOL    HW131289   1.200   2.135   1.004
10130SOL    HW231290   1.190   2.267   0.909
10131SOL     OW31291   1.961   6.630   4.427
10131SOL    HW131292   2.009   6.574   4.359
10131SOL    HW231293   2.023   6.648   4.504
10132SOL     OW31294   3.164   0.450   3.759
10132SOL    HW131295   3.117   0.456   3.670
10132SOL    HW231296   3.231   0.524   3.766
10133SOL     OW31297   4.207   6.278   0.591
10133SOL    HW131298   4.178   6.350   0.528
10133SOL    HW231299   4.179   6.302   0.684
10134SOL     OW31300   6.273   0.384   2.595
10134SOL    HW131301   6.237   0.449   2.662
10134SOL    HW231302   6.241   0.292   2.618
10135SOL     OW31303   4.892   3.525   3.424
10135SOL    HW131304   4.847   3.442   3.392
10135SOL    HW231305   4.914   3.583   3.346
10136SOL     OW31306   4.927   1.977   2.305
10136SOL    HW131307   4.866   1.900   2.318
10136SOL    HW231308   4.874   2.060   2.287
10137SOL     OW31309   0.292   3.822   4.405
10137SOL    HW131310   0.231   3.840   4.328
10137SOL    HW231311   0.348   3.742   4.385
10138SOL     OW31312   5.591   3.571   0.498
10138SOL    HW131313   5.560   3.517   0.420
10138SOL    HW231314   5.667   3.525   0.543
10139SOL     OW31315   3.084   3.630   3.193
10139SOL    HW131316   3.040   3.685   3.264
10139SOL    HW231317   3.112   3.542   3.232
10140SOL     OW31318   0.168   6.678   0.081
10140SOL    HW131319   0.151   6.624   7.021
10140SOL    HW231320   0.084   6.726   0.107
10141SOL     OW31321   4.225   1.025   5.646
10141SOL    HW131322   4.253   0.969   5.568
10141SOL    HW231323   4.293   1.096   5.663
10142SOL     OW31324   6.484   6.869   5.947
10142SOL    HW131325   6.481   6.810   5.866
10142SOL    HW231326   6.541   6.827   6.017
10143SOL     OW31327   5.483   1.884   0.463
10143SOL    HW131328   5.537   1.816   0.414
10143SOL    HW231329   5.513   1.889   0.558
10144SOL     OW31330   3.951   0.185   6.385
10144SOL    HW131331   3.981   0.092   6.405
10144SOL    HW231332   3.999   0.220   6.305
10145SOL     OW31333   2.804   5.727   2.668
10145SOL    HW131334   2.757   5.782   2.737
10145SOL    HW231335   2.761   5.637   2.662
10146SOL     OW31336   5.007   4.186   5.127
10146SOL    HW131337   4.941   4.112   5.114
10146SOL    HW231338   5.068   4.163   5.203
10147SOL     OW31339   5.113   4.423   6.394
10147SOL    HW131340   5.018   4.449   6.408
10147SOL    HW231341   5.158   4.489   6.334
10148SOL     OW31342   4.667   5.029   6.658
10148SOL    HW131343   4.766   5.030   6.673
10148SOL    HW231344   4.630   4.939   6.680
10149SOL     OW31345   5.420   3.888   1.854
10149SOL    HW131346   5.429   3.791   1.875
10149SOL    HW231347   5.335   3.922   1.893
10150SOL     OW31348   3.715   3.084   1.009
10150SOL    HW131349   3.754   3.171   0.979
10150SOL    HW231350   3.753   3.059   1.098
10151SOL     OW31351   0.815   6.022   0.229
10151SOL    HW131352   0.806   5.941   0.172
10151SOL    HW231353   0.889   6.009   0.295
10152SOL     OW31354   6.703   6.575   3.876
10152SOL    HW131355   6.689   6.494   3.932
10152SOL    HW231356   6.787   6.621   3.904
10153SOL     OW31357   4.276   5.784   3.340
10153SOL    HW131358   4.251   5.758   3.433
10153SOL    HW231359   4.366   5.746   3.317
10154SOL     OW31360   3.791   6.102   4.629
10154SOL    HW131361   3.836   6.022   4.670
10154SOL    HW231362   3.733   6.073   4.553
10155SOL     OW31363   4.307   2.347   6.531
10155SOL    HW131364   4.293   2.434   6.484
10155SOL    HW231365   4.362   2.362   6.613
10156SOL     OW31366   4.909   0.651   2.268
10156SOL    HW131367   4.931   0.727   2.208
10156SOL    HW231368   4.824   0.671   2.318
10157SOL     OW31369   6.867   2.215   0.232
10157SOL    HW131370   6.805   2.156   0.180
10157SOL    HW231371   6.885   2.174   0.321
10158SOL     OW31372   6.607   5.825   0.676
10158SOL    HW131373   6.683   5.863   0.729
10158SOL    HW231374   6.520   5.857   0.715
10159SOL     OW31375   2.955   2.539   1.089
10159SOL    HW131376   2.970   2.607   1.161
10159SOL    HW231377   3.029   2.472   1.092
10160SOL     OW31378   1.390   2.886   2.298
10160SOL    HW131379   1.300   2.929   2.305
10160SOL    HW231380   1.459   2.955   2.277
10161SOL     OW31381   3.627   3.977   0.483
10161SOL    HW131382   3.706   3.917   0.495
10161SOL    HW231383   3.555   3.950   0.547
10162SOL     OW31384   3.783   5.087   0.602
10162SOL    HW131385   3.809   5.171   0.649
10162SOL    HW231386   3.852   5.016   0.620
10163SOL     OW31387   6.650   3.669   0.309
10163SOL    HW131388   6.737   3.661   0.261
10163SOL    HW231389   6.635   3.588   0.366
10164SOL     OW31390   6.189   3.874   5.012
10164SOL    HW131391   6.119   3.862   5.081
10164SOL    HW231392   6.280   3.875   5.055
10165SOL     OW31393   6.592   1.471   3.711
10165SOL    HW131394   6.612   1.568   3.725
10165SOL    HW231395   6.651   1.436   3.638
10166SOL     OW31396   3.297   1.918   1.557
10166SOL    HW131397   3.226   1.925   1.488
10166SOL    HW231398   3.282   1.988   1.628
10167SOL     OW31399   0.925   5.012   0.203
10167SOL    HW131400   0.892   5.024   0.109
10167SOL    HW231401   1.005   4.952   0.202
10168SOL     OW31402   5.913   2.596   6.378
10168SOL    HW131403   5.925   2.636   6.287
10168SOL    HW231404   5.934   2.499   6.375
10169SOL     OW31405   0.274   4.029   3.369
10169SOL    HW131406   0.207   4.099   3.347
10169SOL    HW231407   0.238   3.970   3.441
10170SOL     OW31408   6.839   5.828   6.109
10170SOL    HW131409   6.923   5.792   6.150
10170SOL    HW231410   6.760   5.787   6.153
10171SOL     OW31411   0.783   2.667   5.002
10171SOL    HW131412   0.879   2.651   5.024
10171SOL    HW231413   0.757   2.611   4.923
10172SOL     OW31414   1.113   5.466   4.854
10172SOL    HW131415   1.137   5.532   4.783
10172SOL    HW231416   1.018   5.438   4.842
10173SOL     OW31417   1.857   2.186   0.734
10173SOL    HW131418   1.834   2.098   0.694
10173SOL    HW231419   1.955   2.203   0.725
10174SOL     OW31420   5.331   5.318   3.446
10174SOL    HW131421   5.322   5.357   3.354
10174SOL    HW231422   5.327   5.218   3.441
10175SOL     OW31423   5.197   3.079   2.945
10175SOL    HW131424   5.282   3.028   2.961
10175SOL    HW231425   5.164   3.116   3.032
10176SOL     OW31426   0.318   2.882   5.154
10176SOL    HW131427   0.280   2.838   5.073
10176SOL    HW231428   0.342   2.976   5.133
10177SOL     OW31429   2.130   0.836   1.307
10177SOL    HW131430   2.100   0.885   1.225
10177SOL    HW231431   2.154   0.742   1.283
10178SOL     OW31432   6.909   0.272   0.055
10178SOL    HW131433   6.913   0.372   0.042
10178SOL    HW231434   6.817   0.240   0.034
10179SOL     OW31435   0.407   2.643   6.980
10179SOL    HW131436   0.462   2.561   6.999
10179SOL    HW231437   0.353   2.628   6.898
10180SOL     OW31438   4.266   0.462   6.474
10180SOL    HW131439   4.266   0.561   6.491
10180SOL    HW231440   4.252   0.445   6.377
10181SOL     OW31441   6.710   3.256   1.470
10181SOL    HW131442   6.739   3.246   1.375
10181SOL    HW231443   6.758   3.333   1.512
10182SOL     OW31444   4.400   1.048   0.698
10182SOL    HW131445   4.420   1.048   0.600
10182SOL    HW231446   4.335   0.974   0.718
10183SOL     OW31447   6.279   2.744   5.555
10183SOL    HW131448   6.272   2.759   5.457
10183SOL    HW231449   6.191   2.763   5.599
10184SOL     OW31450   4.507   1.593   6.511
10184SOL    HW131451   4.490   1.535   6.591
10184SOL    HW231452   4.426   1.592   6.451
10185SOL     OW31453   6.042   6.441   3.057
10185SOL    HW131454   5.993   6.527   3.074
10185SOL    HW231455   6.131   6.462   3.015
10186SOL     OW31456   4.927   4.004   4.516
10186SOL    HW131457   4.968   3.913   4.524
10186SOL    HW231458   4.883   4.013   4.427
10187SOL     OW31459   1.306   4.188   6.934
10187SOL    HW131460   1.354   4.230   7.010
10187SOL    HW231461   1.372   4.155   6.866
10188SOL     OW31462   3.731   4.166   6.913
10188SOL    HW131463   3.715   4.177   6.815
10188SOL    HW231464   3.647   4.185   6.964
10189SOL     OW31465   0.018   1.394   6.970
10189SOL    HW131466   0.084   1.339   0.000
10189SOL    HW231467   7.006   1.339   6.894
10190SOL     OW31468   3.820   3.343   0.958
10190SOL    HW131469   3.874   3.359   0.876
10190SOL    HW231470   3.852   3.404   1.031
10191SOL     OW31471   4.647   5.552   6.335
10191SOL    HW131472   4.692   5.477   6.286
10191SOL    HW231473   4.550   5.531   6.346
10192SOL     OW31474   4.252   0.837   5.421
10192SOL    HW131475   4.348   0.816   5.402
10192SOL    HW231476   4.213   0.889   5.344
10193SOL     OW31477   3.707   3.242   2.262
10193SOL    HW131478   3.701   3.342   2.267
10193SOL    HW231479   3.677   3.202   2.349
10194SOL     OW31480   5.120   0.497   5.496
10194SOL    HW131481   5.119   0.399   5.472
10194SOL    HW231482   5.028   0.534   5.488
10195SOL     OW31483   6.848   6.725   0.541
10195SOL    HW131484   6.790   6.772   0.607
10195SOL    HW231485   6.828   6.627   0.542
10196SOL     OW31486   3.534   2.099   4.249
10196SOL    HW131487   3.616   2.115   4.194
10196SOL    HW231488   3.453   2.113   4.193
10197SOL     OW31489   5.614   2.025   4.482
10197SOL    HW131490   5.540   1.963   4.456
10197SOL    HW231491   5.701   1.976   4.478
10198SOL     OW31492   3.475   6.769   2.065
10198SOL    HW131493   3.528   6.711   2.004
10198SOL    HW231494   3.467   6.725   2.154
10199SOL     OW31495   0.950   2.216   0.660
10199SOL    HW131496   0.866   2.264   0.685
10199SOL    HW231497   0.974   2.151   0.731
10200SOL     OW31498   4.734   3.379   5.281
10200SOL    HW131499   4.637   3.364   5.297
10200SOL    HW231500   4.746   3.460   5.223
10201SOL     OW31501   1.136   5.546   0.009
10201SOL    HW131502   1.093   5.631   0.040
10201SOL    HW231503   1.227   5.566   6.996
10202SOL     OW31504   3.036   4.348   0.226
10202SOL    HW131505   3.002   4.434   0.263
10202SOL    HW231506   3.023   4.275   0.294
10203SOL     OW31507   6.554   2.952   2.013
10203SOL    HW131508   6.627   2.932   1.948
10203SOL    HW231509   6.562   3.047   2.043
10204SOL     OW31510   4.049   5.269   6.515
10204SOL    HW131511   3.950   5.279   6.500
10204SOL    HW231512   4.081   5.342   6.575
10205SOL     OW31513   2.750   0.757   2.024
10205SOL    HW131514   2.846   0.730   2.020
10205SOL    HW231515   2.693   0.683   1.989
10206SOL     OW31516   6.698   0.182   6.422
10206SOL    HW131517   6.694   0.275   6.385
10206SOL    HW231518   6.606   0.143   6.423
10207SOL     OW31519   1.281   1.866   0.171
10207SOL    HW131520   1.238   1.867   0.261
10207SOL    HW231521   1.215   1.833   0.103
10208SOL     OW31522   6.620   5.574   3.661
10208SOL    HW131523   6.665   5.601   3.747
10208SOL    HW231524   6.589   5.479   3.668
10209SOL     OW31525   7.009   6.776   6.485
10209SOL    HW131526   0.070   6.828   6.506
10209SOL    HW231527   6.948   6.832   6.429
10210SOL     OW31528   5.068   6.231   0.690
10210SOL    HW131529   5.117   6.243   0.776
10210SOL    HW231530   4.986   6.288   0.689
10211SOL     OW31531   4.251   6.445   4.837
10211SOL    HW131532   4.325   6.435   4.770
10211SOL    HW231533   4.245   6.363   4.892
10212SOL     OW31534   6.998   6.564   5.593
10212SOL    HW131535   6.913   6.577   5.542
10212SOL    HW231536   0.053   6.583   5.533
10213SOL     OW31537   5.373   3.325   2.230
10213SOL    HW131538   5.343   3.278   2.147
10213SOL    HW231539   5.321   3.290   2.308
10214SOL     OW31540   0.844   1.712   1.434
10214SOL    HW131541   0.858   1.763   1.519
10214SOL    HW231542   0.928   1.665   1.409
10215SOL     OW31543   3.400   2.906   3.711
10215SOL    HW131544   3.316   2.934   3.759
10215SOL    HW231545   3.459   2.857   3.775
10216SOL     OW31546   0.880   1.006   0.801
10216SOL    HW131547   0.888   1.096   0.760
10216SOL    HW231548   0.857   1.016   0.898
10217SOL     OW31549   1.918   2.483   3.725
10217SOL    HW131550   1.882   2.443   3.641
10217SOL    HW231551   1.875   2.571   3.742
10218SOL     OW31552   1.539   0.799   1.681
10218SOL    HW131553   1.606   0.872   1.668
10218SOL    HW231554   1.476   0.825   1.754
10219SOL     OW31555   0.326   2.233   2.602
10219SOL    HW131556   0.352   2.153   2.547
10219SOL    HW231557   0.351   2.217   2.697
10220SOL     OW31558   3.994   1.431   1.645
10220SOL    HW131559   4.087   1.399   1.626
10220SOL    HW231560   3.999   1.513   1.703
10221SOL     OW31561   1.895   3.534   4.602
10221SOL    HW131562   1.994   3.529   4.615
10221SOL    HW231563   1.861   3.445   4.570
10222SOL     OW31564   2.629   3.791   5.651
10222SOL    HW131565   2.634   3.783   5.551
10222SOL    HW231566   2.545   3.748   5.684
10223SOL     OW31567   2.585   5.028   0.313
10223SOL    HW131568   2.619   4.987   0.398
10223SOL    HW231569   2.659   5.032   0.246
10224SOL     OW31570   6.455   1.991   5.578
10224SOL    HW131571   6.423   1.902   5.548
10224SOL    HW231572   6.381   2.039   5.626
10225SOL     OW31573   2.199   5.776   6.395
10225SOL    HW131574   2.265   5.820   6.334
10225SOL    HW231575   2.216   5.677   6.397
10226SOL     OW31576   1.995   0.607   6.204
10226SOL    HW131577   2.043   0.524   6.174
10226SOL    HW231578   1.915   0.621   6.146
10227SOL     OW31579   4.821   4.434   0.590
10227SOL    HW131580   4.767   4.476   0.663
10227SOL    HW231581   4.798   4.477   0.502
10228SOL     OW31582   1.429   5.790   1.993
10228SOL    HW131583   1.454   5.797   2.090
10228SOL    HW231584   1.380   5.705   1.977
10229SOL     OW31585   1.845   2.084   4.200
10229SOL    HW131586   1.825   2.036   4.286
10229SOL    HW231587   1.902   2.026   4.142
10230SOL     OW31588   6.423   6.883   3.331
10230SOL    HW131589   6.502   6.837   3.290
10230SOL    HW231590   6.396   6.959   3.272
10231SOL     OW31591   6.175   5.281   5.674
10231SOL    HW131592   6.170   5.181   5.679
10231SOL    HW231593   6.249   5.314   5.733
10232SOL     OW31594   2.766   1.967   4.358
10232SOL    HW131595   2.837   1.974   4.288
10232SOL    HW231596   2.808   1.953   4.448
10233SOL     OW31597   4.463   3.775   5.813
10233SOL    HW131598   4.503   3.862   5.844
10233SOL    HW231599   4.523   3.700   5.839
10234SOL     OW31600   6.325   0.521   6.787
10234SOL    HW131601   6.264   0.453   6.745
10234SOL    HW231602   6.301   0.612   6.754
10235SOL     OW31603   3.419   2.248   0.433
10235SOL    HW131604   3.468   2.335   0.429
10235SOL    HW231605   3.434   2.198   0.348
10236SOL     OW31606   1.713   1.019   1.648
10236SOL    HW131607   1.799   0.993   1.605
10236SOL    HW231608   1.720   1.113   1.682
10237SOL     OW31609   0.153   4.141   6.772
10237SOL    HW131610   0.093   4.140   6.852
10237SOL    HW231611   0.097   4.158   6.690
10238SOL     OW31612   3.963   3.982   2.351
10238SOL    HW131613   4.037   4.050   2.354
10238SOL    HW231614   3.876   4.026   2.372
10239SOL     OW31615   2.247   3.567   5.531
10239SOL    HW131616   2.323   3.583   5.468
10239SOL    HW231617   2.273   3.497   5.598
10240SOL     OW31618   1.958   4.455   2.751
10240SOL    HW131619   1.931   4.407   2.668
10240SOL    HW231620   2.004   4.392   2.813
10241SOL     OW31621   6.652   6.589   2.836
10241SOL    HW131622   6.595   6.514   2.804
10241SOL    HW231623   6.624   6.615   2.929
10242SOL     OW31624   0.403   1.378   1.340
10242SOL    HW131625   0.370   1.355   1.248
10242SOL    HW231626   0.366   1.466   1.367
10243SOL     OW31627   2.132   4.599   1.849
10243SOL    HW131628   2.160   4.657   1.925
10243SOL    HW231629   2.048   4.550   1.873
10244SOL     OW31630   1.554   4.497   0.332
10244SOL    HW131631   1.645   4.537   0.321
10244SOL    HW231632   1.534   4.439   0.253
10245SOL     OW31633   3.318   5.052   0.420
10245SOL    HW131634   3.307   4.998   0.503
10245SOL    HW231635   3.414   5.078   0.410
10246SOL     OW31636   3.471   3.578   3.193
10246SOL    HW131637   3.412   3.638   3.139
10246SOL    HW231638   3.560   3.568   3.148
10247SOL     OW31639   6.700   4.504   5.959
10247SOL    HW131640   6.716   4.436   6.030
10247SOL    HW231641   6.725   4.595   5.993
10248SOL     OW31642   1.748   7.006   3.138
10248SOL    HW131643   1.743   6.909   3.163
10248SOL    HW231644   1.801   7.015   3.054
10249SOL     OW31645   2.548   6.924   6.745
10249SOL    HW131646   2.527   6.835   6.705
10249SOL    HW231647   2.593   6.911   6.833
10250SOL     OW31648   6.106   3.409   1.808
10250SOL    HW131649   6.019   3.365   1.831
10250SOL    HW231650   6.174   3.339   1.786
10251SOL     OW31651   2.329   1.381   4.715
10251SOL    HW131652   2.396   1.446   4.749
10251SOL    HW231653   2.316   1.307   4.781
10252SOL     OW31654   4.017   4.893   6.943
10252SOL    HW131655   4.005   4.795   6.925
10252SOL    HW231656   4.019   4.909   0.019
10253SOL     OW31657   2.825   6.758   0.666
10253SOL    HW131658   2.858   6.754   0.572
10253SOL    HW231659   2.815   6.665   0.703
10254SOL     OW31660   5.218   0.776   5.307
10254SOL    HW131661   5.217   0.765   5.207
10254SOL    HW231662   5.256   0.692   5.348
10255SOL     OW31663   1.690   6.478   1.039
10255SOL    HW131664   1.597   6.476   1.076
10255SOL    HW231665   1.706   6.566   0.995
10256SOL     OW31666   5.752   1.072   1.899
10256SOL    HW131667   5.815   1.062   1.976
10256SOL    HW231668   5.699   1.156   1.911
10257SOL     OW31669   2.244   4.877   4.775
10257SOL    HW131670   2.261   4.843   4.683
10257SOL    HW231671   2.266   4.805   4.842
10258SOL     OW31672   3.430   0.866   3.945
10258SOL    HW131673   3.368   0.910   4.010
10258SOL    HW231674   3.520   0.856   3.986
10259SOL     OW31675   0.919   4.638   3.162
10259SOL    HW131676   0.829   4.650   3.119
10259SOL    HW231677   0.907   4.621   3.260
10260SOL     OW31678   0.952   1.066   3.955
10260SOL    HW131679   0.858   1.046   3.983
10260SOL    HW231680   0.987   1.143   4.008
10261SOL     OW31681   0.261   5.507   3.248
10261SOL    HW131682   0.272   5.543   3.155
10261SOL    HW231683   0.240   5.410   3.244
10262SOL     OW31684   2.104   6.935   5.303
10262SOL    HW131685   2.180   6.919   5.240
10262SOL    HW231686   2.029   6.979   5.254
10263SOL     OW31687   5.241   0.789   6.889
10263SOL    HW131688   5.287   0.877   6.903
10263SOL    HW231689   5.308   0.715   6.896
10264SOL     OW31690   5.736   0.950   6.786
10264SOL    HW131691   5.674   0.885   6.829
10264SOL    HW231692   5.692   0.989   6.704
10265SOL     OW31693   2.251   2.264   2.158
10265SOL    HW131694   2.323   2.272   2.089
10265SOL    HW231695   2.266   2.333   2.229
10266SOL     OW31696   3.738   3.199   3.890
10266SOL    HW131697   3.835   3.176   3.896
10266SOL    HW231698   3.724   3.293   3.921
10267SOL     OW31699   6.006   2.368   6.797
10267SOL    HW131700   6.086   2.351   6.855
10267SOL    HW231701   5.928   2.393   6.855
10268SOL     OW31702   5.926   5.891   2.392
10268SOL    HW131703   6.022   5.865   2.395
10268SOL    HW231704   5.893   5.890   2.298
10269SOL     OW31705   0.691   3.202   0.021
10269SOL    HW131706   0.748   3.212   6.962
10269SOL    HW231707   0.613   3.263   0.015
10270SOL     OW31708   3.665   4.989   2.841
10270SOL    HW131709   3.687   4.938   2.758
10270SOL    HW231710   3.745   5.041   2.870
10271SOL     OW31711   3.452   2.506   5.650
10271SOL    HW131712   3.370   2.550   5.613
10271SOL    HW231713   3.439   2.407   5.652
10272SOL     OW31714   0.959   1.248   4.569
10272SOL    HW131715   1.033   1.187   4.595
10272SOL    HW231716   0.877   1.194   4.549
10273SOL     OW31717   2.818   6.024   2.711
10273SOL    HW131718   2.852   6.116   2.731
10273SOL    HW231719   2.885   5.976   2.654
10274SOL     OW31720   7.013   5.664   4.476
10274SOL    HW131721   0.076   5.613   4.465
10274SOL    HW231722   6.964   5.667   4.388
10275SOL     OW31723   0.275   6.806   1.653
10275SOL    HW131724   0.248   6.890   1.606
10275SOL    HW231725   0.374   6.808   1.669
10276SOL     OW31726   5.856   5.190   5.199
10276SOL    HW131727   5.762   5.189   5.234
10276SOL    HW231728   5.899   5.278   5.222
10277SOL     OW31729   2.036   4.819   3.651
10277SOL    HW131730   2.095   4.878   3.596
10277SOL    HW231731   1.990   4.753   3.591
10278SOL     OW31732   0.028   1.594   4.645
10278SOL    HW131733   6.970   1.538   4.626
10278SOL    HW231734   0.069   1.566   4.732
10279SOL     OW31735   2.923   4.926   3.802
10279SOL    HW131736   2.865   4.948   3.881
10279SOL    HW231737   3.015   4.903   3.834
10280SOL     OW31738   0.072   2.929   0.875
10280SOL    HW131739   0.161   2.882   0.879
10280SOL    HW231740   0.076   3.011   0.931
10281SOL     OW31741   6.057   1.706   2.633
10281SOL    HW131742   6.120   1.718   2.556
10281SOL    HW231743   6.026   1.611   2.636
10282SOL     OW31744   5.135   4.265   4.666
10282SOL    HW131745   5.154   4.167   4.671
10282SOL    HW231746   5.165   4.300   4.577
10283SOL     OW31747   1.201   3.147   0.380
10283SOL    HW131748   1.206   3.048   0.398
10283SOL    HW231749   1.142   3.164   0.301
10284SOL     OW31750   4.920   3.069   4.994
10284SOL    HW131751   4.974   2.986   4.985
10284SOL    HW231752   4.909   3.091   5.091
10285SOL     OW31753   5.561   0.519   2.365
10285SOL    HW131754   5.472   0.481   2.390
10285SOL    HW231755   5.569   0.612   2.399
10286SOL     OW31756   3.176   1.756   4.146
10286SOL    HW131757   3.169   1.757   4.246
10286SOL    HW231758   3.259   1.804   4.118
10287SOL     OW31759   1.888   0.114   1.193
10287SOL    HW131760   1.840   0.134   1.279
10287SOL    HW231761   1.934   0.026   1.200
10288SOL     OW31762   4.706   6.900   3.572
10288SOL    HW131763   4.617   6.943   3.553
10288SOL    HW231764   4.698   6.801   3.561
10289SOL     OW31765   1.585   6.349   1.367
10289SOL    HW131766   1.519   6.390   1.303
10289SOL    HW231767   1.537   6.316   1.448
10290SOL     OW31768   3.564   3.887   2.258
10290SOL    HW131769   3.496   3.937   2.204
10290SOL    HW231770   3.523   3.857   2.344
10291SOL     OW31771   3.883   1.477   2.737
10291SOL    HW131772   3.900   1.544   2.665
10291SOL    HW231773   3.807   1.509   2.794
10292SOL     OW31774   1.454   0.717   5.199
10292SOL    HW131775   1.464   0.771   5.116
10292SOL    HW231776   1.396   0.638   5.181
10293SOL     OW31777   2.136   4.057   3.505
10293SOL    HW131778   2.110   4.098   3.418
10293SOL    HW231779   2.114   3.960   3.505
10294SOL     OW31780   5.416   2.888   2.959
10294SOL    HW131781   5.362   2.826   2.902
10294SOL    HW231782   5.397   2.870   3.055
10295SOL     OW31783   6.103   5.005   6.134
10295SOL    HW131784   6.199   5.005   6.108
10295SOL    HW231785   6.091   4.954   6.219
10296SOL     OW31786   4.718   2.003   0.697
10296SOL    HW131787   4.744   1.938   0.768
10296SOL    HW231788   4.799   2.052   0.665
10297SOL     OW31789   2.108   6.561   6.367
10297SOL    HW131790   2.053   6.508   6.303
10297SOL    HW231791   2.049   6.620   6.422
10298SOL     OW31792   2.933   4.459   1.296
10298SOL    HW131793   2.982   4.374   1.276
10298SOL    HW231794   2.885   4.450   1.384
10299SOL     OW31795   4.893   5.222   3.210
10299SOL    HW131796   4.916   5.269   3.296
10299SOL    HW231797   4.943   5.265   3.135
10300SOL     OW31798   1.105   3.897   3.586
10300SOL    HW131799   1.130   3.819   3.643
10300SOL    HW231800   1.011   3.885   3.552
10301SOL     OW31801   5.459   2.751   4.414
10301SOL    HW131802   5.465   2.831   4.354
10301SOL    HW231803   5.432   2.671   4.361
10302SOL     OW31804   2.661   6.428   4.112
10302SOL    HW131805   2.679   6.520   4.147
10302SOL    HW231806   2.746   6.388   4.078
10303SOL     OW31807   1.931   6.125   2.326
10303SOL    HW131808   1.984   6.093   2.404
10303SOL    HW231809   1.961   6.217   2.301
10304SOL     OW31810   5.597   6.741   1.874
10304SOL    HW131811   5.680   6.765   1.925
10304SOL    HW231812   5.563   6.821   1.825
10305SOL     OW31813   0.838   4.401   6.927
10305SOL    HW131814   0.933   4.401   6.897
10305SOL    HW231815   0.791   4.321   6.889
10306SOL     OW31816   4.887   7.003   6.299
10306SOL    HW131817   4.857   6.908   6.289
10306SOL    HW231818   4.824   0.040   6.249
10307SOL     OW31819   2.865   2.090   5.311
10307SOL    HW131820   2.926   2.083   5.232
10307SOL    HW231821   2.821   2.180   5.312
10308SOL     OW31822   2.516   4.943   3.576
10308SOL    HW131823   2.505   4.959   3.674
10308SOL    HW231824   2.606   4.978   3.547
10309SOL     OW31825   6.959   1.661   5.062
10309SOL    HW131826   7.020   1.659   4.984
10309SOL    HW231827   7.006   1.702   5.140
10310SOL     OW31828   3.344   4.034   1.603
10310SOL    HW131829   3.313   3.969   1.672
10310SOL    HW231830   3.315   4.126   1.630
10311SOL     OW31831   0.721   6.355   0.456
10311SOL    HW131832   0.693   6.451   0.458
10311SOL    HW231833   0.695   6.314   0.368
10312SOL     OW31834   3.104   6.123   2.359
10312SOL    HW131835   3.120   6.203   2.301
10312SOL    HW231836   3.065   6.049   2.305
10313SOL     OW31837   4.925   6.708   1.478
10313SOL    HW131838   4.858   6.640   1.509
10313SOL    HW231839   4.882   6.772   1.415
10314SOL     OW31840   6.479   0.642   1.903
10314SOL    HW131841   6.409   0.642   1.974
10314SOL    HW231842   6.529   0.729   1.905
10315SOL     OW31843   5.463   6.140   4.650
10315SOL    HW131844   5.501   6.226   4.683
10315SOL    HW231845   5.445   6.147   4.552
10316SOL     OW31846   6.694   2.948   4.504
10316SOL    HW131847   6.615   2.885   4.503
10316SOL    HW231848   6.768   2.907   4.559
10317SOL     OW31849   3.817   5.514   4.949
10317SOL    HW131850   3.819   5.513   4.849
10317SOL    HW231851   3.806   5.421   4.984
10318SOL     OW31852   5.222   5.800   5.970
10318SOL    HW131853   5.273   5.842   6.045
10318SOL    HW231854   5.205   5.704   5.991
10319SOL     OW31855   1.640   2.230   5.715
10319SOL    HW131856   1.734   2.263   5.706
10319SOL    HW231857   1.581   2.306   5.742
10320SOL     OW31858   0.365   0.443   3.224
10320SOL    HW131859   0.350   0.541   3.237
10320SOL    HW231860   0.427   0.409   3.295
10321SOL     OW31861   3.872   0.986   2.584
10321SOL    HW131862   3.830   0.970   2.673
10321SOL    HW231863   3.972   0.979   2.593
10322SOL     OW31864   6.488   5.871   6.382
10322SOL    HW131865   6.400   5.822   6.380
10322SOL    HW231866   6.477   5.957   6.432
10323SOL     OW31867   6.242   4.025   5.878
10323SOL    HW131868   6.245   4.015   5.779
10323SOL    HW231869   6.194   4.109   5.902
10324SOL     OW31870   3.211   3.084   2.595
10324SOL    HW131871   3.208   3.033   2.509
10324SOL    HW231872   3.182   3.024   2.670
10325SOL     OW31873   0.129   3.715   2.962
10325SOL    HW131874   0.118   3.758   2.872
10325SOL    HW231875   0.046   3.665   2.985
10326SOL     OW31876   4.135   3.689   0.391
10326SOL    HW131877   4.120   3.710   0.295
10326SOL    HW231878   4.231   3.664   0.405
10327SOL     OW31879   2.682   2.507   1.782
10327SOL    HW131880   2.780   2.502   1.802
10327SOL    HW231881   2.641   2.416   1.791
10328SOL     OW31882   6.049   2.413   1.450
10328SOL    HW131883   5.997   2.488   1.492
10328SOL    HW231884   6.119   2.382   1.514
10329SOL     OW31885   3.330   0.453   3.418
10329SOL    HW131886   3.363   0.526   3.358
10329SOL    HW231887   3.230   0.453   3.418
10330SOL     OW31888   4.256   6.804   2.170
10330SOL    HW131889   4.181   6.816   2.235
10330SOL    HW231890   4.342   6.831   2.213
10331SOL     OW31891   6.869   1.387   4.653
10331SOL    HW131892   6.876   1.347   4.744
10331SOL    HW231893   6.907   1.323   4.586
10332SOL     OW31894   6.032   0.761   1.007
10332SOL    HW131895   5.995   0.773   1.099
10332SOL    HW231896   6.032   0.664   0.983
10333SOL     OW31897   6.446   4.487   4.871
10333SOL    HW131898   6.361   4.506   4.921
10333SOL    HW231899   6.463   4.389   4.872
10334SOL     OW31900   3.888   6.191   3.662
10334SOL    HW131901   3.931   6.122   3.606
10334SOL    HW231902   3.836   6.255   3.604
10335SOL     OW31903   2.870   4.076   6.648
10335SOL    HW131904   2.876   4.106   6.553
10335SOL    HW231905   2.961   4.072   6.688
10336SOL     OW31906   5.844   0.047   2.930
10336SOL    HW131907   5.827   0.145   2.922
10336SOL    HW231908   5.890   0.014   2.847
10337SOL     OW31909   0.012   6.361   5.832
10337SOL    HW131910   6.961   6.401   5.776
10337SOL    HW231911   0.033   6.270   5.797
10338SOL     OW31912   2.196   6.168   1.601
10338SOL    HW131913   2.122   6.206   1.546
10338SOL    HW231914   2.272   6.233   1.604
10339SOL     OW31915   2.971   5.311   0.153
10339SOL    HW131916   3.005   5.257   0.230
10339SOL    HW231917   3.035   5.304   0.076
10340SOL     OW31918   1.059   5.495   0.961
10340SOL    HW131919   1.107   5.540   1.036
10340SOL    HW231920   0.972   5.541   0.945
10341SOL     OW31921   2.005   3.697   1.913
10341SOL    HW131922   2.088   3.642   1.920
10341SOL    HW231923   1.928   3.647   1.953
10342SOL     OW31924   1.055   6.801   4.949
10342SOL    HW131925   1.036   6.744   4.869
10342SOL    HW231926   1.097   6.746   5.020
10343SOL     OW31927   2.948   4.937   0.270
10343SOL    HW131928   2.888   4.998   0.217
10343SOL    HW231929   3.039   4.937   0.230
10344SOL     OW31930   4.043   4.532   1.607
10344SOL    HW131931   4.113   4.595   1.641
10344SOL    HW231932   3.953   4.561   1.641
10345SOL     OW31933   1.818   1.162   6.669
10345SOL    HW131934   1.726   1.201   6.664
10345SOL    HW231935   1.885   1.235   6.681
10346SOL     OW31936   5.972   0.153   1.504
10346SOL    HW131937   5.904   0.102   1.556
10346SOL    HW231938   5.929   0.197   1.426
10347SOL     OW31939   5.393   2.354   2.602
10347SOL    HW131940   5.484   2.312   2.599
10347SOL    HW231941   5.400   2.451   2.579
10348SOL     OW31942   6.359   1.345   0.361
10348SOL    HW131943   6.422   1.386   0.427
10348SOL    HW231944   6.395   1.357   0.269
10349SOL     OW31945   6.575   1.231   1.758
10349SOL    HW131946   6.573   1.328   1.780
10349SOL    HW231947   6.584   1.219   1.659
10350SOL     OW31948   2.390   6.024   5.619
10350SOL    HW131949   2.342   5.947   5.577
10350SOL    HW231950   2.344   6.109   5.594
10351SOL     OW31951   4.470   5.240   6.264
10351SOL    HW131952   4.407   5.289   6.324
10351SOL    HW231953   4.421   5.208   6.183
10352SOL     OW31954   4.899   2.252   0.184
10352SOL    HW131955   4.836   2.180   0.214
10352SOL    HW231956   4.936   2.228   0.094
10353SOL     OW31957   6.339   2.483   5.653
10353SOL    HW131958   6.329   2.408   5.587
10353SOL    HW231959   6.294   2.565   5.617
10354SOL     OW31960   6.118   2.102   2.031
10354SOL    HW131961   6.044   2.135   1.972
10354SOL    HW231962   6.132   2.005   2.015
10355SOL     OW31963   1.897   0.490   2.107
10355SOL    HW131964   1.869   0.410   2.053
10355SOL    HW231965   1.852   0.571   2.071
10356SOL     OW31966   6.697   4.245   5.736
10356SOL    HW131967   6.792   4.272   5.722
10356SOL    HW231968   6.676   4.247   5.833
10357SOL     OW31969   2.958   2.876   6.534
10357SOL    HW131970   2.860   2.861   6.530
10357SOL    HW231971   2.995   2.880   6.441
10358SOL     OW31972   6.078   3.505   3.695
10358SOL    HW131973   6.177   3.493   3.701
10358SOL    HW231974   6.056   3.602   3.702
10359SOL     OW31975   6.076   1.251   1.742
10359SOL    HW131976   6.002   1.214   1.686
10359SOL    HW231977   6.162   1.206   1.716
10360SOL     OW31978   4.693   5.459   1.485
10360SOL    HW131979   4.752   5.533   1.518
10360SOL    HW231980   4.619   5.444   1.550
10361SOL     OW31981   2.940   1.196   2.881
10361SOL    HW131982   3.029   1.227   2.848
10361SOL    HW231983   2.908   1.120   2.824
10362SOL     OW31984   0.457   5.596   3.943
10362SOL    HW131985   0.366   5.554   3.939
10362SOL    HW231986   0.490   5.595   4.037
10363SOL     OW31987   4.558   2.736   0.783
10363SOL    HW131988   4.631   2.669   0.794
10363SOL    HW231989   4.588   2.824   0.820
10364SOL     OW31990   3.416   3.692   1.891
10364SOL    HW131991   3.487   3.632   1.927
10364SOL    HW231992   3.459   3.772   1.848
10365SOL     OW31993   4.907   4.453   5.622
10365SOL    HW131994   4.949   4.527   5.675
10365SOL    HW231995   4.864   4.388   5.685
10366SOL     OW31996   4.011   0.233   4.345
10366SOL    HW131997   3.919   0.215   4.311
10366SOL    HW231998   4.030   0.174   4.424
10367SOL     OW31999   6.800   1.927   2.220
10367SOL    HW132000   6.834   1.836   2.196
10367SOL    HW232001   6.877   1.989   2.234
10368SOL     OW32002   2.357   0.901   2.525
10368SOL    HW132003   2.366   0.830   2.594
10368SOL    HW232004   2.278   0.879   2.466
10369SOL     OW32005   3.081   1.287   5.496
10369SOL    HW132006   3.025   1.348   5.440
10369SOL    HW232007   3.162   1.258   5.445
10370SOL     OW32008   5.597   1.338   5.117
10370SOL    HW132009   5.525   1.271   5.098
10370SOL    HW232010   5.594   1.363   5.214
10371SOL     OW32011   2.357   5.905   4.685
10371SOL    HW132012   2.309   5.932   4.768
10371SOL    HW232013   2.453   5.889   4.706
10372SOL     OW32014   1.705   0.874   0.071
10372SOL    HW132015   1.799   0.855   0.100
10372SOL    HW232016   1.682   0.815   7.016
10373SOL     OW32017   1.791   6.406   5.214
10373SOL    HW132018   1.796   6.340   5.289
10373SOL    HW232019   1.702   6.452   5.217
10374SOL     OW32020   2.860   1.123   3.384
10374SOL    HW132021   2.866   1.222   3.397
10374SOL    HW232022   2.766   1.098   3.358
10375SOL     OW32023   2.475   2.021   6.238
10375SOL    HW132024   2.519   2.025   6.149
10375SOL    HW232025   2.380   2.052   6.230
10376SOL     OW32026   1.232   5.739   3.526
10376SOL    HW132027   1.208   5.814   3.588
10376SOL    HW232028   1.191   5.654   3.559
10377SOL     OW32029   6.201   1.051   3.417
10377SOL    HW132030   6.282   1.009   3.377
10377SOL    HW232031   6.119   1.007   3.380
10378SOL     OW32032   5.580   6.738   5.304
10378SOL    HW132033   5.669   6.767   5.339
10378SOL    HW232034   5.590   6.707   5.210
10379SOL     OW32035   3.517   6.625   4.035
10379SOL    HW132036   3.520   6.660   4.129
10379SOL    HW232037   3.457   6.684   3.980
10380SOL     OW32038   0.680   2.213   5.114
10380SOL    HW132039   0.657   2.310   5.113
10380SOL    HW232040   0.707   2.184   5.023
10381SOL     OW32041   3.952   4.919   0.736
10381SOL    HW132042   3.872   4.864   0.759
10381SOL    HW232043   4.030   4.859   0.715
10382SOL     OW32044   2.046   4.767   1.262
10382SOL    HW132045   2.084   4.856   1.236
10382SOL    HW232046   1.954   4.779   1.298
10383SOL     OW32047   0.667   4.122   1.168
10383SOL    HW132048   0.576   4.081   1.162
10383SOL    HW232049   0.697   4.123   1.263
10384SOL     OW32050   6.930   0.433   1.101
10384SOL    HW132051   6.990   0.472   1.171
10384SOL    HW232052   6.982   0.367   1.047
10385SOL     OW32053   4.003   6.346   5.611
10385SOL    HW132054   3.966   6.260   5.646
10385SOL    HW232055   4.103   6.341   5.608
10386SOL     OW32056   6.556   1.774   5.249
10386SOL    HW132057   6.470   1.808   5.287
10386SOL    HW232058   6.548   1.676   5.231
10387SOL     OW32059   4.760   1.770   2.297
10387SOL    HW132060   4.677   1.761   2.353
10387SOL    HW232061   4.816   1.688   2.308
10388SOL     OW32062   2.123   5.568   2.265
10388SOL    HW132063   2.200   5.505   2.252
10388SOL    HW232064   2.078   5.583   2.177
10389SOL     OW32065   6.940   6.457   1.424
10389SOL    HW132066   0.017   6.469   1.428
10389SOL    HW232067   6.911   6.449   1.329
10390SOL     OW32068   1.864   2.453   1.197
10390SOL    HW132069   1.862   2.402   1.283
10390SOL    HW232070   1.897   2.546   1.215
10391SOL     OW32071   0.224   6.523   4.151
10391SOL    HW132072   0.289   6.578   4.099
10391SOL    HW232073   0.185   6.454   4.091
10392SOL     OW32074   6.733   4.291   6.105
10392SOL    HW132075   6.768   4.301   6.198
10392SOL    HW232076   6.667   4.216   6.102
10393SOL     OW32077   2.535   2.455   2.817
10393SOL    HW132078   2.501   2.536   2.770
10393SOL    HW232079   2.509   2.459   2.913
10394SOL     OW32080   2.252   5.974   4.929
10394SOL    HW132081   2.345   5.967   4.965
10394SOL    HW232082   2.198   5.895   4.959
10395SOL     OW32083   6.786   0.945   3.519
10395SOL    HW132084   6.754   0.940   3.614
10395SOL    HW232085   6.858   0.878   3.505
10396SOL     OW32086   3.393   1.227   3.994
10396SOL    HW132087   3.335   1.186   3.924
10396SOL    HW232088   3.489   1.214   3.971
10397SOL     OW32089   2.797   1.635   4.656
10397SOL    HW132090   2.875   1.598   4.705
10397SOL    HW232091   2.819   1.643   4.559
10398SOL     OW32092   4.980   2.110   0.686
10398SOL    HW132093   4.971   2.183   0.618
10398SOL    HW232094   4.973   2.150   0.778
10399SOL     OW32095   4.258   1.573   4.495
10399SOL    HW132096   4.220   1.556   4.404
10399SOL    HW232097   4.183   1.583   4.560
10400SOL     OW32098   4.014   5.751   0.318
10400SOL    HW132099   3.959   5.668   0.306
10400SOL    HW232100   4.110   5.730   0.298
10401SOL     OW32101   6.915   0.042   2.221
10401SOL    HW132102   6.816   0.059   2.220
10401SOL    HW232103   6.956   0.088   2.300
10402SOL     OW32104   0.180   2.064   6.172
10402SOL    HW132105   0.237   2.143   6.152
10402SOL    HW232106   0.127   2.080   6.256
10403SOL     OW32107   4.264   1.447   2.978
10403SOL    HW132108   4.214   1.501   2.910
10403SOL    HW232109   4.299   1.508   3.050
10404SOL     OW32110   6.715   0.254   4.408
10404SOL    HW132111   6.751   0.169   4.369
10404SOL    HW232112   6.668   0.234   4.494
10405SOL     OW32113   1.492   5.690   4.880
10405SOL    HW132114   1.572   5.749   4.894
10405SOL    HW232115   1.485   5.666   4.784
10406SOL     OW32116   2.167   3.277   5.398
10406SOL    HW132117   2.197   3.361   5.351
10406SOL    HW232118   2.087   3.297   5.453
10407SOL     OW32119   2.313   0.486   6.489
10407SOL    HW132120   2.227   0.441   6.465
10407SOL    HW232121   2.295   0.573   6.534
10408SOL     OW32122   4.426   6.118   1.956
10408SOL    HW132123   4.389   6.073   2.038
10408SOL    HW232124   4.351   6.164   1.908
10409SOL     OW32125   0.746   3.761   0.767
10409SOL    HW132126   0.738   3.860   0.756
10409SOL    HW232127   0.809   3.725   0.698
10410SOL     OW32128   5.664   2.473   1.500
10410SOL    HW132129   5.693   2.513   1.413
10410SOL    HW232130   5.576   2.426   1.487
10411SOL     OW32131   3.826   5.873   4.759
10411SOL    HW132132   3.750   5.844   4.701
10411SOL    HW232133   3.822   5.826   4.846
10412SOL     OW32134   6.743   1.217   0.398
10412SOL    HW132135   6.759   1.308   0.436
10412SOL    HW232136   6.795   1.206   0.313
10413SOL     OW32137   6.984   1.698   1.662
10413SOL    HW132138   6.999   1.768   1.591
10413SOL    HW232139   0.049   1.673   1.703
10414SOL     OW32140   3.702   5.681   5.810
10414SOL    HW132141   3.752   5.598   5.837
10414SOL    HW232142   3.761   5.740   5.755
10415SOL     OW32143   1.542   4.319   3.652
10415SOL    HW132144   1.549   4.219   3.656
10415SOL    HW232145   1.606   4.354   3.584
10416SOL     OW32146   6.192   0.040   5.295
10416SOL    HW132147   6.104   0.054   5.339
10416SOL    HW232148   6.183   6.995   5.222
10417SOL     OW32149   4.789   5.540   4.779
10417SOL    HW132150   4.887   5.560   4.787
10417SOL    HW232151   4.737   5.609   4.828
10418SOL     OW32152   6.129   4.290   6.047
10418SOL    HW132153   6.152   4.282   6.144
10418SOL    HW232154   6.098   4.383   6.028
10419SOL     OW32155   3.567   6.982   5.354
10419SOL    HW132156   3.500   7.017   5.289
10419SOL    HW232157   3.549   6.885   5.371
10420SOL     OW32158   6.890   4.101   4.026
10420SOL    HW132159   6.985   4.124   4.050
10420SOL    HW232160   6.881   4.100   3.926
10421SOL     OW32161   1.562   3.214   4.475
10421SOL    HW132162   1.529   3.138   4.419
10421SOL    HW232163   1.559   3.299   4.421
10422SOL     OW32164   6.794   3.646   5.014
10422SOL    HW132165   6.812   3.606   5.104
10422SOL    HW232166   6.702   3.684   5.013
10423SOL     OW32167   4.773   5.253   5.308
10423SOL    HW132168   4.722   5.183   5.358
10423SOL    HW232169   4.785   5.224   5.213
10424SOL     OW32170   3.883   3.040   0.286
10424SOL    HW132171   3.836   2.971   0.230
10424SOL    HW232172   3.816   3.090   0.341
10425SOL     OW32173   1.087   5.931   2.361
10425SOL    HW132174   1.019   5.986   2.409
10425SOL    HW232175   1.048   5.897   2.276
10426SOL     OW32176   5.513   4.547   6.302
10426SOL    HW132177   5.560   4.517   6.219
10426SOL    HW232178   5.415   4.530   6.292
10427SOL     OW32179   5.079   0.858   0.272
10427SOL    HW132180   5.018   0.875   0.194
10427SOL    HW232181   5.133   0.776   0.254
10428SOL     OW32182   3.197   1.441   4.122
10428SOL    HW132183   3.167   1.418   4.030
10428SOL    HW232184   3.194   1.540   4.135
10429SOL     OW32185   1.021   3.757   2.958
10429SOL    HW132186   0.939   3.793   2.912
10429SOL    HW232187   1.050   3.673   2.912
10430SOL     OW32188   3.543   6.727   4.976
10430SOL    HW132189   3.621   6.669   5.001
10430SOL    HW232190   3.464   6.702   5.033
10431SOL     OW32191   3.004   6.567   4.418
10431SOL    HW132192   2.989   6.579   4.319
10431SOL    HW232193   3.050   6.647   4.455
10432SOL     OW32194   6.850   1.398   5.108
10432SOL    HW132195   6.886   1.490   5.095
10432SOL    HW232196   6.869   1.342   5.027
10433SOL     OW32197   0.319   6.773   2.623
10433SOL    HW132198   0.239   6.827   2.595
10433SOL    HW232199   0.330   6.780   2.722
10434SOL     OW32200   3.139   6.403   4.049
10434SOL    HW132201   3.119   6.489   4.096
10434SOL    HW232202   3.235   6.379   4.063
10435SOL     OW32203   1.999   2.144   5.839
10435SOL    HW132204   2.036   2.173   5.751
10435SOL    HW232205   1.996   2.222   5.902
10436SOL     OW32206   6.426   3.988   4.696
10436SOL    HW132207   6.355   4.055   4.718
10436SOL    HW232208   6.438   3.924   4.772
10437SOL     OW32209   6.352   5.067   6.059
10437SOL    HW132210   6.306   5.096   5.975
10437SOL    HW232211   6.376   5.147   6.113
10438SOL     OW32212   1.115   6.340   5.749
10438SOL    HW132213   1.036   6.311   5.802
10438SOL    HW232214   1.170   6.404   5.802
10439SOL     OW32215   5.400   1.525   4.880
10439SOL    HW132216   5.371   1.545   4.973
10439SOL    HW232217   5.361   1.437   4.851
10440SOL     OW32218   0.360   0.001   0.108
10440SOL    HW132219   0.437   0.048   0.152
10440SOL    HW232220   0.394   6.965   0.034
10441SOL     OW32221   2.788   1.503   1.238
10441SOL    HW132222   2.768   1.448   1.158
10441SOL    HW232223   2.770   1.450   1.321
10442SOL     OW32224   4.394   6.600   5.099
10442SOL    HW132225   4.379   6.503   5.120
10442SOL    HW232226   4.343   6.624   5.016
10443SOL     OW32227   5.336   2.356   3.165
10443SOL    HW132228   5.329   2.368   3.264
10443SOL    HW232229   5.245   2.337   3.128
10444SOL     OW32230   3.813   5.858   2.282
10444SOL    HW132231   3.764   5.935   2.323
10444SOL    HW232232   3.856   5.887   2.197
10445SOL     OW32233   0.655   3.568   3.257
10445SOL    HW132234   0.688   3.647   3.310
10445SOL    HW232235   0.644   3.595   3.161
10446SOL     OW32236   2.232   3.444   6.319
10446SOL    HW132237   2.233   3.344   6.324
10446SOL    HW232238   2.149   3.478   6.362
10447SOL     OW32239   0.453   0.407   2.966
10447SOL    HW132240   0.473   0.493   2.918
10447SOL    HW232241   0.413   0.427   3.056
10448SOL     OW32242   4.060   0.640   2.112
10448SOL    HW132243   4.059   0.542   2.094
10448SOL    HW232244   4.033   0.689   2.029
10449SOL     OW32245   1.820   5.576   6.362
10449SOL    HW132246   1.820   5.543   6.268
10449SOL    HW232247   1.754   5.523   6.416
10450SOL     OW32248   6.878   1.601   6.910
10450SOL    HW132249   6.950   1.531   6.903
10450SOL    HW232250   6.846   1.626   6.819
10451SOL     OW32251   2.281   5.890   3.000
10451SOL    HW132252   2.341   5.818   2.967
10451SOL    HW232253   2.258   5.952   2.925
10452SOL     OW32254   6.054   2.873   2.962
10452SOL    HW132255   6.013   2.952   3.009
10452SOL    HW232256   6.023   2.789   3.005
10453SOL     OW32257   6.012   6.444   1.719
10453SOL    HW132258   6.088   6.471   1.778
10453SOL    HW232259   6.001   6.345   1.721
10454SOL     OW32260   5.730   2.396   0.226
10454SOL    HW132261   5.763   2.305   0.251
10454SOL    HW232262   5.807   2.453   0.199
10455SOL     OW32263   0.085   6.375   3.589
10455SOL    HW132264   0.016   6.349   3.656
10455SOL    HW232265   0.104   6.298   3.528
10456SOL     OW32266   1.199   4.855   0.945
10456SOL    HW132267   1.264   4.805   1.002
10456SOL    HW232268   1.227   4.951   0.939
10457SOL     OW32269   3.895   2.794   0.116
10457SOL    HW132270   3.983   2.768   0.157
10457SOL    HW232271   3.911   2.831   0.025
10458SOL     OW32272   6.289   0.236   5.780
10458SOL    HW132273   6.299   0.331   5.810
10458SOL    HW232274   6.242   0.183   5.851
10459SOL     OW32275   4.904   5.944   1.131
10459SOL    HW132276   4.850   6.000   1.068
10459SOL    HW232277   4.882   5.847   1.117
10460SOL     OW32278   1.512   4.467   1.704
10460SOL    HW132279   1.458   4.461   1.787
10460SOL    HW232280   1.579   4.392   1.702
10461SOL     OW32281   6.098   5.020   5.255
10461SOL    HW132282   6.092   5.038   5.354
10461SOL    HW232283   6.006   5.012   5.217
10462SOL     OW32284   5.423   2.374   2.910
10462SOL    HW132285   5.428   2.356   3.008
10462SOL    HW232286   5.374   2.300   2.865
10463SOL     OW32287   4.167   2.519   5.990
10463SOL    HW132288   4.104   2.557   6.058
10463SOL    HW232289   4.164   2.419   5.993
10464SOL     OW32290   6.523   6.475   2.218
10464SOL    HW132291   6.606   6.523   2.190
10464SOL    HW232292   6.467   6.454   2.138
10465SOL     OW32293   5.971   5.612   1.270
10465SOL    HW132294   5.911   5.676   1.221
10465SOL    HW232295   5.947   5.613   1.367
10466SOL     OW32296   4.462   4.734   5.381
10466SOL    HW132297   4.530   4.712   5.451
10466SOL    HW232298   4.495   4.808   5.323
10467SOL     OW32299   2.286   1.906   0.221
10467SOL    HW132300   2.352   1.974   0.250
10467SOL    HW232301   2.194   1.943   0.230
10468SOL     OW32302   3.830   5.023   3.177
10468SOL    HW132303   3.744   4.995   3.133
10468SOL    HW232304   3.816   5.108   3.227
10469SOL     OW32305   3.744   4.215   5.467
10469SOL    HW132306   3.828   4.248   5.424
10469SOL    HW232307   3.733   4.259   5.556
10470SOL     OW32308   1.695   1.898   3.547
10470SOL    HW132309   1.734   1.869   3.634
10470SOL    HW232310   1.687   1.997   3.544
10471SOL     OW32311   2.430   0.324   0.519
10471SOL    HW132312   2.425   0.423   0.519
10471SOL    HW232313   2.447   0.291   0.612
10472SOL     OW32314   3.020   6.012   0.452
10472SOL    HW132315   3.078   6.005   0.533
10472SOL    HW232316   3.005   5.921   0.413
10473SOL     OW32317   5.957   6.799   6.495
10473SOL    HW132318   5.880   6.755   6.541
10473SOL    HW232319   5.977   6.751   6.409
10474SOL     OW32320   4.221   1.257   4.121
10474SOL    HW132321   4.204   1.185   4.054
10474SOL    HW232322   4.214   1.219   4.214
10475SOL     OW32323   4.412   6.398   1.364
10475SOL    HW132324   4.386   6.429   1.272
10475SOL    HW232325   4.429   6.478   1.422
10476SOL     OW32326   6.392   6.320   6.964
10476SOL    HW132327   6.443   6.236   6.950
10476SOL    HW232328   6.294   6.303   6.950
10477SOL     OW32329   6.543   1.313   4.704
10477SOL    HW132330   6.629   1.296   4.656
10477SOL    HW232331   6.559   1.379   4.778
10478SOL     OW32332   6.451   0.785   0.749
10478SOL    HW132333   6.465   0.882   0.768
10478SOL    HW232334   6.463   0.768   0.651
10479SOL     OW32335   6.905   1.546   2.625
10479SOL    HW132336   6.910   1.619   2.693
10479SOL    HW232337   6.955   1.466   2.658
10480SOL     OW32338   0.862   0.450   1.999
10480SOL    HW132339   0.825   0.357   1.997
10480SOL    HW232340   0.925   0.458   2.076
10481SOL     OW32341   2.161   5.813   4.141
10481SOL    HW132342   2.164   5.889   4.077
10481SOL    HW232343   2.253   5.797   4.178
10482SOL     OW32344   6.501   5.168   4.531
10482SOL    HW132345   6.520   5.090   4.591
10482SOL    HW232346   6.479   5.135   4.439
10483SOL     OW32347   6.257   5.275   0.244
10483SOL    HW132348   6.303   5.271   0.333
10483SOL    HW232349   6.240   5.182   0.211
10484SOL     OW32350   5.624   1.683   1.691
10484SOL    HW132351   5.628   1.598   1.743
10484SOL    HW232352   5.679   1.753   1.737
10485SOL     OW32353   3.387   4.162   0.655
10485SOL    HW132354   3.409   4.068   0.681
10485SOL    HW232355   3.364   4.165   0.558
10486SOL     OW32356   0.155   0.572   0.210
10486SOL    HW132357   0.181   0.484   0.169
10486SOL    HW232358   0.061   0.594   0.186
10487SOL     OW32359   4.660   0.596   1.204
10487SOL    HW132360   4.620   0.583   1.114
10487SOL    HW232361   4.715   0.680   1.204
10488SOL     OW32362   3.326   1.241   6.280
10488SOL    HW132363   3.244   1.244   6.337
10488SOL    HW232364   3.322   1.163   6.218
10489SOL     OW32365   0.986   6.698   5.519
10489SOL    HW132366   1.035   6.760   5.581
10489SOL    HW232367   0.959   6.616   5.570
10490SOL     OW32368   5.833   1.180   1.300
10490SOL    HW132369   5.785   1.266   1.317
10490SOL    HW232370   5.778   1.104   1.334
10491SOL     OW32371   2.103   2.604   0.185
10491SOL    HW132372   2.195   2.598   0.223
10491SOL    HW232373   2.081   2.519   0.137
10492SOL     OW32374   5.943   4.834   6.464
10492SOL    HW132375   5.914   4.742   6.437
10492SOL    HW232376   5.885   4.901   6.418
10493SOL     OW32377   3.191   0.770   2.298
10493SOL    HW132378   3.253   0.785   2.375
10493SOL    HW232379   3.120   0.704   2.324
10494SOL     OW32380   5.665   4.101   6.141
10494SOL    HW132381   5.590   4.142   6.087
10494SOL    HW232382   5.752   4.139   6.110
10495SOL     OW32383   1.682   6.818   7.018
10495SOL    HW132384   1.725   6.905   0.019
10495SOL    HW232385   1.590   6.835   6.982
10496SOL     OW32386   0.182   4.054   6.118
10496SOL    HW132387   0.273   4.069   6.157
10496SOL    HW232388   0.190   4.000   6.034
10497SOL     OW32389   2.074   6.783   1.857
10497SOL    HW132390   2.154   6.802   1.913
10497SOL    HW232391   2.088   6.698   1.806
10498SOL     OW32392   3.456   5.671   0.633
10498SOL    HW132393   3.394   5.711   0.701
10498SOL    HW232394   3.414   5.590   0.594
10499SOL     OW32395   3.813   0.010   2.237
10499SOL    HW132396   3.774   0.101   2.248
10499SOL    HW232397   3.776   6.990   2.154
10500SOL     OW32398   6.074   1.372   6.515
10500SOL    HW132399   6.079   1.302   6.586
10500SOL    HW232400   6.055   1.461   6.558
10501SOL     OW32401   2.156   5.453   2.610
10501SOL    HW132402   2.172   5.493   2.520
10501SOL    HW232403   2.137   5.526   2.676
10502SOL     OW32404   2.305   0.409   1.716
10502SOL    HW132405   2.364   0.419   1.795
10502SOL    HW232406   2.324   0.483   1.650
10503SOL     OW32407   4.188   2.625   0.659
10503SOL    HW132408   4.236   2.662   0.738
10503SOL    HW232409   4.175   2.697   0.591
10504SOL     OW32410   0.562   2.155   5.552
10504SOL    HW132411   0.543   2.155   5.454
10504SOL    HW232412   0.661   2.158   5.566
10505SOL     OW32413   5.646   5.081   0.478
10505SOL    HW132414   5.618   4.985   0.487
10505SOL    HW232415   5.626   5.113   0.385
10506SOL     OW32416   0.329   4.454   0.633
10506SOL    HW132417   0.391   4.435   0.709
10506SOL    HW232418   0.251   4.506   0.666
10507SOL     OW32419   2.255   6.674   0.251
10507SOL    HW132420   2.158   6.696   0.262
10507SOL    HW232421   2.283   6.694   0.158
10508SOL     OW32422   6.018   6.417   4.745
10508SOL    HW132423   6.019   6.510   4.707
10508SOL    HW232424   5.955   6.360   4.693
10509SOL     OW32425   1.109   5.261   4.021
10509SOL    HW132426   1.153   5.310   3.946
10509SOL    HW232427   1.025   5.309   4.047
10510SOL     OW32428   4.468   6.040   6.112
10510SOL    HW132429   4.513   6.032   6.023
10510SOL    HW232430   4.446   5.949   6.147
10511SOL     OW32431   4.042   1.318   2.439
10511SOL    HW132432   4.077   1.262   2.514
10511SOL    HW232433   3.946   1.343   2.458
10512SOL     OW32434   4.064   0.299   6.169
10512SOL    HW132435   3.997   0.369   6.146
10512SOL    HW232436   4.156   0.337   6.165
10513SOL     OW32437   6.126   2.439   4.843
10513SOL    HW132438   6.079   2.359   4.882
10513SOL    HW232439   6.079   2.468   4.760
10514SOL     OW32440   0.449   3.860   0.852
10514SOL    HW132441   0.453   3.775   0.904
10514SOL    HW232442   0.361   3.904   0.868
10515SOL     OW32443   0.926   3.268   3.295
10515SOL    HW132444   0.876   3.181   3.289
10515SOL    HW232445   0.863   3.339   3.328
10516SOL     OW32446   3.686   1.205   0.153
10516SOL    HW132447   3.770   1.179   0.200
10516SOL    HW232448   3.631   1.263   0.214
10517SOL     OW32449   1.132   2.569   2.584
10517SOL    HW132450   1.067   2.645   2.581
10517SOL    HW232451   1.192   2.579   2.664
10518SOL     OW32452   1.013   5.797   6.407
10518SOL    HW132453   0.936   5.732   6.405
10518SOL    HW232454   1.099   5.747   6.415
10519SOL     OW32455   2.711   3.615   0.054
10519SOL    HW132456   2.755   3.628   0.142
10519SOL    HW232457   2.775   3.574   7.012
10520SOL     OW32458   0.488   2.630   6.344
10520SOL    HW132459   0.428   2.686   6.401
10520SOL    HW232460   0.555   2.584   6.402
10521SOL     OW32461   6.558   6.355   2.459
10521SOL    HW132462   6.554   6.416   2.380
10521SOL    HW232463   6.648   6.313   2.465
10522SOL     OW32464   0.684   0.561   5.761
10522SOL    HW132465   0.696   0.617   5.679
10522SOL    HW232466   0.729   0.473   5.749
10523SOL     OW32467   7.013   5.040   3.585
10523SOL    HW132468   0.036   4.988   3.513
10523SOL    HW232469   0.012   5.137   3.575
10524SOL     OW32470   1.638   0.405   4.932
10524SOL    HW132471   1.547   0.416   4.891
10524SOL    HW232472   1.634   0.428   5.030
10525SOL     OW32473   3.494   6.172   6.610
10525SOL    HW132474   3.453   6.255   6.647
10525SOL    HW232475   3.510   6.183   6.512
10526SOL     OW32476   1.531   6.987   3.877
10526SOL    HW132477   1.500   7.014   3.968
10526SOL    HW232478   1.600   0.029   3.845
10527SOL     OW32479   0.324   1.733   4.799
10527SOL    HW132480   0.271   1.745   4.882
10527SOL    HW232481   0.285   1.789   4.726
10528SOL     OW32482   1.580   3.464   6.209
10528SOL    HW132483   1.631   3.496   6.289
10528SOL    HW232484   1.487   3.500   6.212
10529SOL     OW32485   3.463   5.456   3.581
10529SOL    HW132486   3.393   5.485   3.517
10529SOL    HW232487   3.451   5.360   3.603
10530SOL     OW32488   1.928   6.831   6.811
10530SOL    HW132489   2.019   6.793   6.798
10530SOL    HW232490   1.860   6.757   6.808
10531SOL     OW32491   1.561   2.982   4.047
10531SOL    HW132492   1.659   2.961   4.058
10531SOL    HW232493   1.540   3.068   4.095
10532SOL     OW32494   1.331   5.936   5.312
10532SOL    HW132495   1.335   5.918   5.214
10532SOL    HW232496   1.250   5.990   5.334
10533SOL     OW32497   2.821   0.853   4.625
10533SOL    HW132498   2.727   0.875   4.598
10533SOL    HW232499   2.876   0.936   4.624
10534SOL     OW32500   0.081   6.049   1.445
10534SOL    HW132501   0.152   6.105   1.403
10534SOL    HW232502   0.116   5.957   1.461
10535SOL     OW32503   1.140   2.064   1.569
10535SOL    HW132504   1.201   2.042   1.492
10535SOL    HW232505   1.124   1.981   1.623
10536SOL     OW32506   4.165   0.438   2.893
10536SOL    HW132507   4.202   0.470   2.980
10536SOL    HW232508   4.234   0.383   2.846
10537SOL     OW32509   3.972   5.702   3.986
10537SOL    HW132510   3.881   5.726   4.022
10537SOL    HW232511   3.962   5.634   3.913
10538SOL     OW32512   5.223   1.980   0.887
10538SOL    HW132513   5.168   2.062   0.871
10538SOL    HW232514   5.166   1.910   0.930
10539SOL     OW32515   0.801   4.377   0.202
10539SOL    HW132516   0.740   4.304   0.233
10539SOL    HW232517   0.799   4.382   0.102
10540SOL     OW32518   1.556   2.280   4.962
10540SOL    HW132519   1.629   2.341   4.994
10540SOL    HW232520   1.495   2.259   5.038
10541SOL     OW32521   3.709   4.023   2.444
10541SOL    HW132522   3.665   3.990   2.361
10541SOL    HW232523   3.643   4.077   2.497
10542SOL     OW32524   6.783   0.087   5.680
10542SOL    HW132525   6.802   0.019   5.608
10542SOL    HW232526   6.817   0.176   5.652
10543SOL     OW32527   0.442   0.886   5.021
10543SOL    HW132528   0.404   0.881   4.928
10543SOL    HW232529   0.367   0.887   5.087
10544SOL     OW32530   2.436   6.389   1.543
10544SOL    HW132531   2.525   6.434   1.553
10544SOL    HW232532   2.374   6.450   1.494
10545SOL     OW32533   6.549   1.275   2.176
10545SOL    HW132534   6.585   1.189   2.212
10545SOL    HW232535   6.623   1.342   2.170
10546SOL     OW32536   1.914   0.933   6.817
10546SOL    HW132537   1.988   0.972   6.870
10546SOL    HW232538   1.868   1.005   6.765
10547SOL     OW32539   5.287   2.583   2.472
10547SOL    HW132540   5.318   2.594   2.377
10547SOL    HW232541   5.187   2.577   2.473
10548SOL     OW32542   5.533   4.565   4.542
10548SOL    HW132543   5.622   4.607   4.559
10548SOL    HW232544   5.546   4.474   4.504
10549SOL     OW32545   0.088   6.891   1.912
10549SOL    HW132546   0.165   6.828   1.902
10549SOL    HW232547   0.011   6.859   1.856
10550SOL     OW32548   4.255   6.426   3.993
10550SOL    HW132549   4.327   6.375   3.945
10550SOL    HW232550   4.220   6.370   4.068
10551SOL     OW32551   1.111   2.472   6.018
10551SOL    HW132552   1.161   2.554   5.988
10551SOL    HW232553   1.163   2.427   6.090
10552SOL     OW32554   3.281   1.508   6.117
10552SOL    HW132555   3.187   1.488   6.087
10552SOL    HW232556   3.315   1.431   6.171
10553SOL     OW32557   1.142   4.619   2.107
10553SOL    HW132558   1.199   4.700   2.088
10553SOL    HW232559   1.140   4.560   2.026
10554SOL     OW32560   5.352   5.146   0.292
10554SOL    HW132561   5.313   5.226   0.246
10554SOL    HW232562   5.428   5.110   0.238
10555SOL     OW32563   1.906   2.678   0.462
10555SOL    HW132564   1.983   2.711   0.516
10555SOL    HW232565   1.930   2.677   0.365
10556SOL     OW32566   1.779   1.823   5.540
10556SOL    HW132567   1.784   1.746   5.605
10556SOL    HW232568   1.840   1.804   5.463
10557SOL     OW32569   2.293   2.853   3.238
10557SOL    HW132570   2.299   2.931   3.301
10557SOL    HW232571   2.212   2.799   3.260
10558SOL     OW32572   3.637   1.212   3.584
10558SOL    HW132573   3.584   1.138   3.625
10558SOL    HW232574   3.729   1.213   3.624
10559SOL     OW32575   5.119   0.483   1.273
10559SOL    HW132576   5.124   0.543   1.193
10559SOL    HW232577   5.031   0.497   1.319
10560SOL     OW32578   3.676   6.466   2.583
10560SOL    HW132579   3.620   6.545   2.606
10560SOL    HW232580   3.622   6.403   2.527
10561SOL     OW32581   3.002   3.824   0.904
10561SOL    HW132582   3.001   3.924   0.900
10561SOL    HW232583   3.027   3.795   0.996
10562SOL     OW32584   4.584   5.433   0.250
10562SOL    HW132585   4.552   5.361   0.311
10562SOL    HW232586   4.592   5.397   0.157
10563SOL     OW32587   0.491   1.611   3.693
10563SOL    HW132588   0.415   1.632   3.755
10563SOL    HW232589   0.460   1.621   3.599
10564SOL     OW32590   5.969   6.042   1.954
10564SOL    HW132591   5.887   6.088   1.987
10564SOL    HW232592   6.050   6.085   1.995
10565SOL     OW32593   0.440   0.291   5.981
10565SOL    HW132594   0.480   0.301   6.072
10565SOL    HW232595   0.342   0.308   5.985
10566SOL     OW32596   3.518   2.109   6.864
10566SOL    HW132597   3.487   2.188   6.812
10566SOL    HW232598   3.607   2.129   6.905
10567SOL     OW32599   3.239   1.612   4.792
10567SOL    HW132600   3.282   1.542   4.736
10567SOL    HW232601   3.148   1.581   4.820
10568SOL     OW32602   6.495   2.828   1.663
10568SOL    HW132603   6.562   2.902   1.666
10568SOL    HW232604   6.512   2.765   1.738
10569SOL     OW32605   5.539   1.689   2.018
10569SOL    HW132606   5.482   1.619   1.976
10569SOL    HW232607   5.557   1.762   1.953
10570SOL     OW32608   1.616   5.007   3.639
10570SOL    HW132609   1.581   4.962   3.722
10570SOL    HW232610   1.569   5.094   3.626
10571SOL     OW32611   0.124   4.549   5.554
10571SOL    HW132612   0.049   4.536   5.489
10571SOL    HW232613   0.095   4.612   5.626
10572SOL     OW32614   0.306   4.280   3.088
10572SOL    HW132615   0.267   4.334   3.013
10572SOL    HW232616   0.233   4.253   3.151
10573SOL     OW32617   4.630   0.363   5.025
10573SOL    HW132618   4.578   0.306   5.089
10573SOL    HW232619   4.691   0.306   4.970
10574SOL     OW32620   1.902   1.629   4.045
10574SOL    HW132621   1.829   1.566   4.017
10574SOL    HW232622   1.863   1.718   4.067
10575SOL     OW32623   0.332   0.938   3.413
10575SOL    HW132624   0.247   0.907   3.371
10575SOL    HW232625   0.320   0.944   3.512
10576SOL     OW32626   0.107   6.039   4.667
10576SOL    HW132627   0.201   6.042   4.702
10576SOL    HW232628   0.067   6.131   4.671
10577SOL     OW32629   1.971   3.720   6.956
10577SOL    HW132630   1.944   3.771   0.016
10577SOL    HW232631   2.066   3.741   6.933
10578SOL     OW32632   5.102   1.825   2.825
10578SOL    HW132633   5.166   1.750   2.810
10578SOL    HW232634   5.061   1.852   2.738
10579SOL     OW32635   4.088   2.588   1.621
10579SOL    HW132636   4.020   2.518   1.641
10579SOL    HW232637   4.180   2.553   1.639
10580SOL     OW32638   6.365   0.103   6.883
10580SOL    HW132639   6.314   0.060   6.958
10580SOL    HW232640   6.316   0.091   6.797
10581SOL     OW32641   6.777   6.863   3.293
10581SOL    HW132642   6.829   6.943   3.260
10581SOL    HW232643   6.812   6.835   3.382
10582SOL     OW32644   5.777   5.557   6.404
10582SOL    HW132645   5.698   5.509   6.441
10582SOL    HW232646   5.851   5.492   6.389
10583SOL     OW32647   3.900   1.221   4.631
10583SOL    HW132648   3.921   1.306   4.583
10583SOL    HW232649   3.838   1.165   4.576
10584SOL     OW32650   6.708   6.609   1.491
10584SOL    HW132651   6.641   6.536   1.501
10584SOL    HW232652   6.792   6.573   1.449
10585SOL     OW32653   2.285   2.283   5.716
10585SOL    HW132654   2.331   2.229   5.646
10585SOL    HW232655   2.201   2.323   5.678
10586SOL     OW32656   6.481   5.178   5.411
10586SOL    HW132657   6.465   5.090   5.367
10586SOL    HW232658   6.567   5.217   5.379
10587SOL     OW32659   6.252   4.481   0.318
10587SOL    HW132660   6.247   4.388   0.355
10587SOL    HW232661   6.218   4.481   0.224
10588SOL     OW32662   0.688   3.280   3.880
10588SOL    HW132663   0.640   3.317   3.959
10588SOL    HW232664   0.772   3.235   3.910
10589SOL     OW32665   5.851   2.049   4.060
10589SOL    HW132666   5.800   2.119   4.110
10589SOL    HW232667   5.796   1.967   4.051
10590SOL     OW32668   0.515   0.394   1.987
10590SOL    HW132669   0.452   0.318   1.976
10590SOL    HW232670   0.609   0.361   1.980
10591SOL     OW32671   1.078   1.857   7.007
10591SOL    HW132672   1.112   1.804   6.929
10591SOL    HW232673   0.979   1.865   7.001
10592SOL     OW32674   5.637   4.035   1.868
10592SOL    HW132675   5.708   4.019   1.799
10592SOL    HW232676   5.564   3.968   1.858
10593SOL     OW32677   2.361   5.640   0.364
10593SOL    HW132678   2.325   5.579   0.434
10593SOL    HW232679   2.404   5.719   0.408
10594SOL     OW32680   4.611   0.409   2.464
10594SOL    HW132681   4.558   0.475   2.518
10594SOL    HW232682   4.661   0.349   2.527
10595SOL     OW32683   4.035   6.793   6.563
10595SOL    HW132684   4.089   6.830   6.488
10595SOL    HW232685   3.958   6.741   6.526
10596SOL     OW32686   4.537   0.400   0.271
10596SOL    HW132687   4.597   0.368   0.198
10596SOL    HW232688   4.568   0.363   0.359
10597SOL     OW32689   3.552   0.854   5.154
10597SOL    HW132690   3.635   0.803   5.134
10597SOL    HW232691   3.568   0.915   5.232
10598SOL     OW32692   2.821   2.879   0.611
10598SOL    HW132693   2.799   2.801   0.553
10598SOL    HW232694   2.894   2.932   0.568
10599SOL     OW32695   5.578   2.955   5.502
10599SOL    HW132696   5.576   2.998   5.412
10599SOL    HW232697   5.615   3.021   5.569
10600SOL     OW32698   2.347   2.096   0.579
10600SOL    HW132699   2.412   2.163   0.615
10600SOL    HW232700   2.384   2.004   0.592
10601SOL     OW32701   1.435   4.727   5.122
10601SOL    HW132702   1.363   4.792   5.148
10601SOL    HW232703   1.500   4.717   5.197
10602SOL     OW32704   3.785   1.469   2.226
10602SOL    HW132705   3.726   1.434   2.153
10602SOL    HW232706   3.733   1.474   2.311
10603SOL     OW32707   3.036   5.950   3.035
10603SOL    HW132708   3.093   6.018   2.989
10603SOL    HW232709   3.037   5.966   3.133
10604SOL     OW32710   5.934   5.391   5.843
10604SOL    HW132711   6.023   5.388   5.798
10604SOL    HW232712   5.868   5.339   5.789
10605SOL     OW32713   1.395   5.871   0.409
10605SOL    HW132714   1.365   5.803   0.342
10605SOL    HW232715   1.414   5.958   0.363
10606SOL     OW32716   6.713   0.927   2.716
10606SOL    HW132717   6.648   0.853   2.737
10606SOL    HW232718   6.673   0.990   2.650
10607SOL     OW32719   4.160   4.690   5.307
10607SOL    HW132720   4.063   4.698   5.330
10607SOL    HW232721   4.175   4.721   5.213
10608SOL     OW32722   5.200   2.546   5.617
10608SOL    HW132723   5.224   2.484   5.543
10608SOL    HW232724   5.284   2.578   5.661
10609SOL     OW32725   2.884   6.831   0.382
10609SOL    HW132726   2.932   6.880   0.310
10609SOL    HW232727   2.821   6.894   0.429
10610SOL     OW32728   1.151   2.362   5.539
10610SOL    HW132729   1.178   2.332   5.630
10610SOL    HW232730   1.057   2.397   5.541
10611SOL     OW32731   4.014   3.850   5.980
10611SOL    HW132732   4.047   3.909   6.054
10611SOL    HW232733   3.966   3.772   6.018
10612SOL     OW32734   3.203   0.813   4.522
10612SOL    HW132735   3.109   0.818   4.554
10612SOL    HW232736   3.205   0.767   4.433
10613SOL     OW32737   6.318   6.979   4.884
10613SOL    HW132738   6.237   0.009   4.856
10613SOL    HW232739   6.379   0.017   4.936
10614SOL     OW32740   6.199   2.267   3.959
10614SOL    HW132741   6.260   2.333   4.004
10614SOL    HW232742   6.243   2.232   3.876
10615SOL     OW32743   3.427   6.616   5.580
10615SOL    HW132744   3.372   6.658   5.508
10615SOL    HW232745   3.429   6.517   5.566
10616SOL     OW32746   2.718   6.032   0.706
10616SOL    HW132747   2.810   6.031   0.667
10616SOL    HW232748   2.657   6.082   0.645
10617SOL     OW32749   2.326   2.389   1.493
10617SOL    HW132750   2.299   2.359   1.584
10617SOL    HW232751   2.253   2.445   1.453
10618SOL     OW32752   0.247   3.779   6.567
10618SOL    HW132753   0.212   3.843   6.499
10618SOL    HW232754   0.271   3.829   6.650
10619SOL     OW32755   0.078   4.327   2.406
10619SOL    HW132756   0.005   4.266   2.376
10619SOL    HW232757   0.120   4.370   2.326
10620SOL     OW32758   1.695   5.438   4.971
10620SOL    HW132759   1.747   5.439   4.886
10620SOL    HW232760   1.621   5.371   4.964
10621SOL     OW32761   1.136   6.163   2.075
10621SOL    HW132762   1.202   6.109   2.023
10621SOL    HW232763   1.107   6.242   2.021
10622SOL     OW32764   5.036   1.805   1.356
10622SOL    HW132765   5.028   1.904   1.361
10622SOL    HW232766   5.083   1.779   1.272
10623SOL     OW32767   0.242   4.774   5.377
10623SOL    HW132768   0.152   4.741   5.404
10623SOL    HW232769   0.306   4.762   5.452
10624SOL     OW32770   0.442   2.989   4.859
10624SOL    HW132771   0.473   3.084   4.849
10624SOL    HW232772   0.471   2.936   4.780
10625SOL     OW32773   0.665   4.185   0.348
10625SOL    HW132774   0.567   4.182   0.366
10625SOL    HW232775   0.704   4.094   0.363
10626SOL     OW32776   2.826   3.239   0.944
10626SOL    HW132777   2.793   3.222   1.037
10626SOL    HW232778   2.760   3.201   0.879
10627SOL     OW32779   5.352   6.786   0.381
10627SOL    HW132780   5.282   6.716   0.370
10627SOL    HW232781   5.433   6.746   0.424
10628SOL     OW32782   4.523   6.230   0.322
10628SOL    HW132783   4.575   6.203   0.242
10628SOL    HW232784   4.425   6.230   0.300
10629SOL     OW32785   2.577   4.954   5.189
10629SOL    HW132786   2.606   4.864   5.158
10629SOL    HW232787   2.632   4.982   5.268
10630SOL     OW32788   6.625   1.401   3.970
10630SOL    HW132789   6.607   1.452   3.887
10630SOL    HW232790   6.539   1.383   4.018
10631SOL     OW32791   2.426   4.393   4.466
10631SOL    HW132792   2.426   4.411   4.565
10631SOL    HW232793   2.354   4.447   4.423
10632SOL     OW32794   6.234   2.099   3.742
10632SOL    HW132795   6.135   2.092   3.755
10632SOL    HW232796   6.264   2.036   3.671
10633SOL     OW32797   2.746   3.116   1.175
10633SOL    HW132798   2.653   3.135   1.144
10633SOL    HW232799   2.745   3.099   1.274
10634SOL     OW32800   3.108   5.980   0.703
10634SOL    HW132801   3.132   6.074   0.728
10634SOL    HW232802   3.151   5.917   0.768
10635SOL     OW32803   3.349   2.060   0.914
10635SOL    HW132804   3.353   2.052   1.014
10635SOL    HW232805   3.273   2.119   0.888
10636SOL     OW32806   1.058   1.557   1.671
10636SOL    HW132807   1.135   1.497   1.687
10636SOL    HW232808   0.983   1.534   1.734
10637SOL     OW32809   2.613   4.430   5.985
10637SOL    HW132810   2.613   4.330   5.981
10637SOL    HW232811   2.687   4.461   6.044
10638SOL     OW32812   0.113   5.707   2.905
10638SOL    HW132813   0.180   5.633   2.915
10638SOL    HW232814   0.071   5.701   2.814
10639SOL     OW32815   1.137   3.435   3.177
10639SOL    HW132816   1.055   3.412   3.229
10639SOL    HW232817   1.165   3.529   3.199
10640SOL     OW32818   3.839   0.200   5.474
10640SOL    HW132819   3.899   0.206   5.395
10640SOL    HW232820   3.870   0.264   5.545
10641SOL     OW32821   3.075   1.725   1.379
10641SOL    HW132822   3.024   1.658   1.433
10641SOL    HW232823   3.023   1.809   1.372
10642SOL     OW32824   0.199   3.088   1.982
10642SOL    HW132825   0.202   3.164   1.918
10642SOL    HW232826   0.213   3.002   1.933
10643SOL     OW32827   1.915   4.888   5.376
10643SOL    HW132828   2.013   4.894   5.363
10643SOL    HW232829   1.888   4.793   5.386
10644SOL     OW32830   5.381   2.771   3.225
10644SOL    HW132831   5.377   2.826   3.308
10644SOL    HW232832   5.295   2.720   3.215
10645SOL     OW32833   1.289   1.999   5.086
10645SOL    HW132834   1.344   2.051   5.151
10645SOL    HW232835   1.319   2.021   4.993
10646SOL     OW32836   6.721   0.441   6.379
10646SOL    HW132837   6.683   0.484   6.461
10646SOL    HW232838   6.691   0.491   6.298
10647SOL     OW32839   2.887   5.283   5.706
10647SOL    HW132840   2.943   5.206   5.678
10647SOL    HW232841   2.945   5.362   5.726
10648SOL     OW32842   5.259   4.590   6.218
10648SOL    HW132843   5.286   4.536   6.138
10648SOL    HW232844   5.241   4.684   6.189
10649SOL     OW32845   6.928   4.062   3.107
10649SOL    HW132846   6.915   4.081   3.205
10649SOL    HW232847   7.015   4.014   3.094
10650SOL     OW32848   1.132   6.178   3.443
10650SOL    HW132849   1.165   6.269   3.468
10650SOL    HW232850   1.033   6.182   3.427
10651SOL     OW32851   4.321   6.517   6.479
10651SOL    HW132852   4.404   6.463   6.490
10651SOL    HW232853   4.321   6.592   6.546
10652SOL     OW32854   3.534   6.997   6.185
10652SOL    HW132855   3.482   0.048   6.227
10652SOL    HW232856   3.545   6.922   6.250
10653SOL     OW32857   4.731   4.225   3.989
10653SOL    HW132858   4.815   4.182   4.023
10653SOL    HW232859   4.710   4.189   3.898
10654SOL     OW32860   4.666   1.085   0.847
10654SOL    HW132861   4.676   1.174   0.891
10654SOL    HW232862   4.569   1.063   0.837
10655SOL     OW32863   2.484   5.271   0.349
10655SOL    HW132864   2.503   5.175   0.327
10655SOL    HW232865   2.534   5.297   0.431
10656SOL     OW32866   6.647   2.229   1.862
10656SOL    HW132867   6.724   2.170   1.884
10656SOL    HW232868   6.662   2.271   1.772
10657SOL     OW32869   6.623   0.750   6.153
10657SOL    HW132870   6.562   0.675   6.181
10657SOL    HW232871   6.595   0.785   6.064
10658SOL     OW32872   6.219   4.483   5.032
10658SOL    HW132873   6.130   4.501   4.989
10658SOL    HW232874   6.235   4.548   5.105
10659SOL     OW32875   6.935   6.148   1.221
10659SOL    HW132876   6.855   6.088   1.233
10659SOL    HW232877   7.018   6.092   1.222
10660SOL     OW32878   5.370   3.569   6.995
10660SOL    HW132879   5.280   3.560   0.014
10660SOL    HW232880   5.439   3.529   0.033
10661SOL     OW32881   0.133   6.621   2.394
10661SOL    HW132882   0.113   6.705   2.343
10661SOL    HW232883   0.090   6.628   2.485
10662SOL     OW32884   5.365   0.883   3.671
10662SOL    HW132885   5.284   0.841   3.711
10662SOL    HW232886   5.438   0.815   3.664
10663SOL     OW32887   0.871   1.083   1.825
10663SOL    HW132888   0.970   1.095   1.827
10663SOL    HW232889   0.848   0.988   1.805
10664SOL     OW32890   0.952   4.923   4.955
10664SOL    HW132891   0.982   4.930   4.861
10664SOL    HW232892   0.976   4.832   4.991
10665SOL     OW32893   0.800   1.245   0.708
10665SOL    HW132894   0.713   1.202   0.732
10665SOL    HW232895   0.806   1.334   0.753
10666SOL     OW32896   2.919   4.116   0.719
10666SOL    HW132897   2.831   4.139   0.676
10666SOL    HW232898   2.934   4.018   0.714
10667SOL     OW32899   3.871   3.103   5.378
10667SOL    HW132900   3.907   3.060   5.295
10667SOL    HW232901   3.777   3.134   5.361
10668SOL     OW32902   1.789   1.246   5.266
10668SOL    HW132903   1.709   1.285   5.219
10668SOL    HW232904   1.793   1.148   5.247
10669SOL     OW32905   5.890   6.005   0.538
10669SOL    HW132906   5.903   6.072   0.465
10669SOL    HW232907   5.976   5.957   0.555
10670SOL     OW32908   5.544   3.909   5.129
10670SOL    HW132909   5.626   3.960   5.153
10670SOL    HW232910   5.570   3.816   5.102
10671SOL     OW32911   2.556   2.259   3.211
10671SOL    HW132912   2.641   2.276   3.162
10671SOL    HW232913   2.502   2.344   3.214
10672SOL     OW32914   6.196   2.686   0.457
10672SOL    HW132915   6.133   2.761   0.478
10672SOL    HW232916   6.144   2.601   0.448
10673SOL     OW32917   0.985   1.343   6.926
10673SOL    HW132918   0.931   1.372   7.005
10673SOL    HW232919   1.010   1.247   6.936
10674SOL     OW32920   3.141   4.271   0.785
10674SOL    HW132921   3.054   4.229   0.757
10674SOL    HW232922   3.215   4.235   0.729
10675SOL     OW32923   2.215   6.866   6.486
10675SOL    HW132924   2.131   6.895   6.439
10675SOL    HW232925   2.258   6.792   6.435
10676SOL     OW32926   6.318   6.786   5.667
10676SOL    HW132927   6.404   6.736   5.679
10676SOL    HW232928   6.331   6.882   5.690
10677SOL     OW32929   0.541   0.751   2.220
10677SOL    HW132930   0.616   0.813   2.200
10677SOL    HW232931   0.498   0.721   2.135
10678SOL     OW32932   3.947   5.437   2.610
10678SOL    HW132933   3.975   5.443   2.706
10678SOL    HW232934   3.852   5.467   2.602
10679SOL     OW32935   5.197   5.165   6.248
10679SOL    HW132936   5.228   5.223   6.324
10679SOL    HW232937   5.277   5.129   6.199
10680SOL     OW32938   2.642   1.825   3.703
10680SOL    HW132939   2.581   1.746   3.702
10680SOL    HW232940   2.622   1.884   3.625
10681SOL     OW32941   0.623   3.933   0.121
10681SOL    HW132942   0.664   3.939   0.212
10681SOL    HW232943   0.691   3.957   0.052
10682SOL     OW32944   1.481   1.683   3.620
10682SOL    HW132945   1.502   1.602   3.565
10682SOL    HW232946   1.549   1.754   3.602
10683SOL     OW32947   3.555   1.755   3.988
10683SOL    HW132948   3.579   1.776   4.083
10683SOL    HW232949   3.635   1.768   3.930
10684SOL     OW32950   4.978   4.233   1.214
10684SOL    HW132951   4.993   4.257   1.118
10684SOL    HW232952   4.961   4.135   1.222
10685SOL     OW32953   0.401   5.104   3.028
10685SOL    HW132954   0.423   5.199   3.007
10685SOL    HW232955   0.406   5.090   3.127
10686SOL     OW32956   1.724   4.510   6.344
10686SOL    HW132957   1.794   4.551   6.285
10686SOL    HW232958   1.640   4.564   6.339
10687SOL     OW32959   0.044   5.528   2.113
10687SOL    HW132960   0.103   5.609   2.105
10687SOL    HW232961   0.082   5.466   2.182
10688SOL     OW32962   6.678   4.026   2.979
10688SOL    HW132963   6.760   4.014   3.035
10688SOL    HW232964   6.631   4.110   3.005
10689SOL     OW32965   0.780   6.728   3.956
10689SOL    HW132966   0.840   6.712   3.877
10689SOL    HW232967   0.688   6.752   3.924
10690SOL     OW32968   0.013   5.787   3.314
10690SOL    HW132969   7.008   5.692   3.305
10690SOL    HW232970   6.989   5.829   3.392
10691SOL     OW32971   0.978   1.205   2.606
10691SOL    HW132972   1.043   1.265   2.652
10691SOL    HW232973   0.887   1.219   2.644
10692SOL     OW32974   3.576   4.883   2.412
10692SOL    HW132975   3.515   4.889   2.491
10692SOL    HW232976   3.526   4.846   2.334
10693SOL     OW32977   2.232   0.216   1.361
10693SOL    HW132978   2.178   0.207   1.277
10693SOL    HW232979   2.177   0.260   1.432
10694SOL     OW32980   4.740   6.288   1.309
10694SOL    HW132981   4.836   6.261   1.316
10694SOL    HW232982   4.718   6.311   1.214
10695SOL     OW32983   5.267   2.682   2.758
10695SOL    HW132984   5.186   2.739   2.775
10695SOL    HW232985   5.260   2.642   2.667
10696SOL     OW32986   6.883   4.174   3.396
10696SOL    HW132987   6.875   4.267   3.434
10696SOL    HW232988   6.800   4.152   3.345
10697SOL     OW32989   0.332   6.025   4.831
10697SOL    HW132990   0.375   5.938   4.809
10697SOL    HW232991   0.303   6.025   4.927
10698SOL     OW32992   4.123   6.268   4.173
10698SOL    HW132993   4.148   6.277   4.269
10698SOL    HW232994   4.024   6.267   4.164
10699SOL     OW32995   4.209   2.261   2.059
10699SOL    HW132996   4.134   2.217   2.108
10699SOL    HW232997   4.174   2.306   1.977
10700SOL     OW32998   1.230   0.026   0.938
10700SOL    HW132999   1.186   6.965   0.970
10700SOL    HW233000   1.303   0.052   1.002
10701SOL     OW33001   3.530   6.054   0.163
10701SOL    HW133002   3.496   6.063   0.257
10701SOL    HW233003   3.479   5.982   0.116
10702SOL     OW33004   6.060   2.309   2.914
10702SOL    HW133005   6.019   2.299   2.823
10702SOL    HW233006   6.090   2.220   2.947
10703SOL     OW33007   3.344   2.916   4.253
10703SOL    HW133008   3.260   2.956   4.216
10703SOL    HW233009   3.399   2.880   4.177
10704SOL     OW33010   6.117   5.482   1.735
10704SOL    HW133011   6.176   5.401   1.737
10704SOL    HW233012   6.088   5.504   1.828
10705SOL     OW33013   6.904   4.176   2.319
10705SOL    HW133014   6.813   4.186   2.277
10705SOL    HW233015   6.894   4.139   2.411
10706SOL     OW33016   4.568   6.521   1.927
10706SOL    HW133017   4.487   6.515   1.987
10706SOL    HW233018   4.573   6.613   1.889
10707SOL     OW33019   0.979   6.764   4.150
10707SOL    HW133020   0.993   6.670   4.180
10707SOL    HW233021   0.914   6.766   4.074
10708SOL     OW33022   4.474   0.720   2.464
10708SOL    HW133023   4.445   0.765   2.549
10708SOL    HW233024   4.394   0.702   2.407
10709SOL     OW33025   6.039   0.675   4.865
10709SOL    HW133026   6.139   0.669   4.864
10709SOL    HW233027   6.004   0.662   4.772
10710SOL     OW33028   0.776   6.342   3.987
10710SOL    HW133029   0.766   6.278   3.911
10710SOL    HW233030   0.692   6.395   3.998
10711SOL     OW33031   1.720   6.868   4.097
10711SOL    HW133032   1.713   6.885   3.998
10711SOL    HW233033   1.746   6.952   4.143
10712SOL     OW33034   3.544   0.633   1.837
10712SOL    HW133035   3.603   0.567   1.884
10712SOL    HW233036   3.601   0.696   1.785
10713SOL     OW33037   1.125   3.498   1.711
10713SOL    HW133038   1.028   3.477   1.703
10713SOL    HW233039   1.179   3.419   1.683
10714SOL     OW33040   6.105   2.913   5.376
10714SOL    HW133041   6.014   2.944   5.403
10714SOL    HW233042   6.162   2.993   5.356
10715SOL     OW33043   4.411   6.916   2.747
10715SOL    HW133044   4.463   6.976   2.809
10715SOL    HW233045   4.446   6.926   2.654
10716SOL     OW33046   6.832   2.491   3.484
10716SOL    HW133047   6.814   2.553   3.560
10716SOL    HW233048   6.879   2.541   3.411
10717SOL     OW33049   0.187   2.461   0.424
10717SOL    HW133050   0.213   2.385   0.484
10717SOL    HW233051   0.177   2.427   0.330
10718SOL     OW33052   6.818   4.144   0.196
10718SOL    HW133053   6.851   4.199   0.273
10718SOL    HW233054   6.868   4.058   0.193
10719SOL     OW33055   4.488   6.085   1.124
10719SOL    HW133056   4.440   5.998   1.116
10719SOL    HW233057   4.495   6.112   1.220
10720SOL     OW33058   0.136   3.487   5.974
10720SOL    HW133059   0.078   3.416   6.014
10720SOL    HW233060   0.213   3.444   5.927
10721SOL     OW33061   6.126   2.622   5.065
10721SOL    HW133062   6.044   2.679   5.064
10721SOL    HW233063   6.123   2.558   4.988
10722SOL     OW33064   7.005   2.925   0.443
10722SOL    HW133065   6.936   2.937   0.371
10722SOL    HW233066   0.012   2.829   0.445
10723SOL     OW33067   6.769   4.295   6.614
10723SOL    HW133068   6.800   4.270   6.522
10723SOL    HW233069   6.742   4.391   6.615
10724SOL     OW33070   3.404   0.159   6.313
10724SOL    HW133071   3.476   0.227   6.306
10724SOL    HW233072   3.355   0.171   6.400
10725SOL     OW33073   6.863   4.938   3.786
10725SOL    HW133074   6.933   4.913   3.854
10725SOL    HW233075   6.907   4.984   3.709
10726SOL     OW33076   5.792   6.367   5.413
10726SOL    HW133077   5.856   6.422   5.359
10726SOL    HW233078   5.722   6.426   5.453
10727SOL     OW33079   1.977   4.436   4.293
10727SOL    HW133080   1.949   4.528   4.320
10727SOL    HW233081   1.939   4.414   4.204
10728SOL     OW33082   6.192   6.500   2.234
10728SOL    HW133083   6.123   6.573   2.235
10728SOL    HW233084   6.196   6.457   2.324
10729SOL     OW33085   6.419   1.123   2.893
10729SOL    HW133086   6.404   1.054   2.963
10729SOL    HW233087   6.495   1.183   2.921
10730SOL     OW33088   2.564   6.885   1.016
10730SOL    HW133089   2.539   6.790   0.997
10730SOL    HW233090   2.654   6.888   1.058
10731SOL     OW33091   1.924   5.620   6.797
10731SOL    HW133092   1.899   5.607   6.893
10731SOL    HW233093   1.970   5.707   6.786
10732SOL     OW33094   5.660   6.847   2.489
10732SOL    HW133095   5.588   6.827   2.555
10732SOL    HW233096   5.715   6.764   2.474
10733SOL     OW33097   5.768   2.704   6.974
10733SOL    HW133098   5.807   2.791   6.944
10733SOL    HW233099   5.810   2.677   0.038
10734SOL     OW33100   1.340   0.454   6.474
10734SOL    HW133101   1.351   0.463   6.573
10734SOL    HW233102   1.280   0.377   6.454
10735SOL     OW33103   1.298   4.267   2.357
10735SOL    HW133104   1.221   4.207   2.381
10735SOL    HW233105   1.268   4.362   2.362
10736SOL     OW33106   0.608   1.056   3.532
10736SOL    HW133107   0.606   1.058   3.432
10736SOL    HW233108   0.622   0.961   3.562
10737SOL     OW33109   0.786   2.145   0.315
10737SOL    HW133110   0.811   2.084   0.391
10737SOL    HW233111   0.865   2.156   0.255
10738SOL     OW33112   2.727   0.012   1.697
10738SOL    HW133113   2.698   0.092   1.750
10738SOL    HW233114   2.798   6.985   1.748
10739SOL     OW33115   0.421   0.699   3.298
10739SOL    HW133116   0.519   0.677   3.304
10739SOL    HW233117   0.406   0.794   3.325
10740SOL     OW33118   1.036   5.090   5.863
10740SOL    HW133119   0.967   5.156   5.834
10740SOL    HW233120   1.127   5.127   5.844
10741SOL     OW33121   1.258   1.278   3.455
10741SOL    HW133122   1.185   1.341   3.480
10741SOL    HW233123   1.261   1.202   3.520
10742SOL     OW33124   5.918   0.255   2.202
10742SOL    HW133125   5.945   0.304   2.118
10742SOL    HW233126   5.871   0.319   2.263
10743SOL     OW33127   2.494   2.533   3.471
10743SOL    HW133128   2.572   2.474   3.490
10743SOL    HW233129   2.467   2.523   3.375
10744SOL     OW33130   3.355   1.472   2.186
10744SOL    HW133131   3.281   1.511   2.241
10744SOL    HW233132   3.359   1.519   2.098
10745SOL     OW33133   1.349   4.734   0.331
10745SOL    HW133134   1.360   4.821   0.379
10745SOL    HW233135   1.404   4.663   0.376
10746SOL     OW33136   2.100   4.641   1.017
10746SOL    HW133137   2.197   4.644   0.993
10746SOL    HW233138   2.085   4.696   1.099
10747SOL     OW33139   5.221   1.480   3.314
10747SOL    HW133140   5.286   1.425   3.260
10747SOL    HW233141   5.225   1.575   3.282
10748SOL     OW33142   5.995   6.737   0.865
10748SOL    HW133143   6.094   6.744   0.849
10748SOL    HW233144   5.977   6.661   0.927
10749SOL     OW33145   0.196   5.008   2.859
10749SOL    HW133146   0.288   5.024   2.896
10749SOL    HW233147   0.203   4.982   2.763
10750SOL     OW33148   4.735   4.885   4.548
10750SOL    HW133149   4.793   4.872   4.628
10750SOL    HW233150   4.645   4.845   4.565
10751SOL     OW33151   0.712   3.407   5.110
10751SOL    HW133152   0.716   3.458   5.024
10751SOL    HW233153   0.618   3.381   5.130
10752SOL     OW33154   6.029   3.585   6.563
10752SOL    HW133155   6.087   3.632   6.629
10752SOL    HW233156   5.998   3.649   6.493
10753SOL     OW33157   6.046   0.057   3.593
10753SOL    HW133158   6.067   7.007   3.658
10753SOL    HW233159   6.123   0.119   3.585
10754SOL     OW33160   1.946   2.319   2.859
10754SOL    HW133161   1.897   2.376   2.793
10754SOL    HW233162   1.936   2.359   2.951
10755SOL     OW33163   0.078   1.591   0.873
10755SOL    HW133164   0.071   1.601   0.972
10755SOL    HW233165   0.004   1.643   0.829
10756SOL     OW33166   6.197   3.966   0.562
10756SOL    HW133167   6.202   3.902   0.485
10756SOL    HW233168   6.273   3.950   0.625
10757SOL     OW33169   6.839   3.734   0.542
10757SOL    HW133170   6.788   3.791   0.605
10757SOL    HW233171   6.784   3.716   0.460
10758SOL     OW33172   1.380   6.186   4.991
10758SOL    HW133173   1.404   6.142   4.904
10758SOL    HW233174   1.286   6.222   4.985
10759SOL     OW33175   2.039   3.234   6.683
10759SOL    HW133176   2.022   3.331   6.698
10759SOL    HW233177   1.991   3.180   6.752
10760SOL     OW33178   6.565   0.046   1.113
10760SOL    HW133179   6.572   7.021   1.201
10760SOL    HW233180   6.621   0.129   1.116
10761SOL     OW33181   0.493   1.992   6.124
10761SOL    HW133182   0.485   1.950   6.214
10761SOL    HW233183   0.402   2.009   6.087
10762SOL     OW33184   4.965   1.109   5.053
10762SOL    HW133185   4.886   1.071   5.006
10762SOL    HW233186   4.938   1.190   5.104
10763SOL     OW33187   4.724   6.104   0.965
10763SOL    HW133188   4.758   6.198   0.976
10763SOL    HW233189   4.629   6.099   0.995
10764SOL     OW33190   5.392   2.007   6.227
10764SOL    HW133191   5.434   2.087   6.270
10764SOL    HW233192   5.354   2.034   6.138
10765SOL     OW33193   5.529   2.481   1.048
10765SOL    HW133194   5.441   2.458   1.090
10765SOL    HW233195   5.603   2.449   1.107
10766SOL     OW33196   2.868   3.658   0.319
10766SOL    HW133197   2.867   3.558   0.311
10766SOL    HW233198   2.956   3.687   0.356
10767SOL     OW33199   1.386   0.977   0.811
10767SOL    HW133200   1.465   0.975   0.751
10767SOL    HW233201   1.395   1.053   0.876
10768SOL     OW33202   5.596   5.608   0.186
10768SOL    HW133203   5.526   5.574   0.250
10768SOL    HW233204   5.606   5.707   0.197
10769SOL     OW33205   2.502   5.190   5.035
10769SOL    HW133206   2.493   5.262   5.103
10769SOL    HW233207   2.530   5.105   5.079
10770SOL     OW33208   5.850   0.208   4.247
10770SOL    HW133209   5.778   0.275   4.227
10770SOL    HW233210   5.877   0.215   4.343
10771SOL     OW33211   4.817   6.895   5.484
10771SOL    HW133212   4.768   6.891   5.571
10771SOL    HW233213   4.851   6.988   5.469
10772SOL     OW33214   6.151   0.056   4.083
10772SOL    HW133215   6.225   0.098   4.030
10772SOL    HW233216   6.153   0.091   4.177
10773SOL     OW33217   6.984   4.999   6.804
10773SOL    HW133218   6.982   4.994   6.903
10773SOL    HW233219   0.046   4.958   6.769
10774SOL     OW33220   1.368   2.102   0.050
10774SOL    HW133221   1.358   2.015   0.098
10774SOL    HW233222   1.370   2.177   0.116
10775SOL     OW33223   1.763   3.984   0.409
10775SOL    HW133224   1.806   4.072   0.425
10775SOL    HW233225   1.716   3.954   0.493
10776SOL     OW33226   1.242   6.275   0.851
10776SOL    HW133227   1.229   6.374   0.837
10776SOL    HW233228   1.265   6.232   0.764
10777SOL     OW33229   4.528   0.621   3.927
10777SOL    HW133230   4.591   0.548   3.954
10777SOL    HW233231   4.451   0.624   3.989
10778SOL     OW33232   5.801   6.974   4.351
10778SOL    HW133233   5.793   0.040   4.304
10778SOL    HW233234   5.760   6.903   4.294
10779SOL     OW33235   6.769   4.531   3.385
10779SOL    HW133236   6.800   4.490   3.299
10779SOL    HW233237   6.841   4.592   3.420
10780SOL     OW33238   1.418   6.604   3.115
10780SOL    HW133239   1.427   6.669   3.040
10780SOL    HW233240   1.462   6.517   3.090
10781SOL     OW33241   3.741   1.815   3.798
10781SOL    HW133242   3.812   1.865   3.847
10781SOL    HW233243   3.775   1.787   3.709
10782SOL     OW33244   6.117   2.501   3.653
10782SOL    HW133245   6.122   2.430   3.582
10782SOL    HW233246   6.021   2.523   3.671
10783SOL     OW33247   1.362   3.105   2.614
10783SOL    HW133248   1.307   3.188   2.610
10783SOL    HW233249   1.454   3.127   2.645
10784SOL     OW33250   2.424   6.647   1.788
10784SOL    HW133251   2.516   6.661   1.750
10784SOL    HW233252   2.391   6.733   1.827
10785SOL     OW33253   1.739   4.276   1.713
10785SOL    HW133254   1.836   4.266   1.731
10785SOL    HW233255   1.714   4.226   1.630
10786SOL     OW33256   5.322   3.205   1.216
10786SOL    HW133257   5.228   3.227   1.242
10786SOL    HW233258   5.322   3.131   1.148
10787SOL     OW33259   3.409   1.786   4.926
10787SOL    HW133260   3.366   1.730   4.855
10787SOL    HW233261   3.339   1.838   4.975
10788SOL     OW33262   2.271   4.283   7.017
10788SOL    HW133263   2.233   4.212   6.958
10788SOL    HW233264   2.241   4.268   0.088
10789SOL     OW33265   5.329   1.625   0.831
10789SOL    HW133266   5.427   1.609   0.822
10789SOL    HW233267   5.296   1.677   0.752
10790SOL     OW33268   0.665   0.825   5.152
10790SOL    HW133269   0.577   0.847   5.108
10790SOL    HW233270   0.677   0.726   5.154
10791SOL     OW33271   0.914   1.164   1.496
10791SOL    HW133272   0.849   1.212   1.556
10791SOL    HW233273   1.007   1.195   1.517
10792SOL     OW33274   2.889   3.063   1.846
10792SOL    HW133275   2.932   2.996   1.906
10792SOL    HW233276   2.892   3.030   1.751
10793SOL     OW33277   5.337   2.422   4.270
10793SOL    HW133278   5.427   2.409   4.229
10793SOL    HW233279   5.293   2.502   4.229
10794SOL     OW33280   3.469   3.747   2.503
10794SOL    HW133281   3.447   3.748   2.601
10794SOL    HW233282   3.386   3.761   2.449
10795SOL     OW33283   6.114   4.326   4.066
10795SOL    HW133284   6.202   4.304   4.106
10795SOL    HW233285   6.128   4.368   3.976
10796SOL     OW33286   3.356   6.416   6.716
10796SOL    HW133287   3.421   6.488   6.739
10796SOL    HW233288   3.263   6.450   6.726
10797SOL     OW33289   4.286   2.743   0.878
10797SOL    HW133290   4.294   2.705   0.970
10797SOL    HW233291   4.376   2.743   0.834
10798SOL     OW33292   1.857   0.070   0.428
10798SOL    HW133293   1.861   7.010   0.371
10798SOL    HW233294   1.841   0.043   0.523
10799SOL     OW33295   3.560   1.597   1.724
10799SOL    HW133296   3.519   1.632   1.641
10799SOL    HW233297   3.618   1.518   1.703
10800SOL     OW33298   1.350   6.723   0.215
10800SOL    HW133299   1.388   6.747   0.305
10800SOL    HW233300   1.344   6.805   0.159
10801SOL     OW33301   0.850   0.146   5.107
10801SOL    HW133302   0.916   0.143   5.182
10801SOL    HW233303   0.855   0.061   5.056
10802SOL     OW33304   2.085   3.407   5.082
10802SOL    HW133305   2.040   3.322   5.110
10802SOL    HW233306   2.159   3.429   5.146
10803SOL     OW33307   5.294   4.540   4.941
10803SOL    HW133308   5.291   4.558   4.843
10803SOL    HW233309   5.388   4.519   4.968
10804SOL     OW33310   6.998   4.542   1.784
10804SOL    HW133311   0.010   4.616   1.726
10804SOL    HW233312   6.910   4.511   1.748
10805SOL     OW33313   3.631   6.586   6.651
10805SOL    HW133314   3.578   6.654   6.703
10805SOL    HW233315   3.655   6.510   6.712
10806SOL     OW33316   5.241   4.440   0.056
10806SOL    HW133317   5.251   4.383   0.138
10806SOL    HW233318   5.181   4.394   7.013
10807SOL     OW33319   3.210   6.598   3.584
10807SOL    HW133320   3.215   6.536   3.662
10807SOL    HW233321   3.239   6.550   3.502
10808SOL     OW33322   0.534   3.682   0.602
10808SOL    HW133323   0.590   3.737   0.664
10808SOL    HW233324   0.588   3.655   0.522
10809SOL     OW33325   2.771   6.982   3.877
10809SOL    HW133326   2.816   0.047   3.895
10809SOL    HW233327   2.736   6.944   3.962
10810SOL     OW33328   1.156   1.118   5.533
10810SOL    HW133329   1.062   1.098   5.507
10810SOL    HW233330   1.158   1.183   5.608
10811SOL     OW33331   4.453   5.114   5.026
10811SOL    HW133332   4.521   5.187   5.029
10811SOL    HW233333   4.487   5.039   4.969
10812SOL     OW33334   0.435   3.352   2.380
10812SOL    HW133335   0.427   3.254   2.400
10812SOL    HW233336   0.344   3.392   2.374
10813SOL     OW33337   1.949   6.041   6.859
10813SOL    HW133338   1.969   6.125   6.910
10813SOL    HW233339   1.929   5.967   6.922
10814SOL     OW33340   1.674   6.885   5.829
10814SOL    HW133341   1.733   6.879   5.748
10814SOL    HW233342   1.708   6.956   5.890
10815SOL     OW33343   4.920   5.186   3.745
10815SOL    HW133344   4.907   5.137   3.659
10815SOL    HW233345   5.014   5.219   3.751
10816SOL     OW33346   1.450   1.363   2.372
10816SOL    HW133347   1.419   1.278   2.330
10816SOL    HW233348   1.515   1.343   2.445
10817SOL     OW33349   5.397   6.580   2.345
10817SOL    HW133350   5.474   6.547   2.291
10817SOL    HW233351   5.409   6.554   2.440
10818SOL     OW33352   5.144   3.836   5.712
10818SOL    HW133353   5.167   3.749   5.669
10818SOL    HW233354   5.224   3.896   5.711
10819SOL     OW33355   0.555   4.479   0.448
10819SOL    HW133356   0.488   4.512   0.515
10819SOL    HW233357   0.634   4.441   0.495
10820SOL     OW33358   6.678   6.793   4.047
10820SOL    HW133359   6.776   6.807   4.063
10820SOL    HW233360   6.665   6.716   3.985
10821SOL     OW33361   5.017   5.874   2.407
10821SOL    HW133362   5.064   5.935   2.471
10821SOL    HW233363   4.938   5.921   2.368
10822SOL     OW33364   1.277   2.252   3.146
10822SOL    HW133365   1.188   2.229   3.186
10822SOL    HW233366   1.302   2.345   3.170
10823SOL     OW33367   1.755   4.963   1.331
10823SOL    HW133368   1.804   4.897   1.388
10823SOL    HW233369   1.673   4.994   1.380
10824SOL     OW33370   4.861   0.199   4.254
10824SOL    HW133371   4.781   0.139   4.252
10824SOL    HW233372   4.871   0.245   4.167
10825SOL     OW33373   2.407   0.595   0.527
10825SOL    HW133374   2.481   0.632   0.583
10825SOL    HW233375   2.397   0.651   0.445
10826SOL     OW33376   0.133   3.789   3.615
10826SOL    HW133377   0.131   3.823   3.521
10826SOL    HW233378   0.132   3.689   3.614
10827SOL     OW33379   6.083   3.912   4.614
10827SOL    HW133380   6.131   3.970   4.548
10827SOL    HW233381   6.053   3.967   4.692
10828SOL     OW33382   1.579   5.895   2.537
10828SOL    HW133383   1.588   5.830   2.612
10828SOL    HW233384   1.485   5.929   2.534
10829SOL     OW33385   3.551   2.900   0.246
10829SOL    HW133386   3.586   2.917   0.154
10829SOL    HW233387   3.549   2.986   0.298
10830SOL     OW33388   4.741   1.812   3.150
10830SOL    HW133389   4.708   1.789   3.058
10830SOL    HW233390   4.704   1.746   3.215
10831SOL     OW33391   4.659   5.870   2.088
10831SOL    HW133392   4.671   5.967   2.068
10831SOL    HW233393   4.562   5.846   2.083
10832SOL     OW33394   6.901   1.842   0.599
10832SOL    HW133395   6.944   1.828   0.687
10832SOL    HW233396   6.812   1.797   0.598
10833SOL     OW33397   1.634   0.939   4.101
10833SOL    HW133398   1.595   1.022   4.139
10833SOL    HW233399   1.682   0.889   4.174
10834SOL     OW33400   0.695   2.249   6.178
10834SOL    HW133401   0.681   2.184   6.103
10834SOL    HW233402   0.705   2.199   6.264
10835SOL     OW33403   5.206   2.301   1.185
10835SOL    HW133404   5.126   2.288   1.126
10835SOL    HW233405   5.222   2.399   1.198
10836SOL     OW33406   6.060   1.358   5.281
10836SOL    HW133407   5.987   1.303   5.241
10836SOL    HW233408   6.146   1.337   5.237
10837SOL     OW33409   0.483   5.002   0.301
10837SOL    HW133410   0.463   4.989   0.204
10837SOL    HW233411   0.451   5.092   0.330
10838SOL     OW33412   5.696   6.774   4.212
10838SOL    HW133413   5.670   6.714   4.288
10838SOL    HW233414   5.614   6.803   4.163
10839SOL     OW33415   3.329   2.824   0.402
10839SOL    HW133416   3.408   2.849   0.346
10839SOL    HW233417   3.360   2.772   0.482
10840SOL     OW33418   4.178   6.186   1.731
10840SOL    HW133419   4.134   6.099   1.710
10840SOL    HW233420   4.128   6.233   1.803
10841SOL     OW33421   4.091   6.325   6.776
10841SOL    HW133422   4.044   6.308   6.690
10841SOL    HW233423   4.025   6.326   6.851
10842SOL     OW33424   6.240   3.499   0.829
10842SOL    HW133425   6.212   3.446   0.750
10842SOL    HW233426   6.228   3.597   0.810
10843SOL     OW33427   0.694   1.831   2.080
10843SOL    HW133428   0.725   1.917   2.121
10843SOL    HW233429   0.771   1.787   2.034
10844SOL     OW33430   0.399   6.669   4.011
10844SOL    HW133431   0.413   6.649   3.914
10844SOL    HW233432   0.353   6.757   4.021
10845SOL     OW33433   2.049   0.822   0.903
10845SOL    HW133434   1.955   0.850   0.884
10845SOL    HW233435   2.048   0.736   0.955
10846SOL     OW33436   4.566   3.150   0.489
10846SOL    HW133437   4.589   3.056   0.466
10846SOL    HW233438   4.622   3.212   0.435
10847SOL     OW33439   2.894   2.183   6.275
10847SOL    HW133440   2.899   2.126   6.193
10847SOL    HW233441   2.912   2.278   6.250
10848SOL     OW33442   3.237   2.287   6.406
10848SOL    HW133443   3.323   2.337   6.401
10848SOL    HW233444   3.171   2.326   6.341
10849SOL     OW33445   3.341   4.915   3.598
10849SOL    HW133446   3.314   5.012   3.601
10849SOL    HW233447   3.390   4.897   3.513
10850SOL     OW33448   4.577   6.114   6.523
10850SOL    HW133449   4.478   6.121   6.511
10850SOL    HW233450   4.616   6.063   6.447
10851SOL     OW33451   2.479   2.596   6.429
10851SOL    HW133452   2.429   2.679   6.453
10851SOL    HW233453   2.416   2.518   6.428
10852SOL     OW33454   0.190   6.704   5.922
10852SOL    HW133455   0.265   6.683   5.984
10852SOL    HW233456   0.186   6.636   5.849
10853SOL     OW33457   3.914   1.724   5.352
10853SOL    HW133458   3.838   1.784   5.326
10853SOL    HW233459   3.879   1.646   5.403
10854SOL     OW33460   6.387   0.383   5.445
10854SOL    HW133461   6.459   0.372   5.513
10854SOL    HW233462   6.406   0.324   5.366
10855SOL     OW33463   2.741   6.292   2.267
10855SOL    HW133464   2.831   6.280   2.225
10855SOL    HW233465   2.716   6.210   2.318
10856SOL     OW33466   5.944   1.059   2.110
10856SOL    HW133467   6.017   1.008   2.154
10856SOL    HW233468   5.981   1.142   2.069
10857SOL     OW33469   5.529   2.400   3.743
10857SOL    HW133470   5.551   2.480   3.687
10857SOL    HW233471   5.442   2.416   3.790
10858SOL     OW33472   1.046   2.592   6.493
10858SOL    HW133473   1.002   2.618   6.407
10858SOL    HW233474   0.998   2.634   6.569
10859SOL     OW33475   2.527   4.509   4.161
10859SOL    HW133476   2.536   4.536   4.065
10859SOL    HW233477   2.483   4.420   4.167
10860SOL     OW33478   6.645   1.054   5.603
10860SOL    HW133479   6.545   1.058   5.608
10860SOL    HW233480   6.681   1.146   5.596
10861SOL     OW33481   3.644   2.740   1.910
10861SOL    HW133482   3.649   2.659   1.969
10861SOL    HW233483   3.676   2.820   1.961
10862SOL     OW33484   2.713   1.547   6.407
10862SOL    HW133485   2.802   1.540   6.452
10862SOL    HW233486   2.641   1.512   6.467
10863SOL     OW33487   3.572   0.664   2.262
10863SOL    HW133488   3.589   0.664   2.360
10863SOL    HW233489   3.491   0.609   2.242
10864SOL     OW33490   2.763   4.662   1.130
10864SOL    HW133491   2.796   4.570   1.151
10864SOL    HW233492   2.798   4.726   1.199
10865SOL     OW33493   5.609   2.177   3.848
10865SOL    HW133494   5.575   2.266   3.818
10865SOL    HW233495   5.705   2.186   3.877
10866SOL     OW33496   6.185   3.753   0.773
10866SOL    HW133497   6.144   3.769   0.683
10866SOL    HW233498   6.113   3.742   0.841
10867SOL     OW33499   3.176   3.404   0.421
10867SOL    HW133500   3.248   3.339   0.397
10867SOL    HW233501   3.100   3.394   0.357
10868SOL     OW33502   1.821   1.550   3.188
10868SOL    HW133503   1.736   1.508   3.220
10868SOL    HW233504   1.807   1.590   3.098
10869NA      NA33505   0.392   2.521   6.136
10870NA      NA33506   4.334   4.547   5.316
10871NA      NA33507   2.303   4.348   2.194
10872NA      NA33508   5.059   4.627   3.535
10873NA      NA33509   4.221   2.399   5.317
10874NA      NA33510   3.478   4.479   1.365
10875NA      NA33511   0.891   4.530   0.346
10876NA      NA33512   4.137   4.312   1.613
10877NA      NA33513   4.966   4.739   0.969
10878NA      NA33514   3.592   0.244   5.513
10879NA      NA33515   6.061   5.403   1.177
10880NA      NA33516   1.751   0.848   6.052
10881NA      NA33517   4.935   5.059   2.302
10882NA      NA33518   3.714   2.964   0.789
   7.02246   7.02246   7.02246
