Generated by trjconv : CNT in water t= 405.00000
33518
    1C        C    1   2.841   2.770   4.744
    1C        C    2   2.896   2.721   4.864
    1C        C    3   2.841   2.768   4.984
    1C        C    4   2.849   2.771   4.259
    1C        C    5   2.901   2.724   4.382
    1C        C    6   2.843   2.768   4.503
    1C        C    7   3.013   2.639   4.625
    1C        C    8   2.897   2.720   4.624
    1C        C    9   3.073   2.601   4.748
    1C        C   10   3.008   2.634   4.868
    1C        C   11   3.177   2.490   4.974
    1C        C   12   3.053   2.557   4.976
    1C        C   13   2.857   2.778   3.769
    1C        C   14   2.901   2.722   3.891
    1C        C   15   2.849   2.770   4.014
    1C        C   16   3.019   2.647   4.140
    1C        C   17   2.900   2.723   4.137
    1C        C   18   3.079   2.607   4.261
    1C        C   19   3.017   2.644   4.383
    1C        C   20   3.208   2.552   4.502
    1C        C   21   3.075   2.601   4.504
    1C        C   22   3.274   2.527   4.624
    1C        C   23   3.202   2.541   4.744
    1C        C   24   3.409   2.481   4.866
    1C        C   25   3.267   2.497   4.863
    1C        C   26   3.489   2.476   4.980
    1C        C   27   2.851   2.769   3.280
    1C        C   28   2.908   2.726   3.402
    1C        C   29   2.856   2.773   3.525
    1C        C   30   3.019   2.640   3.649
    1C        C   31   2.910   2.730   3.648
    1C        C   32   3.076   2.604   3.773
    1C        C   33   3.016   2.640   3.895
    1C        C   34   3.209   2.554   4.016
    1C        C   35   3.077   2.605   4.018
    1C        C   36   3.276   2.528   4.137
    1C        C   37   3.207   2.548   4.259
    1C        C   38   3.415   2.501   4.381
    1C        C   39   3.277   2.529   4.381
    1C        C   40   3.485   2.493   4.504
    1C        C   41   3.413   2.500   4.625
    1C        C   42   3.627   2.483   4.747
    1C        C   43   3.485   2.484   4.745
    1C        C   44   3.701   2.491   4.866
    1C        C   45   3.628   2.477   4.984
    1C        C   46   2.843   2.758   2.794
    1C        C   47   2.896   2.711   2.916
    1C        C   48   2.848   2.766   3.037
    1C        C   49   3.019   2.640   3.161
    1C        C   50   2.901   2.718   3.158
    1C        C   51   3.081   2.602   3.282
    1C        C   52   3.018   2.637   3.404
    1C        C   53   3.208   2.544   3.526
    1C        C   54   3.078   2.601   3.526
    1C        C   55   3.271   2.520   3.650
    1C        C   56   3.205   2.547   3.772
    1C        C   57   3.412   2.496   3.891
    1C        C   58   3.275   2.531   3.893
    1C        C   59   3.483   2.498   4.013
    1C        C   60   3.414   2.501   4.137
    1C        C   61   3.626   2.492   4.261
    1C        C   62   3.484   2.490   4.259
    1C        C   63   3.698   2.503   4.381
    1C        C   64   3.626   2.498   4.503
    1C        C   65   3.833   2.540   4.622
    1C        C   66   3.697   2.500   4.625
    1C        C   67   3.903   2.560   4.743
    1C        C   68   3.837   2.529   4.864
    1C        C   69   4.051   2.589   4.976
    1C        C   70   3.923   2.531   4.975
    1C        C   71   2.828   2.736   2.309
    1C        C   72   2.882   2.689   2.431
    1C        C   73   2.832   2.743   2.551
    1C        C   74   3.007   2.623   2.671
    1C        C   75   2.890   2.702   2.673
    1C        C   76   3.071   2.592   2.794
    1C        C   77   3.011   2.629   2.916
    1C        C   78   3.202   2.535   3.037
    1C        C   79   3.075   2.597   3.038
    1C        C   80   3.272   2.517   3.158
    1C        C   81   3.207   2.540   3.282
    1C        C   82   3.413   2.492   3.402
    1C        C   83   3.275   2.519   3.404
    1C        C   84   3.482   2.491   3.525
    1C        C   85   3.411   2.497   3.647
    1C        C   86   3.624   2.499   3.770
    1C        C   87   3.483   2.491   3.768
    1C        C   88   3.693   2.508   3.893
    1C        C   89   3.624   2.505   4.016
    1C        C   90   3.830   2.548   4.135
    1C        C   91   3.694   2.510   4.139
    1C        C   92   3.897   2.573   4.257
    1C        C   93   3.833   2.543   4.379
    1C        C   94   4.021   2.638   4.499
    1C        C   95   3.901   2.563   4.501
    1C        C   96   4.085   2.675   4.620
    1C        C   97   4.027   2.629   4.740
    1C        C   98   4.187   2.771   4.861
    1C        C   99   4.095   2.662   4.861
    1C        C  100   4.217   2.844   4.977
    1C        C  101   2.825   2.729   2.067
    1C        C  102   2.989   2.593   2.190
    1C        C  103   2.875   2.679   2.188
    1C        C  104   3.062   2.570   2.310
    1C        C  105   3.001   2.613   2.430
    1C        C  106   3.200   2.533   2.551
    1C        C  107   3.067   2.580   2.551
    1C        C  108   3.268   2.515   2.673
    1C        C  109   3.202   2.540   2.795
    1C        C  110   3.409   2.487   2.915
    1C        C  111   3.270   2.512   2.915
    1C        C  112   3.483   2.489   3.036
    1C        C  113   3.412   2.496   3.158
    1C        C  114   3.624   2.496   3.279
    1C        C  115   3.483   2.486   3.279
    1C        C  116   3.693   2.506   3.402
    1C        C  117   3.623   2.499   3.524
    1C        C  118   3.830   2.540   3.644
    1C        C  119   3.692   2.508   3.647
    1C        C  120   3.895   2.566   3.767
    1C        C  121   3.828   2.550   3.890
    1C        C  122   4.018   2.644   4.012
    1C        C  123   3.895   2.575   4.012
    1C        C  124   4.079   2.679   4.134
    1C        C  125   4.023   2.637   4.257
    1C        C  126   4.189   2.771   4.377
    1C        C  127   4.084   2.677   4.378
    1C        C  128   4.239   2.821   4.499
    1C        C  129   4.193   2.765   4.620
    1C        C  130   4.324   2.938   4.738
    1C        C  131   4.240   2.823   4.740
    1C        C  132   4.350   3.006   4.859
    1C        C  133   4.278   2.968   4.973
    1C        C  134   3.168   2.464   2.084
    1C        C  135   3.036   2.511   2.083
    1C        C  136   3.258   2.472   2.191
    1C        C  137   3.193   2.514   2.309
    1C        C  138   3.404   2.474   2.426
    1C        C  139   3.267   2.505   2.429
    1C        C  140   3.476   2.475   2.548
    1C        C  141   3.408   2.490   2.670
    1C        C  142   3.619   2.491   2.789
    1C        C  143   3.478   2.484   2.792
    1C        C  144   3.691   2.503   2.910
    1C        C  145   3.624   2.498   3.034
    1C        C  146   3.830   2.545   3.153
    1C        C  147   3.694   2.507   3.157
    1C        C  148   3.896   2.566   3.276
    1C        C  149   3.830   2.542   3.398
    1C        C  150   4.019   2.633   3.522
    1C        C  151   3.894   2.566   3.521
    1C        C  152   4.076   2.675   3.644
    1C        C  153   4.017   2.638   3.767
    1C        C  154   4.184   2.771   3.889
    1C        C  155   4.073   2.684   3.888
    1C        C  156   4.235   2.821   4.011
    1C        C  157   4.186   2.771   4.133
    1C        C  158   4.332   2.927   4.255
    1C        C  159   4.240   2.820   4.254
    1C        C  160   4.372   2.988   4.375
    1C        C  161   4.327   2.932   4.497
    1C        C  162   4.438   3.117   4.613
    1C        C  163   4.370   2.994   4.616
    1C        C  164   4.464   3.185   4.734
    1C        C  165   4.426   3.125   4.856
    1C        C  166   4.523   3.316   4.971
    1C        C  167   4.482   3.183   4.971
    1C        C  168   3.474   2.424   2.073
    1C        C  169   3.397   2.447   2.188
    1C        C  170   3.616   2.460   2.305
    1C        C  171   3.474   2.451   2.306
    1C        C  172   3.688   2.486   2.424
    1C        C  173   3.617   2.485   2.546
    1C        C  174   3.825   2.540   2.666
    1C        C  175   3.689   2.501   2.667
    1C        C  176   3.894   2.564   2.787
    1C        C  177   3.826   2.542   2.909
    1C        C  178   4.022   2.629   3.031
    1C        C  179   3.895   2.566   3.029
    1C        C  180   4.081   2.668   3.154
    1C        C  181   4.023   2.630   3.277
    1C        C  182   4.188   2.759   3.397
    1C        C  183   4.081   2.667   3.400
    1C        C  184   4.239   2.809   3.519
    1C        C  185   4.186   2.763   3.642
    1C        C  186   4.328   2.920   3.766
    1C        C  187   4.234   2.815   3.764
    1C        C  188   4.370   2.982   3.886
    1C        C  189   4.325   2.930   4.010
    1C        C  190   4.443   3.107   4.129
    1C        C  191   4.370   2.986   4.132
    1C        C  192   4.469   3.174   4.250
    1C        C  193   4.443   3.110   4.373
    1C        C  194   4.515   3.316   4.489
    1C        C  195   4.474   3.181   4.492
    1C        C  196   4.525   3.386   4.611
    1C        C  197   4.510   3.320   4.735
    1C        C  198   4.556   3.535   4.849
    1C        C  199   4.539   3.393   4.854
    1C        C  200   4.583   3.619   4.962
    1C        C  201   3.614   2.418   2.068
    1C        C  202   3.823   2.509   2.184
    1C        C  203   3.690   2.456   2.183
    1C        C  204   3.896   2.535   2.303
    1C        C  205   3.826   2.520   2.424
    1C        C  206   4.018   2.621   2.542
    1C        C  207   3.893   2.555   2.543
    1C        C  208   4.082   2.659   2.663
    1C        C  209   4.022   2.624   2.785
    1C        C  210   4.189   2.754   2.909
    1C        C  211   4.080   2.665   2.908
    1C        C  212   4.243   2.801   3.030
    1C        C  213   4.194   2.753   3.153
    1C        C  214   4.332   2.915   3.274
    1C        C  215   4.241   2.806   3.275
    1C        C  216   4.371   2.973   3.397
    1C        C  217   4.328   2.919   3.520
    1C        C  218   4.436   3.101   3.641
    1C        C  219   4.368   2.977   3.643
    1C        C  220   4.468   3.167   3.761
    1C        C  221   4.442   3.103   3.884
    1C        C  222   4.509   3.306   4.005
    1C        C  223   4.472   3.170   4.005
    1C        C  224   4.520   3.380   4.125
    1C        C  225   4.511   3.309   4.247
    1C        C  226   4.525   3.525   4.367
    1C        C  227   4.528   3.384   4.366
    1C        C  228   4.524   3.598   4.487
    1C        C  229   4.536   3.526   4.608
    1C        C  230   4.503   3.741   4.726
    1C        C  231   4.541   3.604   4.726
    1C        C  232   4.496   3.818   4.844
    1C        C  233   4.536   3.751   4.961
    1C        C  234   4.014   2.611   2.062
    1C        C  235   3.892   2.544   2.067
    1C        C  236   4.083   2.643   2.180
    1C        C  237   4.019   2.607   2.300
    1C        C  238   4.195   2.735   2.421
    1C        C  239   4.081   2.650   2.419
    1C        C  240   4.251   2.784   2.541
    1C        C  241   4.199   2.738   2.664
    1C        C  242   4.335   2.904   2.782
    1C        C  243   4.243   2.797   2.785
    1C        C  244   4.374   2.962   2.904
    1C        C  245   4.335   2.909   3.029
    1C        C  246   4.441   3.093   3.149
    1C        C  247   4.375   2.968   3.151
    1C        C  248   4.466   3.159   3.272
    1C        C  249   4.436   3.099   3.396
    1C        C  250   4.500   3.302   3.516
    1C        C  251   4.458   3.167   3.518
    1C        C  252   4.512   3.372   3.638
    1C        C  253   4.506   3.303   3.761
    1C        C  254   4.523   3.515   3.879
    1C        C  255   4.520   3.374   3.882
    1C        C  256   4.517   3.591   3.999
    1C        C  257   4.522   3.521   4.122
    1C        C  258   4.492   3.732   4.240
    1C        C  259   4.517   3.593   4.243
    1C        C  260   4.467   3.802   4.361
    1C        C  261   4.489   3.735   4.484
    1C        C  262   4.424   3.938   4.604
    1C        C  263   4.479   3.808   4.604
    1C        C  264   4.396   4.007   4.724
    1C        C  265   4.432   3.944   4.844
    1C        C  266   4.326   4.134   4.960
    1C        C  267   4.394   4.012   4.961
    1C        C  268   4.259   2.771   2.064
    1C        C  269   4.194   2.731   2.182
    1C        C  270   4.339   2.894   2.299
    1C        C  271   4.249   2.784   2.300
    1C        C  272   4.383   2.954   2.419
    1C        C  273   4.340   2.894   2.539
    1C        C  274   4.446   3.083   2.661
    1C        C  275   4.376   2.960   2.659
    1C        C  276   4.469   3.152   2.782
    1C        C  277   4.442   3.086   2.904
    1C        C  278   4.507   3.290   3.028
    1C        C  279   4.471   3.153   3.025
    1C        C  280   4.516   3.363   3.149
    1C        C  281   4.503   3.295   3.272
    1C        C  282   4.518   3.508   3.389
    1C        C  283   4.519   3.367   3.392
    1C        C  284   4.513   3.580   3.511
    1C        C  285   4.517   3.513   3.635
    1C        C  286   4.492   3.724   3.749
    1C        C  287   4.519   3.586   3.757
    1C        C  288   4.480   3.795   3.871
    1C        C  289   4.494   3.730   3.996
    1C        C  290   4.428   3.932   4.116
    1C        C  291   4.478   3.800   4.117
    1C        C  292   4.394   3.996   4.237
    1C        C  293   4.420   3.935   4.362
    1C        C  294   4.324   4.126   4.478
    1C        C  295   4.396   4.005   4.482
    1C        C  296   4.282   4.186   4.600
    1C        C  297   4.324   4.130   4.722
    1C        C  298   4.198   4.310   4.840
    1C        C  299   4.283   4.195   4.842
    1C        C  300   4.170   4.403   4.945
    1C        C  301   4.341   2.883   2.063
    1C        C  302   4.466   3.069   2.176
    1C        C  303   4.391   2.947   2.177
    1C        C  304   4.484   3.143   2.296
    1C        C  305   4.454   3.077   2.417
    1C        C  306   4.513   3.282   2.536
    1C        C  307   4.476   3.146   2.538
    1C        C  308   4.519   3.355   2.657
    1C        C  309   4.500   3.290   2.781
    1C        C  310   4.526   3.498   2.899
    1C        C  311   4.517   3.357   2.904
    1C        C  312   4.519   3.570   3.020
    1C        C  313   4.519   3.504   3.145
    1C        C  314   4.491   3.716   3.263
    1C        C  315   4.513   3.577   3.266
    1C        C  316   4.476   3.788   3.383
    1C        C  317   4.492   3.720   3.506
    1C        C  318   4.424   3.923   3.627
    1C        C  319   4.476   3.792   3.626
    1C        C  320   4.395   3.986   3.750
    1C        C  321   4.429   3.927   3.873
    1C        C  322   4.310   4.107   3.991
    1C        C  323   4.390   3.991   3.993
    1C        C  324   4.271   4.167   4.113
    1C        C  325   4.313   4.112   4.236
    1C        C  326   4.187   4.286   4.353
    1C        C  327   4.281   4.181   4.355
    1C        C  328   4.137   4.339   4.474
    1C        C  329   4.190   4.293   4.596
    1C        C  330   4.023   4.431   4.714
    1C        C  331   4.135   4.344   4.716
    1C        C  332   3.968   4.488   4.830
    1C        C  333   4.051   4.478   4.942
    1C        C  334   4.552   3.265   2.062
    1C        C  335   4.534   3.127   2.064
    1C        C  336   4.535   3.351   2.172
    1C        C  337   4.518   3.281   2.293
    1C        C  338   4.536   3.494   2.411
    1C        C  339   4.528   3.353   2.414
    1C        C  340   4.526   3.565   2.533
    1C        C  341   4.527   3.496   2.656
    1C        C  342   4.497   3.708   2.775
    1C        C  343   4.520   3.569   2.776
    1C        C  344   4.480   3.779   2.896
    1C        C  345   4.497   3.710   3.018
    1C        C  346   4.420   3.911   3.137
    1C        C  347   4.472   3.780   3.138
    1C        C  348   4.388   3.977   3.258
    1C        C  349   4.416   3.917   3.383
    1C        C  350   4.317   4.105   3.503
    1C        C  351   4.392   3.985   3.504
    1C        C  352   4.271   4.160   3.625
    1C        C  353   4.312   4.101   3.746
    1C        C  354   4.175   4.266   3.865
    1C        C  355   4.269   4.160   3.867
    1C        C  356   4.121   4.315   3.985
    1C        C  357   4.175   4.271   4.108
    1C        C  358   4.014   4.407   4.232
    1C        C  359   4.128   4.324   4.230
    1C        C  360   3.955   4.446   4.354
    1C        C  361   4.020   4.419   4.477
    1C        C  362   3.823   4.515   4.594
    1C        C  363   3.952   4.459   4.594
    1C        C  364   3.760   4.549   4.716
    1C        C  365   3.837   4.541   4.833
    1C        C  366   3.626   4.597   4.952
    1C        C  367   3.763   4.571   4.948
    1C        C  368   4.508   3.564   2.050
    1C        C  369   4.522   3.491   2.169
    1C        C  370   4.507   3.705   2.288
    1C        C  371   4.529   3.565   2.290
    1C        C  372   4.490   3.775   2.409
    1C        C  373   4.502   3.705   2.531
    1C        C  374   4.427   3.906   2.650
    1C        C  375   4.480   3.775   2.651
    1C        C  376   4.394   3.971   2.771
    1C        C  377   4.429   3.911   2.894
    1C        C  378   4.321   4.097   3.014
    1C        C  379   4.395   3.977   3.014
    1C        C  380   4.273   4.153   3.134
    1C        C  381   4.311   4.096   3.257
    1C        C  382   4.168   4.251   3.376
    1C        C  383   4.272   4.156   3.379
    1C        C  384   4.118   4.300   3.498
    1C        C  385   4.174   4.263   3.622
    1C        C  386   4.006   4.394   3.744
    1C        C  387   4.123   4.315   3.743
    1C        C  388   3.943   4.430   3.865
    1C        C  389   4.004   4.395   3.988
    1C        C  390   3.820   4.494   4.109
    1C        C  391   3.950   4.440   4.110
    1C        C  392   3.751   4.513   4.231
    1C        C  393   3.825   4.501   4.351
    1C        C  394   3.616   4.548   4.475
    1C        C  395   3.755   4.528   4.471
    1C        C  396   3.547   4.563   4.597
    1C        C  397   3.619   4.562   4.719
    1C        C  398   3.408   4.549   4.839
    1C        C  399   3.546   4.576   4.839
    1C        C  400   3.337   4.523   4.957
    1C        C  401   4.502   3.703   2.050
    1C        C  402   4.451   3.913   2.170
    1C        C  403   4.493   3.778   2.168
    1C        C  404   4.413   3.979   2.288
    1C        C  405   4.439   3.907   2.407
    1C        C  406   4.323   4.088   2.527
    1C        C  407   4.401   3.970   2.527
    1C        C  408   4.272   4.143   2.647
    1C        C  409   4.315   4.087   2.770
    1C        C  410   4.171   4.245   2.889
    1C        C  411   4.273   4.148   2.891
    1C        C  412   4.117   4.295   3.010
    1C        C  413   4.175   4.255   3.132
    1C        C  414   3.998   4.377   3.252
    1C        C  415   4.116   4.299   3.253
    1C        C  416   3.938   4.410   3.376
    1C        C  417   4.003   4.383   3.498
    1C        C  418   3.815   4.482   3.616
    1C        C  419   3.944   4.423   3.620
    1C        C  420   3.751   4.508   3.739
    1C        C  421   3.815   4.490   3.864
    1C        C  422   3.612   4.539   3.986
    1C        C  423   3.752   4.515   3.987
    1C        C  424   3.543   4.543   4.109
    1C        C  425   3.612   4.539   4.232
    1C        C  426   3.401   4.549   4.357
    1C        C  427   3.542   4.555   4.354
    1C        C  428   3.332   4.543   4.480
    1C        C  429   3.406   4.559   4.599
    1C        C  430   3.193   4.519   4.722
    1C        C  431   3.333   4.546   4.719
    1C        C  432   3.125   4.491   4.843
    1C        C  433   3.200   4.497   4.961
    1C        C  434   4.386   4.120   2.054
    1C        C  435   4.450   3.995   2.056
    1C        C  436   4.304   4.162   2.164
    1C        C  437   4.334   4.098   2.287
    1C        C  438   4.177   4.245   2.404
    1C        C  439   4.282   4.150   2.407
    1C        C  440   4.120   4.293   2.524
    1C        C  441   4.174   4.244   2.645
    1C        C  442   4.001   4.371   2.764
    1C        C  443   4.118   4.292   2.766
    1C        C  444   3.941   4.409   2.886
    1C        C  445   4.000   4.373   3.010
    1C        C  446   3.809   4.470   3.128
    1C        C  447   3.938   4.414   3.130
    1C        C  448   3.743   4.491   3.252
    1C        C  449   3.812   4.474   3.374
    1C        C  450   3.606   4.529   3.496
    1C        C  451   3.745   4.503   3.496
    1C        C  452   3.541   4.544   3.620
    1C        C  453   3.612   4.538   3.741
    1C        C  454   3.401   4.545   3.863
    1C        C  455   3.542   4.542   3.864
    1C        C  456   3.335   4.530   3.987
    1C        C  457   3.402   4.541   4.111
    1C        C  458   3.196   4.500   4.237
    1C        C  459   3.333   4.535   4.234
    1C        C  460   3.127   4.482   4.359
    1C        C  461   3.193   4.514   4.480
    1C        C  462   2.994   4.438   4.601
    1C        C  463   3.123   4.496   4.601
    1C        C  464   2.932   4.399   4.722
    1C        C  465   2.991   4.442   4.844
    1C        C  466   2.802   4.332   4.962
    1C        C  467   2.905   4.427   4.957
    1C        C  468   4.120   4.279   2.043
    1C        C  469   4.188   4.246   2.161
    1C        C  470   4.007   4.368   2.280
    1C        C  471   4.128   4.293   2.280
    1C        C  472   3.938   4.397   2.400
    1C        C  473   3.999   4.365   2.523
    1C        C  474   3.810   4.469   2.642
    1C        C  475   3.935   4.403   2.643
    1C        C  476   3.743   4.491   2.764
    1C        C  477   3.814   4.470   2.885
    1C        C  478   3.607   4.525   3.007
    1C        C  479   3.746   4.499   3.005
    1C        C  480   3.535   4.534   3.128
    1C        C  481   3.606   4.522   3.250
    1C        C  482   3.395   4.534   3.374
    1C        C  483   3.536   4.533   3.373
    1C        C  484   3.329   4.534   3.499
    1C        C  485   3.399   4.546   3.621
    1C        C  486   3.191   4.501   3.746
    1C        C  487   3.328   4.536   3.742
    1C        C  488   3.127   4.481   3.871
    1C        C  489   3.197   4.499   3.992
    1C        C  490   3.004   4.413   4.115
    1C        C  491   3.130   4.478   4.115
    1C        C  492   2.941   4.381   4.237
    1C        C  493   2.999   4.424   4.358
    1C        C  494   2.831   4.298   4.482
    1C        C  495   2.937   4.390   4.481
    1C        C  496   2.777   4.253   4.605
    1C        C  497   2.823   4.308   4.726
    1C        C  498   2.665   4.163   4.843
    1C        C  499   2.755   4.272   4.845
    1C        C  500   2.600   4.112   4.955
    1C        C  501   4.004   4.356   2.044
    1C        C  502   3.813   4.460   2.154
    1C        C  503   3.943   4.405   2.160
    1C        C  504   3.745   4.483   2.276
    1C        C  505   3.810   4.457   2.399
    1C        C  506   3.604   4.515   2.520
    1C        C  507   3.743   4.489   2.519
    1C        C  508   3.534   4.529   2.641
    1C        C  509   3.605   4.521   2.763
    1C        C  510   3.394   4.525   2.885
    1C        C  511   3.535   4.530   2.885
    1C        C  512   3.324   4.518   3.007
    1C        C  513   3.394   4.535   3.129
    1C        C  514   3.188   4.494   3.256
    1C        C  515   3.324   4.530   3.251
    1C        C  516   3.125   4.469   3.381
    1C        C  517   3.193   4.497   3.501
    1C        C  518   3.001   4.410   3.624
    1C        C  519   3.126   4.475   3.624
    1C        C  520   2.939   4.378   3.748
    1C        C  521   3.003   4.414   3.869
    1C        C  522   2.838   4.284   3.994
    1C        C  523   2.949   4.371   3.992
    1C        C  524   2.791   4.232   4.117
    1C        C  525   2.833   4.290   4.239
    1C        C  526   2.699   4.129   4.363
    1C        C  527   2.780   4.245   4.362
    1C        C  528   2.656   4.073   4.485
    1C        C  529   2.694   4.138   4.605
    1C        C  530   2.582   3.958   4.729
    1C        C  531   2.643   4.087   4.726
    1C        C  532   2.544   3.896   4.852
    1C        C  533   2.529   3.991   4.958
    1C        C  534   3.616   4.549   2.035
    1C        C  535   3.751   4.511   2.040
    1C        C  536   3.537   4.533   2.154
    1C        C  537   3.607   4.514   2.276
    1C        C  538   3.393   4.517   2.397
    1C        C  539   3.534   4.520   2.397
    1C        C  540   3.321   4.516   2.519
    1C        C  541   3.393   4.524   2.640
    1C        C  542   3.186   4.480   2.763
    1C        C  543   3.323   4.515   2.763
    1C        C  544   3.123   4.457   2.888
    1C        C  545   3.188   4.480   3.011
    1C        C  546   2.998   4.396   3.133
    1C        C  547   3.122   4.464   3.135
    1C        C  548   2.943   4.362   3.259
    1C        C  549   3.000   4.403   3.381
    1C        C  550   2.830   4.280   3.509
    1C        C  551   2.939   4.369   3.504
    1C        C  552   2.781   4.231   3.632
    1C        C  553   2.833   4.285   3.752
    1C        C  554   2.702   4.118   3.876
    1C        C  555   2.783   4.234   3.874
    1C        C  556   2.659   4.063   3.998
    1C        C  557   2.700   4.124   4.118
    1C        C  558   2.599   3.940   4.244
    1C        C  559   2.661   4.067   4.242
    1C        C  560   2.567   3.878   4.367
    1C        C  561   2.591   3.948   4.487
    1C        C  562   2.539   3.745   4.614
    1C        C  563   2.564   3.884   4.611
    1C        C  564   2.517   3.678   4.737
    1C        C  565   2.527   3.754   4.856
    1C        C  566   2.520   3.543   4.979
    1C        C  567   2.517   3.682   4.976
    1C        C  568   3.324   4.479   2.040
    1C        C  569   3.396   4.514   2.155
    1C        C  570   3.183   4.474   2.279
    1C        C  571   3.321   4.506   2.276
    1C        C  572   3.116   4.457   2.402
    1C        C  573   3.183   4.486   2.523
    1C        C  574   2.987   4.400   2.645
    1C        C  575   3.112   4.466   2.644
    1C        C  576   2.929   4.362   2.768
    1C        C  577   2.996   4.396   2.888
    1C        C  578   2.828   4.269   3.016
    1C        C  579   2.937   4.359   3.011
    1C        C  580   2.781   4.221   3.140
    1C        C  581   2.833   4.274   3.260
    1C        C  582   2.701   4.114   3.387
    1C        C  583   2.786   4.227   3.385
    1C        C  584   2.665   4.053   3.509
    1C        C  585   2.698   4.117   3.631
    1C        C  586   2.604   3.929   3.753
    1C        C  587   2.663   4.058   3.754
    1C        C  588   2.577   3.871   3.879
    1C        C  589   2.602   3.934   4.003
    1C        C  590   2.534   3.733   4.125
    1C        C  591   2.573   3.869   4.125
    1C        C  592   2.519   3.670   4.250
    1C        C  593   2.530   3.742   4.371
    1C        C  594   2.511   3.532   4.498
    1C        C  595   2.522   3.673   4.494
    1C        C  596   2.507   3.462   4.620
    1C        C  597   2.509   3.536   4.740
    1C        C  598   2.527   3.325   4.863
    1C        C  599   2.513   3.465   4.863
    1C        C  600   2.523   3.243   4.977
    1C        C  601   3.193   4.437   2.042
    1C        C  602   2.982   4.392   2.158
    1C        C  603   3.115   4.443   2.158
    1C        C  604   2.926   4.357   2.284
    1C        C  605   2.987   4.400   2.404
    1C        C  606   2.819   4.268   2.530
    1C        C  607   2.924   4.362   2.525
    1C        C  608   2.769   4.219   2.652
    1C        C  609   2.822   4.270   2.773
    1C        C  610   2.691   4.104   2.896
    1C        C  611   2.777   4.216   2.896
    1C        C  612   2.652   4.050   3.021
    1C        C  613   2.693   4.110   3.143
    1C        C  614   2.593   3.927   3.265
    1C        C  615   2.659   4.052   3.267
    1C        C  616   2.566   3.866   3.389
    1C        C  617   2.599   3.928   3.511
    1C        C  618   2.527   3.728   3.636
    1C        C  619   2.572   3.862   3.633
    1C        C  620   2.518   3.662   3.761
    1C        C  621   2.535   3.736   3.880
    1C        C  622   2.509   3.525   4.007
    1C        C  623   2.522   3.665   4.001
    1C        C  624   2.511   3.457   4.131
    1C        C  625   2.514   3.528   4.253
    1C        C  626   2.543   3.321   4.379
    1C        C  627   2.520   3.460   4.376
    1C        C  628   2.559   3.252   4.501
    1C        C  629   2.532   3.323   4.621
    1C        C  630   2.594   3.120   4.742
    1C        C  631   2.546   3.254   4.743
    1C        C  632   2.617   3.050   4.864
    1C        C  633   2.558   3.108   4.980
    1C        C  634   2.782   4.303   2.055
    1C        C  635   2.887   4.396   2.050
    1C        C  636   2.750   4.227   2.168
    1C        C  637   2.810   4.275   2.287
    1C        C  638   2.679   4.108   2.406
    1C        C  639   2.763   4.221   2.409
    1C        C  640   2.644   4.047   2.529
    1C        C  641   2.682   4.108   2.650
    1C        C  642   2.582   3.923   2.775
    1C        C  643   2.647   4.048   2.774
    1C        C  644   2.554   3.861   2.899
    1C        C  645   2.584   3.926   3.020
    1C        C  646   2.531   3.723   3.145
    1C        C  647   2.566   3.860   3.144
    1C        C  648   2.517   3.658   3.270
    1C        C  649   2.528   3.730   3.391
    1C        C  650   2.506   3.519   3.517
    1C        C  651   2.516   3.660   3.513
    1C        C  652   2.505   3.450   3.641
    1C        C  653   2.511   3.521   3.763
    1C        C  654   2.531   3.311   3.889
    1C        C  655   2.513   3.451   3.886
    1C        C  656   2.546   3.245   4.013
    1C        C  657   2.528   3.317   4.133
    1C        C  658   2.603   3.120   4.257
    1C        C  659   2.550   3.251   4.256
    1C        C  660   2.638   3.056   4.378
    1C        C  661   2.610   3.120   4.500
    1C        C  662   2.710   2.936   4.621
    1C        C  663   2.636   3.056   4.623
    1C        C  664   2.750   2.879   4.744
    1C        C  665   2.696   2.931   4.865
    1C        C  666   2.743   2.867   4.981
    1C        C  667   2.679   4.024   2.048
    1C        C  668   2.683   4.103   2.163
    1C        C  669   2.587   3.913   2.290
    1C        C  670   2.644   4.043   2.285
    1C        C  671   2.558   3.848   2.412
    1C        C  672   2.581   3.921   2.531
    1C        C  673   2.513   3.722   2.659
    1C        C  674   2.550   3.858   2.653
    1C        C  675   2.506   3.651   2.780
    1C        C  676   2.523   3.724   2.900
    1C        C  677   2.504   3.514   3.032
    1C        C  678   2.514   3.654   3.023
    1C        C  679   2.503   3.442   3.153
    1C        C  680   2.505   3.517   3.273
    1C        C  681   2.527   3.307   3.399
    1C        C  682   2.508   3.447   3.396
    1C        C  683   2.542   3.239   3.522
    1C        C  684   2.526   3.310   3.643
    1C        C  685   2.603   3.114   3.769
    1C        C  686   2.547   3.243   3.766
    1C        C  687   2.638   3.054   3.892
    1C        C  688   2.601   3.115   4.014
    1C        C  689   2.714   2.936   4.135
    1C        C  690   2.635   3.053   4.136
    1C        C  691   2.757   2.878   4.257
    1C        C  692   2.718   2.939   4.378
    1C        C  693   2.753   2.877   4.500
    1C        C  694   2.624   3.896   2.054
    1C        C  695   2.520   3.707   2.176
    1C        C  696   2.577   3.836   2.172
    1C        C  697   2.509   3.636   2.297
    1C        C  698   2.523   3.711   2.416
    1C        C  699   2.489   3.506   2.543
    1C        C  700   2.499   3.647   2.540
    1C        C  701   2.500   3.436   2.665
    1C        C  702   2.498   3.510   2.785
    1C        C  703   2.525   3.303   2.911
    1C        C  704   2.504   3.443   2.909
    1C        C  705   2.541   3.234   3.033
    1C        C  706   2.527   3.303   3.156
    1C        C  707   2.602   3.106   3.280
    1C        C  708   2.553   3.238   3.279
    1C        C  709   2.635   3.045   3.404
    1C        C  710   2.600   3.110   3.524
    1C        C  711   2.715   2.933   3.647
    1C        C  712   2.635   3.049   3.647
    1C        C  713   2.760   2.881   3.770
    1C        C  714   2.719   2.938   3.893
    1C        C  715   2.757   2.877   4.014
    1C        C  716   2.455   3.500   2.064
    1C        C  717   2.495   3.634   2.059
    1C        C  718   2.463   3.419   2.181
    1C        C  719   2.485   3.496   2.299
    1C        C  720   2.518   3.293   2.426
    1C        C  721   2.488   3.431   2.424
    1C        C  722   2.537   3.222   2.546
    1C        C  723   2.525   3.297   2.666
    1C        C  724   2.593   3.101   2.790
    1C        C  725   2.536   3.231   2.790
    1C        C  726   2.626   3.040   2.912
    1C        C  727   2.597   3.104   3.035
    1C        C  728   2.711   2.927   3.157
    1C        C  729   2.629   3.041   3.158
    1C        C  730   2.756   2.874   3.280
    1C        C  731   2.717   2.930   3.404
    1C        C  732   2.756   2.872   3.526
    1C        C  733   2.491   3.199   2.070
    1C        C  734   2.487   3.278   2.186
    1C        C  735   2.580   3.084   2.306
    1C        C  736   2.527   3.216   2.308
    1C        C  737   2.613   3.019   2.427
    1C        C  738   2.587   3.090   2.547
    1C        C  739   2.699   2.913   2.670
    1C        C  740   2.627   3.035   2.670
    1C        C  741   2.746   2.861   2.792
    1C        C  742   2.702   2.921   2.913
    1C        C  743   2.752   2.869   3.034
    1C        C  744   2.550   3.073   2.074
    1C        C  745   2.688   2.898   2.186
    1C        C  746   2.613   3.018   2.186
    1C        C  747   2.732   2.841   2.307
    1C        C  748   2.690   2.900   2.428
    1C        C  749   2.738   2.848   2.550
    1C        C  750   2.740   2.840   2.070
    1C        C  751   3.665   2.326   1.964
    1C        O  752   3.698   2.211   2.004
    1C        O  753   3.684   2.360   1.829
    1C        C  754   4.645   3.056   1.996
    1C        O  755   4.642   3.024   1.874
    1C        O  756   4.774   3.090   2.038
    1C        C  757   4.470   4.215   1.977
    1C        O  758   4.550   4.298   2.028
    1C        O  759   4.472   4.219   1.837
    1C        C  760   3.585   4.655   1.936
    1C        O  761   3.674   4.742   1.916
    1C        O  762   3.524   4.634   1.811
    1C        C  763   2.879   4.499   1.945
    1C        O  764   2.917   4.469   1.828
    1C        O  765   2.817   4.624   1.959
    1C        C  766   2.369   3.462   1.949
    1C        O  767   2.435   3.435   1.845
    1C        O  768   2.229   3.471   1.948
    1C        C  769   4.707   3.612   5.042
    1C        O  770   4.698   3.651   5.161
    1C        O  771   4.826   3.660   4.985
    1C        C  772   4.263   4.458   5.046
    1C        O  773   4.246   4.449   5.171
    1C        O  774   4.376   4.533   5.014
    1C        C  775   4.152   2.527   5.065
    1C        O  776   4.258   2.470   5.029
    1C        O  777   4.152   2.550   5.203
    1C        C  778   2.877   4.549   5.036
    1C        O  779   2.825   4.649   4.980
    1C        O  780   2.873   4.555   5.176
    1C        C  781   2.459   3.022   5.049
    1C        O  782   2.361   2.969   4.991
    1C        O  783   2.452   3.032   5.188
    1C        C  784   2.405   3.998   5.038
    1C        O  785   2.288   3.987   4.992
    1C        O  786   2.411   3.971   5.175
    1C        C  787   2.945   2.436   1.993
    1C        O  788   2.906   2.491   1.887
    1C        O  789   2.870   2.333   2.050
    1C        C  790   3.197   2.398   5.088
    1C        O  791   3.134   2.289   5.085
    1C        O  792   3.234   2.436   5.218
    1C        H  793   4.294   3.019   5.066
    1C        H  794   4.233   2.793   5.069
    1C        H  795   4.537   3.119   5.035
    1C        H  796   4.526   3.360   5.068
    1C        H  797   4.553   3.808   5.050
    1C        H  798   4.364   3.953   5.045
    1C        H  799   4.311   4.186   5.052
    1C        H  800   4.036   4.545   5.024
    1C        H  801   3.813   4.563   5.042
    1C        H  802   3.575   4.616   5.044
    1C        H  803   3.383   4.534   5.053
    1C        H  804   3.154   4.478   5.056
    1C        H  805   3.898   2.465   5.056
    1C        H  806   3.675   2.461   5.079
    1C        H  807   2.988   2.539   5.058
    1C        H  808   3.439   2.472   5.075
    1C        H  809   2.901   2.759   5.072
    1C        H  810   2.692   2.890   5.072
    1C        H  811   2.458   3.285   5.052
    1C        H  812   2.571   3.500   5.062
    1C        H  813   2.497   3.732   5.068
    1C        H  814   2.653   4.125   5.048
    1C        H  815   2.753   4.315   5.056
    1C        H  816   2.699   2.866   1.974
    1C        H  817   2.887   2.729   1.980
    1C        H  818   3.204   2.427   1.990
    1C        H  819   3.425   2.441   1.980
    1C        H  820   3.839   2.535   1.975
    1C        H  821   4.020   2.674   1.975
    1C        H  822   4.277   2.697   1.989
    1C        H  823   4.344   2.940   1.972
    1C        H  824   4.558   3.314   1.967
    1C        H  825   4.456   3.518   1.969
    1C        H  826   4.468   3.749   1.960
    1C        H  827   3.811   4.529   1.953
    1C        H  828   3.943   4.345   1.956
    1C        H  829   4.166   4.254   1.950
    1C        H  830   4.524   3.977   1.981
    1C        H  831   2.580   3.863   1.962
    1C        H  832   2.727   4.058   1.959
    1C        H  833   2.704   4.314   1.982
    1C        H  834   3.346   4.539   1.955
    1C        H  835   3.146   4.416   1.948
    1C        H  836   2.501   3.002   2.011
    1C        H  837   2.409   3.207   2.001
    1C        H  838   2.481   3.685   1.966
    2V3OU   H29  839   2.809   3.544   4.697
    2V3OU   C27  840   2.793   3.501   4.799
    2V3OU   H27  841   2.741   3.572   4.868
    2V3OU   H28  842   2.741   3.404   4.777
    2V3OU   O11  843   2.917   3.470   4.864
    2V3OU   C15  844   2.919   3.396   4.980
    2V3OU   C13  845   3.050   3.376   5.028
    2V3OU   C14  846   3.076   3.269   5.115
    2V3OU   C16  847   2.971   3.195   5.168
    2V3OU    H6  848   2.992   3.107   5.231
    2V3OU   C12  849   3.212   3.227   5.153
    2V3OU    O2  850   3.239   3.120   5.212
    2V3OU   C10  851   3.324   3.309   5.103
    2V3OU    C8  852   3.457   3.271   5.118
    2V3OU   O10  853   3.489   3.159   5.189
    2V3OU   H26  854   3.405   3.112   5.205
    2V3OU    C6  855   3.564   3.351   5.067
    2V3OU    C5  856   3.537   3.469   5.000
    2V3OU    C4  857   3.702   3.295   5.055
    2V3OU    H4  858   3.722   3.227   5.142
    2V3OU    H5  859   3.715   3.227   4.966
    2V3OU    C2  860   3.815   3.398   5.055
    2V3OU    O6  861   3.803   3.477   5.174
    2V3OU   H21  862   3.765   3.564   5.156
    2V3OU    C3  863   3.783   3.491   4.938
    2V3OU    H2  864   3.859   3.573   4.926
    2V3OU    H3  865   3.789   3.439   4.839
    2V3OU   C25  866   3.949   3.327   5.033
    2V3OU    O7  867   3.992   3.296   4.922
    2V3OU   C26  868   4.026   3.287   5.158
    2V3OU   H22  869   4.064   3.377   5.212
    2V3OU   H23  870   4.108   3.216   5.129
    2V3OU    O8  871   3.959   3.213   5.257
    2V3OU   H24  872   3.925   3.273   5.326
    2V3OU    C1  873   3.648   3.559   4.951
    2V3OU    H1  874   3.624   3.612   4.854
    2V3OU    O3  875   3.658   3.658   5.053
    2V3OU   C19  876   3.616   3.794   5.040
    2V3OU    H9  877   3.521   3.802   4.980
    2V3OU    O4  878   3.714   3.847   4.954
    2V3OU   C20  879   3.846   3.875   5.001
    2V3OU   H10  880   3.888   3.770   5.006
    2V3OU   C24  881   3.612   3.858   5.179
    2V3OU   H16  882   3.548   3.794   5.244
    2V3OU   H17  883   3.562   3.958   5.165
    2V3OU   C23  884   3.751   3.873   5.240
    2V3OU   H15  885   3.795   3.770   5.262
    2V3OU    N1  886   3.740   3.959   5.357
    2V3OU   H19  887   3.803   3.924   5.427
    2V3OU   H20  888   3.651   3.927   5.389
    2V3OU   C21  889   3.846   3.943   5.138
    2V3OU   H11  890   3.950   3.926   5.180
    2V3OU    O5  891   3.827   4.084   5.140
    2V3OU   H18  892   3.782   4.105   5.223
    2V3OU   C22  893   3.911   3.947   4.884
    2V3OU   H12  894   3.859   4.043   4.860
    2V3OU   H13  895   3.903   3.887   4.789
    2V3OU   H14  896   4.021   3.959   4.904
    2V3OU   C11  897   3.160   3.471   5.005
    2V3OU    O1  898   3.132   3.587   4.967
    2V3OU    C9  899   3.299   3.431   5.035
    2V3OU    C7  900   3.401   3.509   4.982
    2V3OU    O9  901   3.388   3.617   4.898
    2V3OU   H25  902   3.291   3.625   4.903
    2V3OU   C17  903   2.821   3.313   5.038
    2V3OU    H7  904   2.721   3.352   5.055
    2V3OU   C18  905   2.838   3.209   5.128
    2V3OU    H8  906   2.756   3.141   5.154
    3SOL     OW  907   3.386   4.133   4.914
    3SOL    HW1  908   3.332   4.210   4.879
    3SOL    HW2  909   3.483   4.156   4.911
    4SOL     OW  910   6.743   0.196   0.449
    4SOL    HW1  911   6.750   0.207   0.548
    4SOL    HW2  912   6.791   0.113   0.421
    5SOL     OW  913   4.412   0.922   1.561
    5SOL    HW1  914   4.492   0.981   1.577
    5SOL    HW2  915   4.329   0.971   1.589
    6SOL     OW  916   5.567   0.827   3.288
    6SOL    HW1  917   5.546   0.733   3.316
    6SOL    HW2  918   5.637   0.865   3.349
    7SOL     OW  919   1.403   4.224   4.631
    7SOL    HW1  920   1.451   4.309   4.654
    7SOL    HW2  921   1.320   4.217   4.687
    8SOL     OW  922   1.951   2.943   5.884
    8SOL    HW1  923   1.880   2.979   5.943
    8SOL    HW2  924   2.021   3.013   5.869
    9SOL     OW  925   6.239   1.487   6.578
    9SOL    HW1  926   6.258   1.455   6.485
    9SOL    HW2  927   6.145   1.463   6.602
   10SOL     OW  928   5.032   4.671   3.098
   10SOL    HW1  929   5.071   4.759   3.070
   10SOL    HW2  930   5.076   4.597   3.047
   11SOL     OW  931   2.361   1.175   0.420
   11SOL    HW1  932   2.427   1.161   0.494
   11SOL    HW2  933   2.310   1.259   0.438
   12SOL     OW  934   3.099   4.853   3.581
   12SOL    HW1  935   3.102   4.841   3.681
   12SOL    HW2  936   3.191   4.844   3.543
   13SOL     OW  937   4.405   6.111   2.314
   13SOL    HW1  938   4.322   6.057   2.298
   13SOL    HW2  939   4.387   6.182   2.381
   14SOL     OW  940   4.792   4.902   4.928
   14SOL    HW1  941   4.854   4.824   4.915
   14SOL    HW2  942   4.753   4.899   5.019
   15SOL     OW  943   0.994   5.682   5.799
   15SOL    HW1  944   1.073   5.686   5.739
   15SOL    HW2  945   0.916   5.728   5.756
   16SOL     OW  946   6.661   2.780   5.749
   16SOL    HW1  947   6.760   2.794   5.759
   16SOL    HW2  948   6.624   2.737   5.831
   17SOL     OW  949   6.245   0.555   5.600
   17SOL    HW1  950   6.204   0.490   5.664
   17SOL    HW2  951   6.176   0.622   5.572
   18SOL     OW  952   3.284   6.849   5.098
   18SOL    HW1  953   3.187   6.850   5.124
   18SOL    HW2  954   3.300   6.774   5.034
   19SOL     OW  955   0.997   1.263   3.052
   19SOL    HW1  956   1.014   1.361   3.062
   19SOL    HW2  957   1.041   1.230   2.968
   20SOL     OW  958   5.782   2.742   5.278
   20SOL    HW1  959   5.741   2.831   5.261
   20SOL    HW2  960   5.810   2.735   5.374
   21SOL     OW  961   4.116   6.861   2.710
   21SOL    HW1  962   4.089   6.846   2.614
   21SOL    HW2  963   4.213   6.840   2.720
   22SOL     OW  964   2.342   6.594   4.979
   22SOL    HW1  965   2.248   6.626   4.968
   22SOL    HW2  966   2.369   6.601   5.075
   23SOL     OW  967   5.483   4.211   2.192
   23SOL    HW1  968   5.464   4.271   2.114
   23SOL    HW2  969   5.402   4.205   2.250
   24SOL     OW  970   4.111   0.521   1.387
   24SOL    HW1  971   4.075   0.594   1.329
   24SOL    HW2  972   4.192   0.554   1.437
   25SOL     OW  973   2.940   6.943   3.346
   25SOL    HW1  974   3.029   6.979   3.374
   25SOL    HW2  975   2.886   6.923   3.428
   26SOL     OW  976   0.779   2.692   6.448
   26SOL    HW1  977   0.878   2.703   6.449
   26SOL    HW2  978   0.754   2.605   6.490
   27SOL     OW  979   5.993   1.194   1.920
   27SOL    HW1  980   6.085   1.155   1.922
   27SOL    HW2  981   5.941   1.155   1.844
   28SOL     OW  982   2.018   0.515   4.234
   28SOL    HW1  983   2.028   0.586   4.305
   28SOL    HW2  984   2.108   0.479   4.210
   29SOL     OW  985   6.999   0.575   0.425
   29SOL    HW1  986   0.021   0.537   0.506
   29SOL    HW2  987   6.921   0.518   0.400
   30SOL     OW  988   4.327   0.588   5.053
   30SOL    HW1  989   4.247   0.529   5.060
   30SOL    HW2  990   4.318   0.665   5.116
   31SOL     OW  991   0.728   2.900   5.672
   31SOL    HW1  992   0.730   2.822   5.609
   31SOL    HW2  993   0.725   2.985   5.620
   32SOL     OW  994   1.544   0.445   1.351
   32SOL    HW1  995   1.638   0.465   1.323
   32SOL    HW2  996   1.537   0.452   1.451
   33SOL     OW  997   0.683   4.176   6.391
   33SOL    HW1  998   0.754   4.244   6.372
   33SOL    HW2  999   0.683   4.107   6.319
   34SOL     OW 1000   1.586   5.320   5.089
   34SOL    HW1 1001   1.623   5.308   4.997
   34SOL    HW2 1002   1.493   5.355   5.084
   35SOL     OW 1003   4.045   3.258   6.961
   35SOL    HW1 1004   3.988   3.281   6.883
   35SOL    HW2 1005   4.058   3.339   7.018
   36SOL     OW 1006   4.733   0.773   3.675
   36SOL    HW1 1007   4.753   0.871   3.675
   36SOL    HW2 1008   4.715   0.743   3.769
   37SOL     OW 1009   1.903   1.220   3.670
   37SOL    HW1 1010   1.883   1.309   3.712
   37SOL    HW2 1011   2.000   1.215   3.646
   38SOL     OW 1012   1.258   5.047   2.356
   38SOL    HW1 1013   1.330   5.037   2.288
   38SOL    HW2 1014   1.299   5.055   2.447
   39SOL     OW 1015   5.840   5.145   6.659
   39SOL    HW1 1016   5.924   5.136   6.713
   39SOL    HW2 1017   5.817   5.057   6.619
   40SOL     OW 1018   3.217   0.964   6.020
   40SOL    HW1 1019   3.266   0.958   5.933
   40SOL    HW2 1020   3.149   1.037   6.014
   41SOL     OW 1021   6.078   4.155   1.973
   41SOL    HW1 1022   6.013   4.171   2.047
   41SOL    HW2 1023   6.148   4.091   2.004
   42SOL     OW 1024   2.446   5.884   4.802
   42SOL    HW1 1025   2.433   5.983   4.808
   42SOL    HW2 1026   2.371   5.837   4.850
   43SOL     OW 1027   4.880   6.787   4.821
   43SOL    HW1 1028   4.851   6.699   4.781
   43SOL    HW2 1029   4.979   6.796   4.812
   44SOL     OW 1030   5.940   2.366   5.308
   44SOL    HW1 1031   5.946   2.267   5.313
   44SOL    HW2 1032   5.869   2.398   5.371
   45SOL     OW 1033   4.007   5.050   0.389
   45SOL    HW1 1034   4.083   5.113   0.372
   45SOL    HW2 1035   3.940   5.058   0.315
   46SOL     OW 1036   0.694   3.263   4.717
   46SOL    HW1 1037   0.760   3.214   4.659
   46SOL    HW2 1038   0.602   3.225   4.701
   47SOL     OW 1039   5.839   3.179   1.817
   47SOL    HW1 1040   5.889   3.130   1.746
   47SOL    HW2 1041   5.752   3.133   1.835
   48SOL     OW 1042   6.419   4.053   6.744
   48SOL    HW1 1043   6.474   4.133   6.723
   48SOL    HW2 1044   6.468   3.970   6.719
   49SOL     OW 1045   4.736   3.104   0.231
   49SOL    HW1 1046   4.743   3.073   0.136
   49SOL    HW2 1047   4.822   3.084   0.278
   50SOL     OW 1048   6.469   2.517   6.510
   50SOL    HW1 1049   6.457   2.498   6.607
   50SOL    HW2 1050   6.557   2.562   6.496
   51SOL     OW 1051   1.777   4.797   3.235
   51SOL    HW1 1052   1.712   4.736   3.190
   51SOL    HW2 1053   1.728   4.879   3.267
   52SOL     OW 1054   5.786   2.812   1.537
   52SOL    HW1 1055   5.832   2.724   1.524
   52SOL    HW2 1056   5.740   2.813   1.626
   53SOL     OW 1057   4.611   0.669   2.885
   53SOL    HW1 1058   4.611   0.732   2.962
   53SOL    HW2 1059   4.517   0.650   2.857
   54SOL     OW 1060   5.417   6.370   0.105
   54SOL    HW1 1061   5.334   6.408   0.146
   54SOL    HW2 1062   5.443   6.424   0.026
   55SOL     OW 1063   1.842   2.926   6.424
   55SOL    HW1 1064   1.768   2.964   6.480
   55SOL    HW2 1065   1.893   2.859   6.478
   56SOL     OW 1066   1.460   2.446   6.862
   56SOL    HW1 1067   1.542   2.390   6.868
   56SOL    HW2 1068   1.459   2.513   6.937
   57SOL     OW 1069   4.063   0.745   0.600
   57SOL    HW1 1070   4.007   0.784   0.673
   57SOL    HW2 1071   4.076   0.814   0.528
   58SOL     OW 1072   0.899   1.045   6.454
   58SOL    HW1 1073   0.974   0.983   6.431
   58SOL    HW2 1074   0.912   1.133   6.408
   59SOL     OW 1075   5.960   3.355   6.206
   59SOL    HW1 1076   5.952   3.454   6.196
   59SOL    HW2 1077   5.871   3.317   6.232
   60SOL     OW 1078   5.461   0.842   3.034
   60SOL    HW1 1079   5.510   0.857   2.948
   60SOL    HW2 1080   5.526   0.836   3.109
   61SOL     OW 1081   0.236   0.511   5.159
   61SOL    HW1 1082   0.252   0.493   5.062
   61SOL    HW2 1083   0.143   0.482   5.183
   62SOL     OW 1084   7.002   1.990   2.394
   62SOL    HW1 1085   6.925   1.927   2.405
   62SOL    HW2 1086   7.020   2.004   2.296
   63SOL     OW 1087   3.970   6.626   4.911
   63SOL    HW1 1088   3.908   6.555   4.877
   63SOL    HW2 1089   4.027   6.660   4.836
   64SOL     OW 1090   1.219   4.088   6.515
   64SOL    HW1 1091   1.265   4.135   6.440
   64SOL    HW2 1092   1.278   4.014   6.549
   65SOL     OW 1093   0.714   0.173   5.573
   65SOL    HW1 1094   0.752   0.133   5.490
   65SOL    HW2 1095   0.779   0.165   5.648
   66SOL     OW 1096   4.086   0.241   2.131
   66SOL    HW1 1097   3.988   0.260   2.121
   66SOL    HW2 1098   4.130   0.243   2.042
   67SOL     OW 1099   0.491   2.609   1.109
   67SOL    HW1 1100   0.577   2.656   1.128
   67SOL    HW2 1101   0.503   2.547   1.032
   68SOL     OW 1102   6.688   2.310   5.568
   68SOL    HW1 1103   6.730   2.345   5.485
   68SOL    HW2 1104   6.604   2.362   5.588
   69SOL     OW 1105   1.043   5.063   5.914
   69SOL    HW1 1106   0.957   5.087   5.958
   69SOL    HW2 1107   1.076   5.140   5.859
   70SOL     OW 1108   5.458   3.588   5.065
   70SOL    HW1 1109   5.513   3.654   5.116
   70SOL    HW2 1110   5.496   3.496   5.077
   71SOL     OW 1111   4.550   2.134   4.446
   71SOL    HW1 1112   4.578   2.200   4.376
   71SOL    HW2 1113   4.625   2.121   4.511
   72SOL     OW 1114   6.553   0.407   3.613
   72SOL    HW1 1115   6.584   0.363   3.697
   72SOL    HW2 1116   6.525   0.501   3.633
   73SOL     OW 1117   2.963   0.715   0.994
   73SOL    HW1 1118   2.981   0.801   0.947
   73SOL    HW2 1119   2.865   0.695   0.993
   74SOL     OW 1120   1.915   1.711   6.907
   74SOL    HW1 1121   1.861   1.663   6.838
   74SOL    HW2 1122   1.998   1.748   6.866
   75SOL     OW 1123   4.494   1.461   1.056
   75SOL    HW1 1124   4.410   1.514   1.065
   75SOL    HW2 1125   4.569   1.507   1.103
   76SOL     OW 1126   3.003   4.344   5.274
   76SOL    HW1 1127   3.096   4.371   5.299
   76SOL    HW2 1128   2.957   4.422   5.230
   77SOL     OW 1129   1.773   5.349   4.524
   77SOL    HW1 1130   1.819   5.261   4.513
   77SOL    HW2 1131   1.684   5.334   4.567
   78SOL     OW 1132   4.433   1.381   1.555
   78SOL    HW1 1133   4.380   1.338   1.628
   78SOL    HW2 1134   4.530   1.373   1.576
   79SOL     OW 1135   2.138   5.283   2.000
   79SOL    HW1 1136   2.067   5.311   1.936
   79SOL    HW2 1137   2.175   5.363   2.047
   80SOL     OW 1138   4.836   1.946   5.385
   80SOL    HW1 1139   4.892   1.867   5.359
   80SOL    HW2 1140   4.867   1.982   5.473
   81SOL     OW 1141   3.017   6.026   1.863
   81SOL    HW1 1142   2.940   5.963   1.867
   81SOL    HW2 1143   3.094   5.988   1.915
   82SOL     OW 1144   1.122   6.058   1.525
   82SOL    HW1 1145   1.051   6.019   1.584
   82SOL    HW2 1146   1.209   6.059   1.574
   83SOL     OW 1147   5.540   2.093   5.319
   83SOL    HW1 1148   5.592   2.141   5.390
   83SOL    HW2 1149   5.465   2.043   5.361
   84SOL     OW 1150   6.017   2.787   3.341
   84SOL    HW1 1151   5.925   2.752   3.355
   84SOL    HW2 1152   6.062   2.735   3.268
   85SOL     OW 1153   2.233   0.194   4.146
   85SOL    HW1 1154   2.160   0.231   4.089
   85SOL    HW2 1155   2.298   0.144   4.090
   86SOL     OW 1156   5.546   1.561   6.285
   86SOL    HW1 1157   5.509   1.592   6.372
   86SOL    HW2 1158   5.475   1.513   6.233
   87SOL     OW 1159   3.643   4.239   6.534
   87SOL    HW1 1160   3.588   4.221   6.616
   87SOL    HW2 1161   3.702   4.317   6.550
   88SOL     OW 1162   3.327   3.308   6.849
   88SOL    HW1 1163   3.317   3.256   6.934
   88SOL    HW2 1164   3.363   3.398   6.869
   89SOL     OW 1165   2.910   3.386   2.959
   89SOL    HW1 1166   3.001   3.345   2.967
   89SOL    HW2 1167   2.857   3.336   2.890
   90SOL     OW 1168   4.955   3.828   2.520
   90SOL    HW1 1169   4.929   3.851   2.426
   90SOL    HW2 1170   4.976   3.912   2.570
   91SOL     OW 1171   5.422   4.900   5.813
   91SOL    HW1 1172   5.521   4.911   5.803
   91SOL    HW2 1173   5.382   4.878   5.724
   92SOL     OW 1174   5.385   4.360   6.872
   92SOL    HW1 1175   5.469   4.361   6.925
   92SOL    HW2 1176   5.342   4.451   6.876
   93SOL     OW 1177   2.323   3.240   1.422
   93SOL    HW1 1178   2.233   3.283   1.429
   93SOL    HW2 1179   2.313   3.147   1.388
   94SOL     OW 1180   3.279   0.669   5.820
   94SOL    HW1 1181   3.312   0.609   5.893
   94SOL    HW2 1182   3.325   0.645   5.734
   95SOL     OW 1183   0.135   0.377   4.248
   95SOL    HW1 1184   0.233   0.387   4.233
   95SOL    HW2 1185   0.089   0.463   4.227
   96SOL     OW 1186   4.846   4.639   0.191
   96SOL    HW1 1187   4.778   4.668   0.258
   96SOL    HW2 1188   4.936   4.673   0.218
   97SOL     OW 1189   2.051   5.424   5.568
   97SOL    HW1 1190   2.016   5.349   5.513
   97SOL    HW2 1191   2.118   5.389   5.633
   98SOL     OW 1192   1.360   2.785   2.705
   98SOL    HW1 1193   1.432   2.764   2.772
   98SOL    HW2 1194   1.374   2.877   2.670
   99SOL     OW 1195   3.643   2.890   3.911
   99SOL    HW1 1196   3.544   2.895   3.924
   99SOL    HW2 1197   3.686   2.852   3.993
  100SOL     OW 1198   6.958   0.149   3.897
  100SOL    HW1 1199   6.870   0.109   3.869
  100SOL    HW2 1200   6.942   0.226   3.958
  101SOL     OW 1201   0.620   3.930   2.946
  101SOL    HW1 1202   0.654   3.835   2.943
  101SOL    HW2 1203   0.605   3.957   3.041
  102SOL     OW 1204   2.547   6.412   1.312
  102SOL    HW1 1205   2.462   6.359   1.310
  102SOL    HW2 1206   2.598   6.391   1.395
  103SOL     OW 1207   1.886   0.574   2.354
  103SOL    HW1 1208   1.958   0.632   2.316
  103SOL    HW2 1209   1.808   0.572   2.292
  104SOL     OW 1210   1.472   4.542   2.105
  104SOL    HW1 1211   1.425   4.593   2.177
  104SOL    HW2 1212   1.487   4.448   2.136
  105SOL     OW 1213   4.701   1.676   6.315
  105SOL    HW1 1214   4.657   1.722   6.392
  105SOL    HW2 1215   4.670   1.581   6.311
  106SOL     OW 1216   5.433   5.255   2.388
  106SOL    HW1 1217   5.368   5.189   2.351
  106SOL    HW2 1218   5.456   5.322   2.318
  107SOL     OW 1219   5.822   1.075   0.522
  107SOL    HW1 1220   5.757   1.149   0.539
  107SOL    HW2 1221   5.787   0.990   0.562
  108SOL     OW 1222   1.349   0.747   5.302
  108SOL    HW1 1223   1.272   0.757   5.366
  108SOL    HW2 1224   1.432   0.725   5.352
  109SOL     OW 1225   2.906   1.198   3.326
  109SOL    HW1 1226   2.848   1.124   3.291
  109SOL    HW2 1227   2.874   1.226   3.416
  110SOL     OW 1228   2.786   4.636   5.546
  110SOL    HW1 1229   2.780   4.547   5.591
  110SOL    HW2 1230   2.770   4.625   5.448
  111SOL     OW 1231   6.195   1.420   2.479
  111SOL    HW1 1232   6.162   1.328   2.458
  111SOL    HW2 1233   6.149   1.486   2.419
  112SOL     OW 1234   4.149   0.151   6.667
  112SOL    HW1 1235   4.105   0.117   6.749
  112SOL    HW2 1236   4.135   0.087   6.592
  113SOL     OW 1237   6.611   6.246   2.781
  113SOL    HW1 1238   6.522   6.286   2.759
  113SOL    HW2 1239   6.617   6.229   2.879
  114SOL     OW 1240   1.490   4.004   4.011
  114SOL    HW1 1241   1.460   3.919   3.966
  114SOL    HW2 1242   1.538   4.061   3.945
  115SOL     OW 1243   5.957   1.260   3.440
  115SOL    HW1 1244   5.895   1.218   3.507
  115SOL    HW2 1245   5.943   1.359   3.440
  116SOL     OW 1246   1.210   5.290   0.667
  116SOL    HW1 1247   1.238   5.337   0.583
  116SOL    HW2 1248   1.154   5.351   0.723
  117SOL     OW 1249   2.243   1.464   7.007
  117SOL    HW1 1250   2.254   1.365   7.000
  117SOL    HW2 1251   2.148   1.485   0.008
  118SOL     OW 1252   1.136   1.792   4.558
  118SOL    HW1 1253   1.192   1.824   4.482
  118SOL    HW2 1254   1.156   1.847   4.639
  119SOL     OW 1255   7.000   6.688   6.111
  119SOL    HW1 1256   7.004   6.690   6.211
  119SOL    HW2 1257   6.911   6.723   6.080
  120SOL     OW 1258   4.695   1.563   4.555
  120SOL    HW1 1259   4.612   1.537   4.604
  120SOL    HW2 1260   4.672   1.626   4.481
  121SOL     OW 1261   1.169   3.637   6.403
  121SOL    HW1 1262   1.098   3.684   6.455
  121SOL    HW2 1263   1.236   3.705   6.370
  122SOL     OW 1264   0.880   4.419   0.100
  122SOL    HW1 1265   0.937   4.442   0.179
  122SOL    HW2 1266   0.931   4.436   0.016
  123SOL     OW 1267   1.157   1.344   1.749
  123SOL    HW1 1268   1.213   1.283   1.692
  123SOL    HW2 1269   1.063   1.311   1.751
  124SOL     OW 1270   2.982   2.507   0.717
  124SOL    HW1 1271   2.937   2.501   0.806
  124SOL    HW2 1272   3.080   2.489   0.727
  125SOL     OW 1273   3.420   2.480   0.113
  125SOL    HW1 1274   3.356   2.531   0.057
  125SOL    HW2 1275   3.490   2.438   0.055
  126SOL     OW 1276   4.071   3.193   3.989
  126SOL    HW1 1277   4.110   3.270   4.040
  126SOL    HW2 1278   4.018   3.136   4.051
  127SOL     OW 1279   0.354   6.032   6.038
  127SOL    HW1 1280   0.362   6.048   6.136
  127SOL    HW2 1281   0.259   6.044   6.010
  128SOL     OW 1282   4.680   3.569   1.125
  128SOL    HW1 1283   4.617   3.606   1.057
  128SOL    HW2 1284   4.689   3.633   1.201
  129SOL     OW 1285   2.163   6.155   0.902
  129SOL    HW1 1286   2.211   6.135   0.987
  129SOL    HW2 1287   2.140   6.069   0.856
  130SOL     OW 1288   5.500   2.498   4.611
  130SOL    HW1 1289   5.547   2.410   4.610
  130SOL    HW2 1290   5.406   2.486   4.576
  131SOL     OW 1291   6.986   2.468   3.607
  131SOL    HW1 1292   0.021   2.436   3.682
  131SOL    HW2 1293   0.021   2.487   3.527
  132SOL     OW 1294   3.570   4.131   1.849
  132SOL    HW1 1295   3.587   4.044   1.802
  132SOL    HW2 1296   3.590   4.206   1.787
  133SOL     OW 1297   5.264   6.988   5.160
  133SOL    HW1 1298   5.334   6.960   5.226
  133SOL    HW2 1299   5.303   6.986   5.068
  134SOL     OW 1300   5.407   1.015   2.078
  134SOL    HW1 1301   5.374   0.953   2.149
  134SOL    HW2 1302   5.338   1.022   2.006
  135SOL     OW 1303   5.075   3.509   4.347
  135SOL    HW1 1304   5.001   3.548   4.403
  135SOL    HW2 1305   5.058   3.528   4.251
  136SOL     OW 1306   3.315   6.726   5.440
  136SOL    HW1 1307   3.405   6.752   5.475
  136SOL    HW2 1308   3.253   6.804   5.446
  137SOL     OW 1309   3.372   1.944   4.776
  137SOL    HW1 1310   3.444   1.987   4.831
  137SOL    HW2 1311   3.289   1.999   4.782
  138SOL     OW 1312   0.727   5.676   5.018
  138SOL    HW1 1313   0.742   5.667   4.920
  138SOL    HW2 1314   0.704   5.587   5.057
  139SOL     OW 1315   2.395   6.369   6.440
  139SOL    HW1 1316   2.320   6.424   6.478
  139SOL    HW2 1317   2.372   6.272   6.446
  140SOL     OW 1318   2.197   1.018   3.125
  140SOL    HW1 1319   2.250   1.052   3.047
  140SOL    HW2 1320   2.259   0.996   3.201
  141SOL     OW 1321   6.789   4.444   0.048
  141SOL    HW1 1322   6.864   4.498   0.087
  141SOL    HW2 1323   6.704   4.466   0.097
  142SOL     OW 1324   1.410   4.064   1.993
  142SOL    HW1 1325   1.340   4.007   1.949
  142SOL    HW2 1326   1.434   4.025   2.082
  143SOL     OW 1327   5.153   6.713   1.792
  143SOL    HW1 1328   5.222   6.643   1.775
  143SOL    HW2 1329   5.139   6.722   1.891
  144SOL     OW 1330   3.022   4.931   2.928
  144SOL    HW1 1331   3.102   4.939   2.987
  144SOL    HW2 1332   2.960   5.007   2.946
  145SOL     OW 1333   6.778   4.759   2.957
  145SOL    HW1 1334   6.760   4.678   3.013
  145SOL    HW2 1335   6.876   4.765   2.938
  146SOL     OW 1336   6.203   1.615   6.039
  146SOL    HW1 1337   6.181   1.543   5.973
  146SOL    HW2 1338   6.140   1.692   6.027
  147SOL     OW 1339   4.599   1.223   5.939
  147SOL    HW1 1340   4.584   1.125   5.930
  147SOL    HW2 1341   4.695   1.244   5.920
  148SOL     OW 1342   1.298   4.992   1.415
  148SOL    HW1 1343   1.289   4.902   1.373
  148SOL    HW2 1344   1.344   5.054   1.351
  149SOL     OW 1345   2.224   2.172   5.838
  149SOL    HW1 1346   2.172   2.099   5.793
  149SOL    HW2 1347   2.230   2.251   5.777
  150SOL     OW 1348   4.503   1.177   4.689
  150SOL    HW1 1349   4.574   1.247   4.685
  150SOL    HW2 1350   4.433   1.198   4.621
  151SOL     OW 1351   3.980   2.129   0.726
  151SOL    HW1 1352   3.947   2.049   0.776
  151SOL    HW2 1353   4.058   2.169   0.774
  152SOL     OW 1354   1.014   0.918   0.041
  152SOL    HW1 1355   1.063   1.003   0.059
  152SOL    HW2 1356   1.047   0.846   0.102
  153SOL     OW 1357   2.527   1.303   4.211
  153SOL    HW1 1358   2.579   1.222   4.235
  153SOL    HW2 1359   2.589   1.375   4.180
  154SOL     OW 1360   6.113   2.049   1.344
  154SOL    HW1 1361   6.081   1.959   1.375
  154SOL    HW2 1362   6.116   2.050   1.244
  155SOL     OW 1363   0.679   6.815   1.372
  155SOL    HW1 1364   0.666   6.722   1.407
  155SOL    HW2 1365   0.717   6.873   1.445
  156SOL     OW 1366   4.627   1.702   0.535
  156SOL    HW1 1367   4.724   1.718   0.517
  156SOL    HW2 1368   4.597   1.619   0.490
  157SOL     OW 1369   5.320   4.474   0.922
  157SOL    HW1 1370   5.232   4.459   0.877
  157SOL    HW2 1371   5.305   4.517   1.011
  158SOL     OW 1372   0.607   2.671   3.402
  158SOL    HW1 1373   0.549   2.747   3.433
  158SOL    HW2 1374   0.653   2.631   3.481
  159SOL     OW 1375   5.536   5.657   0.514
  159SOL    HW1 1376   5.632   5.680   0.530
  159SOL    HW2 1377   5.485   5.665   0.600
  160SOL     OW 1378   6.272   6.663   0.835
  160SOL    HW1 1379   6.240   6.737   0.776
  160SOL    HW2 1380   6.229   6.577   0.806
  161SOL     OW 1381   0.836   0.300   0.481
  161SOL    HW1 1382   0.755   0.289   0.540
  161SOL    HW2 1383   0.881   0.212   0.468
  162SOL     OW 1384   3.264   6.498   0.470
  162SOL    HW1 1385   3.179   6.454   0.499
  162SOL    HW2 1386   3.340   6.433   0.481
  163SOL     OW 1387   6.948   3.763   3.921
  163SOL    HW1 1388   6.910   3.840   3.869
  163SOL    HW2 1389   6.935   3.779   4.019
  164SOL     OW 1390   1.773   1.731   3.264
  164SOL    HW1 1391   1.777   1.813   3.320
  164SOL    HW2 1392   1.846   1.733   3.196
  165SOL     OW 1393   0.790   5.484   2.425
  165SOL    HW1 1394   0.799   5.385   2.413
  165SOL    HW2 1395   0.829   5.511   2.513
  166SOL     OW 1396   6.655   4.107   2.842
  166SOL    HW1 1397   6.630   4.016   2.809
  166SOL    HW2 1398   6.687   4.162   2.766
  167SOL     OW 1399   4.903   2.152   0.278
  167SOL    HW1 1400   4.931   2.241   0.313
  167SOL    HW2 1401   4.983   2.091   0.274
  168SOL     OW 1402   5.036   4.137   2.170
  168SOL    HW1 1403   5.008   4.228   2.138
  168SOL    HW2 1404   5.117   4.108   2.121
  169SOL     OW 1405   5.828   2.454   1.271
  169SOL    HW1 1406   5.761   2.383   1.291
  169SOL    HW2 1407   5.785   2.526   1.217
  170SOL     OW 1408   0.762   5.084   1.838
  170SOL    HW1 1409   0.763   5.056   1.743
  170SOL    HW2 1410   0.667   5.086   1.872
  171SOL     OW 1411   2.575   4.136   0.715
  171SOL    HW1 1412   2.535   4.060   0.766
  171SOL    HW2 1413   2.521   4.219   0.732
  172SOL     OW 1414   6.218   2.288   1.665
  172SOL    HW1 1415   6.118   2.278   1.664
  172SOL    HW2 1416   6.257   2.237   1.589
  173SOL     OW 1417   6.701   1.237   5.811
  173SOL    HW1 1418   6.623   1.205   5.758
  173SOL    HW2 1419   6.679   1.237   5.908
  174SOL     OW 1420   5.771   5.376   5.131
  174SOL    HW1 1421   5.822   5.303   5.177
  174SOL    HW2 1422   5.676   5.348   5.119
  175SOL     OW 1423   1.105   0.463   0.396
  175SOL    HW1 1424   1.037   0.530   0.364
  175SOL    HW2 1425   1.119   0.474   0.495
  176SOL     OW 1426   5.047   5.028   2.613
  176SOL    HW1 1427   5.045   4.964   2.536
  176SOL    HW2 1428   5.124   5.006   2.673
  177SOL     OW 1429   5.604   2.384   4.338
  177SOL    HW1 1430   5.559   2.332   4.411
  177SOL    HW2 1431   5.641   2.321   4.270
  178SOL     OW 1432   1.915   6.707   5.368
  178SOL    HW1 1433   1.885   6.757   5.287
  178SOL    HW2 1434   1.843   6.709   5.437
  179SOL     OW 1435   4.698   5.487   0.688
  179SOL    HW1 1436   4.737   5.473   0.596
  179SOL    HW2 1437   4.772   5.493   0.755
  180SOL     OW 1438   4.531   0.902   1.138
  180SOL    HW1 1439   4.542   0.861   1.229
  180SOL    HW2 1440   4.510   0.999   1.148
  181SOL     OW 1441   3.593   2.828   5.275
  181SOL    HW1 1442   3.499   2.796   5.280
  181SOL    HW2 1443   3.647   2.784   5.346
  182SOL     OW 1444   5.103   2.538   6.615
  182SOL    HW1 1445   5.121   2.577   6.705
  182SOL    HW2 1446   5.190   2.508   6.574
  183SOL     OW 1447   3.350   1.572   3.692
  183SOL    HW1 1448   3.297   1.657   3.690
  183SOL    HW2 1449   3.416   1.576   3.767
  184SOL     OW 1450   6.887   6.777   2.833
  184SOL    HW1 1451   6.819   6.832   2.882
  184SOL    HW2 1452   6.978   6.810   2.855
  185SOL     OW 1453   0.281   1.433   3.988
  185SOL    HW1 1454   0.335   1.353   3.961
  185SOL    HW2 1455   0.324   1.478   4.065
  186SOL     OW 1456   4.263   5.226   4.348
  186SOL    HW1 1457   4.229   5.251   4.257
  186SOL    HW2 1458   4.321   5.299   4.384
  187SOL     OW 1459   4.245   5.689   2.314
  187SOL    HW1 1460   4.176   5.760   2.298
  187SOL    HW2 1461   4.251   5.670   2.412
  188SOL     OW 1462   2.481   2.604   2.838
  188SOL    HW1 1463   2.511   2.677   2.900
  188SOL    HW2 1464   2.531   2.520   2.860
  189SOL     OW 1465   6.453   5.727   6.448
  189SOL    HW1 1466   6.543   5.693   6.421
  189SOL    HW2 1467   6.454   5.753   6.545
  190SOL     OW 1468   5.625   6.313   0.300
  190SOL    HW1 1469   5.613   6.383   0.371
  190SOL    HW2 1470   5.566   6.334   0.222
  191SOL     OW 1471   5.821   0.773   6.050
  191SOL    HW1 1472   5.849   0.864   6.081
  191SOL    HW2 1473   5.723   0.772   6.032
  192SOL     OW 1474   0.333   5.173   0.915
  192SOL    HW1 1475   0.429   5.146   0.912
  192SOL    HW2 1476   0.324   5.266   0.881
  193SOL     OW 1477   3.222   5.008   6.398
  193SOL    HW1 1478   3.238   4.935   6.464
  193SOL    HW2 1479   3.290   5.003   6.325
  194SOL     OW 1480   4.286   6.844   1.903
  194SOL    HW1 1481   4.201   6.816   1.859
  194SOL    HW2 1482   4.331   6.913   1.847
  195SOL     OW 1483   3.174   1.056   1.194
  195SOL    HW1 1484   3.196   1.079   1.099
  195SOL    HW2 1485   3.093   0.998   1.196
  196SOL     OW 1486   1.958   0.943   6.565
  196SOL    HW1 1487   1.919   0.896   6.644
  196SOL    HW2 1488   1.920   1.035   6.559
  197SOL     OW 1489   2.740   5.259   0.368
  197SOL    HW1 1490   2.781   5.310   0.292
  197SOL    HW2 1491   2.693   5.178   0.332
  198SOL     OW 1492   4.135   6.570   0.243
  198SOL    HW1 1493   4.115   6.487   0.294
  198SOL    HW2 1494   4.126   6.553   0.145
  199SOL     OW 1495   5.864   6.997   2.641
  199SOL    HW1 1496   5.853   7.002   2.741
  199SOL    HW2 1497   5.802   0.039   2.597
  200SOL     OW 1498   1.199   3.883   3.021
  200SOL    HW1 1499   1.236   3.955   2.962
  200SOL    HW2 1500   1.103   3.901   3.039
  201SOL     OW 1501   2.560   0.748   0.013
  201SOL    HW1 1502   2.620   0.740   0.093
  201SOL    HW2 1503   2.614   0.738   6.952
  202SOL     OW 1504   3.886   6.864   3.794
  202SOL    HW1 1505   3.883   6.941   3.731
  202SOL    HW2 1506   3.970   6.869   3.848
  203SOL     OW 1507   5.596   3.485   6.355
  203SOL    HW1 1508   5.572   3.432   6.436
  203SOL    HW2 1509   5.513   3.510   6.305
  204SOL     OW 1510   1.845   0.035   0.342
  204SOL    HW1 1511   1.867   6.994   0.268
  204SOL    HW2 1512   1.927   0.084   0.371
  205SOL     OW 1513   5.659   1.836   1.278
  205SOL    HW1 1514   5.702   1.866   1.193
  205SOL    HW2 1515   5.560   1.843   1.269
  206SOL     OW 1516   0.286   4.920   1.585
  206SOL    HW1 1517   0.386   4.914   1.586
  206SOL    HW2 1518   0.250   4.891   1.673
  207SOL     OW 1519   4.492   0.596   5.603
  207SOL    HW1 1520   4.403   0.587   5.648
  207SOL    HW2 1521   4.565   0.569   5.666
  208SOL     OW 1522   4.980   5.099   6.011
  208SOL    HW1 1523   5.074   5.083   5.982
  208SOL    HW2 1524   4.981   5.152   6.097
  209SOL     OW 1525   0.046   6.114   5.669
  209SOL    HW1 1526   7.018   6.036   5.632
  209SOL    HW2 1527   0.066   6.179   5.595
  210SOL     OW 1528   3.997   1.871   1.832
  210SOL    HW1 1529   3.969   1.778   1.806
  210SOL    HW2 1530   3.917   1.930   1.833
  211SOL     OW 1531   0.720   1.545   1.343
  211SOL    HW1 1532   0.818   1.544   1.360
  211SOL    HW2 1533   0.690   1.640   1.330
  212SOL     OW 1534   0.699   4.945   2.965
  212SOL    HW1 1535   0.758   4.996   3.028
  212SOL    HW2 1536   0.629   4.896   3.017
  213SOL     OW 1537   4.922   1.462   0.190
  213SOL    HW1 1538   4.907   1.371   0.229
  213SOL    HW2 1539   4.968   1.521   0.256
  214SOL     OW 1540   0.661   6.503   2.450
  214SOL    HW1 1541   0.609   6.452   2.381
  214SOL    HW2 1542   0.683   6.594   2.414
  215SOL     OW 1543   3.946   2.996   2.146
  215SOL    HW1 1544   3.975   2.923   2.084
  215SOL    HW2 1545   3.846   3.001   2.146
  216SOL     OW 1546   1.187   0.298   5.129
  216SOL    HW1 1547   1.190   0.256   5.039
  216SOL    HW2 1548   1.199   0.397   5.119
  217SOL     OW 1549   1.680   2.527   3.961
  217SOL    HW1 1550   1.694   2.601   3.895
  217SOL    HW2 1551   1.716   2.441   3.924
  218SOL     OW 1552   1.060   2.737   5.067
  218SOL    HW1 1553   0.971   2.773   5.093
  218SOL    HW2 1554   1.130   2.773   5.129
  219SOL     OW 1555   4.218   4.098   0.310
  219SOL    HW1 1556   4.308   4.139   0.294
  219SOL    HW2 1557   4.212   4.011   0.261
  220SOL     OW 1558   2.810   5.277   0.075
  220SOL    HW1 1559   2.884   5.318   0.129
  220SOL    HW2 1560   2.822   5.178   0.072
  221SOL     OW 1561   5.333   3.297   3.816
  221SOL    HW1 1562   5.246   3.328   3.853
  221SOL    HW2 1563   5.390   3.376   3.793
  222SOL     OW 1564   0.990   5.946   5.588
  222SOL    HW1 1565   1.054   5.974   5.659
  222SOL    HW2 1566   0.898   5.978   5.612
  223SOL     OW 1567   0.209   3.239   2.184
  223SOL    HW1 1568   0.212   3.263   2.087
  223SOL    HW2 1569   0.139   3.169   2.198
  224SOL     OW 1570   2.839   2.076   2.016
  224SOL    HW1 1571   2.875   2.169   2.020
  224SOL    HW2 1572   2.831   2.039   2.109
  225SOL     OW 1573   5.625   0.826   0.013
  225SOL    HW1 1574   5.551   0.778   0.060
  225SOL    HW2 1575   5.624   0.922   0.040
  226SOL     OW 1576   0.554   6.251   0.170
  226SOL    HW1 1577   0.638   6.290   0.133
  226SOL    HW2 1578   0.573   6.160   0.209
  227SOL     OW 1579   2.065   3.721   3.741
  227SOL    HW1 1580   2.077   3.720   3.642
  227SOL    HW2 1581   1.967   3.728   3.763
  228SOL     OW 1582   3.791   6.787   4.070
  228SOL    HW1 1583   3.856   6.860   4.052
  228SOL    HW2 1584   3.840   6.705   4.099
  229SOL     OW 1585   6.011   5.809   1.875
  229SOL    HW1 1586   6.089   5.859   1.914
  229SOL    HW2 1587   6.021   5.804   1.776
  230SOL     OW 1588   2.100   4.189   4.878
  230SOL    HW1 1589   2.044   4.115   4.916
  230SOL    HW2 1590   2.195   4.175   4.904
  231SOL     OW 1591   0.096   3.346   6.533
  231SOL    HW1 1592   0.002   3.315   6.540
  231SOL    HW2 1593   0.156   3.268   6.514
  232SOL     OW 1594   1.229   3.690   6.811
  232SOL    HW1 1595   1.192   3.701   6.719
  232SOL    HW2 1596   1.324   3.719   6.812
  233SOL     OW 1597   2.504   1.529   5.574
  233SOL    HW1 1598   2.576   1.480   5.525
  233SOL    HW2 1599   2.501   1.624   5.542
  234SOL     OW 1600   2.797   5.005   0.017
  234SOL    HW1 1601   2.761   4.913   0.028
  234SOL    HW2 1602   2.829   5.018   6.945
  235SOL     OW 1603   3.110   3.157   4.000
  235SOL    HW1 1604   3.071   3.243   4.034
  235SOL    HW2 1605   3.105   3.088   4.073
  236SOL     OW 1606   6.809   2.677   5.443
  236SOL    HW1 1607   6.796   2.700   5.540
  236SOL    HW2 1608   6.752   2.598   5.420
  237SOL     OW 1609   0.265   6.885   1.218
  237SOL    HW1 1610   0.349   6.851   1.177
  237SOL    HW2 1611   0.204   6.809   1.239
  238SOL     OW 1612   5.934   3.583   2.006
  238SOL    HW1 1613   5.950   3.510   2.071
  238SOL    HW2 1614   6.020   3.632   1.989
  239SOL     OW 1615   6.649   5.570   6.653
  239SOL    HW1 1616   6.748   5.582   6.645
  239SOL    HW2 1617   6.619   5.492   6.599
  240SOL     OW 1618   0.375   4.185   6.304
  240SOL    HW1 1619   0.315   4.168   6.382
  240SOL    HW2 1620   0.470   4.181   6.333
  241SOL     OW 1621   0.539   1.067   3.726
  241SOL    HW1 1622   0.637   1.075   3.705
  241SOL    HW2 1623   0.527   1.047   3.823
  242SOL     OW 1624   1.397   3.704   4.767
  242SOL    HW1 1625   1.379   3.793   4.726
  242SOL    HW2 1626   1.311   3.661   4.793
  243SOL     OW 1627   5.638   0.089   5.544
  243SOL    HW1 1628   5.603   0.121   5.456
  243SOL    HW2 1629   5.704   0.155   5.580
  244SOL     OW 1630   5.696   1.979   5.113
  244SOL    HW1 1631   5.783   2.016   5.081
  244SOL    HW2 1632   5.666   2.029   5.194
  245SOL     OW 1633   6.688   2.844   4.643
  245SOL    HW1 1634   6.785   2.864   4.655
  245SOL    HW2 1635   6.677   2.768   4.579
  246SOL     OW 1636   4.816   3.859   3.364
  246SOL    HW1 1637   4.909   3.886   3.340
  246SOL    HW2 1638   4.792   3.776   3.314
  247SOL     OW 1639   1.753   1.250   4.152
  247SOL    HW1 1640   1.794   1.253   4.243
  247SOL    HW2 1641   1.740   1.344   4.119
  248SOL     OW 1642   4.987   2.064   4.000
  248SOL    HW1 1643   4.947   2.155   4.015
  248SOL    HW2 1644   5.084   2.074   3.975
  249SOL     OW 1645   3.052   6.649   4.731
  249SOL    HW1 1646   3.145   6.667   4.699
  249SOL    HW2 1647   3.037   6.551   4.738
  250SOL     OW 1648   5.300   3.782   5.343
  250SOL    HW1 1649   5.245   3.858   5.378
  250SOL    HW2 1650   5.252   3.696   5.360
  251SOL     OW 1651   4.701   2.995   6.673
  251SOL    HW1 1652   4.620   3.048   6.698
  251SOL    HW2 1653   4.676   2.899   6.660
  252SOL     OW 1654   6.354   1.095   6.130
  252SOL    HW1 1655   6.374   1.085   6.228
  252SOL    HW2 1656   6.427   1.148   6.087
  253SOL     OW 1657   2.773   2.973   0.536
  253SOL    HW1 1658   2.751   2.905   0.465
  253SOL    HW2 1659   2.716   3.055   0.522
  254SOL     OW 1660   6.747   3.511   4.492
  254SOL    HW1 1661   6.709   3.521   4.400
  254SOL    HW2 1662   6.782   3.418   4.503
  255SOL     OW 1663   2.737   2.378   3.282
  255SOL    HW1 1664   2.695   2.449   3.225
  255SOL    HW2 1665   2.716   2.396   3.378
  256SOL     OW 1666   6.233   5.158   0.099
  256SOL    HW1 1667   6.220   5.256   0.083
  256SOL    HW2 1668   6.145   5.116   0.122
  257SOL     OW 1669   3.328   5.462   6.401
  257SOL    HW1 1670   3.280   5.546   6.428
  257SOL    HW2 1671   3.375   5.478   6.314
  258SOL     OW 1672   5.733   4.046   4.244
  258SOL    HW1 1673   5.641   4.079   4.224
  258SOL    HW2 1674   5.798   4.121   4.233
  259SOL     OW 1675   1.601   2.753   2.821
  259SOL    HW1 1676   1.660   2.707   2.887
  259SOL    HW2 1677   1.621   2.720   2.729
  260SOL     OW 1678   5.670   0.329   6.106
  260SOL    HW1 1679   5.621   0.414   6.129
  260SOL    HW2 1680   5.668   0.268   6.184
  261SOL     OW 1681   1.079   4.075   1.942
  261SOL    HW1 1682   0.979   4.063   1.944
  261SOL    HW2 1683   1.115   4.069   2.034
  262SOL     OW 1684   0.957   3.395   2.010
  262SOL    HW1 1685   0.869   3.358   1.982
  262SOL    HW2 1686   1.004   3.432   1.930
  263SOL     OW 1687   0.617   2.112   5.078
  263SOL    HW1 1688   0.693   2.174   5.059
  263SOL    HW2 1689   0.535   2.144   5.029
  264SOL     OW 1690   1.715   4.496   5.868
  264SOL    HW1 1691   1.671   4.571   5.917
  264SOL    HW2 1692   1.652   4.418   5.863
  265SOL     OW 1693   5.211   4.531   4.009
  265SOL    HW1 1694   5.123   4.483   4.011
  265SOL    HW2 1695   5.197   4.628   4.024
  266SOL     OW 1696   4.224   1.075   0.709
  266SOL    HW1 1697   4.151   1.080   0.641
  266SOL    HW2 1698   4.207   1.141   0.782
  267SOL     OW 1699   1.539   2.080   6.228
  267SOL    HW1 1700   1.562   2.147   6.298
  267SOL    HW2 1701   1.503   1.998   6.272
  268SOL     OW 1702   4.252   4.763   4.161
  268SOL    HW1 1703   4.290   4.703   4.232
  268SOL    HW2 1704   4.208   4.708   4.090
  269SOL     OW 1705   0.901   2.143   6.420
  269SOL    HW1 1706   0.890   2.242   6.422
  269SOL    HW2 1707   0.836   2.101   6.483
  270SOL     OW 1708   4.843   0.832   2.161
  270SOL    HW1 1709   4.924   0.776   2.182
  270SOL    HW2 1710   4.827   0.896   2.236
  271SOL     OW 1711   1.545   0.195   7.015
  271SOL    HW1 1712   1.450   0.197   0.026
  271SOL    HW2 1713   1.607   0.207   0.070
  272SOL     OW 1714   3.608   5.447   3.294
  272SOL    HW1 1715   3.573   5.354   3.297
  272SOL    HW2 1716   3.704   5.447   3.325
  273SOL     OW 1717   1.917   6.070   5.006
  273SOL    HW1 1718   1.880   6.135   4.940
  273SOL    HW2 1719   1.966   5.997   4.958
  274SOL     OW 1720   6.138   2.738   2.789
  274SOL    HW1 1721   6.056   2.794   2.781
  274SOL    HW2 1722   6.170   2.740   2.884
  275SOL     OW 1723   6.471   6.272   5.444
  275SOL    HW1 1724   6.545   6.270   5.511
  275SOL    HW2 1725   6.490   6.344   5.377
  276SOL     OW 1726   6.352   6.094   3.924
  276SOL    HW1 1727   6.448   6.111   3.943
  276SOL    HW2 1728   6.339   6.075   3.827
  277SOL     OW 1729   3.597   1.663   5.454
  277SOL    HW1 1730   3.590   1.691   5.358
  277SOL    HW2 1731   3.506   1.645   5.490
  278SOL     OW 1732   5.566   3.665   2.443
  278SOL    HW1 1733   5.630   3.742   2.446
  278SOL    HW2 1734   5.513   3.669   2.359
  279SOL     OW 1735   0.211   2.655   3.408
  279SOL    HW1 1736   0.228   2.639   3.506
  279SOL    HW2 1737   0.284   2.713   3.371
  280SOL     OW 1738   4.699   0.237   4.302
  280SOL    HW1 1739   4.733   0.329   4.283
  280SOL    HW2 1740   4.599   0.237   4.295
  281SOL     OW 1741   5.166   6.390   4.229
  281SOL    HW1 1742   5.185   6.436   4.142
  281SOL    HW2 1743   5.229   6.424   4.299
  282SOL     OW 1744   4.572   1.956   6.410
  282SOL    HW1 1745   4.543   2.045   6.446
  282SOL    HW2 1746   4.527   1.883   6.461
  283SOL     OW 1747   6.421   1.023   4.785
  283SOL    HW1 1748   6.460   1.111   4.758
  283SOL    HW2 1749   6.330   1.014   4.744
  284SOL     OW 1750   6.334   5.180   4.347
  284SOL    HW1 1751   6.255   5.126   4.317
  284SOL    HW2 1752   6.384   5.130   4.418
  285SOL     OW 1753   3.913   0.564   6.865
  285SOL    HW1 1754   3.908   0.489   6.799
  285SOL    HW2 1755   3.909   0.651   6.816
  286SOL     OW 1756   3.785   4.925   4.704
  286SOL    HW1 1757   3.792   4.840   4.652
  286SOL    HW2 1758   3.870   4.977   4.695
  287SOL     OW 1759   3.064   6.276   6.062
  287SOL    HW1 1760   3.064   6.262   6.161
  287SOL    HW2 1761   2.971   6.271   6.027
  288SOL     OW 1762   3.703   1.000   0.846
  288SOL    HW1 1763   3.665   1.067   0.910
  288SOL    HW2 1764   3.629   0.957   0.794
  289SOL     OW 1765   0.330   6.427   4.119
  289SOL    HW1 1766   0.429   6.421   4.110
  289SOL    HW2 1767   0.291   6.335   4.118
  290SOL     OW 1768   3.637   1.015   3.630
  290SOL    HW1 1769   3.579   1.086   3.590
  290SOL    HW2 1770   3.687   0.968   3.558
  291SOL     OW 1771   4.942   0.397   4.276
  291SOL    HW1 1772   4.906   0.443   4.357
  291SOL    HW2 1773   5.040   0.412   4.270
  292SOL     OW 1774   3.530   0.144   3.620
  292SOL    HW1 1775   3.593   0.070   3.593
  292SOL    HW2 1776   3.531   0.155   3.719
  293SOL     OW 1777   5.865   6.590   2.924
  293SOL    HW1 1778   5.960   6.590   2.893
  293SOL    HW2 1779   5.806   6.625   2.851
  294SOL     OW 1780   5.838   1.090   5.650
  294SOL    HW1 1781   5.754   1.063   5.603
  294SOL    HW2 1782   5.895   1.144   5.587
  295SOL     OW 1783   1.074   1.866   5.308
  295SOL    HW1 1784   1.160   1.839   5.352
  295SOL    HW2 1785   1.091   1.889   5.212
  296SOL     OW 1786   6.582   1.615   1.633
  296SOL    HW1 1787   6.656   1.676   1.662
  296SOL    HW2 1788   6.548   1.644   1.544
  297SOL     OW 1789   5.593   4.082   3.601
  297SOL    HW1 1790   5.582   4.001   3.659
  297SOL    HW2 1791   5.689   4.092   3.574
  298SOL     OW 1792   4.287   0.372   0.614
  298SOL    HW1 1793   4.269   0.415   0.525
  298SOL    HW2 1794   4.251   0.431   0.687
  299SOL     OW 1795   2.864   1.359   6.525
  299SOL    HW1 1796   2.880   1.294   6.450
  299SOL    HW2 1797   2.828   1.444   6.489
  300SOL     OW 1798   3.490   1.143   2.592
  300SOL    HW1 1799   3.560   1.190   2.537
  300SOL    HW2 1800   3.532   1.105   2.674
  301SOL     OW 1801   5.927   6.102   1.726
  301SOL    HW1 1802   5.953   6.006   1.735
  301SOL    HW2 1803   5.903   6.138   1.816
  302SOL     OW 1804   6.850   6.564   1.667
  302SOL    HW1 1805   6.761   6.561   1.712
  302SOL    HW2 1806   6.922   6.569   1.736
  303SOL     OW 1807   6.351   6.128   2.460
  303SOL    HW1 1808   6.353   6.197   2.532
  303SOL    HW2 1809   6.360   6.172   2.371
  304SOL     OW 1810   1.400   0.174   5.314
  304SOL    HW1 1811   1.364   0.103   5.375
  304SOL    HW2 1812   1.332   0.195   5.244
  305SOL     OW 1813   2.012   2.531   1.957
  305SOL    HW1 1814   1.932   2.523   2.015
  305SOL    HW2 1815   2.028   2.628   1.936
  306SOL     OW 1816   6.300   0.852   3.465
  306SOL    HW1 1817   6.254   0.894   3.387
  306SOL    HW2 1818   6.303   0.917   3.541
  307SOL     OW 1819   3.208   3.520   2.042
  307SOL    HW1 1820   3.228   3.515   1.944
  307SOL    HW2 1821   3.110   3.532   2.056
  308SOL     OW 1822   5.730   1.075   3.955
  308SOL    HW1 1823   5.711   0.984   3.994
  308SOL    HW2 1824   5.754   1.138   4.029
  309SOL     OW 1825   0.770   6.454   6.453
  309SOL    HW1 1826   0.699   6.514   6.489
  309SOL    HW2 1827   0.744   6.421   6.362
  310SOL     OW 1828   5.123   5.346   4.603
  310SOL    HW1 1829   5.085   5.413   4.539
  310SOL    HW2 1830   5.129   5.257   4.558
  311SOL     OW 1831   1.436   5.528   2.785
  311SOL    HW1 1832   1.381   5.502   2.706
  311SOL    HW2 1833   1.421   5.625   2.806
  312SOL     OW 1834   4.465   2.059   3.125
  312SOL    HW1 1835   4.417   2.139   3.160
  312SOL    HW2 1836   4.437   1.978   3.177
  313SOL     OW 1837   3.763   3.825   2.879
  313SOL    HW1 1838   3.738   3.747   2.937
  313SOL    HW2 1839   3.727   3.909   2.920
  314SOL     OW 1840   1.693   6.579   4.979
  314SOL    HW1 1841   1.631   6.658   4.982
  314SOL    HW2 1842   1.783   6.607   5.015
  315SOL     OW 1843   6.353   1.071   3.636
  315SOL    HW1 1844   6.453   1.075   3.630
  315SOL    HW2 1845   6.314   1.145   3.581
  316SOL     OW 1846   3.998   1.365   5.034
  316SOL    HW1 1847   4.046   1.288   5.075
  316SOL    HW2 1848   3.944   1.412   5.104
  317SOL     OW 1849   1.479   1.332   1.746
  317SOL    HW1 1850   1.465   1.411   1.687
  317SOL    HW2 1851   1.438   1.251   1.703
  318SOL     OW 1852   6.818   0.584   5.713
  318SOL    HW1 1853   6.765   0.552   5.635
  318SOL    HW2 1854   6.766   0.568   5.797
  319SOL     OW 1855   1.386   2.078   2.805
  319SOL    HW1 1856   1.381   2.028   2.719
  319SOL    HW2 1857   1.426   2.168   2.789
  320SOL     OW 1858   5.353   2.413   6.819
  320SOL    HW1 1859   5.377   2.344   6.750
  320SOL    HW2 1860   5.436   2.460   6.849
  321SOL     OW 1861   4.262   3.062   0.841
  321SOL    HW1 1862   4.320   3.013   0.776
  321SOL    HW2 1863   4.186   3.004   0.869
  322SOL     OW 1864   4.442   3.616   0.211
  322SOL    HW1 1865   4.428   3.714   0.194
  322SOL    HW2 1866   4.484   3.575   0.130
  323SOL     OW 1867   0.311   3.071   3.543
  323SOL    HW1 1868   0.238   3.113   3.596
  323SOL    HW2 1869   0.368   3.142   3.503
  324SOL     OW 1870   1.646   0.318   2.995
  324SOL    HW1 1871   1.738   0.284   3.011
  324SOL    HW2 1872   1.623   0.386   3.064
  325SOL     OW 1873   1.227   3.509   2.368
  325SOL    HW1 1874   1.200   3.534   2.461
  325SOL    HW2 1875   1.286   3.428   2.372
  326SOL     OW 1876   2.084   5.715   6.376
  326SOL    HW1 1877   2.153   5.783   6.350
  326SOL    HW2 1878   2.079   5.644   6.305
  327SOL     OW 1879   3.800   5.538   3.079
  327SOL    HW1 1880   3.711   5.514   3.117
  327SOL    HW2 1881   3.853   5.588   3.147
  328SOL     OW 1882   2.323   4.572   1.765
  328SOL    HW1 1883   2.258   4.498   1.784
  328SOL    HW2 1884   2.385   4.583   1.842
  329SOL     OW 1885   3.199   4.129   1.824
  329SOL    HW1 1886   3.104   4.160   1.820
  329SOL    HW2 1887   3.231   4.107   1.732
  330SOL     OW 1888   4.089   4.811   0.206
  330SOL    HW1 1889   4.070   4.888   0.146
  330SOL    HW2 1890   4.094   4.727   0.152
  331SOL     OW 1891   4.934   5.130   0.735
  331SOL    HW1 1892   4.954   5.226   0.720
  331SOL    HW2 1893   4.841   5.120   0.772
  332SOL     OW 1894   5.475   2.155   3.542
  332SOL    HW1 1895   5.507   2.236   3.491
  332SOL    HW2 1896   5.516   2.156   3.634
  333SOL     OW 1897   3.694   0.898   5.425
  333SOL    HW1 1898   3.731   0.977   5.474
  333SOL    HW2 1899   3.627   0.930   5.357
  334SOL     OW 1900   4.010   3.324   2.891
  334SOL    HW1 1901   3.940   3.274   2.840
  334SOL    HW2 1902   4.043   3.268   2.966
  335SOL     OW 1903   3.739   6.926   6.903
  335SOL    HW1 1904   3.727   6.828   6.892
  335SOL    HW2 1905   3.653   6.967   6.934
  336SOL     OW 1906   2.500   1.543   3.524
  336SOL    HW1 1907   2.489   1.561   3.622
  336SOL    HW2 1908   2.484   1.627   3.473
  337SOL     OW 1909   1.584   1.709   6.129
  337SOL    HW1 1910   1.650   1.636   6.112
  337SOL    HW2 1911   1.534   1.729   6.045
  338SOL     OW 1912   4.497   2.789   1.294
  338SOL    HW1 1913   4.446   2.840   1.363
  338SOL    HW2 1914   4.442   2.780   1.212
  339SOL     OW 1915   4.084   4.960   4.698
  339SOL    HW1 1916   4.167   5.012   4.718
  339SOL    HW2 1917   4.109   4.873   4.657
  340SOL     OW 1918   4.638   2.379   4.992
  340SOL    HW1 1919   4.683   2.387   4.903
  340SOL    HW2 1920   4.566   2.309   4.986
  341SOL     OW 1921   5.762   6.249   3.887
  341SOL    HW1 1922   5.739   6.237   3.983
  341SOL    HW2 1923   5.849   6.299   3.880
  342SOL     OW 1924   4.885   3.419   0.960
  342SOL    HW1 1925   4.810   3.411   0.895
  342SOL    HW2 1926   4.853   3.463   1.044
  343SOL     OW 1927   0.930   5.394   2.802
  343SOL    HW1 1928   0.964   5.340   2.724
  343SOL    HW2 1929   0.846   5.441   2.775
  344SOL     OW 1930   1.423   1.557   1.599
  344SOL    HW1 1931   1.479   1.607   1.532
  344SOL    HW2 1932   1.378   1.621   1.661
  345SOL     OW 1933   7.019   2.353   4.463
  345SOL    HW1 1934   0.005   2.293   4.384
  345SOL    HW2 1935   6.928   2.345   4.503
  346SOL     OW 1936   2.085   0.057   2.563
  346SOL    HW1 1937   2.167   0.114   2.569
  346SOL    HW2 1938   2.097   6.998   2.620
  347SOL     OW 1939   3.010   5.499   0.492
  347SOL    HW1 1940   3.075   5.435   0.534
  347SOL    HW2 1941   2.988   5.468   0.399
  348SOL     OW 1942   4.969   5.140   2.329
  348SOL    HW1 1943   4.938   5.198   2.254
  348SOL    HW2 1944   4.974   5.195   2.413
  349SOL     OW 1945   6.904   3.966   1.434
  349SOL    HW1 1946   6.957   3.927   1.509
  349SOL    HW2 1947   6.957   4.037   1.388
  350SOL     OW 1948   4.181   3.238   0.256
  350SOL    HW1 1949   4.166   3.335   0.271
  350SOL    HW2 1950   4.242   3.202   0.326
  351SOL     OW 1951   3.361   3.584   0.662
  351SOL    HW1 1952   3.452   3.551   0.690
  351SOL    HW2 1953   3.330   3.531   0.583
  352SOL     OW 1954   4.408   5.888   3.789
  352SOL    HW1 1955   4.444   5.929   3.705
  352SOL    HW2 1956   4.471   5.907   3.865
  353SOL     OW 1957   2.787   6.835   5.885
  353SOL    HW1 1958   2.808   6.745   5.923
  353SOL    HW2 1959   2.711   6.876   5.935
  354SOL     OW 1960   5.522   2.699   1.187
  354SOL    HW1 1961   5.599   2.743   1.233
  354SOL    HW2 1962   5.556   2.642   1.112
  355SOL     OW 1963   1.870   3.206   2.692
  355SOL    HW1 1964   1.868   3.185   2.594
  355SOL    HW2 1965   1.963   3.234   2.718
  356SOL     OW 1966   1.692   0.471   5.303
  356SOL    HW1 1967   1.698   0.382   5.350
  356SOL    HW2 1968   1.629   0.464   5.226
  357SOL     OW 1969   5.959   6.859   4.638
  357SOL    HW1 1970   5.978   6.796   4.714
  357SOL    HW2 1971   6.009   6.828   4.557
  358SOL     OW 1972   5.224   5.490   0.552
  358SOL    HW1 1973   5.257   5.403   0.515
  358SOL    HW2 1974   5.230   5.560   0.482
  359SOL     OW 1975   3.085   1.497   2.245
  359SOL    HW1 1976   3.022   1.429   2.284
  359SOL    HW2 1977   3.049   1.589   2.261
  360SOL     OW 1978   1.021   5.073   4.466
  360SOL    HW1 1979   1.037   4.995   4.405
  360SOL    HW2 1980   1.097   5.080   4.531
  361SOL     OW 1981   6.644   6.051   3.030
  361SOL    HW1 1982   6.653   6.014   3.122
  361SOL    HW2 1983   6.726   6.105   3.008
  362SOL     OW 1984   3.738   4.009   0.633
  362SOL    HW1 1985   3.678   3.938   0.598
  362SOL    HW2 1986   3.763   4.071   0.559
  363SOL     OW 1987   6.532   4.757   2.821
  363SOL    HW1 1988   6.606   4.746   2.888
  363SOL    HW2 1989   6.447   4.723   2.861
  364SOL     OW 1990   0.227   4.740   6.652
  364SOL    HW1 1991   0.315   4.698   6.627
  364SOL    HW2 1992   0.232   4.772   6.747
  365SOL     OW 1993   3.588   0.893   1.985
  365SOL    HW1 1994   3.646   0.811   1.983
  365SOL    HW2 1995   3.495   0.867   2.011
  366SOL     OW 1996   5.968   3.493   0.154
  366SOL    HW1 1997   6.055   3.451   0.177
  366SOL    HW2 1998   5.895   3.451   0.209
  367SOL     OW 1999   5.282   2.380   5.621
  367SOL    HW1 2000   5.297   2.461   5.565
  367SOL    HW2 2001   5.188   2.349   5.610
  368SOL     OW 2002   6.430   1.862   6.084
  368SOL    HW1 2003   6.369   1.799   6.131
  368SOL    HW2 2004   6.521   1.821   6.078
  369SOL     OW 2005   5.964   4.097   3.012
  369SOL    HW1 2006   5.900   4.173   3.006
  369SOL    HW2 2007   5.922   4.015   2.974
  370SOL     OW 2008   1.750   2.357   4.297
  370SOL    HW1 2009   1.729   2.309   4.383
  370SOL    HW2 2010   1.848   2.378   4.294
  371SOL     OW 2011   1.883   4.052   6.716
  371SOL    HW1 2012   1.961   4.113   6.733
  371SOL    HW2 2013   1.896   4.004   6.630
  372SOL     OW 2014   2.075   6.693   4.978
  372SOL    HW1 2015   2.051   6.698   4.881
  372SOL    HW2 2016   1.991   6.686   5.032
  373SOL     OW 2017   6.131   6.469   4.997
  373SOL    HW1 2018   6.066   6.431   5.063
  373SOL    HW2 2019   6.212   6.411   4.991
  374SOL     OW 2020   2.009   1.606   2.764
  374SOL    HW1 2021   2.076   1.626   2.693
  374SOL    HW2 2022   1.996   1.507   2.770
  375SOL     OW 2023   0.370   5.337   5.188
  375SOL    HW1 2024   0.415   5.358   5.102
  375SOL    HW2 2025   0.399   5.247   5.220
  376SOL     OW 2026   2.572   1.016   4.452
  376SOL    HW1 2027   2.521   1.066   4.523
  376SOL    HW2 2028   2.666   1.047   4.451
  377SOL     OW 2029   1.462   2.262   0.230
  377SOL    HW1 2030   1.512   2.237   0.313
  377SOL    HW2 2031   1.507   2.341   0.188
  378SOL     OW 2032   3.200   1.598   6.807
  378SOL    HW1 2033   3.296   1.578   6.829
  378SOL    HW2 2034   3.153   1.513   6.785
  379SOL     OW 2035   5.749   2.320   6.560
  379SOL    HW1 2036   5.772   2.378   6.482
  379SOL    HW2 2037   5.757   2.372   6.645
  380SOL     OW 2038   3.315   1.297   1.306
  380SOL    HW1 2039   3.279   1.206   1.286
  380SOL    HW2 2040   3.415   1.294   1.308
  381SOL     OW 2041   1.778   4.450   4.218
  381SOL    HW1 2042   1.688   4.471   4.180
  381SOL    HW2 2043   1.770   4.375   4.284
  382SOL     OW 2044   6.213   0.069   0.368
  382SOL    HW1 2045   6.271   0.129   0.423
  382SOL    HW2 2046   6.179   0.118   0.288
  383SOL     OW 2047   4.452   2.951   0.696
  383SOL    HW1 2048   4.480   2.867   0.649
  383SOL    HW2 2049   4.493   2.953   0.787
  384SOL     OW 2050   0.165   3.860   4.068
  384SOL    HW1 2051   0.188   3.786   4.130
  384SOL    HW2 2052   0.129   3.822   3.982
  385SOL     OW 2053   4.041   5.211   6.399
  385SOL    HW1 2054   4.103   5.281   6.433
  385SOL    HW2 2055   4.064   5.189   6.304
  386SOL     OW 2056   4.166   0.592   3.997
  386SOL    HW1 2057   4.173   0.495   3.973
  386SOL    HW2 2058   4.078   0.610   4.041
  387SOL     OW 2059   1.656   4.961   2.986
  387SOL    HW1 2060   1.733   4.977   2.923
  387SOL    HW2 2061   1.687   4.906   3.063
  388SOL     OW 2062   2.265   2.143   6.733
  388SOL    HW1 2063   2.193   2.073   6.738
  388SOL    HW2 2064   2.322   2.138   6.815
  389SOL     OW 2065   3.721   3.707   3.162
  389SOL    HW1 2066   3.639   3.660   3.195
  389SOL    HW2 2067   3.786   3.639   3.127
  390SOL     OW 2068   2.494   1.015   3.760
  390SOL    HW1 2069   2.417   0.982   3.815
  390SOL    HW2 2070   2.485   0.980   3.667
  391SOL     OW 2071   1.657   3.310   6.673
  391SOL    HW1 2072   1.752   3.282   6.665
  391SOL    HW2 2073   1.608   3.286   6.589
  392SOL     OW 2074   2.128   5.079   1.483
  392SOL    HW1 2075   2.076   5.070   1.568
  392SOL    HW2 2076   2.091   5.155   1.429
  393SOL     OW 2077   6.432   4.633   5.571
  393SOL    HW1 2078   6.350   4.677   5.606
  393SOL    HW2 2079   6.456   4.673   5.483
  394SOL     OW 2080   0.849   6.904   0.363
  394SOL    HW1 2081   0.761   6.864   0.387
  394SOL    HW2 2082   0.891   6.852   0.289
  395SOL     OW 2083   5.014   4.247   2.564
  395SOL    HW1 2084   4.928   4.223   2.519
  395SOL    HW2 2085   4.997   4.319   2.632
  396SOL     OW 2086   3.850   4.026   3.110
  396SOL    HW1 2087   3.872   4.116   3.146
  396SOL    HW2 2088   3.926   3.963   3.127
  397SOL     OW 2089   4.167   2.843   5.810
  397SOL    HW1 2090   4.098   2.783   5.771
  397SOL    HW2 2091   4.140   2.938   5.799
  398SOL     OW 2092   0.995   5.457   2.163
  398SOL    HW1 2093   1.003   5.433   2.066
  398SOL    HW2 2094   1.021   5.378   2.219
  399SOL     OW 2095   5.479   6.118   2.845
  399SOL    HW1 2096   5.570   6.082   2.862
  399SOL    HW2 2097   5.435   6.140   2.932
  400SOL     OW 2098   0.280   0.079   6.189
  400SOL    HW1 2099   0.293   0.136   6.108
  400SOL    HW2 2100   0.272   7.006   6.162
  401SOL     OW 2101   4.846   0.614   6.158
  401SOL    HW1 2102   4.918   0.641   6.095
  401SOL    HW2 2103   4.835   0.684   6.229
  402SOL     OW 2104   6.284   6.546   3.168
  402SOL    HW1 2105   6.319   6.616   3.106
  402SOL    HW2 2106   6.258   6.464   3.116
  403SOL     OW 2107   4.531   2.538   5.940
  403SOL    HW1 2108   4.521   2.448   5.898
  403SOL    HW2 2109   4.442   2.583   5.946
  404SOL     OW 2110   1.659   6.846   3.380
  404SOL    HW1 2111   1.590   6.910   3.346
  404SOL    HW2 2112   1.618   6.784   3.447
  405SOL     OW 2113   1.995   2.166   1.298
  405SOL    HW1 2114   2.042   2.091   1.251
  405SOL    HW2 2115   2.002   2.250   1.244
  406SOL     OW 2116   1.383   2.633   3.890
  406SOL    HW1 2117   1.354   2.695   3.963
  406SOL    HW2 2118   1.472   2.594   3.913
  407SOL     OW 2119   2.511   0.167   4.011
  407SOL    HW1 2120   2.600   0.211   4.010
  407SOL    HW2 2121   2.518   0.078   4.057
  408SOL     OW 2122   1.333   0.867   3.035
  408SOL    HW1 2123   1.427   0.836   3.023
  408SOL    HW2 2124   1.317   0.891   3.131
  409SOL     OW 2125   5.824   2.731   2.378
  409SOL    HW1 2126   5.755   2.778   2.323
  409SOL    HW2 2127   5.913   2.739   2.333
  410SOL     OW 2128   2.351   0.230   0.107
  410SOL    HW1 2129   2.257   0.237   0.139
  410SOL    HW2 2130   2.370   0.136   0.079
  411SOL     OW 2131   6.021   6.369   6.565
  411SOL    HW1 2132   5.928   6.334   6.550
  411SOL    HW2 2133   6.026   6.463   6.532
  412SOL     OW 2134   4.428   6.989   3.276
  412SOL    HW1 2135   4.480   0.048   3.304
  412SOL    HW2 2136   4.364   7.014   3.203
  413SOL     OW 2137   4.058   4.248   1.117
  413SOL    HW1 2138   4.139   4.272   1.170
  413SOL    HW2 2139   4.086   4.198   1.034
  414SOL     OW 2140   4.165   5.133   2.575
  414SOL    HW1 2141   4.123   5.165   2.660
  414SOL    HW2 2142   4.251   5.182   2.560
  415SOL     OW 2143   1.180   5.977   0.410
  415SOL    HW1 2144   1.246   5.978   0.336
  415SOL    HW2 2145   1.151   6.071   0.430
  416SOL     OW 2146   4.436   5.637   5.020
  416SOL    HW1 2147   4.429   5.611   5.116
  416SOL    HW2 2148   4.362   5.699   4.996
  417SOL     OW 2149   2.997   6.592   1.037
  417SOL    HW1 2150   3.054   6.627   1.112
  417SOL    HW2 2151   2.902   6.588   1.067
  418SOL     OW 2152   4.828   6.026   0.348
  418SOL    HW1 2153   4.918   5.999   0.381
  418SOL    HW2 2154   4.813   6.123   0.366
  419SOL     OW 2155   0.890   0.233   1.298
  419SOL    HW1 2156   0.875   0.144   1.255
  419SOL    HW2 2157   0.986   0.242   1.323
  420SOL     OW 2158   6.272   3.752   1.312
  420SOL    HW1 2159   6.202   3.800   1.364
  420SOL    HW2 2160   6.358   3.803   1.316
  421SOL     OW 2161   0.833   4.843   6.240
  421SOL    HW1 2162   0.849   4.933   6.201
  421SOL    HW2 2163   0.917   4.811   6.286
  422SOL     OW 2164   6.140   5.859   0.704
  422SOL    HW1 2165   6.227   5.846   0.752
  422SOL    HW2 2166   6.132   5.954   0.673
  423SOL     OW 2167   6.523   3.336   7.013
  423SOL    HW1 2168   6.500   3.383   0.076
  423SOL    HW2 2169   6.616   3.301   7.019
  424SOL     OW 2170   2.983   3.308   1.113
  424SOL    HW1 2171   3.024   3.374   1.177
  424SOL    HW2 2172   3.046   3.291   1.038
  425SOL     OW 2173   5.214   1.095   1.914
  425SOL    HW1 2174   5.193   1.175   1.858
  425SOL    HW2 2175   5.159   1.017   1.883
  426SOL     OW 2176   5.906   2.323   4.842
  426SOL    HW1 2177   5.837   2.318   4.770
  426SOL    HW2 2178   5.990   2.364   4.804
  427SOL     OW 2179   5.527   5.172   2.619
  427SOL    HW1 2180   5.497   5.240   2.686
  427SOL    HW2 2181   5.489   5.196   2.529
  428SOL     OW 2182   4.486   0.209   5.081
  428SOL    HW1 2183   4.568   0.159   5.109
  428SOL    HW2 2184   4.513   0.285   5.021
  429SOL     OW 2185   3.015   4.826   1.198
  429SOL    HW1 2186   3.001   4.873   1.111
  429SOL    HW2 2187   2.999   4.728   1.186
  430SOL     OW 2188   0.505   6.926   3.960
  430SOL    HW1 2189   0.409   6.902   3.968
  430SOL    HW2 2190   0.527   6.997   4.027
  431SOL     OW 2191   3.523   0.824   0.379
  431SOL    HW1 2192   3.565   0.748   0.329
  431SOL    HW2 2193   3.435   0.796   0.416
  432SOL     OW 2194   6.773   2.358   1.094
  432SOL    HW1 2195   6.800   2.282   1.153
  432SOL    HW2 2196   6.673   2.360   1.086
  433SOL     OW 2197   2.974   6.750   3.683
  433SOL    HW1 2198   2.947   6.767   3.778
  433SOL    HW2 2199   2.892   6.735   3.627
  434SOL     OW 2200   5.033   5.214   1.473
  434SOL    HW1 2201   5.001   5.126   1.439
  434SOL    HW2 2202   5.106   5.248   1.415
  435SOL     OW 2203   3.755   2.695   5.496
  435SOL    HW1 2204   3.793   2.693   5.588
  435SOL    HW2 2205   3.827   2.722   5.431
  436SOL     OW 2206   2.437   6.664   1.349
  436SOL    HW1 2207   2.445   6.575   1.303
  436SOL    HW2 2208   2.402   6.732   1.285
  437SOL     OW 2209   0.727   0.056   6.633
  437SOL    HW1 2210   0.814   0.064   6.585
  437SOL    HW2 2211   0.652   0.051   6.566
  438SOL     OW 2212   1.904   3.166   2.418
  438SOL    HW1 2213   1.882   3.263   2.412
  438SOL    HW2 2214   1.933   3.132   2.329
  439SOL     OW 2215   6.249   4.230   3.475
  439SOL    HW1 2216   6.332   4.201   3.428
  439SOL    HW2 2217   6.263   4.225   3.574
  440SOL     OW 2218   0.950   2.256   4.663
  440SOL    HW1 2219   0.856   2.263   4.697
  440SOL    HW2 2220   1.000   2.188   4.717
  441SOL     OW 2221   0.709   2.137   2.937
  441SOL    HW1 2222   0.664   2.103   2.855
  441SOL    HW2 2223   0.719   2.062   3.003
  442SOL     OW 2224   2.068   5.120   0.074
  442SOL    HW1 2225   2.043   5.216   0.061
  442SOL    HW2 2226   2.167   5.110   0.071
  443SOL     OW 2227   1.010   3.938   4.727
  443SOL    HW1 2228   0.973   4.030   4.725
  443SOL    HW2 2229   1.101   3.938   4.686
  444SOL     OW 2230   5.291   2.229   6.082
  444SOL    HW1 2231   5.210   2.235   6.139
  444SOL    HW2 2232   5.361   2.292   6.116
  445SOL     OW 2233   1.479   5.667   3.122
  445SOL    HW1 2234   1.454   5.575   3.151
  445SOL    HW2 2235   1.447   5.682   3.028
  446SOL     OW 2236   3.871   4.922   3.156
  446SOL    HW1 2237   3.866   5.016   3.122
  446SOL    HW2 2238   3.901   4.861   3.083
  447SOL     OW 2239   0.297   3.643   0.128
  447SOL    HW1 2240   0.346   3.653   0.041
  447SOL    HW2 2241   0.328   3.559   0.174
  448SOL     OW 2242   3.420   0.398   4.814
  448SOL    HW1 2243   3.343   0.449   4.776
  448SOL    HW2 2244   3.498   0.405   4.752
  449SOL     OW 2245   4.567   1.159   5.153
  449SOL    HW1 2246   4.570   1.157   5.253
  449SOL    HW2 2247   4.614   1.079   5.117
  450SOL     OW 2248   1.013   6.107   3.349
  450SOL    HW1 2249   1.072   6.088   3.427
  450SOL    HW2 2250   0.957   6.027   3.328
  451SOL     OW 2251   1.864   2.072   3.118
  451SOL    HW1 2252   1.812   2.092   3.035
  451SOL    HW2 2253   1.807   2.092   3.198
  452SOL     OW 2254   6.329   5.861   1.132
  452SOL    HW1 2255   6.303   5.897   1.222
  452SOL    HW2 2256   6.341   5.938   1.069
  453SOL     OW 2257   3.015   0.319   4.979
  453SOL    HW1 2258   2.926   0.306   4.937
  453SOL    HW2 2259   3.084   0.266   4.930
  454SOL     OW 2260   0.555   5.248   6.087
  454SOL    HW1 2261   0.478   5.273   6.029
  454SOL    HW2 2262   0.596   5.332   6.124
  455SOL     OW 2263   0.139   0.825   4.380
  455SOL    HW1 2264   0.111   0.762   4.307
  455SOL    HW2 2265   0.061   0.882   4.406
  456SOL     OW 2266   4.459   5.691   4.366
  456SOL    HW1 2267   4.520   5.703   4.444
  456SOL    HW2 2268   4.423   5.598   4.365
  457SOL     OW 2269   2.132   3.581   3.305
  457SOL    HW1 2270   2.154   3.657   3.367
  457SOL    HW2 2271   2.135   3.614   3.210
  458SOL     OW 2272   4.954   6.139   4.694
  458SOL    HW1 2273   4.878   6.082   4.663
  458SOL    HW2 2274   5.040   6.105   4.655
  459SOL     OW 2275   1.555   0.335   4.083
  459SOL    HW1 2276   1.494   0.410   4.056
  459SOL    HW2 2277   1.503   0.266   4.133
  460SOL     OW 2278   1.170   0.637   2.410
  460SOL    HW1 2279   1.170   0.670   2.316
  460SOL    HW2 2280   1.162   0.537   2.411
  461SOL     OW 2281   5.885   6.258   4.698
  461SOL    HW1 2282   5.924   6.349   4.688
  461SOL    HW2 2283   5.957   6.190   4.691
  462SOL     OW 2284   4.123   2.271   5.901
  462SOL    HW1 2285   4.207   2.224   5.875
  462SOL    HW2 2286   4.044   2.220   5.868
  463SOL     OW 2287   6.038   6.193   3.435
  463SOL    HW1 2288   6.059   6.149   3.348
  463SOL    HW2 2289   5.948   6.164   3.467
  464SOL     OW 2290   2.902   1.899   6.368
  464SOL    HW1 2291   2.838   1.953   6.424
  464SOL    HW2 2292   2.982   1.877   6.422
  465SOL     OW 2293   1.472   2.340   4.821
  465SOL    HW1 2294   1.498   2.251   4.856
  465SOL    HW2 2295   1.390   2.331   4.764
  466SOL     OW 2296   0.723   5.650   3.218
  466SOL    HW1 2297   0.649   5.668   3.283
  466SOL    HW2 2298   0.767   5.564   3.241
  467SOL     OW 2299   1.095   0.874   6.360
  467SOL    HW1 2300   1.038   0.793   6.372
  467SOL    HW2 2301   1.105   0.894   6.263
  468SOL     OW 2302   3.117   6.428   7.015
  468SOL    HW1 2303   3.068   6.422   6.928
  468SOL    HW2 2304   3.103   6.344   0.045
  469SOL     OW 2305   2.541   4.913   0.567
  469SOL    HW1 2306   2.617   4.859   0.533
  469SOL    HW2 2307   2.574   4.981   0.633
  470SOL     OW 2308   3.812   0.397   2.471
  470SOL    HW1 2309   3.817   0.493   2.500
  470SOL    HW2 2310   3.898   0.351   2.491
  471SOL     OW 2311   1.740   2.313   4.572
  471SOL    HW1 2312   1.781   2.258   4.644
  471SOL    HW2 2313   1.777   2.406   4.575
  472SOL     OW 2314   4.920   3.934   6.847
  472SOL    HW1 2315   4.859   3.863   6.883
  472SOL    HW2 2316   4.998   3.892   6.801
  473SOL     OW 2317   0.572   3.359   1.456
  473SOL    HW1 2318   0.529   3.391   1.372
  473SOL    HW2 2319   0.561   3.427   1.528
  474SOL     OW 2320   4.540   4.990   3.546
  474SOL    HW1 2321   4.456   5.009   3.597
  474SOL    HW2 2322   4.543   5.047   3.464
  475SOL     OW 2323   6.069   1.388   6.178
  475SOL    HW1 2324   6.124   1.467   6.150
  475SOL    HW2 2325   5.985   1.420   6.221
  476SOL     OW 2326   0.599   4.174   2.330
  476SOL    HW1 2327   0.604   4.106   2.404
  476SOL    HW2 2328   0.689   4.215   2.316
  477SOL     OW 2329   2.385   4.934   5.138
  477SOL    HW1 2330   2.299   4.908   5.180
  477SOL    HW2 2331   2.455   4.946   5.208
  478SOL     OW 2332   3.178   6.684   2.714
  478SOL    HW1 2333   3.227   6.748   2.656
  478SOL    HW2 2334   3.194   6.706   2.810
  479SOL     OW 2335   4.468   2.037   7.002
  479SOL    HW1 2336   4.368   2.048   7.004
  479SOL    HW2 2337   4.493   1.952   0.027
  480SOL     OW 2338   2.189   0.831   0.096
  480SOL    HW1 2339   2.252   0.894   0.050
  480SOL    HW2 2340   2.241   0.754   0.133
  481SOL     OW 2341   1.976   0.287   6.925
  481SOL    HW1 2342   2.037   0.272   7.003
  481SOL    HW2 2343   2.031   0.316   6.846
  482SOL     OW 2344   4.388   4.980   2.701
  482SOL    HW1 2345   4.428   5.068   2.676
  482SOL    HW2 2346   4.418   4.909   2.637
  483SOL     OW 2347   6.583   1.626   2.175
  483SOL    HW1 2348   6.656   1.559   2.167
  483SOL    HW2 2349   6.562   1.640   2.272
  484SOL     OW 2350   0.688   2.878   5.231
  484SOL    HW1 2351   0.759   2.927   5.179
  484SOL    HW2 2352   0.698   2.780   5.216
  485SOL     OW 2353   4.439   5.518   2.128
  485SOL    HW1 2354   4.467   5.494   2.221
  485SOL    HW2 2355   4.483   5.604   2.101
  486SOL     OW 2356   0.043   1.212   1.465
  486SOL    HW1 2357   6.978   1.246   1.430
  486SOL    HW2 2358   0.042   1.216   1.565
  487SOL     OW 2359   0.887   2.115   0.641
  487SOL    HW1 2360   0.903   2.135   0.544
  487SOL    HW2 2361   0.975   2.108   0.688
  488SOL     OW 2362   0.366   1.615   1.246
  488SOL    HW1 2363   0.424   1.572   1.316
  488SOL    HW2 2364   0.297   1.549   1.214
  489SOL     OW 2365   3.433   6.348   6.228
  489SOL    HW1 2366   3.390   6.311   6.145
  489SOL    HW2 2367   3.448   6.446   6.216
  490SOL     OW 2368   6.747   5.960   3.549
  490SOL    HW1 2369   6.811   5.884   3.534
  490SOL    HW2 2370   6.797   6.040   3.582
  491SOL     OW 2371   0.272   3.095   2.433
  491SOL    HW1 2372   0.283   2.996   2.423
  491SOL    HW2 2373   0.240   3.134   2.347
  492SOL     OW 2374   3.289   0.417   4.567
  492SOL    HW1 2375   3.232   0.492   4.532
  492SOL    HW2 2376   3.232   0.338   4.586
  493SOL     OW 2377   5.414   6.400   5.273
  493SOL    HW1 2378   5.461   6.315   5.246
  493SOL    HW2 2379   5.325   6.377   5.312
  494SOL     OW 2380   0.408   0.109   0.072
  494SOL    HW1 2381   0.390   0.091   0.169
  494SOL    HW2 2382   0.506   0.102   0.054
  495SOL     OW 2383   5.105   6.036   3.159
  495SOL    HW1 2384   5.073   6.090   3.081
  495SOL    HW2 2385   5.032   5.976   3.190
  496SOL     OW 2386   5.260   3.659   2.656
  496SOL    HW1 2387   5.286   3.596   2.582
  496SOL    HW2 2388   5.231   3.746   2.616
  497SOL     OW 2389   3.304   1.233   5.012
  497SOL    HW1 2390   3.399   1.203   5.019
  497SOL    HW2 2391   3.265   1.201   4.925
  498SOL     OW 2392   1.665   3.976   1.738
  498SOL    HW1 2393   1.661   3.898   1.801
  498SOL    HW2 2394   1.737   3.961   1.671
  499SOL     OW 2395   3.098   0.091   4.184
  499SOL    HW1 2396   3.056   0.104   4.095
  499SOL    HW2 2397   3.181   0.146   4.190
  500SOL     OW 2398   1.174   3.226   2.396
  500SOL    HW1 2399   1.090   3.203   2.445
  500SOL    HW2 2400   1.252   3.225   2.459
  501SOL     OW 2401   3.027   6.805   0.318
  501SOL    HW1 2402   3.073   6.719   0.297
  501SOL    HW2 2403   3.000   6.805   0.415
  502SOL     OW 2404   6.842   4.511   6.495
  502SOL    HW1 2405   6.886   4.440   6.550
  502SOL    HW2 2406   6.861   4.601   6.535
  503SOL     OW 2407   5.551   5.895   5.803
  503SOL    HW1 2408   5.532   5.975   5.746
  503SOL    HW2 2409   5.557   5.924   5.899
  504SOL     OW 2410   2.082   5.273   3.219
  504SOL    HW1 2411   2.022   5.319   3.153
  504SOL    HW2 2412   2.079   5.322   3.306
  505SOL     OW 2413   3.553   6.346   5.334
  505SOL    HW1 2414   3.526   6.251   5.352
  505SOL    HW2 2415   3.475   6.396   5.296
  506SOL     OW 2416   1.154   5.259   4.769
  506SOL    HW1 2417   1.155   5.358   4.778
  506SOL    HW2 2418   1.079   5.221   4.824
  507SOL     OW 2419   2.941   0.975   3.661
  507SOL    HW1 2420   2.901   1.065   3.643
  507SOL    HW2 2421   3.040   0.979   3.647
  508SOL     OW 2422   6.341   3.496   2.562
  508SOL    HW1 2423   6.262   3.438   2.541
  508SOL    HW2 2424   6.421   3.439   2.581
  509SOL     OW 2425   2.708   1.075   1.026
  509SOL    HW1 2426   2.788   1.032   1.066
  509SOL    HW2 2427   2.626   1.024   1.051
  510SOL     OW 2428   6.768   4.872   5.852
  510SOL    HW1 2429   6.755   4.773   5.854
  510SOL    HW2 2430   6.836   4.897   5.921
  511SOL     OW 2431   6.976   6.714   6.399
  511SOL    HW1 2432   0.051   6.736   6.410
  511SOL    HW2 2433   6.925   6.798   6.383
  512SOL     OW 2434   0.183   2.914   0.370
  512SOL    HW1 2435   0.161   3.009   0.389
  512SOL    HW2 2436   0.104   2.856   0.394
  513SOL     OW 2437   5.723   6.335   3.002
  513SOL    HW1 2438   5.776   6.418   2.986
  513SOL    HW2 2439   5.780   6.266   3.046
  514SOL     OW 2440   6.876   2.770   3.658
  514SOL    HW1 2441   6.842   2.862   3.636
  514SOL    HW2 2442   6.848   2.706   3.586
  515SOL     OW 2443   1.780   1.142   6.346
  515SOL    HW1 2444   1.858   1.119   6.288
  515SOL    HW2 2445   1.787   1.237   6.376
  516SOL     OW 2446   2.763   4.624   1.613
  516SOL    HW1 2447   2.787   4.632   1.710
  516SOL    HW2 2448   2.842   4.591   1.561
  517SOL     OW 2449   4.719   5.936   1.784
  517SOL    HW1 2450   4.808   5.976   1.809
  517SOL    HW2 2451   4.646   5.990   1.825
  518SOL     OW 2452   3.169   2.102   2.595
  518SOL    HW1 2453   3.153   2.186   2.646
  518SOL    HW2 2454   3.117   2.104   2.509
  519SOL     OW 2455   0.565   0.876   4.698
  519SOL    HW1 2456   0.496   0.860   4.628
  519SOL    HW2 2457   0.525   0.927   4.775
  520SOL     OW 2458   6.223   4.849   6.981
  520SOL    HW1 2459   6.262   4.921   0.016
  520SOL    HW2 2460   6.123   4.852   6.987
  521SOL     OW 2461   6.571   3.128   6.649
  521SOL    HW1 2462   6.654   3.184   6.644
  521SOL    HW2 2463   6.493   3.186   6.673
  522SOL     OW 2464   3.446   3.460   5.416
  522SOL    HW1 2465   3.454   3.361   5.430
  522SOL    HW2 2466   3.353   3.482   5.387
  523SOL     OW 2467   0.627   4.494   2.291
  523SOL    HW1 2468   0.602   4.431   2.365
  523SOL    HW2 2469   0.613   4.588   2.321
  524SOL     OW 2470   1.643   1.061   7.012
  524SOL    HW1 2471   1.667   1.157   7.000
  524SOL    HW2 2472   1.676   1.008   6.934
  525SOL     OW 2473   2.648   4.006   0.069
  525SOL    HW1 2474   2.621   4.017   0.164
  525SOL    HW2 2475   2.691   3.917   0.056
  526SOL     OW 2476   3.190   0.362   4.204
  526SOL    HW1 2477   3.168   0.411   4.289
  526SOL    HW2 2478   3.129   0.394   4.131
  527SOL     OW 2479   5.922   3.030   6.121
  527SOL    HW1 2480   5.985   3.044   6.197
  527SOL    HW2 2481   5.861   3.109   6.113
  528SOL     OW 2482   0.782   2.263   4.457
  528SOL    HW1 2483   0.734   2.351   4.457
  528SOL    HW2 2484   0.865   2.271   4.512
  529SOL     OW 2485   0.977   6.251   4.439
  529SOL    HW1 2486   1.064   6.228   4.481
  529SOL    HW2 2487   0.937   6.169   4.398
  530SOL     OW 2488   2.636   3.023   5.357
  530SOL    HW1 2489   2.567   3.043   5.287
  530SOL    HW2 2490   2.634   2.925   5.378
  531SOL     OW 2491   7.015   0.575   1.714
  531SOL    HW1 2492   0.025   0.578   1.620
  531SOL    HW2 2493   6.915   0.575   1.715
  532SOL     OW 2494   0.986   2.340   6.840
  532SOL    HW1 2495   1.084   2.321   6.846
  532SOL    HW2 2496   0.964   2.373   6.748
  533SOL     OW 2497   3.807   6.325   3.856
  533SOL    HW1 2498   3.736   6.311   3.787
  533SOL    HW2 2499   3.824   6.240   3.905
  534SOL     OW 2500   5.102   5.029   3.380
  534SOL    HW1 2501   5.088   5.067   3.289
  534SOL    HW2 2502   5.199   5.016   3.397
  535SOL     OW 2503   0.900   3.680   4.716
  535SOL    HW1 2504   0.841   3.662   4.637
  535SOL    HW2 2505   0.937   3.773   4.709
  536SOL     OW 2506   0.258   4.548   2.116
  536SOL    HW1 2507   0.221   4.559   2.024
  536SOL    HW2 2508   0.310   4.630   2.142
  537SOL     OW 2509   1.675   6.466   3.491
  537SOL    HW1 2510   1.757   6.506   3.532
  537SOL    HW2 2511   1.669   6.369   3.515
  538SOL     OW 2512   2.219   5.230   3.907
  538SOL    HW1 2513   2.298   5.279   3.944
  538SOL    HW2 2514   2.239   5.132   3.903
  539SOL     OW 2515   0.625   5.974   0.272
  539SOL    HW1 2516   0.724   5.991   0.277
  539SOL    HW2 2517   0.603   5.934   0.183
  540SOL     OW 2518   6.982   1.043   1.962
  540SOL    HW1 2519   7.016   0.958   2.002
  540SOL    HW2 2520   6.977   1.113   2.033
  541SOL     OW 2521   2.788   6.806   4.721
  541SOL    HW1 2522   2.779   6.824   4.819
  541SOL    HW2 2523   2.783   6.708   4.705
  542SOL     OW 2524   6.777   0.350   0.199
  542SOL    HW1 2525   6.743   0.303   0.280
  542SOL    HW2 2526   6.741   0.444   0.198
  543SOL     OW 2527   0.919   5.450   5.360
  543SOL    HW1 2528   0.958   5.385   5.426
  543SOL    HW2 2529   0.915   5.541   5.403
  544SOL     OW 2530   1.764   4.317   1.042
  544SOL    HW1 2531   1.835   4.359   1.099
  544SOL    HW2 2532   1.729   4.236   1.088
  545SOL     OW 2533   3.311   1.328   3.340
  545SOL    HW1 2534   3.346   1.296   3.428
  545SOL    HW2 2535   3.247   1.403   3.355
  546SOL     OW 2536   1.584   3.330   0.483
  546SOL    HW1 2537   1.615   3.376   0.566
  546SOL    HW2 2538   1.611   3.234   0.486
  547SOL     OW 2539   3.132   1.011   6.457
  547SOL    HW1 2540   3.171   1.084   6.514
  547SOL    HW2 2541   3.036   1.031   6.439
  548SOL     OW 2542   3.726   2.972   2.838
  548SOL    HW1 2543   3.781   2.993   2.757
  548SOL    HW2 2544   3.763   3.022   2.916
  549SOL     OW 2545   4.728   3.335   1.565
  549SOL    HW1 2546   4.712   3.334   1.466
  549SOL    HW2 2547   4.688   3.418   1.605
  550SOL     OW 2548   6.695   4.317   3.376
  550SOL    HW1 2549   6.767   4.254   3.405
  550SOL    HW2 2550   6.736   4.407   3.357
  551SOL     OW 2551   6.969   1.179   1.136
  551SOL    HW1 2552   6.923   1.252   1.188
  551SOL    HW2 2553   7.021   1.122   1.200
  552SOL     OW 2554   4.496   4.986   0.635
  552SOL    HW1 2555   4.436   5.053   0.591
  552SOL    HW2 2556   4.457   4.895   0.625
  553SOL     OW 2557   2.082   0.084   1.901
  553SOL    HW1 2558   2.030   0.041   1.975
  553SOL    HW2 2559   2.136   0.015   1.853
  554SOL     OW 2560   4.939   6.471   6.119
  554SOL    HW1 2561   4.850   6.496   6.158
  554SOL    HW2 2562   4.990   6.416   6.185
  555SOL     OW 2563   2.406   5.234   4.216
  555SOL    HW1 2564   2.315   5.203   4.243
  555SOL    HW2 2565   2.437   5.181   4.137
  556SOL     OW 2566   6.208   2.418   4.321
  556SOL    HW1 2567   6.256   2.342   4.277
  556SOL    HW2 2568   6.269   2.463   4.386
  557SOL     OW 2569   0.674   5.345   6.616
  557SOL    HW1 2570   0.640   5.430   6.576
  557SOL    HW2 2571   0.635   5.334   6.707
  558SOL     OW 2572   3.358   4.067   4.274
  558SOL    HW1 2573   3.356   4.117   4.361
  558SOL    HW2 2574   3.450   4.031   4.259
  559SOL     OW 2575   6.194   6.536   6.748
  559SOL    HW1 2576   6.257   6.514   6.674
  559SOL    HW2 2577   6.126   6.463   6.758
  560SOL     OW 2578   3.968   6.399   0.429
  560SOL    HW1 2579   4.050   6.387   0.485
  560SOL    HW2 2580   3.901   6.454   0.479
  561SOL     OW 2581   6.808   0.207   6.724
  561SOL    HW1 2582   6.741   0.187   6.796
  561SOL    HW2 2583   6.897   0.226   6.765
  562SOL     OW 2584   4.655   0.213   6.789
  562SOL    HW1 2585   4.662   0.114   6.787
  562SOL    HW2 2586   4.698   0.248   6.872
  563SOL     OW 2587   2.845   0.540   3.296
  563SOL    HW1 2588   2.764   0.483   3.286
  563SOL    HW2 2589   2.825   0.633   3.268
  564SOL     OW 2590   2.860   2.334   6.178
  564SOL    HW1 2591   2.765   2.355   6.204
  564SOL    HW2 2592   2.869   2.235   6.165
  565SOL     OW 2593   4.393   3.189   5.465
  565SOL    HW1 2594   4.401   3.173   5.563
  565SOL    HW2 2595   4.372   3.286   5.449
  566SOL     OW 2596   5.188   3.954   3.527
  566SOL    HW1 2597   5.124   4.003   3.586
  566SOL    HW2 2598   5.147   3.943   3.436
  567SOL     OW 2599   2.907   3.660   3.277
  567SOL    HW1 2600   2.953   3.719   3.343
  567SOL    HW2 2601   2.873   3.578   3.324
  568SOL     OW 2602   3.560   2.333   1.059
  568SOL    HW1 2603   3.654   2.357   1.084
  568SOL    HW2 2604   3.537   2.376   0.972
  569SOL     OW 2605   1.627   3.037   0.402
  569SOL    HW1 2606   1.572   3.044   0.319
  569SOL    HW2 2607   1.707   2.979   0.385
  570SOL     OW 2608   2.085   6.529   6.164
  570SOL    HW1 2609   2.065   6.626   6.154
  570SOL    HW2 2610   2.012   6.475   6.123
  571SOL     OW 2611   3.818   6.676   2.752
  571SOL    HW1 2612   3.862   6.707   2.668
  571SOL    HW2 2613   3.830   6.577   2.762
  572SOL     OW 2614   3.099   5.159   5.846
  572SOL    HW1 2615   3.025   5.224   5.865
  572SOL    HW2 2616   3.130   5.170   5.752
  573SOL     OW 2617   3.916   2.186   5.137
  573SOL    HW1 2618   3.904   2.095   5.176
  573SOL    HW2 2619   3.945   2.177   5.041
  574SOL     OW 2620   2.114   2.217   3.769
  574SOL    HW1 2621   2.048   2.266   3.826
  574SOL    HW2 2622   2.118   2.259   3.678
  575SOL     OW 2623   6.017   4.001   6.131
  575SOL    HW1 2624   6.068   3.960   6.056
  575SOL    HW2 2625   5.919   4.001   6.109
  576SOL     OW 2626   1.568   2.117   1.819
  576SOL    HW1 2627   1.593   2.111   1.915
  576SOL    HW2 2628   1.626   2.185   1.773
  577SOL     OW 2629   2.058   1.557   3.719
  577SOL    HW1 2630   2.149   1.598   3.727
  577SOL    HW2 2631   2.064   1.459   3.741
  578SOL     OW 2632   6.767   3.258   3.874
  578SOL    HW1 2633   6.807   3.175   3.835
  578SOL    HW2 2634   6.839   3.326   3.887
  579SOL     OW 2635   3.316   2.400   1.186
  579SOL    HW1 2636   3.266   2.357   1.111
  579SOL    HW2 2637   3.410   2.418   1.157
  580SOL     OW 2638   0.719   4.543   6.169
  580SOL    HW1 2639   0.626   4.572   6.193
  580SOL    HW2 2640   0.769   4.620   6.129
  581SOL     OW 2641   3.190   3.370   2.742
  581SOL    HW1 2642   3.288   3.390   2.748
  581SOL    HW2 2643   3.143   3.445   2.696
  582SOL     OW 2644   5.575   4.951   2.288
  582SOL    HW1 2645   5.482   4.982   2.269
  582SOL    HW2 2646   5.640   5.008   2.239
  583SOL     OW 2647   2.767   4.728   6.682
  583SOL    HW1 2648   2.778   4.729   6.583
  583SOL    HW2 2649   2.674   4.700   6.706
  584SOL     OW 2650   1.085   5.297   5.525
  584SOL    HW1 2651   1.100   5.294   5.624
  584SOL    HW2 2652   1.050   5.209   5.494
  585SOL     OW 2653   6.665   2.688   6.404
  585SOL    HW1 2654   6.716   2.729   6.479
  585SOL    HW2 2655   6.671   2.747   6.323
  586SOL     OW 2656   3.734   0.244   0.421
  586SOL    HW1 2657   3.831   0.258   0.438
  586SOL    HW2 2658   3.717   0.243   0.323
  587SOL     OW 2659   1.892   2.203   5.399
  587SOL    HW1 2660   1.889   2.300   5.422
  587SOL    HW2 2661   1.984   2.178   5.369
  588SOL     OW 2662   3.274   6.455   1.279
  588SOL    HW1 2663   3.244   6.550   1.288
  588SOL    HW2 2664   3.200   6.394   1.306
  589SOL     OW 2665   4.098   5.007   2.021
  589SOL    HW1 2666   4.049   5.051   2.097
  589SOL    HW2 2667   4.075   4.910   2.018
  590SOL     OW 2668   6.638   2.916   1.903
  590SOL    HW1 2669   6.605   2.959   1.987
  590SOL    HW2 2670   6.658   2.986   1.835
  591SOL     OW 2671   3.455   6.970   4.048
  591SOL    HW1 2672   3.469   6.923   4.135
  591SOL    HW2 2673   3.418   6.905   3.981
  592SOL     OW 2674   4.285   0.672   0.761
  592SOL    HW1 2675   4.276   0.584   0.807
  592SOL    HW2 2676   4.199   0.696   0.715
  593SOL     OW 2677   4.345   1.771   3.808
  593SOL    HW1 2678   4.356   1.774   3.908
  593SOL    HW2 2679   4.420   1.718   3.768
  594SOL     OW 2680   4.226   2.993   6.589
  594SOL    HW1 2681   4.286   3.013   6.511
  594SOL    HW2 2682   4.281   2.980   6.671
  595SOL     OW 2683   4.718   6.805   4.105
  595SOL    HW1 2684   4.791   6.796   4.037
  595SOL    HW2 2685   4.634   6.765   4.069
  596SOL     OW 2686   1.184   4.043   1.535
  596SOL    HW1 2687   1.169   4.113   1.604
  596SOL    HW2 2688   1.279   4.011   1.539
  597SOL     OW 2689   4.240   6.511   5.908
  597SOL    HW1 2690   4.250   6.610   5.905
  597SOL    HW2 2691   4.211   6.478   5.818
  598SOL     OW 2692   3.331   4.056   0.701
  598SOL    HW1 2693   3.335   4.116   0.621
  598SOL    HW2 2694   3.299   3.966   0.674
  599SOL     OW 2695   0.533   0.911   2.993
  599SOL    HW1 2696   0.619   0.959   2.977
  599SOL    HW2 2697   0.480   0.906   2.908
  600SOL     OW 2698   0.715   6.901   0.659
  600SOL    HW1 2699   0.645   6.969   0.641
  600SOL    HW2 2700   0.793   6.945   0.704
  601SOL     OW 2701   3.089   5.980   3.090
  601SOL    HW1 2702   3.165   5.920   3.112
  601SOL    HW2 2703   3.017   5.928   3.044
  602SOL     OW 2704   0.801   1.036   0.552
  602SOL    HW1 2705   0.870   1.037   0.625
  602SOL    HW2 2706   0.801   0.946   0.508
  603SOL     OW 2707   4.015   1.517   3.782
  603SOL    HW1 2708   4.082   1.452   3.816
  603SOL    HW2 2709   4.010   1.596   3.843
  604SOL     OW 2710   0.835   2.986   0.510
  604SOL    HW1 2711   0.820   3.047   0.433
  604SOL    HW2 2712   0.783   3.018   0.589
  605SOL     OW 2713   6.869   5.641   3.149
  605SOL    HW1 2714   6.837   5.600   3.064
  605SOL    HW2 2715   6.841   5.583   3.226
  606SOL     OW 2716   4.654   0.560   5.828
  606SOL    HW1 2717   4.606   0.607   5.903
  606SOL    HW2 2718   4.676   0.467   5.856
  607SOL     OW 2719   5.621   1.160   4.521
  607SOL    HW1 2720   5.569   1.083   4.559
  607SOL    HW2 2721   5.708   1.127   4.486
  608SOL     OW 2722   3.343   6.987   0.446
  608SOL    HW1 2723   3.427   0.004   0.483
  608SOL    HW2 2724   3.362   6.897   0.406
  609SOL     OW 2725   3.492   3.177   4.740
  609SOL    HW1 2726   3.486   3.117   4.820
  609SOL    HW2 2727   3.496   3.120   4.657
  610SOL     OW 2728   5.628   2.138   3.037
  610SOL    HW1 2729   5.655   2.151   3.133
  610SOL    HW2 2730   5.600   2.226   2.999
  611SOL     OW 2731   0.823   0.580   0.062
  611SOL    HW1 2732   0.760   0.628   0.002
  611SOL    HW2 2733   0.800   0.482   0.063
  612SOL     OW 2734   3.747   5.706   5.851
  612SOL    HW1 2735   3.713   5.755   5.771
  612SOL    HW2 2736   3.672   5.690   5.915
  613SOL     OW 2737   4.292   1.184   5.376
  613SOL    HW1 2738   4.309   1.280   5.399
  613SOL    HW2 2739   4.378   1.133   5.384
  614SOL     OW 2740   5.779   5.061   1.108
  614SOL    HW1 2741   5.833   5.138   1.074
  614SOL    HW2 2742   5.836   4.980   1.114
  615SOL     OW 2743   0.980   0.469   6.699
  615SOL    HW1 2744   0.971   0.560   6.740
  615SOL    HW2 2745   1.035   0.411   6.760
  616SOL     OW 2746   5.993   1.928   3.883
  616SOL    HW1 2747   6.030   1.870   3.810
  616SOL    HW2 2748   5.961   2.014   3.844
  617SOL     OW 2749   0.296   4.485   6.869
  617SOL    HW1 2750   0.366   4.515   6.805
  617SOL    HW2 2751   0.255   4.565   6.914
  618SOL     OW 2752   6.120   3.536   1.252
  618SOL    HW1 2753   6.180   3.615   1.255
  618SOL    HW2 2754   6.062   3.535   1.333
  619SOL     OW 2755   3.371   6.968   6.824
  619SOL    HW1 2756   3.406   6.950   6.916
  619SOL    HW2 2757   3.428   0.014   6.779
  620SOL     OW 2758   5.930   3.550   1.457
  620SOL    HW1 2759   5.848   3.584   1.411
  620SOL    HW2 2760   5.914   3.545   1.555
  621SOL     OW 2761   2.557   0.356   5.065
  621SOL    HW1 2762   2.650   0.346   5.030
  621SOL    HW2 2763   2.556   0.336   5.163
  622SOL     OW 2764   0.749   2.644   5.489
  622SOL    HW1 2765   0.660   2.607   5.514
  622SOL    HW2 2766   0.749   2.664   5.391
  623SOL     OW 2767   6.363   6.633   5.073
  623SOL    HW1 2768   6.370   6.696   5.150
  623SOL    HW2 2769   6.269   6.597   5.069
  624SOL     OW 2770   6.686   1.213   0.094
  624SOL    HW1 2771   6.598   1.169   0.111
  624SOL    HW2 2772   6.759   1.145   0.099
  625SOL     OW 2773   1.927   0.815   0.124
  625SOL    HW1 2774   2.026   0.807   0.130
  625SOL    HW2 2775   1.901   0.851   0.035
  626SOL     OW 2776   1.079   5.552   2.971
  626SOL    HW1 2777   1.158   5.606   2.940
  626SOL    HW2 2778   1.048   5.493   2.897
  627SOL     OW 2779   6.349   6.051   0.029
  627SOL    HW1 2780   6.412   6.004   0.091
  627SOL    HW2 2781   6.324   6.140   0.068
  628SOL     OW 2782   5.385   3.835   4.886
  628SOL    HW1 2783   5.449   3.766   4.919
  628SOL    HW2 2784   5.360   3.815   4.791
  629SOL     OW 2785   0.426   1.257   6.939
  629SOL    HW1 2786   0.467   1.262   6.848
  629SOL    HW2 2787   0.476   1.315   7.003
  630SOL     OW 2788   6.356   1.058   0.688
  630SOL    HW1 2789   6.321   0.970   0.721
  630SOL    HW2 2790   6.335   1.067   0.590
  631SOL     OW 2791   2.618   2.207   4.653
  631SOL    HW1 2792   2.595   2.165   4.741
  631SOL    HW2 2793   2.678   2.146   4.602
  632SOL     OW 2794   4.818   2.885   0.483
  632SOL    HW1 2795   4.893   2.826   0.452
  632SOL    HW2 2796   4.742   2.829   0.516
  633SOL     OW 2797   2.381   5.221   1.225
  633SOL    HW1 2798   2.362   5.180   1.314
  633SOL    HW2 2799   2.479   5.212   1.205
  634SOL     OW 2800   3.526   3.462   3.182
  634SOL    HW1 2801   3.564   3.418   3.101
  634SOL    HW2 2802   3.551   3.410   3.264
  635SOL     OW 2803   4.650   0.499   0.252
  635SOL    HW1 2804   4.601   0.570   0.203
  635SOL    HW2 2805   4.589   0.422   0.269
  636SOL     OW 2806   3.355   0.419   5.119
  636SOL    HW1 2807   3.261   0.395   5.144
  636SOL    HW2 2808   3.365   0.418   5.020
  637SOL     OW 2809   5.964   1.581   2.895
  637SOL    HW1 2810   5.886   1.608   2.840
  637SOL    HW2 2811   6.040   1.554   2.835
  638SOL     OW 2812   5.874   3.495   3.963
  638SOL    HW1 2813   5.822   3.580   3.968
  638SOL    HW2 2814   5.818   3.423   3.922
  639SOL     OW 2815   5.308   4.895   3.138
  639SOL    HW1 2816   5.218   4.929   3.109
  639SOL    HW2 2817   5.378   4.964   3.118
  640SOL     OW 2818   0.451   3.606   3.353
  640SOL    HW1 2819   0.537   3.565   3.384
  640SOL    HW2 2820   0.449   3.606   3.253
  641SOL     OW 2821   1.560   4.788   5.388
  641SOL    HW1 2822   1.481   4.736   5.357
  641SOL    HW2 2823   1.550   4.811   5.485
  642SOL     OW 2824   1.127   2.924   4.615
  642SOL    HW1 2825   1.209   2.869   4.632
  642SOL    HW2 2826   1.106   2.923   4.518
  643SOL     OW 2827   6.867   6.522   6.819
  643SOL    HW1 2828   6.840   6.595   6.756
  643SOL    HW2 2829   6.814   6.440   6.799
  644SOL     OW 2830   0.831   0.653   4.603
  644SOL    HW1 2831   0.805   0.693   4.515
  644SOL    HW2 2832   0.810   0.717   4.677
  645SOL     OW 2833   3.169   4.909   3.145
  645SOL    HW1 2834   3.153   4.811   3.151
  645SOL    HW2 2835   3.153   4.951   3.234
  646SOL     OW 2836   4.099   0.978   4.679
  646SOL    HW1 2837   4.075   0.885   4.709
  646SOL    HW2 2838   4.136   0.975   4.587
  647SOL     OW 2839   4.680   1.935   4.668
  647SOL    HW1 2840   4.711   2.029   4.682
  647SOL    HW2 2841   4.756   1.872   4.685
  648SOL     OW 2842   6.380   2.864   3.345
  648SOL    HW1 2843   6.381   2.874   3.246
  648SOL    HW2 2844   6.372   2.954   3.388
  649SOL     OW 2845   1.977   4.456   0.189
  649SOL    HW1 2846   2.012   4.392   0.121
  649SOL    HW2 2847   2.044   4.465   0.263
  650SOL     OW 2848   6.609   5.419   0.386
  650SOL    HW1 2849   6.639   5.479   0.461
  650SOL    HW2 2850   6.536   5.464   0.335
  651SOL     OW 2851   1.729   0.703   6.021
  651SOL    HW1 2852   1.819   0.679   6.057
  651SOL    HW2 2853   1.708   0.647   5.941
  652SOL     OW 2854   4.052   6.799   1.764
  652SOL    HW1 2855   4.092   6.734   1.699
  652SOL    HW2 2856   3.956   6.813   1.742
  653SOL     OW 2857   0.463   6.532   0.535
  653SOL    HW1 2858   0.438   6.541   0.439
  653SOL    HW2 2859   0.481   6.436   0.556
  654SOL     OW 2860   0.092   6.396   5.544
  654SOL    HW1 2861   0.053   6.349   5.465
  654SOL    HW2 2862   0.054   6.488   5.550
  655SOL     OW 2863   0.069   5.534   2.017
  655SOL    HW1 2864   0.009   5.607   2.051
  655SOL    HW2 2865   0.098   5.557   1.924
  656SOL     OW 2866   2.724   6.278   0.886
  656SOL    HW1 2867   2.757   6.254   0.977
  656SOL    HW2 2868   2.630   6.312   0.893
  657SOL     OW 2869   2.967   3.198   1.420
  657SOL    HW1 2870   2.877   3.201   1.463
  657SOL    HW2 2871   2.978   3.277   1.359
  658SOL     OW 2872   1.592   4.479   4.612
  658SOL    HW1 2873   1.621   4.408   4.548
  658SOL    HW2 2874   1.608   4.447   4.706
  659SOL     OW 2875   3.038   5.670   5.138
  659SOL    HW1 2876   2.947   5.632   5.156
  659SOL    HW2 2877   3.085   5.614   5.070
  660SOL     OW 2878   4.863   5.600   2.339
  660SOL    HW1 2879   4.814   5.551   2.410
  660SOL    HW2 2880   4.961   5.604   2.361
  661SOL     OW 2881   4.905   4.340   4.590
  661SOL    HW1 2882   4.943   4.247   4.592
  661SOL    HW2 2883   4.954   4.394   4.522
  662SOL     OW 2884   4.528   2.166   6.582
  662SOL    HW1 2885   4.445   2.159   6.638
  662SOL    HW2 2886   4.526   2.252   6.531
  663SOL     OW 2887   0.556   4.963   6.759
  663SOL    HW1 2888   0.613   4.978   6.678
  663SOL    HW2 2889   0.605   4.905   6.824
  664SOL     OW 2890   1.927   5.575   0.204
  664SOL    HW1 2891   1.870   5.512   0.151
  664SOL    HW2 2892   1.897   5.668   0.188
  665SOL     OW 2893   4.228   5.186   1.443
  665SOL    HW1 2894   4.128   5.188   1.446
  665SOL    HW2 2895   4.264   5.272   1.478
  666SOL     OW 2896   3.261   1.593   0.481
  666SOL    HW1 2897   3.298   1.681   0.511
  666SOL    HW2 2898   3.165   1.586   0.506
  667SOL     OW 2899   0.339   2.968   4.243
  667SOL    HW1 2900   0.320   2.914   4.161
  667SOL    HW2 2901   0.271   2.947   4.313
  668SOL     OW 2902   4.410   5.834   6.877
  668SOL    HW1 2903   4.395   5.769   6.951
  668SOL    HW2 2904   4.339   5.822   6.807
  669SOL     OW 2905   1.782   6.846   3.122
  669SOL    HW1 2906   1.690   6.832   3.087
  669SOL    HW2 2907   1.804   6.774   3.188
  670SOL     OW 2908   2.956   3.652   3.002
  670SOL    HW1 2909   2.932   3.557   2.981
  670SOL    HW2 2910   2.927   3.674   3.095
  671SOL     OW 2911   2.589   5.861   5.873
  671SOL    HW1 2912   2.508   5.913   5.845
  671SOL    HW2 2913   2.586   5.770   5.832
  672SOL     OW 2914   1.109   3.425   3.864
  672SOL    HW1 2915   1.199   3.405   3.826
  672SOL    HW2 2916   1.038   3.392   3.803
  673SOL     OW 2917   4.519   6.897   6.570
  673SOL    HW1 2918   4.542   6.960   6.496
  673SOL    HW2 2919   4.591   6.827   6.577
  674SOL     OW 2920   0.605   2.946   4.314
  674SOL    HW1 2921   0.655   2.907   4.237
  674SOL    HW2 2922   0.507   2.946   4.294
  675SOL     OW 2923   1.029   2.057   4.828
  675SOL    HW1 2924   1.098   1.987   4.841
  675SOL    HW2 2925   1.055   2.140   4.879
  676SOL     OW 2926   3.020   5.019   4.305
  676SOL    HW1 2927   3.095   4.969   4.349
  676SOL    HW2 2928   2.955   4.955   4.266
  677SOL     OW 2929   5.884   0.724   0.009
  677SOL    HW1 2930   5.934   0.810   0.001
  677SOL    HW2 2931   5.786   0.741   0.002
  678SOL     OW 2932   2.780   1.801   5.388
  678SOL    HW1 2933   2.704   1.736   5.384
  678SOL    HW2 2934   2.769   1.861   5.467
  679SOL     OW 2935   4.300   1.485   4.246
  679SOL    HW1 2936   4.224   1.424   4.269
  679SOL    HW2 2937   4.382   1.431   4.226
  680SOL     OW 2938   5.862   4.617   5.920
  680SOL    HW1 2939   5.943   4.559   5.929
  680SOL    HW2 2940   5.780   4.560   5.916
  681SOL     OW 2941   6.665   6.462   0.826
  681SOL    HW1 2942   6.719   6.507   0.897
  681SOL    HW2 2943   6.695   6.493   0.736
  682SOL     OW 2944   2.615   6.716   6.476
  682SOL    HW1 2945   2.554   6.664   6.416
  682SOL    HW2 2946   2.704   6.726   6.433
  683SOL     OW 2947   3.658   0.425   5.818
  683SOL    HW1 2948   3.601   0.359   5.771
  683SOL    HW2 2949   3.722   0.467   5.753
  684SOL     OW 2950   6.759   1.044   6.431
  684SOL    HW1 2951   6.809   1.129   6.413
  684SOL    HW2 2952   6.772   0.980   6.355
  685SOL     OW 2953   4.819   0.759   5.631
  685SOL    HW1 2954   4.760   0.691   5.674
  685SOL    HW2 2955   4.773   0.848   5.632
  686SOL     OW 2956   5.978   3.269   3.186
  686SOL    HW1 2957   5.989   3.185   3.238
  686SOL    HW2 2958   6.066   3.294   3.144
  687SOL     OW 2959   6.799   3.200   6.417
  687SOL    HW1 2960   6.874   3.133   6.420
  687SOL    HW2 2961   6.786   3.239   6.508
  688SOL     OW 2962   1.997   3.717   0.311
  688SOL    HW1 2963   1.925   3.786   0.315
  688SOL    HW2 2964   1.985   3.662   0.228
  689SOL     OW 2965   1.343   4.612   5.299
  689SOL    HW1 2966   1.324   4.537   5.236
  689SOL    HW2 2967   1.373   4.574   5.387
  690SOL     OW 2968   0.865   2.929   3.307
  690SOL    HW1 2969   0.878   3.017   3.353
  690SOL    HW2 2970   0.946   2.906   3.254
  691SOL     OW 2971   1.977   2.510   6.452
  691SOL    HW1 2972   1.893   2.456   6.459
  691SOL    HW2 2973   2.050   2.466   6.504
  692SOL     OW 2974   3.201   6.980   3.433
  692SOL    HW1 2975   3.212   6.965   3.532
  692SOL    HW2 2976   3.283   6.949   3.386
  693SOL     OW 2977   6.677   1.645   3.772
  693SOL    HW1 2978   6.627   1.705   3.710
  693SOL    HW2 2979   6.613   1.598   3.832
  694SOL     OW 2980   3.898   5.567   1.779
  694SOL    HW1 2981   3.846   5.653   1.775
  694SOL    HW2 2982   3.987   5.581   1.737
  695SOL     OW 2983   4.602   5.121   4.882
  695SOL    HW1 2984   4.672   5.051   4.892
  695SOL    HW2 2985   4.638   5.210   4.910
  696SOL     OW 2986   3.193   5.138   2.178
  696SOL    HW1 2987   3.221   5.216   2.123
  696SOL    HW2 2988   3.110   5.097   2.139
  697SOL     OW 2989   1.043   3.145   5.526
  697SOL    HW1 2990   1.102   3.224   5.541
  697SOL    HW2 2991   0.979   3.164   5.451
  698SOL     OW 2992   5.426   0.285   4.496
  698SOL    HW1 2993   5.413   0.188   4.519
  698SOL    HW2 2994   5.444   0.294   4.398
  699SOL     OW 2995   1.583   4.537   0.694
  699SOL    HW1 2996   1.568   4.453   0.644
  699SOL    HW2 2997   1.625   4.516   0.783
  700SOL     OW 2998   2.740   2.018   3.328
  700SOL    HW1 2999   2.699   2.058   3.246
  700SOL    HW2 3000   2.806   1.948   3.301
  701SOL     OW 3001   1.458   4.746   6.961
  701SOL    HW1 3002   1.448   4.825   7.022
  701SOL    HW2 3003   1.405   4.761   6.878
  702SOL     OW 3004   5.507   6.130   5.646
  702SOL    HW1 3005   5.485   6.088   5.558
  702SOL    HW2 3006   5.424   6.168   5.687
  703SOL     OW 3007   4.188   3.497   0.300
  703SOL    HW1 3008   4.179   3.541   0.389
  703SOL    HW2 3009   4.279   3.517   0.262
  704SOL     OW 3010   1.256   0.984   5.803
  704SOL    HW1 3011   1.245   0.950   5.710
  704SOL    HW2 3012   1.353   0.993   5.824
  705SOL     OW 3013   4.731   0.345   3.743
  705SOL    HW1 3014   4.655   0.390   3.695
  705SOL    HW2 3015   4.789   0.414   3.786
  706SOL     OW 3016   4.158   1.586   3.473
  706SOL    HW1 3017   4.178   1.504   3.419
  706SOL    HW2 3018   4.062   1.612   3.461
  707SOL     OW 3019   4.396   0.130   2.102
  707SOL    HW1 3020   4.298   0.134   2.080
  707SOL    HW2 3021   4.411   0.064   2.175
  708SOL     OW 3022   4.806   0.017   1.108
  708SOL    HW1 3023   4.729   0.077   1.132
  708SOL    HW2 3024   4.785   6.991   1.023
  709SOL     OW 3025   1.279   5.211   1.029
  709SOL    HW1 3026   1.287   5.309   1.011
  709SOL    HW2 3027   1.187   5.180   1.005
  710SOL     OW 3028   3.570   4.048   2.892
  710SOL    HW1 3029   3.477   4.069   2.863
  710SOL    HW2 3030   3.569   4.018   2.987
  711SOL     OW 3031   0.246   2.524   5.823
  711SOL    HW1 3032   0.176   2.476   5.876
  711SOL    HW2 3033   0.244   2.621   5.845
  712SOL     OW 3034   1.723   4.090   1.183
  712SOL    HW1 3035   1.801   4.073   1.243
  712SOL    HW2 3036   1.683   4.002   1.156
  713SOL     OW 3037   3.099   3.902   1.349
  713SOL    HW1 3038   3.112   3.988   1.398
  713SOL    HW2 3039   3.131   3.826   1.405
  714SOL     OW 3040   5.876   4.372   5.480
  714SOL    HW1 3041   5.824   4.426   5.414
  714SOL    HW2 3042   5.961   4.420   5.502
  715SOL     OW 3043   4.972   5.885   6.913
  715SOL    HW1 3044   5.029   5.839   6.845
  715SOL    HW2 3045   5.002   5.981   6.921
  716SOL     OW 3046   0.969   5.499   1.131
  716SOL    HW1 3047   0.882   5.539   1.101
  716SOL    HW2 3048   0.975   5.404   1.100
  717SOL     OW 3049   6.313   4.625   6.265
  717SOL    HW1 3050   6.329   4.530   6.239
  717SOL    HW2 3051   6.381   4.684   6.221
  718SOL     OW 3052   4.166   2.401   6.368
  718SOL    HW1 3053   4.261   2.370   6.372
  718SOL    HW2 3054   4.131   2.386   6.275
  719SOL     OW 3055   6.584   2.556   1.656
  719SOL    HW1 3056   6.600   2.653   1.641
  719SOL    HW2 3057   6.569   2.511   1.568
  720SOL     OW 3058   2.469   1.824   5.733
  720SOL    HW1 3059   2.458   1.901   5.795
  720SOL    HW2 3060   2.390   1.763   5.741
  721SOL     OW 3061   1.521   0.860   4.829
  721SOL    HW1 3062   1.589   0.822   4.891
  721SOL    HW2 3063   1.434   0.812   4.841
  722SOL     OW 3064   4.299   6.617   4.931
  722SOL    HW1 3065   4.390   6.658   4.927
  722SOL    HW2 3066   4.248   6.643   4.849
  723SOL     OW 3067   1.993   2.807   1.892
  723SOL    HW1 3068   2.058   2.878   1.862
  723SOL    HW2 3069   1.902   2.847   1.899
  724SOL     OW 3070   1.787   1.546   5.350
  724SOL    HW1 3071   1.721   1.481   5.387
  724SOL    HW2 3072   1.752   1.639   5.359
  725SOL     OW 3073   2.738   4.969   2.249
  725SOL    HW1 3074   2.744   4.991   2.346
  725SOL    HW2 3075   2.644   4.944   2.226
  726SOL     OW 3076   3.813   4.655   0.235
  726SOL    HW1 3077   3.790   4.748   0.205
  726SOL    HW2 3078   3.873   4.659   0.315
  727SOL     OW 3079   3.968   6.039   4.444
  727SOL    HW1 3080   4.059   6.034   4.402
  727SOL    HW2 3081   3.907   6.091   4.384
  728SOL     OW 3082   6.895   3.836   5.159
  728SOL    HW1 3083   6.939   3.846   5.070
  728SOL    HW2 3084   6.962   3.802   5.225
  729SOL     OW 3085   2.079   0.541   0.674
  729SOL    HW1 3086   1.995   0.564   0.626
  729SOL    HW2 3087   2.070   0.563   0.771
  730SOL     OW 3088   5.633   0.674   3.610
  730SOL    HW1 3089   5.695   0.744   3.575
  730SOL    HW2 3090   5.545   0.716   3.632
  731SOL     OW 3091   5.402   3.135   5.818
  731SOL    HW1 3092   5.430   3.231   5.826
  731SOL    HW2 3093   5.407   3.107   5.723
  732SOL     OW 3094   0.767   3.847   1.134
  732SOL    HW1 3095   0.734   3.753   1.144
  732SOL    HW2 3096   0.785   3.865   1.038
  733SOL     OW 3097   5.856   4.282   4.534
  733SOL    HW1 3098   5.927   4.304   4.602
  733SOL    HW2 3099   5.897   4.275   4.444
  734SOL     OW 3100   0.019   5.302   2.463
  734SOL    HW1 3101   0.108   5.313   2.419
  734SOL    HW2 3102   6.970   5.294   2.393
  735SOL     OW 3103   2.973   2.800   0.789
  735SOL    HW1 3104   2.879   2.831   0.802
  735SOL    HW2 3105   2.973   2.708   0.750
  736SOL     OW 3106   6.706   6.938   2.988
  736SOL    HW1 3107   6.644   6.927   2.909
  736SOL    HW2 3108   6.661   6.902   3.070
  737SOL     OW 3109   5.006   3.389   1.322
  737SOL    HW1 3110   5.028   3.402   1.418
  737SOL    HW2 3111   5.025   3.474   1.272
  738SOL     OW 3112   1.480   5.007   4.174
  738SOL    HW1 3113   1.501   5.092   4.224
  738SOL    HW2 3114   1.561   4.976   4.125
  739SOL     OW 3115   4.630   6.515   5.752
  739SOL    HW1 3116   4.672   6.606   5.747
  739SOL    HW2 3117   4.555   6.510   5.687
  740SOL     OW 3118   5.251   0.368   0.767
  740SOL    HW1 3119   5.164   0.366   0.717
  740SOL    HW2 3120   5.243   0.430   0.845
  741SOL     OW 3121   1.929   6.454   3.124
  741SOL    HW1 3122   1.906   6.365   3.084
  741SOL    HW2 3123   1.847   6.494   3.166
  742SOL     OW 3124   2.433   7.011   2.022
  742SOL    HW1 3125   2.402   0.078   1.988
  742SOL    HW2 3126   2.497   6.971   1.957
  743SOL     OW 3127   2.084   4.115   4.196
  743SOL    HW1 3128   2.140   4.056   4.254
  743SOL    HW2 3129   2.011   4.061   4.153
  744SOL     OW 3130   6.728   6.585   6.465
  744SOL    HW1 3131   6.668   6.584   6.385
  744SOL    HW2 3132   6.817   6.622   6.440
  745SOL     OW 3133   1.326   6.477   3.785
  745SOL    HW1 3134   1.405   6.537   3.771
  745SOL    HW2 3135   1.356   6.381   3.782
  746SOL     OW 3136   0.112   6.627   5.291
  746SOL    HW1 3137   0.130   6.716   5.249
  746SOL    HW2 3138   0.174   6.615   5.369
  747SOL     OW 3139   4.658   5.039   4.263
  747SOL    HW1 3140   4.655   5.090   4.349
  747SOL    HW2 3141   4.567   5.002   4.244
  748SOL     OW 3142   4.403   5.154   2.130
  748SOL    HW1 3143   4.484   5.210   2.113
  748SOL    HW2 3144   4.370   5.116   2.043
  749SOL     OW 3145   0.027   3.262   5.103
  749SOL    HW1 3146   0.037   3.308   5.191
  749SOL    HW2 3147   0.024   3.329   5.030
  750SOL     OW 3148   2.213   3.212   0.552
  750SOL    HW1 3149   2.184   3.276   0.481
  750SOL    HW2 3150   2.306   3.234   0.580
  751SOL     OW 3151   4.110   1.711   6.154
  751SOL    HW1 3152   4.046   1.734   6.228
  751SOL    HW2 3153   4.064   1.724   6.066
  752SOL     OW 3154   4.594   2.515   1.935
  752SOL    HW1 3155   4.523   2.449   1.912
  752SOL    HW2 3156   4.568   2.605   1.898
  753SOL     OW 3157   2.038   3.047   4.191
  753SOL    HW1 3158   2.099   2.973   4.163
  753SOL    HW2 3159   2.053   3.127   4.133
  754SOL     OW 3160   5.771   3.536   6.827
  754SOL    HW1 3161   5.721   3.522   6.913
  754SOL    HW2 3162   5.707   3.527   6.750
  755SOL     OW 3163   1.172   5.741   6.790
  755SOL    HW1 3164   1.129   5.666   6.840
  755SOL    HW2 3165   1.272   5.736   6.802
  756SOL     OW 3166   5.113   6.857   1.412
  756SOL    HW1 3167   5.116   6.899   1.503
  756SOL    HW2 3168   5.138   6.925   1.343
  757SOL     OW 3169   0.846   6.310   3.202
  757SOL    HW1 3170   0.893   6.240   3.255
  757SOL    HW2 3171   0.774   6.267   3.147
  758SOL     OW 3172   3.801   1.174   1.787
  758SOL    HW1 3173   3.803   1.224   1.701
  758SOL    HW2 3174   3.773   1.236   1.861
  759SOL     OW 3175   6.878   1.024   0.642
  759SOL    HW1 3176   6.928   0.947   0.605
  759SOL    HW2 3177   6.918   1.110   0.609
  760SOL     OW 3178   4.240   1.488   6.571
  760SOL    HW1 3179   4.333   1.456   6.550
  760SOL    HW2 3180   4.192   1.512   6.487
  761SOL     OW 3181   5.028   3.461   6.910
  761SOL    HW1 3182   5.089   3.537   6.935
  761SOL    HW2 3183   5.079   3.395   6.855
  762SOL     OW 3184   2.008   5.891   3.271
  762SOL    HW1 3185   2.062   5.880   3.187
  762SOL    HW2 3186   1.916   5.855   3.255
  763SOL     OW 3187   4.186   5.398   6.692
  763SOL    HW1 3188   4.212   5.407   6.595
  763SOL    HW2 3189   4.266   5.414   6.749
  764SOL     OW 3190   3.974   6.985   4.256
  764SOL    HW1 3191   3.977   0.063   4.259
  764SOL    HW2 3192   4.067   6.949   4.253
  765SOL     OW 3193   1.579   6.260   1.258
  765SOL    HW1 3194   1.528   6.331   1.210
  765SOL    HW2 3195   1.651   6.224   1.199
  766SOL     OW 3196   6.904   1.739   7.020
  766SOL    HW1 3197   6.907   1.669   6.949
  766SOL    HW2 3198   6.810   1.747   0.033
  767SOL     OW 3199   1.151   6.386   1.965
  767SOL    HW1 3200   1.081   6.410   1.898
  767SOL    HW2 3201   1.155   6.286   1.973
  768SOL     OW 3202   2.015   0.754   2.590
  768SOL    HW1 3203   1.997   0.756   2.688
  768SOL    HW2 3204   1.940   0.706   2.544
  769SOL     OW 3205   3.103   6.449   4.338
  769SOL    HW1 3206   3.192   6.492   4.322
  769SOL    HW2 3207   3.033   6.520   4.341
  770SOL     OW 3208   2.167   4.559   3.149
  770SOL    HW1 3209   2.098   4.606   3.205
  770SOL    HW2 3210   2.145   4.462   3.143
  771SOL     OW 3211   2.098   5.554   2.760
  771SOL    HW1 3212   2.005   5.582   2.784
  771SOL    HW2 3213   2.148   5.529   2.843
  772SOL     OW 3214   6.611   5.220   0.828
  772SOL    HW1 3215   6.627   5.237   0.731
  772SOL    HW2 3216   6.583   5.125   0.841
  773SOL     OW 3217   0.537   3.206   3.691
  773SOL    HW1 3218   0.518   3.201   3.593
  773SOL    HW2 3219   0.507   3.122   3.735
  774SOL     OW 3220   1.071   1.590   1.810
  774SOL    HW1 3221   1.118   1.502   1.810
  774SOL    HW2 3222   1.071   1.628   1.717
  775SOL     OW 3223   1.373   2.325   3.884
  775SOL    HW1 3224   1.444   2.276   3.934
  775SOL    HW2 3225   1.298   2.347   3.947
  776SOL     OW 3226   0.190   0.724   6.409
  776SOL    HW1 3227   0.195   0.672   6.323
  776SOL    HW2 3228   0.265   0.791   6.410
  777SOL     OW 3229   3.765   0.322   0.959
  777SOL    HW1 3230   3.667   0.330   0.972
  777SOL    HW2 3231   3.796   0.232   0.988
  778SOL     OW 3232   3.480   1.387   3.574
  778SOL    HW1 3233   3.548   1.433   3.516
  778SOL    HW2 3234   3.421   1.456   3.615
  779SOL     OW 3235   0.435   1.650   2.518
  779SOL    HW1 3236   0.369   1.713   2.477
  779SOL    HW2 3237   0.528   1.685   2.505
  780SOL     OW 3238   5.778   3.551   4.769
  780SOL    HW1 3239   5.815   3.498   4.845
  780SOL    HW2 3240   5.777   3.648   4.793
  781SOL     OW 3241   5.601   1.245   5.971
  781SOL    HW1 3242   5.526   1.304   5.943
  781SOL    HW2 3243   5.687   1.282   5.937
  782SOL     OW 3244   1.436   4.337   0.271
  782SOL    HW1 3245   1.366   4.280   0.229
  782SOL    HW2 3246   1.491   4.381   0.200
  783SOL     OW 3247   3.753   4.249   0.477
  783SOL    HW1 3248   3.676   4.298   0.434
  783SOL    HW2 3249   3.815   4.315   0.520
  784SOL     OW 3250   4.872   0.228   5.520
  784SOL    HW1 3251   4.915   0.138   5.509
  784SOL    HW2 3252   4.891   0.264   5.611
  785SOL     OW 3253   6.691   1.836   3.047
  785SOL    HW1 3254   6.760   1.844   2.975
  785SOL    HW2 3255   6.601   1.857   3.009
  786SOL     OW 3256   0.439   0.776   0.614
  786SOL    HW1 3257   0.436   0.794   0.516
  786SOL    HW2 3258   0.405   0.856   0.664
  787SOL     OW 3259   3.013   1.129   5.961
  787SOL    HW1 3260   3.036   1.177   5.877
  787SOL    HW2 3261   2.942   1.061   5.942
  788SOL     OW 3262   2.369   2.595   4.786
  788SOL    HW1 3263   2.461   2.555   4.780
  788SOL    HW2 3264   2.339   2.595   4.881
  789SOL     OW 3265   5.989   4.513   1.749
  789SOL    HW1 3266   5.966   4.435   1.691
  789SOL    HW2 3267   6.045   4.481   1.826
  790SOL     OW 3268   2.205   1.511   4.450
  790SOL    HW1 3269   2.117   1.482   4.413
  790SOL    HW2 3270   2.217   1.610   4.437
  791SOL     OW 3271   3.525   0.183   3.885
  791SOL    HW1 3272   3.511   0.262   3.945
  791SOL    HW2 3273   3.534   0.100   3.941
  792SOL     OW 3274   6.582   0.115   1.514
  792SOL    HW1 3275   6.668   0.147   1.473
  792SOL    HW2 3276   6.507   0.176   1.486
  793SOL     OW 3277   4.611   6.492   2.169
  793SOL    HW1 3278   4.562   6.409   2.144
  793SOL    HW2 3279   4.560   6.572   2.138
  794SOL     OW 3280   2.318   3.887   5.422
  794SOL    HW1 3281   2.336   3.949   5.498
  794SOL    HW2 3282   2.354   3.927   5.337
  795SOL     OW 3283   2.962   5.319   4.853
  795SOL    HW1 3284   2.974   5.229   4.812
  795SOL    HW2 3285   2.909   5.310   4.938
  796SOL     OW 3286   0.523   2.308   6.270
  796SOL    HW1 3287   0.568   2.329   6.183
  796SOL    HW2 3288   0.435   2.355   6.275
  797SOL     OW 3289   5.304   2.472   2.448
  797SOL    HW1 3290   5.384   2.474   2.508
  797SOL    HW2 3291   5.222   2.496   2.499
  798SOL     OW 3292   5.059   0.063   1.200
  798SOL    HW1 3293   4.970   0.045   1.158
  798SOL    HW2 3294   5.106   0.135   1.149
  799SOL     OW 3295   6.763   1.267   3.757
  799SOL    HW1 3296   6.687   1.225   3.806
  799SOL    HW2 3297   6.848   1.217   3.777
  800SOL     OW 3298   5.571   0.797   2.074
  800SOL    HW1 3299   5.632   0.815   2.151
  800SOL    HW2 3300   5.511   0.876   2.059
  801SOL     OW 3301   1.277   3.672   2.840
  801SOL    HW1 3302   1.276   3.753   2.899
  801SOL    HW2 3303   1.371   3.649   2.816
  802SOL     OW 3304   4.404   0.902   0.648
  802SOL    HW1 3305   4.371   0.819   0.692
  802SOL    HW2 3306   4.334   0.974   0.656
  803SOL     OW 3307   6.897   5.649   5.247
  803SOL    HW1 3308   6.991   5.619   5.259
  803SOL    HW2 3309   6.852   5.657   5.336
  804SOL     OW 3310   6.545   5.837   6.706
  804SOL    HW1 3311   6.451   5.822   6.735
  804SOL    HW2 3312   6.593   5.750   6.700
  805SOL     OW 3313   4.272   2.269   5.615
  805SOL    HW1 3314   4.191   2.244   5.562
  805SOL    HW2 3315   4.311   2.353   5.577
  806SOL     OW 3316   3.833   2.129   4.837
  806SOL    HW1 3317   3.905   2.187   4.800
  806SOL    HW2 3318   3.845   2.036   4.805
  807SOL     OW 3319   0.838   2.241   3.445
  807SOL    HW1 3320   0.833   2.230   3.345
  807SOL    HW2 3321   0.921   2.197   3.479
  808SOL     OW 3322   5.410   3.128   6.343
  808SOL    HW1 3323   5.359   3.205   6.381
  808SOL    HW2 3324   5.391   3.120   6.246
  809SOL     OW 3325   1.351   4.857   1.893
  809SOL    HW1 3326   1.266   4.811   1.867
  809SOL    HW2 3327   1.392   4.900   1.813
  810SOL     OW 3328   4.199   2.748   0.681
  810SOL    HW1 3329   4.104   2.756   0.652
  810SOL    HW2 3330   4.254   2.710   0.606
  811SOL     OW 3331   4.521   5.234   3.370
  811SOL    HW1 3332   4.440   5.206   3.318
  811SOL    HW2 3333   4.585   5.280   3.309
  812SOL     OW 3334   0.142   0.697   1.895
  812SOL    HW1 3335   0.071   0.659   1.835
  812SOL    HW2 3336   0.202   0.756   1.841
  813SOL     OW 3337   3.905   5.407   3.659
  813SOL    HW1 3338   3.945   5.324   3.698
  813SOL    HW2 3339   3.805   5.400   3.661
  814SOL     OW 3340   5.050   6.641   3.674
  814SOL    HW1 3341   5.142   6.671   3.648
  814SOL    HW2 3342   5.054   6.548   3.710
  815SOL     OW 3343   6.582   3.016   2.155
  815SOL    HW1 3344   6.575   2.926   2.198
  815SOL    HW2 3345   6.504   3.072   2.184
  816SOL     OW 3346   0.168   6.640   0.062
  816SOL    HW1 3347   0.200   6.547   0.041
  816SOL    HW2 3348   0.125   6.640   0.153
  817SOL     OW 3349   1.851   3.929   2.553
  817SOL    HW1 3350   1.882   4.013   2.509
  817SOL    HW2 3351   1.928   3.885   2.599
  818SOL     OW 3352   6.447   2.644   0.834
  818SOL    HW1 3353   6.474   2.549   0.851
  818SOL    HW2 3354   6.517   2.705   0.873
  819SOL     OW 3355   5.860   3.251   4.097
  819SOL    HW1 3356   5.885   3.320   4.028
  819SOL    HW2 3357   5.895   3.162   4.069
  820SOL     OW 3358   1.428   2.593   6.017
  820SOL    HW1 3359   1.429   2.693   6.015
  820SOL    HW2 3360   1.347   2.562   6.068
  821SOL     OW 3361   2.564   4.413   0.224
  821SOL    HW1 3362   2.543   4.510   0.237
  821SOL    HW2 3363   2.540   4.363   0.307
  822SOL     OW 3364   0.924   5.477   4.252
  822SOL    HW1 3365   0.884   5.567   4.234
  822SOL    HW2 3366   1.017   5.474   4.216
  823SOL     OW 3367   4.282   4.352   6.702
  823SOL    HW1 3368   4.215   4.282   6.677
  823SOL    HW2 3369   4.357   4.309   6.752
  824SOL     OW 3370   5.144   1.288   5.452
  824SOL    HW1 3371   5.179   1.281   5.546
  824SOL    HW2 3372   5.111   1.199   5.422
  825SOL     OW 3373   2.158   3.010   1.868
  825SOL    HW1 3374   2.187   3.099   1.833
  825SOL    HW2 3375   2.199   2.994   1.958
  826SOL     OW 3376   6.091   4.150   0.785
  826SOL    HW1 3377   6.055   4.169   0.877
  826SOL    HW2 3378   6.018   4.159   0.718
  827SOL     OW 3379   3.117   5.425   5.453
  827SOL    HW1 3380   3.211   5.444   5.423
  827SOL    HW2 3381   3.054   5.443   5.378
  828SOL     OW 3382   6.275   0.539   5.118
  828SOL    HW1 3383   6.275   0.627   5.070
  828SOL    HW2 3384   6.221   0.473   5.066
  829SOL     OW 3385   2.874   3.628   4.377
  829SOL    HW1 3386   2.895   3.685   4.298
  829SOL    HW2 3387   2.825   3.682   4.446
  830SOL     OW 3388   5.024   4.435   6.145
  830SOL    HW1 3389   4.979   4.496   6.080
  830SOL    HW2 3390   4.976   4.347   6.147
  831SOL     OW 3391   0.080   0.048   4.645
  831SOL    HW1 3392   0.130   7.001   4.592
  831SOL    HW2 3393   0.031   0.109   4.583
  832SOL     OW 3394   1.883   1.150   0.332
  832SOL    HW1 3395   1.812   1.085   0.306
  832SOL    HW2 3396   1.973   1.107   0.322
  833SOL     OW 3397   0.743   5.480   5.853
  833SOL    HW1 3398   0.708   5.411   5.789
  833SOL    HW2 3399   0.836   5.507   5.826
  834SOL     OW 3400   3.768   3.598   1.827
  834SOL    HW1 3401   3.681   3.644   1.810
  834SOL    HW2 3402   3.835   3.626   1.758
  835SOL     OW 3403   3.743   6.631   4.512
  835SOL    HW1 3404   3.800   6.565   4.462
  835SOL    HW2 3405   3.753   6.721   4.470
  836SOL     OW 3406   3.087   6.201   6.610
  836SOL    HW1 3407   3.166   6.140   6.601
  836SOL    HW2 3408   3.003   6.148   6.599
  837SOL     OW 3409   4.805   0.345   0.059
  837SOL    HW1 3410   4.755   0.375   0.140
  837SOL    HW2 3411   4.876   0.411   0.037
  838SOL     OW 3412   0.851   0.131   5.092
  838SOL    HW1 3413   0.903   0.214   5.109
  838SOL    HW2 3414   0.757   0.155   5.065
  839SOL     OW 3415   2.910   1.276   2.339
  839SOL    HW1 3416   2.818   1.300   2.309
  839SOL    HW2 3417   2.920   1.298   2.436
  840SOL     OW 3418   6.232   1.128   5.474
  840SOL    HW1 3419   6.211   1.031   5.475
  840SOL    HW2 3420   6.299   1.147   5.402
  841SOL     OW 3421   6.090   4.384   0.302
  841SOL    HW1 3422   6.034   4.451   0.253
  841SOL    HW2 3423   6.174   4.428   0.334
  842SOL     OW 3424   4.354   5.198   3.140
  842SOL    HW1 3425   4.354   5.146   3.055
  842SOL    HW2 3426   4.387   5.291   3.122
  843SOL     OW 3427   5.387   2.051   0.189
  843SOL    HW1 3428   5.468   1.998   0.214
  843SOL    HW2 3429   5.410   2.117   0.118
  844SOL     OW 3430   4.616   6.390   0.538
  844SOL    HW1 3431   4.624   6.387   0.637
  844SOL    HW2 3432   4.519   6.391   0.512
  845SOL     OW 3433   6.064   2.988   4.386
  845SOL    HW1 3434   6.109   2.936   4.457
  845SOL    HW2 3435   6.109   2.971   4.298
  846SOL     OW 3436   5.159   1.446   6.294
  846SOL    HW1 3437   5.129   1.364   6.344
  846SOL    HW2 3438   5.097   1.521   6.313
  847SOL     OW 3439   6.473   3.476   1.001
  847SOL    HW1 3440   6.392   3.535   1.004
  847SOL    HW2 3441   6.448   3.384   1.031
  848SOL     OW 3442   5.782   1.382   6.511
  848SOL    HW1 3443   5.772   1.401   6.414
  848SOL    HW2 3444   5.761   1.286   6.529
  849SOL     OW 3445   0.137   5.510   5.165
  849SOL    HW1 3446   0.208   5.442   5.185
  849SOL    HW2 3447   0.077   5.476   5.094
  850SOL     OW 3448   4.634   0.753   3.417
  850SOL    HW1 3449   4.651   0.775   3.513
  850SOL    HW2 3450   4.594   0.661   3.411
  851SOL     OW 3451   0.563   1.416   0.342
  851SOL    HW1 3452   0.472   1.404   0.382
  851SOL    HW2 3453   0.556   1.410   0.243
  852SOL     OW 3454   2.636   2.420   0.095
  852SOL    HW1 3455   2.571   2.496   0.092
  852SOL    HW2 3456   2.693   2.422   0.013
  853SOL     OW 3457   0.761   3.717   3.502
  853SOL    HW1 3458   0.713   3.630   3.496
  853SOL    HW2 3459   0.847   3.711   3.452
  854SOL     OW 3460   5.252   6.142   2.295
  854SOL    HW1 3461   5.219   6.084   2.369
  854SOL    HW2 3462   5.268   6.086   2.213
  855SOL     OW 3463   6.095   6.955   1.206
  855SOL    HW1 3464   6.035   6.885   1.244
  855SOL    HW2 3465   6.075   6.966   1.108
  856SOL     OW 3466   1.675   0.780   5.043
  856SOL    HW1 3467   1.723   0.822   5.120
  856SOL    HW2 3468   1.669   0.681   5.058
  857SOL     OW 3469   5.643   5.306   1.727
  857SOL    HW1 3470   5.612   5.262   1.642
  857SOL    HW2 3471   5.742   5.295   1.735
  858SOL     OW 3472   2.592   4.749   1.886
  858SOL    HW1 3473   2.523   4.702   1.942
  858SOL    HW2 3474   2.678   4.699   1.891
  859SOL     OW 3475   5.726   5.400   6.585
  859SOL    HW1 3476   5.718   5.429   6.490
  859SOL    HW2 3477   5.785   5.318   6.590
  860SOL     OW 3478   4.851   3.946   0.468
  860SOL    HW1 3479   4.896   3.907   0.388
  860SOL    HW2 3480   4.896   3.913   0.551
  861SOL     OW 3481   2.307   0.253   4.600
  861SOL    HW1 3482   2.363   0.188   4.651
  861SOL    HW2 3483   2.276   0.326   4.661
  862SOL     OW 3484   6.164   4.099   5.003
  862SOL    HW1 3485   6.176   4.090   4.904
  862SOL    HW2 3486   6.231   4.165   5.038
  863SOL     OW 3487   1.226   6.936   0.719
  863SOL    HW1 3488   1.202   6.892   0.633
  863SOL    HW2 3489   1.199   0.010   0.715
  864SOL     OW 3490   5.057   4.445   3.691
  864SOL    HW1 3491   5.134   4.435   3.627
  864SOL    HW2 3492   5.023   4.538   3.687
  865SOL     OW 3493   0.525   6.743   4.393
  865SOL    HW1 3494   0.597   6.741   4.462
  865SOL    HW2 3495   0.468   6.661   4.401
  866SOL     OW 3496   2.680   1.420   2.033
  866SOL    HW1 3497   2.592   1.444   1.992
  866SOL    HW2 3498   2.752   1.480   1.995
  867SOL     OW 3499   3.247   2.591   0.789
  867SOL    HW1 3500   3.260   2.609   0.886
  867SOL    HW2 3501   3.271   2.673   0.736
  868SOL     OW 3502   6.033   6.930   1.684
  868SOL    HW1 3503   6.089   6.870   1.627
  868SOL    HW2 3504   5.967   6.978   1.627
  869SOL     OW 3505   6.597   5.542   2.845
  869SOL    HW1 3506   6.541   5.586   2.774
  869SOL    HW2 3507   6.694   5.553   2.823
  870SOL     OW 3508   6.174   4.041   1.653
  870SOL    HW1 3509   6.234   3.967   1.684
  870SOL    HW2 3510   6.218   4.090   1.577
  871SOL     OW 3511   0.177   3.318   1.738
  871SOL    HW1 3512   0.195   3.343   1.642
  871SOL    HW2 3513   0.200   3.222   1.753
  872SOL     OW 3514   6.133   3.266   4.419
  872SOL    HW1 3515   6.061   3.196   4.423
  872SOL    HW2 3516   6.116   3.327   4.341
  873SOL     OW 3517   4.359   0.691   2.747
  873SOL    HW1 3518   4.331   0.662   2.655
  873SOL    HW2 3519   4.381   0.788   2.745
  874SOL     OW 3520   1.870   4.079   5.294
  874SOL    HW1 3521   1.895   4.175   5.305
  874SOL    HW2 3522   1.787   4.073   5.238
  875SOL     OW 3523   5.140   4.367   0.722
  875SOL    HW1 3524   5.084   4.437   0.677
  875SOL    HW2 3525   5.081   4.293   0.754
  876SOL     OW 3526   6.473   4.172   3.308
  876SOL    HW1 3527   6.459   4.173   3.209
  876SOL    HW2 3528   6.553   4.227   3.331
  877SOL     OW 3529   4.739   4.741   6.967
  877SOL    HW1 3530   4.760   4.698   0.032
  877SOL    HW2 3531   4.750   4.840   6.975
  878SOL     OW 3532   3.469   5.204   0.173
  878SOL    HW1 3533   3.509   5.231   0.085
  878SOL    HW2 3534   3.406   5.128   0.159
  879SOL     OW 3535   4.293   1.868   2.562
  879SOL    HW1 3536   4.238   1.829   2.489
  879SOL    HW2 3537   4.292   1.807   2.641
  880SOL     OW 3538   3.296   4.323   0.017
  880SOL    HW1 3539   3.196   4.330   0.016
  880SOL    HW2 3540   3.333   4.381   0.090
  881SOL     OW 3541   4.309   4.714   4.835
  881SOL    HW1 3542   4.331   4.808   4.861
  881SOL    HW2 3543   4.325   4.653   4.912
  882SOL     OW 3544   2.016   1.534   4.747
  882SOL    HW1 3545   1.950   1.495   4.683
  882SOL    HW2 3546   2.098   1.477   4.750
  883SOL     OW 3547   4.205   5.059   5.487
  883SOL    HW1 3548   4.115   5.063   5.530
  883SOL    HW2 3549   4.252   5.146   5.499
  884SOL     OW 3550   6.674   3.151   1.730
  884SOL    HW1 3551   6.599   3.176   1.791
  884SOL    HW2 3552   6.706   3.233   1.681
  885SOL     OW 3553   6.030   6.718   6.893
  885SOL    HW1 3554   6.053   6.686   6.985
  885SOL    HW2 3555   6.096   6.681   6.827
  886SOL     OW 3556   4.193   1.370   0.259
  886SOL    HW1 3557   4.230   1.282   0.289
  886SOL    HW2 3558   4.126   1.356   0.187
  887SOL     OW 3559   3.818   6.485   6.225
  887SOL    HW1 3560   3.906   6.510   6.185
  887SOL    HW2 3561   3.816   6.513   6.321
  888SOL     OW 3562   6.946   6.278   3.484
  888SOL    HW1 3563   6.959   6.374   3.458
  888SOL    HW2 3564   6.857   6.267   3.528
  889SOL     OW 3565   0.251   6.790   5.810
  889SOL    HW1 3566   0.222   6.873   5.762
  889SOL    HW2 3567   0.171   6.730   5.822
  890SOL     OW 3568   2.810   4.698   2.219
  890SOL    HW1 3569   2.793   4.797   2.215
  890SOL    HW2 3570   2.828   4.664   2.126
  891SOL     OW 3571   5.690   3.682   1.332
  891SOL    HW1 3572   5.595   3.673   1.362
  891SOL    HW2 3573   5.734   3.755   1.385
  892SOL     OW 3574   3.569   3.819   0.545
  892SOL    HW1 3575   3.496   3.868   0.591
  892SOL    HW2 3576   3.530   3.747   0.487
  893SOL     OW 3577   1.437   0.638   0.292
  893SOL    HW1 3578   1.500   0.611   0.365
  893SOL    HW2 3579   1.384   0.559   0.263
  894SOL     OW 3580   1.861   4.725   4.259
  894SOL    HW1 3581   1.822   4.632   4.260
  894SOL    HW2 3582   1.878   4.754   4.353
  895SOL     OW 3583   2.172   0.077   4.386
  895SOL    HW1 3584   2.185   0.125   4.473
  895SOL    HW2 3585   2.207   0.133   4.311
  896SOL     OW 3586   5.677   6.332   4.142
  896SOL    HW1 3587   5.630   6.251   4.177
  896SOL    HW2 3588   5.776   6.318   4.144
  897SOL     OW 3589   5.063   1.637   0.325
  897SOL    HW1 3590   5.099   1.687   0.246
  897SOL    HW2 3591   5.132   1.637   0.398
  898SOL     OW 3592   5.268   6.012   3.707
  898SOL    HW1 3593   5.316   6.064   3.636
  898SOL    HW2 3594   5.213   6.075   3.762
  899SOL     OW 3595   0.454   5.016   0.221
  899SOL    HW1 3596   0.363   5.054   0.204
  899SOL    HW2 3597   0.506   5.081   0.278
  900SOL     OW 3598   6.254   5.942   1.927
  900SOL    HW1 3599   6.309   6.005   1.982
  900SOL    HW2 3600   6.314   5.882   1.875
  901SOL     OW 3601   0.207   1.496   4.345
  901SOL    HW1 3602   0.197   1.401   4.374
  901SOL    HW2 3603   0.278   1.502   4.275
  902SOL     OW 3604   0.004   0.396   6.556
  902SOL    HW1 3605   6.997   0.451   6.478
  902SOL    HW2 3606   0.002   0.299   6.531
  903SOL     OW 3607   6.523   4.950   0.891
  903SOL    HW1 3608   6.572   4.897   0.822
  903SOL    HW2 3609   6.490   4.889   0.963
  904SOL     OW 3610   1.467   1.794   3.786
  904SOL    HW1 3611   1.519   1.786   3.701
  904SOL    HW2 3612   1.372   1.815   3.764
  905SOL     OW 3613   5.127   2.196   6.651
  905SOL    HW1 3614   5.080   2.273   6.695
  905SOL    HW2 3615   5.063   2.119   6.642
  906SOL     OW 3616   0.095   4.737   0.541
  906SOL    HW1 3617   0.003   4.737   0.501
  906SOL    HW2 3618   0.141   4.652   0.517
  907SOL     OW 3619   5.909   2.074   2.868
  907SOL    HW1 3620   5.816   2.053   2.836
  907SOL    HW2 3621   5.976   2.030   2.809
  908SOL     OW 3622   0.954   6.929   4.064
  908SOL    HW1 3623   0.937   7.008   4.006
  908SOL    HW2 3624   1.047   6.935   4.102
  909SOL     OW 3625   2.416   0.980   0.080
  909SOL    HW1 3626   2.481   0.920   0.035
  909SOL    HW2 3627   2.438   0.986   0.178
  910SOL     OW 3628   1.412   0.508   0.602
  910SOL    HW1 3629   1.484   0.569   0.570
  910SOL    HW2 3630   1.412   0.424   0.547
  911SOL     OW 3631   6.987   4.953   1.618
  911SOL    HW1 3632   0.016   4.870   1.594
  911SOL    HW2 3633   0.028   5.030   1.624
  912SOL     OW 3634   6.943   1.637   5.631
  912SOL    HW1 3635   6.931   1.541   5.604
  912SOL    HW2 3636   6.859   1.688   5.611
  913SOL     OW 3637   2.122   0.390   3.777
  913SOL    HW1 3638   2.066   0.308   3.766
  913SOL    HW2 3639   2.076   0.469   3.737
  914SOL     OW 3640   2.427   5.739   4.387
  914SOL    HW1 3641   2.516   5.785   4.386
  914SOL    HW2 3642   2.442   5.640   4.381
  915SOL     OW 3643   0.393   3.451   0.301
  915SOL    HW1 3644   0.444   3.378   0.255
  915SOL    HW2 3645   0.304   3.417   0.329
  916SOL     OW 3646   2.426   1.850   2.470
  916SOL    HW1 3647   2.507   1.792   2.474
  916SOL    HW2 3648   2.423   1.909   2.550
  917SOL     OW 3649   3.745   0.714   1.548
  917SOL    HW1 3650   3.650   0.738   1.529
  917SOL    HW2 3651   3.799   0.797   1.558
  918SOL     OW 3652   3.027   6.270   6.328
  918SOL    HW1 3653   3.032   6.234   6.421
  918SOL    HW2 3654   2.932   6.293   6.306
  919SOL     OW 3655   1.631   5.795   1.984
  919SOL    HW1 3656   1.583   5.795   1.896
  919SOL    HW2 3657   1.616   5.708   2.031
  920SOL     OW 3658   2.710   0.510   2.775
  920SOL    HW1 3659   2.804   0.513   2.741
  920SOL    HW2 3660   2.648   0.482   2.701
  921SOL     OW 3661   5.946   4.651   4.338
  921SOL    HW1 3662   5.991   4.610   4.258
  921SOL    HW2 3663   5.847   4.637   4.330
  922SOL     OW 3664   3.341   3.836   0.209
  922SOL    HW1 3665   3.430   3.800   0.180
  922SOL    HW2 3666   3.336   3.934   0.187
  923SOL     OW 3667   2.740   5.509   0.507
  923SOL    HW1 3668   2.721   5.423   0.459
  923SOL    HW2 3669   2.838   5.515   0.525
  924SOL     OW 3670   5.469   3.036   2.282
  924SOL    HW1 3671   5.385   3.060   2.331
  924SOL    HW2 3672   5.486   3.102   2.209
  925SOL     OW 3673   0.086   1.692   6.012
  925SOL    HW1 3674   0.078   1.670   6.109
  925SOL    HW2 3675   0.172   1.655   5.977
  926SOL     OW 3676   5.879   6.702   0.843
  926SOL    HW1 3677   5.844   6.779   0.791
  926SOL    HW2 3678   5.869   6.617   0.790
  927SOL     OW 3679   4.763   4.078   4.017
  927SOL    HW1 3680   4.787   4.128   3.934
  927SOL    HW2 3681   4.782   3.981   4.003
  928SOL     OW 3682   1.699   7.013   0.552
  928SOL    HW1 3683   1.759   7.008   0.472
  928SOL    HW2 3684   1.607   6.982   0.527
  929SOL     OW 3685   0.402   2.859   2.027
  929SOL    HW1 3686   0.442   2.893   2.112
  929SOL    HW2 3687   0.308   2.829   2.043
  930SOL     OW 3688   5.443   4.873   3.843
  930SOL    HW1 3689   5.520   4.829   3.890
  930SOL    HW2 3690   5.398   4.807   3.783
  931SOL     OW 3691   0.766   2.716   2.958
  931SOL    HW1 3692   0.715   2.790   3.002
  931SOL    HW2 3693   0.818   2.753   2.881
  932SOL     OW 3694   3.812   6.097   1.842
  932SOL    HW1 3695   3.768   6.028   1.785
  932SOL    HW2 3696   3.818   6.183   1.791
  933SOL     OW 3697   1.313   4.147   3.377
  933SOL    HW1 3698   1.252   4.136   3.298
  933SOL    HW2 3699   1.291   4.077   3.446
  934SOL     OW 3700   3.237   0.921   4.516
  934SOL    HW1 3701   3.214   0.863   4.594
  934SOL    HW2 3702   3.276   1.007   4.547
  935SOL     OW 3703   4.648   3.783   6.483
  935SOL    HW1 3704   4.638   3.869   6.434
  935SOL    HW2 3705   4.736   3.781   6.530
  936SOL     OW 3706   0.731   0.005   1.128
  936SOL    HW1 3707   0.710   6.961   1.199
  936SOL    HW2 3708   0.786   6.983   1.057
  937SOL     OW 3709   5.073   1.467   4.140
  937SOL    HW1 3710   5.146   1.524   4.104
  937SOL    HW2 3711   4.987   1.518   4.141
  938SOL     OW 3712   0.017   4.290   6.020
  938SOL    HW1 3713   0.003   4.284   6.119
  938SOL    HW2 3714   0.063   4.207   5.988
  939SOL     OW 3715   4.782   1.103   6.314
  939SOL    HW1 3716   4.687   1.096   6.283
  939SOL    HW2 3717   4.799   1.195   6.347
  940SOL     OW 3718   0.191   1.032   2.602
  940SOL    HW1 3719   0.121   1.029   2.531
  940SOL    HW2 3720   0.278   1.062   2.561
  941SOL     OW 3721   5.388   1.304   3.646
  941SOL    HW1 3722   5.360   1.273   3.555
  941SOL    HW2 3723   5.465   1.366   3.638
  942SOL     OW 3724   5.101   0.176   5.115
  942SOL    HW1 3725   5.165   0.106   5.147
  942SOL    HW2 3726   5.093   0.169   5.015
  943SOL     OW 3727   6.614   3.411   2.571
  943SOL    HW1 3728   6.669   3.384   2.650
  943SOL    HW2 3729   6.621   3.510   2.558
  944SOL     OW 3730   6.025   3.400   4.654
  944SOL    HW1 3731   5.959   3.461   4.610
  944SOL    HW2 3732   6.067   3.341   4.585
  945SOL     OW 3733   4.444   4.555   4.063
  945SOL    HW1 3734   4.436   4.608   4.147
  945SOL    HW2 3735   4.500   4.473   4.080
  946SOL     OW 3736   5.832   2.476   6.362
  946SOL    HW1 3737   5.826   2.494   6.264
  946SOL    HW2 3738   5.913   2.521   6.399
  947SOL     OW 3739   3.255   3.305   6.356
  947SOL    HW1 3740   3.277   3.394   6.315
  947SOL    HW2 3741   3.174   3.267   6.311
  948SOL     OW 3742   3.161   0.920   0.321
  948SOL    HW1 3743   3.061   0.924   0.333
  948SOL    HW2 3744   3.188   0.985   0.250
  949SOL     OW 3745   6.132   5.470   6.123
  949SOL    HW1 3746   6.094   5.503   6.210
  949SOL    HW2 3747   6.190   5.541   6.084
  950SOL     OW 3748   4.293   5.093   1.863
  950SOL    HW1 3749   4.224   5.067   1.931
  950SOL    HW2 3750   4.286   5.032   1.784
  951SOL     OW 3751   0.448   0.474   1.424
  951SOL    HW1 3752   0.430   0.529   1.506
  951SOL    HW2 3753   0.422   0.379   1.441
  952SOL     OW 3754   5.334   1.368   2.554
  952SOL    HW1 3755   5.272   1.431   2.507
  952SOL    HW2 3756   5.283   1.316   2.622
  953SOL     OW 3757   4.184   5.936   5.258
  953SOL    HW1 3758   4.283   5.943   5.273
  953SOL    HW2 3759   4.138   6.012   5.303
  954SOL     OW 3760   6.202   0.022   1.450
  954SOL    HW1 3761   6.198   0.015   1.351
  954SOL    HW2 3762   6.214   6.954   1.490
  955SOL     OW 3763   1.012   5.438   3.727
  955SOL    HW1 3764   1.030   5.493   3.808
  955SOL    HW2 3765   1.098   5.398   3.694
  956SOL     OW 3766   0.968   1.506   1.474
  956SOL    HW1 3767   1.046   1.566   1.491
  956SOL    HW2 3768   1.000   1.413   1.455
  957SOL     OW 3769   1.520   5.166   5.977
  957SOL    HW1 3770   1.526   5.075   6.017
  957SOL    HW2 3771   1.437   5.212   6.010
  958SOL     OW 3772   4.946   2.165   0.972
  958SOL    HW1 3773   4.861   2.126   1.007
  958SOL    HW2 3774   4.925   2.240   0.909
  959SOL     OW 3775   2.815   4.726   2.914
  959SOL    HW1 3776   2.771   4.758   2.998
  959SOL    HW2 3777   2.847   4.805   2.862
  960SOL     OW 3778   1.674   6.052   4.119
  960SOL    HW1 3779   1.666   6.073   4.216
  960SOL    HW2 3780   1.711   6.132   4.071
  961SOL     OW 3781   4.253   6.907   2.361
  961SOL    HW1 3782   4.342   6.869   2.385
  961SOL    HW2 3783   4.212   6.852   2.287
  962SOL     OW 3784   1.566   0.979   3.307
  962SOL    HW1 3785   1.613   1.055   3.352
  962SOL    HW2 3786   1.467   0.994   3.310
  963SOL     OW 3787   6.161   7.021   0.688
  963SOL    HW1 3788   6.154   0.096   0.664
  963SOL    HW2 3789   6.251   6.987   0.663
  964SOL     OW 3790   5.501   3.010   0.942
  964SOL    HW1 3791   5.584   2.960   0.968
  964SOL    HW2 3792   5.445   3.025   1.023
  965SOL     OW 3793   6.156   1.255   1.071
  965SOL    HW1 3794   6.076   1.272   1.014
  965SOL    HW2 3795   6.136   1.180   1.134
  966SOL     OW 3796   6.366   1.764   3.229
  966SOL    HW1 3797   6.277   1.748   3.186
  966SOL    HW2 3798   6.437   1.718   3.176
  967SOL     OW 3799   1.302   5.490   0.458
  967SOL    HW1 3800   1.357   5.516   0.537
  967SOL    HW2 3801   1.339   5.406   0.417
  968SOL     OW 3802   5.062   2.795   2.721
  968SOL    HW1 3803   4.974   2.764   2.759
  968SOL    HW2 3804   5.060   2.894   2.709
  969SOL     OW 3805   3.826   6.065   5.978
  969SOL    HW1 3806   3.764   6.118   5.921
  969SOL    HW2 3807   3.914   6.114   5.986
  970SOL     OW 3808   4.171   2.057   5.250
  970SOL    HW1 3809   4.170   1.957   5.252
  970SOL    HW2 3810   4.080   2.092   5.274
  971SOL     OW 3811   6.824   1.384   2.772
  971SOL    HW1 3812   6.782   1.304   2.728
  971SOL    HW2 3813   6.772   1.408   2.854
  972SOL     OW 3814   6.282   5.028   0.714
  972SOL    HW1 3815   6.255   4.942   0.670
  972SOL    HW2 3816   6.359   5.011   0.775
  973SOL     OW 3817   0.805   4.453   6.550
  973SOL    HW1 3818   0.767   4.428   6.639
  973SOL    HW2 3819   0.758   4.534   6.516
  974SOL     OW 3820   3.243   0.685   2.511
  974SOL    HW1 3821   3.325   0.736   2.537
  974SOL    HW2 3822   3.233   0.606   2.572
  975SOL     OW 3823   3.271   6.387   6.429
  975SOL    HW1 3824   3.326   6.366   6.348
  975SOL    HW2 3825   3.177   6.357   6.414
  976SOL     OW 3826   6.879   2.733   2.483
  976SOL    HW1 3827   6.926   2.812   2.443
  976SOL    HW2 3828   6.831   2.684   2.410
  977SOL     OW 3829   1.684   0.987   4.095
  977SOL    HW1 3830   1.692   1.084   4.115
  977SOL    HW2 3831   1.729   0.934   4.167
  978SOL     OW 3832   5.288   4.297   4.509
  978SOL    HW1 3833   5.218   4.342   4.454
  978SOL    HW2 3834   5.310   4.209   4.468
  979SOL     OW 3835   6.453   1.629   3.487
  979SOL    HW1 3836   6.505   1.548   3.461
  979SOL    HW2 3837   6.383   1.647   3.418
  980SOL     OW 3838   5.420   2.487   3.579
  980SOL    HW1 3839   5.480   2.512   3.656
  980SOL    HW2 3840   5.409   2.388   3.576
  981SOL     OW 3841   1.225   1.867   4.836
  981SOL    HW1 3842   1.215   1.902   4.929
  981SOL    HW2 3843   1.293   1.794   4.835
  982SOL     OW 3844   1.862   2.751   2.268
  982SOL    HW1 3845   1.823   2.792   2.350
  982SOL    HW2 3846   1.929   2.814   2.228
  983SOL     OW 3847   5.979   2.398   3.658
  983SOL    HW1 3848   6.072   2.409   3.623
  983SOL    HW2 3849   5.914   2.434   3.591
  984SOL     OW 3850   3.899   0.713   5.409
  984SOL    HW1 3851   3.921   0.670   5.321
  984SOL    HW2 3852   3.830   0.784   5.395
  985SOL     OW 3853   4.465   4.846   0.044
  985SOL    HW1 3854   4.510   4.766   0.004
  985SOL    HW2 3855   4.462   4.836   0.144
  986SOL     OW 3856   5.353   5.785   6.332
  986SOL    HW1 3857   5.385   5.849   6.401
  986SOL    HW2 3858   5.393   5.694   6.348
  987SOL     OW 3859   3.273   6.676   1.587
  987SOL    HW1 3860   3.238   6.768   1.608
  987SOL    HW2 3861   3.373   6.677   1.597
  988SOL     OW 3862   4.011   2.468   0.609
  988SOL    HW1 3863   3.992   2.427   0.698
  988SOL    HW2 3864   3.972   2.560   0.604
  989SOL     OW 3865   0.523   0.627   6.314
  989SOL    HW1 3866   0.543   0.708   6.368
  989SOL    HW2 3867   0.569   0.547   6.354
  990SOL     OW 3868   4.702   0.039   3.835
  990SOL    HW1 3869   4.704   6.991   3.764
  990SOL    HW2 3870   4.683   0.128   3.793
  991SOL     OW 3871   1.510   2.069   4.904
  991SOL    HW1 3872   1.598   2.021   4.902
  991SOL    HW2 3873   1.437   2.003   4.921
  992SOL     OW 3874   0.520   2.690   6.752
  992SOL    HW1 3875   0.469   2.695   6.666
  992SOL    HW2 3876   0.528   2.595   6.781
  993SOL     OW 3877   2.409   5.661   2.397
  993SOL    HW1 3878   2.451   5.615   2.319
  993SOL    HW2 3879   2.314   5.630   2.407
  994SOL     OW 3880   3.716   4.119   2.606
  994SOL    HW1 3881   3.722   4.031   2.560
  994SOL    HW2 3882   3.731   4.106   2.704
  995SOL     OW 3883   1.935   2.670   6.225
  995SOL    HW1 3884   1.840   2.692   6.246
  995SOL    HW2 3885   1.966   2.594   6.281
  996SOL     OW 3886   1.499   3.268   3.974
  996SOL    HW1 3887   1.497   3.337   3.901
  996SOL    HW2 3888   1.582   3.213   3.965
  997SOL     OW 3889   0.366   7.008   1.451
  997SOL    HW1 3890   0.299   6.968   1.388
  997SOL    HW2 3891   0.365   6.957   1.537
  998SOL     OW 3892   4.330   6.983   2.984
  998SOL    HW1 3893   4.293   0.021   2.913
  998SOL    HW2 3894   4.413   6.939   2.950
  999SOL     OW 3895   5.187   5.996   1.195
  999SOL    HW1 3896   5.218   5.905   1.225
  999SOL    HW2 3897   5.125   6.034   1.265
 1000SOL     OW 3898   1.570   1.886   2.437
 1000SOL    HW1 3899   1.540   1.845   2.524
 1000SOL    HW2 3900   1.587   1.813   2.371
 1001SOL     OW 3901   4.171   6.143   6.208
 1001SOL    HW1 3902   4.157   6.174   6.114
 1001SOL    HW2 3903   4.089   6.163   6.262
 1002SOL     OW 3904   5.459   1.714   6.504
 1002SOL    HW1 3905   5.361   1.733   6.494
 1002SOL    HW2 3906   5.483   1.716   6.601
 1003SOL     OW 3907   2.482   6.835   1.732
 1003SOL    HW1 3908   2.517   6.795   1.647
 1003SOL    HW2 3909   2.550   6.826   1.804
 1004SOL     OW 3910   6.678   0.611   0.226
 1004SOL    HW1 3911   6.589   0.615   0.180
 1004SOL    HW2 3912   6.718   0.703   0.228
 1005SOL     OW 3913   0.015   1.065   2.814
 1005SOL    HW1 3914   6.948   1.069   2.768
 1005SOL    HW2 3915   0.087   1.054   2.745
 1006SOL     OW 3916   2.631   5.841   1.666
 1006SOL    HW1 3917   2.601   5.746   1.662
 1006SOL    HW2 3918   2.580   5.895   1.598
 1007SOL     OW 3919   6.325   0.299   3.474
 1007SOL    HW1 3920   6.419   0.288   3.505
 1007SOL    HW2 3921   6.324   0.310   3.375
 1008SOL     OW 3922   1.020   2.610   4.273
 1008SOL    HW1 3923   0.997   2.614   4.371
 1008SOL    HW2 3924   1.081   2.534   4.256
 1009SOL     OW 3925   6.413   5.398   3.776
 1009SOL    HW1 3926   6.316   5.422   3.765
 1009SOL    HW2 3927   6.467   5.439   3.703
 1010SOL     OW 3928   4.002   2.110   0.113
 1010SOL    HW1 3929   4.037   2.108   0.206
 1010SOL    HW2 3930   4.071   2.075   0.050
 1011SOL     OW 3931   3.027   5.645   3.438
 1011SOL    HW1 3932   3.002   5.561   3.487
 1011SOL    HW2 3933   3.105   5.688   3.484
 1012SOL     OW 3934   6.020   5.362   0.210
 1012SOL    HW1 3935   6.011   5.426   0.133
 1012SOL    HW2 3936   5.929   5.339   0.244
 1013SOL     OW 3937   0.567   1.342   6.712
 1013SOL    HW1 3938   0.613   1.264   6.670
 1013SOL    HW2 3939   0.514   1.391   6.643
 1014SOL     OW 3940   5.417   5.515   6.412
 1014SOL    HW1 3941   5.340   5.454   6.433
 1014SOL    HW2 3942   5.466   5.537   6.496
 1015SOL     OW 3943   3.788   6.692   5.099
 1015SOL    HW1 3944   3.703   6.655   5.059
 1015SOL    HW2 3945   3.864   6.673   5.038
 1016SOL     OW 3946   2.417   2.673   0.980
 1016SOL    HW1 3947   2.441   2.743   1.046
 1016SOL    HW2 3948   2.323   2.641   0.998
 1017SOL     OW 3949   5.040   2.825   0.961
 1017SOL    HW1 3950   5.116   2.798   1.020
 1017SOL    HW2 3951   4.953   2.808   1.007
 1018SOL     OW 3952   1.777   3.416   4.095
 1018SOL    HW1 3953   1.776   3.373   4.186
 1018SOL    HW2 3954   1.865   3.460   4.080
 1019SOL     OW 3955   0.367   1.049   0.641
 1019SOL    HW1 3956   0.423   1.132   0.630
 1019SOL    HW2 3957   0.322   1.028   0.555
 1020SOL     OW 3958   1.072   6.436   0.691
 1020SOL    HW1 3959   1.055   6.499   0.615
 1020SOL    HW2 3960   1.081   6.488   0.776
 1021SOL     OW 3961   5.671   1.239   1.621
 1021SOL    HW1 3962   5.758   1.278   1.591
 1021SOL    HW2 3963   5.688   1.162   1.683
 1022SOL     OW 3964   4.196   4.726   6.472
 1022SOL    HW1 3965   4.154   4.722   6.562
 1022SOL    HW2 3966   4.259   4.650   6.461
 1023SOL     OW 3967   6.829   0.581   2.552
 1023SOL    HW1 3968   6.900   0.617   2.612
 1023SOL    HW2 3969   6.779   0.508   2.600
 1024SOL     OW 3970   6.908   2.802   4.296
 1024SOL    HW1 3971   6.909   2.706   4.268
 1024SOL    HW2 3972   6.998   2.828   4.331
 1025SOL     OW 3973   3.633   4.438   0.312
 1025SOL    HW1 3974   3.541   4.420   0.277
 1025SOL    HW2 3975   3.652   4.536   0.307
 1026SOL     OW 3976   1.087   0.801   0.952
 1026SOL    HW1 3977   1.066   0.705   0.933
 1026SOL    HW2 3978   1.005   0.856   0.933
 1027SOL     OW 3979   3.056   5.711   1.680
 1027SOL    HW1 3980   3.083   5.672   1.769
 1027SOL    HW2 3981   2.975   5.767   1.692
 1028SOL     OW 3982   3.126   5.786   0.445
 1028SOL    HW1 3983   3.111   5.692   0.414
 1028SOL    HW2 3984   3.105   5.793   0.543
 1029SOL     OW 3985   1.826   0.473   0.190
 1029SOL    HW1 3986   1.911   0.520   0.214
 1029SOL    HW2 3987   1.775   0.528   0.124
 1030SOL     OW 3988   3.666   2.924   3.439
 1030SOL    HW1 3989   3.595   2.948   3.506
 1030SOL    HW2 3990   3.756   2.947   3.476
 1031SOL     OW 3991   4.278   5.499   1.457
 1031SOL    HW1 3992   4.344   5.556   1.408
 1031SOL    HW2 3993   4.257   5.541   1.545
 1032SOL     OW 3994   2.187   1.603   5.055
 1032SOL    HW1 3995   2.096   1.572   5.082
 1032SOL    HW2 3996   2.222   1.545   4.981
 1033SOL     OW 3997   1.944   6.648   1.415
 1033SOL    HW1 3998   1.887   6.689   1.486
 1033SOL    HW2 3999   2.016   6.594   1.457
 1034SOL     OW 4000   1.554   6.229   4.568
 1034SOL    HW1 4001   1.634   6.288   4.565
 1034SOL    HW2 4002   1.583   6.134   4.580
 1035SOL     OW 4003   2.468   1.896   3.741
 1035SOL    HW1 4004   2.502   1.898   3.647
 1035SOL    HW2 4005   2.508   1.972   3.793
 1036SOL     OW 4006   3.695   0.716   0.986
 1036SOL    HW1 4007   3.669   0.813   0.982
 1036SOL    HW2 4008   3.775   0.701   0.928
 1037SOL     OW 4009   1.098   1.203   1.488
 1037SOL    HW1 4010   1.091   1.151   1.403
 1037SOL    HW2 4011   1.072   1.145   1.565
 1038SOL     OW 4012   0.419   1.140   5.676
 1038SOL    HW1 4013   0.445   1.182   5.763
 1038SOL    HW2 4014   0.334   1.181   5.643
 1039SOL     OW 4015   4.444   1.811   5.225
 1039SOL    HW1 4016   4.492   1.807   5.312
 1039SOL    HW2 4017   4.510   1.798   5.150
 1040SOL     OW 4018   5.590   3.524   3.037
 1040SOL    HW1 4019   5.644   3.577   3.103
 1040SOL    HW2 4020   5.646   3.450   3.000
 1041SOL     OW 4021   6.505   6.985   4.155
 1041SOL    HW1 4022   6.498   0.063   4.155
 1041SOL    HW2 4023   6.416   6.945   4.135
 1042SOL     OW 4024   3.853   4.881   2.564
 1042SOL    HW1 4025   3.950   4.876   2.540
 1042SOL    HW2 4026   3.798   4.881   2.481
 1043SOL     OW 4027   3.966   1.343   6.462
 1043SOL    HW1 4028   4.003   1.384   6.546
 1043SOL    HW2 4029   3.931   1.251   6.482
 1044SOL     OW 4030   3.586   2.547   1.445
 1044SOL    HW1 4031   3.528   2.611   1.394
 1044SOL    HW2 4032   3.560   2.453   1.423
 1045SOL     OW 4033   3.383   0.646   1.767
 1045SOL    HW1 4034   3.373   0.712   1.841
 1045SOL    HW2 4035   3.475   0.607   1.769
 1046SOL     OW 4036   2.635   6.986   6.272
 1046SOL    HW1 4037   2.575   0.026   6.323
 1046SOL    HW2 4038   2.657   6.907   6.330
 1047SOL     OW 4039   1.291   5.515   2.541
 1047SOL    HW1 4040   1.367   5.529   2.478
 1047SOL    HW2 4041   1.242   5.601   2.554
 1048SOL     OW 4042   4.917   5.802   5.261
 1048SOL    HW1 4043   4.873   5.850   5.186
 1048SOL    HW2 4044   4.992   5.857   5.297
 1049SOL     OW 4045   0.136   3.854   4.759
 1049SOL    HW1 4046   0.214   3.791   4.766
 1049SOL    HW2 4047   0.057   3.806   4.724
 1050SOL     OW 4048   3.604   5.978   0.538
 1050SOL    HW1 4049   3.608   6.054   0.603
 1050SOL    HW2 4050   3.634   5.894   0.584
 1051SOL     OW 4051   3.852   4.390   0.104
 1051SOL    HW1 4052   3.795   4.412   0.183
 1051SOL    HW2 4053   3.794   4.353   0.031
 1052SOL     OW 4054   4.059   0.708   4.497
 1052SOL    HW1 4055   4.093   0.794   4.457
 1052SOL    HW2 4056   3.974   0.681   4.450
 1053SOL     OW 4057   5.858   5.870   3.575
 1053SOL    HW1 4058   5.772   5.822   3.592
 1053SOL    HW2 4059   5.930   5.804   3.556
 1054SOL     OW 4060   2.309   5.097   5.632
 1054SOL    HW1 4061   2.263   5.085   5.544
 1054SOL    HW2 4062   2.397   5.050   5.630
 1055SOL     OW 4063   5.737   6.143   4.458
 1055SOL    HW1 4064   5.781   6.060   4.492
 1055SOL    HW2 4065   5.793   6.223   4.482
 1056SOL     OW 4066   1.497   6.614   5.396
 1056SOL    HW1 4067   1.571   6.658   5.447
 1056SOL    HW2 4068   1.529   6.527   5.359
 1057SOL     OW 4069   3.370   3.960   3.423
 1057SOL    HW1 4070   3.310   3.994   3.496
 1057SOL    HW2 4071   3.339   3.869   3.394
 1058SOL     OW 4072   4.771   1.408   2.150
 1058SOL    HW1 4073   4.702   1.336   2.145
 1058SOL    HW2 4074   4.813   1.408   2.240
 1059SOL     OW 4075   3.608   0.437   1.776
 1059SOL    HW1 4076   3.600   0.402   1.683
 1059SOL    HW2 4077   3.692   0.491   1.784
 1060SOL     OW 4078   6.606   3.470   5.844
 1060SOL    HW1 4079   6.590   3.393   5.907
 1060SOL    HW2 4080   6.574   3.555   5.886
 1061SOL     OW 4081   3.902   4.086   0.850
 1061SOL    HW1 4082   3.834   4.117   0.917
 1061SOL    HW2 4083   3.856   4.053   0.768
 1062SOL     OW 4084   6.662   5.987   5.615
 1062SOL    HW1 4085   6.582   5.975   5.556
 1062SOL    HW2 4086   6.633   5.987   5.711
 1063SOL     OW 4087   1.242   4.156   0.534
 1063SOL    HW1 4088   1.337   4.124   0.532
 1063SOL    HW2 4089   1.188   4.105   0.467
 1064SOL     OW 4090   1.127   3.602   2.610
 1064SOL    HW1 4091   1.203   3.667   2.615
 1064SOL    HW2 4092   1.076   3.604   2.696
 1065SOL     OW 4093   4.976   0.663   3.962
 1065SOL    HW1 4094   4.914   0.739   3.979
 1065SOL    HW2 4095   4.972   0.599   4.040
 1066SOL     OW 4096   5.289   0.730   4.050
 1066SOL    HW1 4097   5.373   0.685   4.019
 1066SOL    HW2 4098   5.212   0.701   3.994
 1067SOL     OW 4099   1.055   2.775   0.648
 1067SOL    HW1 4100   1.105   2.743   0.568
 1067SOL    HW2 4101   0.985   2.841   0.620
 1068SOL     OW 4102   0.110   3.899   2.041
 1068SOL    HW1 4103   0.208   3.919   2.042
 1068SOL    HW2 4104   0.061   3.971   2.091
 1069SOL     OW 4105   4.372   4.280   1.008
 1069SOL    HW1 4106   4.278   4.252   0.986
 1069SOL    HW2 4107   4.407   4.223   1.083
 1070SOL     OW 4108   1.680   0.948   6.759
 1070SOL    HW1 4109   1.606   0.881   6.756
 1070SOL    HW2 4110   1.675   1.007   6.678
 1071SOL     OW 4111   3.860   0.441   3.478
 1071SOL    HW1 4112   3.877   0.343   3.483
 1071SOL    HW2 4113   3.859   0.480   3.570
 1072SOL     OW 4114   2.325   5.994   2.194
 1072SOL    HW1 4115   2.324   6.026   2.289
 1072SOL    HW2 4116   2.232   5.969   2.167
 1073SOL     OW 4117   3.807   5.574   2.239
 1073SOL    HW1 4118   3.734   5.614   2.183
 1073SOL    HW2 4119   3.770   5.497   2.290
 1074SOL     OW 4120   1.847   5.878   1.650
 1074SOL    HW1 4121   1.803   5.963   1.619
 1074SOL    HW2 4122   1.946   5.888   1.647
 1075SOL     OW 4123   4.789   5.052   3.222
 1075SOL    HW1 4124   4.749   4.995   3.150
 1075SOL    HW2 4125   4.775   5.009   3.311
 1076SOL     OW 4126   0.718   4.206   5.081
 1076SOL    HW1 4127   0.688   4.137   5.014
 1076SOL    HW2 4128   0.691   4.297   5.049
 1077SOL     OW 4129   6.054   0.059   6.982
 1077SOL    HW1 4130   6.035   7.010   0.026
 1077SOL    HW2 4131   5.969   0.085   6.936
 1078SOL     OW 4132   2.037   1.431   2.103
 1078SOL    HW1 4133   2.013   1.458   2.196
 1078SOL    HW2 4134   1.979   1.480   2.038
 1079SOL     OW 4135   2.179   4.873   3.449
 1079SOL    HW1 4136   2.230   4.933   3.511
 1079SOL    HW2 4137   2.096   4.919   3.418
 1080SOL     OW 4138   2.332   5.193   3.154
 1080SOL    HW1 4139   2.238   5.195   3.186
 1080SOL    HW2 4140   2.394   5.217   3.229
 1081SOL     OW 4141   0.800   1.440   5.596
 1081SOL    HW1 4142   0.797   1.356   5.542
 1081SOL    HW2 4143   0.801   1.418   5.693
 1082SOL     OW 4144   1.643   0.006   5.661
 1082SOL    HW1 4145   1.582   0.083   5.680
 1082SOL    HW2 4146   1.628   6.957   5.728
 1083SOL     OW 4147   4.090   3.371   2.195
 1083SOL    HW1 4148   4.113   3.444   2.259
 1083SOL    HW2 4149   4.037   3.300   2.242
 1084SOL     OW 4150   6.516   5.643   1.163
 1084SOL    HW1 4151   6.435   5.697   1.185
 1084SOL    HW2 4152   6.496   5.582   1.086
 1085SOL     OW 4153   2.261   4.673   3.884
 1085SOL    HW1 4154   2.252   4.628   3.973
 1085SOL    HW2 4155   2.301   4.609   3.818
 1086SOL     OW 4156   6.089   5.721   3.535
 1086SOL    HW1 4157   6.108   5.672   3.450
 1086SOL    HW2 4158   6.155   5.796   3.546
 1087SOL     OW 4159   4.936   2.953   5.547
 1087SOL    HW1 4160   4.882   3.004   5.614
 1087SOL    HW2 4161   4.876   2.892   5.495
 1088SOL     OW 4162   5.275   4.461   3.529
 1088SOL    HW1 4163   5.292   4.434   3.434
 1088SOL    HW2 4164   5.354   4.437   3.586
 1089SOL     OW 4165   0.393   0.497   4.579
 1089SOL    HW1 4166   0.430   0.422   4.634
 1089SOL    HW2 4167   0.400   0.475   4.482
 1090SOL     OW 4168   3.235   1.057   4.826
 1090SOL    HW1 4169   3.247   0.959   4.843
 1090SOL    HW2 4170   3.285   1.083   4.743
 1091SOL     OW 4171   1.673   1.955   3.881
 1091SOL    HW1 4172   1.743   1.966   3.811
 1091SOL    HW2 4173   1.600   1.896   3.845
 1092SOL     OW 4174   2.321   3.937   1.159
 1092SOL    HW1 4175   2.227   3.920   1.189
 1092SOL    HW2 4176   2.370   3.850   1.149
 1093SOL     OW 4177   1.608   1.677   2.273
 1093SOL    HW1 4178   1.600   1.590   2.322
 1093SOL    HW2 4179   1.611   1.660   2.175
 1094SOL     OW 4180   6.949   6.869   1.506
 1094SOL    HW1 4181   6.910   6.800   1.568
 1094SOL    HW2 4182   6.988   6.943   1.560
 1095SOL     OW 4183   6.450   2.291   6.372
 1095SOL    HW1 4184   6.360   2.277   6.331
 1095SOL    HW2 4185   6.447   2.369   6.434
 1096SOL     OW 4186   3.960   5.181   1.479
 1096SOL    HW1 4187   3.876   5.138   1.445
 1096SOL    HW2 4188   3.968   5.168   1.577
 1097SOL     OW 4189   1.399   5.163   4.752
 1097SOL    HW1 4190   1.308   5.200   4.773
 1097SOL    HW2 4191   1.395   5.112   4.666
 1098SOL     OW 4192   5.406   2.185   0.898
 1098SOL    HW1 4193   5.317   2.211   0.861
 1098SOL    HW2 4194   5.420   2.232   0.986
 1099SOL     OW 4195   4.117   1.926   4.360
 1099SOL    HW1 4196   4.064   1.872   4.426
 1099SOL    HW2 4197   4.203   1.955   4.402
 1100SOL     OW 4198   0.436   1.358   6.483
 1100SOL    HW1 4199   0.383   1.442   6.481
 1100SOL    HW2 4200   0.482   1.345   6.395
 1101SOL     OW 4201   5.860   3.550   1.126
 1101SOL    HW1 4202   5.957   3.546   1.151
 1101SOL    HW2 4203   5.804   3.547   1.209
 1102SOL     OW 4204   1.102   4.884   4.299
 1102SOL    HW1 4205   1.188   4.837   4.278
 1102SOL    HW2 4206   1.045   4.887   4.217
 1103SOL     OW 4207   2.130   1.480   1.811
 1103SOL    HW1 4208   2.111   1.577   1.798
 1103SOL    HW2 4209   2.067   1.443   1.879
 1104SOL     OW 4210   1.853   3.825   6.101
 1104SOL    HW1 4211   1.807   3.821   6.190
 1104SOL    HW2 4212   1.833   3.742   6.050
 1105SOL     OW 4213   4.914   4.171   6.985
 1105SOL    HW1 4214   4.910   4.079   6.946
 1105SOL    HW2 4215   5.008   4.206   6.980
 1106SOL     OW 4216   0.697   1.820   6.373
 1106SOL    HW1 4217   0.632   1.763   6.323
 1106SOL    HW2 4218   0.789   1.808   6.335
 1107SOL     OW 4219   1.124   0.060   6.854
 1107SOL    HW1 4220   1.082   0.143   6.892
 1107SOL    HW2 4221   1.221   0.076   6.837
 1108SOL     OW 4222   2.579   0.719   4.853
 1108SOL    HW1 4223   2.535   0.807   4.865
 1108SOL    HW2 4224   2.524   0.662   4.790
 1109SOL     OW 4225   3.882   5.584   4.631
 1109SOL    HW1 4226   3.814   5.533   4.683
 1109SOL    HW2 4227   3.881   5.555   4.535
 1110SOL     OW 4228   2.936   2.509   1.419
 1110SOL    HW1 4229   2.978   2.507   1.509
 1110SOL    HW2 4230   2.973   2.586   1.367
 1111SOL     OW 4231   4.918   6.678   6.377
 1111SOL    HW1 4232   4.971   6.714   6.300
 1111SOL    HW2 4233   4.831   6.641   6.343
 1112SOL     OW 4234   5.972   1.131   2.686
 1112SOL    HW1 4235   6.035   1.148   2.762
 1112SOL    HW2 4236   5.889   1.086   2.721
 1113SOL     OW 4237   6.088   3.031   2.272
 1113SOL    HW1 4238   6.054   3.072   2.188
 1113SOL    HW2 4239   6.048   3.079   2.351
 1114SOL     OW 4240   5.075   0.330   6.204
 1114SOL    HW1 4241   5.121   0.277   6.275
 1114SOL    HW2 4242   5.099   0.427   6.214
 1115SOL     OW 4243   3.729   2.172   0.113
 1115SOL    HW1 4244   3.729   2.202   0.208
 1115SOL    HW2 4245   3.823   2.155   0.083
 1116SOL     OW 4246   5.134   5.442   3.815
 1116SOL    HW1 4247   5.084   5.463   3.899
 1116SOL    HW2 4248   5.113   5.511   3.746
 1117SOL     OW 4249   2.483   2.748   1.368
 1117SOL    HW1 4250   2.557   2.780   1.309
 1117SOL    HW2 4251   2.490   2.649   1.379
 1118SOL     OW 4252   1.313   4.491   3.361
 1118SOL    HW1 4253   1.263   4.532   3.285
 1118SOL    HW2 4254   1.350   4.564   3.420
 1119SOL     OW 4255   4.326   4.083   1.659
 1119SOL    HW1 4256   4.379   4.143   1.718
 1119SOL    HW2 4257   4.234   4.071   1.696
 1120SOL     OW 4258   5.236   6.526   5.776
 1120SOL    HW1 4259   5.190   6.594   5.833
 1120SOL    HW2 4260   5.282   6.572   5.700
 1121SOL     OW 4261   5.086   2.841   2.137
 1121SOL    HW1 4262   4.996   2.841   2.180
 1121SOL    HW2 4263   5.132   2.928   2.157
 1122SOL     OW 4264   5.741   2.829   6.681
 1122SOL    HW1 4265   5.795   2.909   6.657
 1122SOL    HW2 4266   5.691   2.846   6.766
 1123SOL     OW 4267   4.994   1.507   1.549
 1123SOL    HW1 4268   5.011   1.430   1.488
 1123SOL    HW2 4269   4.913   1.557   1.519
 1124SOL     OW 4270   6.701   3.707   4.703
 1124SOL    HW1 4271   6.683   3.651   4.784
 1124SOL    HW2 4272   6.714   3.648   4.623
 1125SOL     OW 4273   3.126   2.108   5.274
 1125SOL    HW1 4274   3.132   2.179   5.204
 1125SOL    HW2 4275   3.136   2.150   5.364
 1126SOL     OW 4276   4.709   6.713   6.591
 1126SOL    HW1 4277   4.804   6.702   6.562
 1126SOL    HW2 4278   4.665   6.624   6.596
 1127SOL     OW 4279   2.690   4.083   6.127
 1127SOL    HW1 4280   2.648   4.038   6.049
 1127SOL    HW2 4281   2.771   4.133   6.096
 1128SOL     OW 4282   4.177   2.315   4.071
 1128SOL    HW1 4283   4.245   2.359   4.130
 1128SOL    HW2 4284   4.215   2.230   4.034
 1129SOL     OW 4285   4.224   7.022   0.257
 1129SOL    HW1 4286   4.241   0.083   0.204
 1129SOL    HW2 4287   4.232   0.020   0.355
 1130SOL     OW 4288   1.544   4.342   1.470
 1130SOL    HW1 4289   1.609   4.315   1.541
 1130SOL    HW2 4290   1.485   4.415   1.504
 1131SOL     OW 4291   0.535   5.902   5.890
 1131SOL    HW1 4292   0.532   5.803   5.898
 1131SOL    HW2 4293   0.468   5.943   5.952
 1132SOL     OW 4294   4.996   6.974   5.849
 1132SOL    HW1 4295   5.047   0.016   5.906
 1132SOL    HW2 4296   4.958   6.901   5.905
 1133SOL     OW 4297   0.247   2.430   1.907
 1133SOL    HW1 4298   0.307   2.510   1.906
 1133SOL    HW2 4299   0.252   2.384   1.818
 1134SOL     OW 4300   5.944   2.126   6.587
 1134SOL    HW1 4301   5.871   2.188   6.556
 1134SOL    HW2 4302   5.987   2.084   6.507
 1135SOL     OW 4303   2.970   2.202   3.226
 1135SOL    HW1 4304   2.899   2.270   3.206
 1135SOL    HW2 4305   3.021   2.182   3.142
 1136SOL     OW 4306   2.207   4.966   3.930
 1136SOL    HW1 4307   2.181   4.910   4.008
 1136SOL    HW2 4308   2.191   4.914   3.846
 1137SOL     OW 4309   0.967   2.019   6.743
 1137SOL    HW1 4310   1.025   2.086   6.696
 1137SOL    HW2 4311   0.879   2.061   6.766
 1138SOL     OW 4312   2.065   3.309   5.957
 1138SOL    HW1 4313   2.154   3.293   5.999
 1138SOL    HW2 4314   2.041   3.406   5.965
 1139SOL     OW 4315   1.791   6.159   3.229
 1139SOL    HW1 4316   1.721   6.107   3.277
 1139SOL    HW2 4317   1.749   6.226   3.169
 1140SOL     OW 4318   3.986   2.034   3.099
 1140SOL    HW1 4319   4.038   1.963   3.146
 1140SOL    HW2 4320   4.049   2.103   3.064
 1141SOL     OW 4321   5.191   5.810   5.878
 1141SOL    HW1 4322   5.247   5.822   5.796
 1141SOL    HW2 4323   5.215   5.725   5.923
 1142SOL     OW 4324   5.124   0.191   4.459
 1142SOL    HW1 4325   5.123   0.172   4.361
 1142SOL    HW2 4326   5.205   0.246   4.481
 1143SOL     OW 4327   4.138   2.191   2.208
 1143SOL    HW1 4328   4.189   2.151   2.284
 1143SOL    HW2 4329   4.156   2.138   2.125
 1144SOL     OW 4330   6.966   4.399   4.067
 1144SOL    HW1 4331   6.979   4.316   4.122
 1144SOL    HW2 4332   6.898   4.382   3.996
 1145SOL     OW 4333   6.984   5.513   3.376
 1145SOL    HW1 4334   0.030   5.531   3.305
 1145SOL    HW2 4335   6.949   5.420   3.365
 1146SOL     OW 4336   5.406   1.702   1.074
 1146SOL    HW1 4337   5.353   1.688   1.158
 1146SOL    HW2 4338   5.392   1.796   1.042
 1147SOL     OW 4339   1.117   3.599   1.634
 1147SOL    HW1 4340   1.030   3.643   1.654
 1147SOL    HW2 4341   1.110   3.546   1.550
 1148SOL     OW 4342   3.365   5.780   6.343
 1148SOL    HW1 4343   3.281   5.744   6.385
 1148SOL    HW2 4344   3.353   5.876   6.320
 1149SOL     OW 4345   6.144   3.456   2.934
 1149SOL    HW1 4346   6.079   3.471   2.861
 1149SOL    HW2 4347   6.221   3.402   2.901
 1150SOL     OW 4348   2.390   4.623   1.043
 1150SOL    HW1 4349   2.385   4.691   0.970
 1150SOL    HW2 4350   2.443   4.659   1.119
 1151SOL     OW 4351   5.691   5.893   6.308
 1151SOL    HW1 4352   5.609   5.905   6.364
 1151SOL    HW2 4353   5.680   5.943   6.222
 1152SOL     OW 4354   1.387   0.078   4.497
 1152SOL    HW1 4355   1.356   0.161   4.543
 1152SOL    HW2 4356   1.381   0.000   4.560
 1153SOL     OW 4357   2.254   6.184   3.139
 1153SOL    HW1 4358   2.279   6.228   3.053
 1153SOL    HW2 4359   2.277   6.086   3.135
 1154SOL     OW 4360   0.309   3.635   1.696
 1154SOL    HW1 4361   0.369   3.562   1.728
 1154SOL    HW2 4362   0.317   3.714   1.757
 1155SOL     OW 4363   3.509   5.973   0.298
 1155SOL    HW1 4364   3.543   5.980   0.391
 1155SOL    HW2 4365   3.587   5.974   0.234
 1156SOL     OW 4366   1.931   0.226   3.687
 1156SOL    HW1 4367   1.949   0.146   3.744
 1156SOL    HW2 4368   1.838   0.259   3.704
 1157SOL     OW 4369   0.018   2.334   5.045
 1157SOL    HW1 4370   0.000   2.338   5.143
 1157SOL    HW2 4371   0.081   2.406   5.019
 1158SOL     OW 4372   5.934   4.809   5.733
 1158SOL    HW1 4373   5.896   4.769   5.649
 1158SOL    HW2 4374   5.930   4.742   5.807
 1159SOL     OW 4375   3.990   0.011   2.906
 1159SOL    HW1 4376   4.066   7.001   2.851
 1159SOL    HW2 4377   3.916   0.042   2.846
 1160SOL     OW 4378   3.816   4.071   2.028
 1160SOL    HW1 4379   3.896   4.109   2.075
 1160SOL    HW2 4380   3.846   4.011   1.954
 1161SOL     OW 4381   5.087   0.424   5.225
 1161SOL    HW1 4382   5.077   0.330   5.191
 1161SOL    HW2 4383   5.018   0.441   5.296
 1162SOL     OW 4384   3.353   3.028   0.992
 1162SOL    HW1 4385   3.292   3.048   1.068
 1162SOL    HW2 4386   3.300   2.998   0.913
 1163SOL     OW 4387   5.029   2.476   1.607
 1163SOL    HW1 4388   4.989   2.463   1.697
 1163SOL    HW2 4389   4.959   2.512   1.545
 1164SOL     OW 4390   5.296   2.851   3.074
 1164SOL    HW1 4391   5.297   2.927   3.008
 1164SOL    HW2 4392   5.356   2.778   3.042
 1165SOL     OW 4393   1.133   3.473   4.141
 1165SOL    HW1 4394   1.107   3.466   4.045
 1165SOL    HW2 4395   1.188   3.393   4.167
 1166SOL     OW 4396   4.265   1.861   6.378
 1166SOL    HW1 4397   4.216   1.818   6.302
 1166SOL    HW2 4398   4.291   1.954   6.352
 1167SOL     OW 4399   3.727   0.291   5.376
 1167SOL    HW1 4400   3.725   0.364   5.444
 1167SOL    HW2 4401   3.786   0.217   5.407
 1168SOL     OW 4402   6.217   6.948   2.937
 1168SOL    HW1 4403   6.143   7.015   2.925
 1168SOL    HW2 4404   6.180   6.856   2.926
 1169SOL     OW 4405   0.073   3.145   0.450
 1169SOL    HW1 4406   0.077   3.245   0.455
 1169SOL    HW2 4407   0.060   3.107   0.542
 1170SOL     OW 4408   3.634   1.115   2.146
 1170SOL    HW1 4409   3.568   1.103   2.220
 1170SOL    HW2 4410   3.625   1.040   2.081
 1171SOL     OW 4411   2.899   5.941   1.060
 1171SOL    HW1 4412   2.928   5.978   0.971
 1171SOL    HW2 4413   2.864   5.849   1.048
 1172SOL     OW 4414   3.738   3.860   3.738
 1172SOL    HW1 4415   3.660   3.799   3.724
 1172SOL    HW2 4416   3.821   3.805   3.748
 1173SOL     OW 4417   3.545   0.220   5.638
 1173SOL    HW1 4418   3.486   0.288   5.593
 1173SOL    HW2 4419   3.567   0.148   5.573
 1174SOL     OW 4420   2.642   5.671   0.684
 1174SOL    HW1 4421   2.550   5.705   0.666
 1174SOL    HW2 4422   2.667   5.603   0.615
 1175SOL     OW 4423   5.999   4.934   0.132
 1175SOL    HW1 4424   6.043   4.902   0.216
 1175SOL    HW2 4425   5.903   4.908   0.132
 1176SOL     OW 4426   5.922   5.203   0.891
 1176SOL    HW1 4427   5.993   5.195   0.821
 1176SOL    HW2 4428   5.880   5.293   0.887
 1177SOL     OW 4429   0.046   2.699   5.325
 1177SOL    HW1 4430   0.104   2.647   5.388
 1177SOL    HW2 4431   6.973   2.694   5.355
 1178SOL     OW 4432   4.797   4.147   2.407
 1178SOL    HW1 4433   4.737   4.214   2.363
 1178SOL    HW2 4434   4.785   4.058   2.363
 1179SOL     OW 4435   1.816   4.241   0.659
 1179SOL    HW1 4436   1.832   4.257   0.756
 1179SOL    HW2 4437   1.876   4.300   0.605
 1180SOL     OW 4438   2.226   1.150   3.573
 1180SOL    HW1 4439   2.219   1.250   3.568
 1180SOL    HW2 4440   2.292   1.117   3.506
 1181SOL     OW 4441   0.972   4.747   4.534
 1181SOL    HW1 4442   0.912   4.812   4.582
 1181SOL    HW2 4443   1.009   4.790   4.452
 1182SOL     OW 4444   2.275   4.309   3.510
 1182SOL    HW1 4445   2.188   4.269   3.538
 1182SOL    HW2 4446   2.289   4.295   3.412
 1183SOL     OW 4447   4.465   5.585   1.645
 1183SOL    HW1 4448   4.488   5.502   1.594
 1183SOL    HW2 4449   4.543   5.647   1.645
 1184SOL     OW 4450   3.447   3.198   5.558
 1184SOL    HW1 4451   3.459   3.099   5.563
 1184SOL    HW2 4452   3.377   3.227   5.624
 1185SOL     OW 4453   2.366   0.601   0.251
 1185SOL    HW1 4454   2.425   0.574   0.175
 1185SOL    HW2 4455   2.370   0.530   0.323
 1186SOL     OW 4456   6.257   0.230   5.344
 1186SOL    HW1 4457   6.159   0.247   5.333
 1186SOL    HW2 4458   6.303   0.243   5.257
 1187SOL     OW 4459   5.284   5.811   4.532
 1187SOL    HW1 4460   5.268   5.751   4.454
 1187SOL    HW2 4461   5.221   5.786   4.606
 1188SOL     OW 4462   2.875   6.596   6.048
 1188SOL    HW1 4463   2.803   6.566   6.110
 1188SOL    HW2 4464   2.895   6.524   5.982
 1189SOL     OW 4465   5.364   1.774   2.237
 1189SOL    HW1 4466   5.280   1.822   2.212
 1189SOL    HW2 4467   5.342   1.678   2.259
 1190SOL     OW 4468   3.858   5.399   3.405
 1190SOL    HW1 4469   3.891   5.410   3.499
 1190SOL    HW2 4470   3.936   5.392   3.343
 1191SOL     OW 4471   3.756   5.360   6.084
 1191SOL    HW1 4472   3.850   5.327   6.096
 1191SOL    HW2 4473   3.692   5.287   6.105
 1192SOL     OW 4474   5.431   4.421   3.299
 1192SOL    HW1 4475   5.526   4.421   3.328
 1192SOL    HW2 4476   5.421   4.475   3.216
 1193SOL     OW 4477   5.373   0.005   4.538
 1193SOL    HW1 4478   5.298   0.054   4.580
 1193SOL    HW2 4479   5.341   6.938   4.506
 1194SOL     OW 4480   6.747   0.625   0.665
 1194SOL    HW1 4481   6.720   0.718   0.641
 1194SOL    HW2 4482   6.724   0.606   0.760
 1195SOL     OW 4483   6.330   1.389   6.341
 1195SOL    HW1 4484   6.276   1.329   6.282
 1195SOL    HW2 4485   6.409   1.340   6.376
 1196SOL     OW 4486   0.393   4.943   2.228
 1196SOL    HW1 4487   0.433   5.034   2.232
 1196SOL    HW2 4488   0.323   4.940   2.157
 1197SOL     OW 4489   3.867   5.887   5.390
 1197SOL    HW1 4490   3.907   5.801   5.422
 1197SOL    HW2 4491   3.888   5.960   5.456
 1198SOL     OW 4492   2.790   2.312   2.311
 1198SOL    HW1 4493   2.741   2.225   2.304
 1198SOL    HW2 4494   2.824   2.338   2.220
 1199SOL     OW 4495   3.433   4.118   2.600
 1199SOL    HW1 4496   3.526   4.156   2.604
 1199SOL    HW2 4497   3.438   4.018   2.602
 1200SOL     OW 4498   4.304   3.887   5.306
 1200SOL    HW1 4499   4.375   3.958   5.303
 1200SOL    HW2 4500   4.215   3.930   5.324
 1201SOL     OW 4501   1.600   1.726   4.982
 1201SOL    HW1 4502   1.545   1.739   4.900
 1201SOL    HW2 4503   1.673   1.660   4.963
 1202SOL     OW 4504   5.565   6.950   6.066
 1202SOL    HW1 4505   5.530   6.978   6.156
 1202SOL    HW2 4506   5.488   6.941   6.002
 1203SOL     OW 4507   5.516   0.395   1.245
 1203SOL    HW1 4508   5.447   0.335   1.202
 1203SOL    HW2 4509   5.584   0.422   1.176
 1204SOL     OW 4510   3.535   1.172   0.607
 1204SOL    HW1 4511   3.525   1.233   0.528
 1204SOL    HW2 4512   3.473   1.094   0.596
 1205SOL     OW 4513   5.816   2.573   6.714
 1205SOL    HW1 4514   5.906   2.538   6.688
 1205SOL    HW2 4515   5.815   2.672   6.703
 1206SOL     OW 4516   1.834   1.627   4.931
 1206SOL    HW1 4517   1.863   1.586   5.017
 1206SOL    HW2 4518   1.900   1.606   4.860
 1207SOL     OW 4519   6.699   6.421   0.431
 1207SOL    HW1 4520   6.706   6.517   0.458
 1207SOL    HW2 4521   6.696   6.415   0.331
 1208SOL     OW 4522   3.168   3.832   2.616
 1208SOL    HW1 4523   3.164   3.863   2.711
 1208SOL    HW2 4524   3.263   3.837   2.584
 1209SOL     OW 4525   6.497   5.528   5.356
 1209SOL    HW1 4526   6.477   5.430   5.360
 1209SOL    HW2 4527   6.509   5.563   5.448
 1210SOL     OW 4528   4.079   0.670   2.617
 1210SOL    HW1 4529   3.985   0.655   2.587
 1210SOL    HW2 4530   4.139   0.600   2.579
 1211SOL     OW 4531   1.346   3.393   3.738
 1211SOL    HW1 4532   1.382   3.309   3.698
 1211SOL    HW2 4533   1.390   3.472   3.696
 1212SOL     OW 4534   1.187   2.767   5.513
 1212SOL    HW1 4535   1.231   2.682   5.542
 1212SOL    HW2 4536   1.103   2.780   5.565
 1213SOL     OW 4537   6.537   2.780   4.850
 1213SOL    HW1 4538   6.445   2.810   4.827
 1213SOL    HW2 4539   6.596   2.788   4.769
 1214SOL     OW 4540   1.852   3.257   4.575
 1214SOL    HW1 4541   1.799   3.322   4.630
 1214SOL    HW2 4542   1.947   3.257   4.605
 1215SOL     OW 4543   2.283   4.299   2.643
 1215SOL    HW1 4544   2.215   4.360   2.601
 1215SOL    HW2 4545   2.373   4.343   2.640
 1216SOL     OW 4546   0.642   6.575   1.487
 1216SOL    HW1 4547   0.549   6.573   1.524
 1216SOL    HW2 4548   0.704   6.531   1.551
 1217SOL     OW 4549   0.895   6.164   6.914
 1217SOL    HW1 4550   0.959   6.125   6.847
 1217SOL    HW2 4551   0.865   6.093   6.977
 1218SOL     OW 4552   1.221   3.119   5.174
 1218SOL    HW1 4553   1.202   3.104   5.077
 1218SOL    HW2 4554   1.152   3.180   5.212
 1219SOL     OW 4555   4.736   4.719   0.417
 1219SOL    HW1 4556   4.715   4.634   0.463
 1219SOL    HW2 4557   4.778   4.783   0.482
 1220SOL     OW 4558   5.693   3.219   2.378
 1220SOL    HW1 4559   5.715   3.138   2.432
 1220SOL    HW2 4560   5.594   3.222   2.362
 1221SOL     OW 4561   5.855   3.753   0.245
 1221SOL    HW1 4562   5.770   3.733   0.198
 1221SOL    HW2 4563   5.932   3.741   0.183
 1222SOL     OW 4564   6.932   6.631   0.835
 1222SOL    HW1 4565   6.990   6.682   0.899
 1222SOL    HW2 4566   6.966   6.537   0.826
 1223SOL     OW 4567   5.837   0.399   6.798
 1223SOL    HW1 4568   5.811   0.321   6.740
 1223SOL    HW2 4569   5.910   0.450   6.753
 1224SOL     OW 4570   4.057   5.799   6.847
 1224SOL    HW1 4571   4.122   5.786   6.773
 1224SOL    HW2 4572   3.982   5.733   6.838
 1225SOL     OW 4573   3.988   1.611   1.163
 1225SOL    HW1 4574   3.904   1.662   1.184
 1225SOL    HW2 4575   3.995   1.533   1.225
 1226SOL     OW 4576   5.659   6.472   1.076
 1226SOL    HW1 4577   5.714   6.461   1.160
 1226SOL    HW2 4578   5.645   6.570   1.059
 1227SOL     OW 4579   5.812   4.679   5.471
 1227SOL    HW1 4580   5.751   4.612   5.428
 1227SOL    HW2 4581   5.906   4.645   5.469
 1228SOL     OW 4582   3.566   3.053   1.796
 1228SOL    HW1 4583   3.570   2.953   1.794
 1228SOL    HW2 4584   3.622   3.086   1.871
 1229SOL     OW 4585   1.069   6.692   2.010
 1229SOL    HW1 4586   1.097   6.643   2.092
 1229SOL    HW2 4587   1.097   6.788   2.017
 1230SOL     OW 4588   5.266   5.522   2.815
 1230SOL    HW1 4589   5.185   5.569   2.781
 1230SOL    HW2 4590   5.309   5.577   2.886
 1231SOL     OW 4591   2.124   2.865   6.125
 1231SOL    HW1 4592   2.108   2.822   6.035
 1231SOL    HW2 4593   2.061   2.825   6.192
 1232SOL     OW 4594   3.925   1.517   4.397
 1232SOL    HW1 4595   3.861   1.534   4.322
 1232SOL    HW2 4596   3.927   1.596   4.458
 1233SOL     OW 4597   1.549   4.755   3.698
 1233SOL    HW1 4598   1.515   4.841   3.661
 1233SOL    HW2 4599   1.493   4.680   3.665
 1234SOL     OW 4600   6.636   3.093   0.035
 1234SOL    HW1 4601   6.663   3.063   6.966
 1234SOL    HW2 4602   6.538   3.078   0.047
 1235SOL     OW 4603   6.138   4.849   0.339
 1235SOL    HW1 4604   6.080   4.848   0.421
 1235SOL    HW2 4605   6.220   4.795   0.356
 1236SOL     OW 4606   3.442   1.417   0.452
 1236SOL    HW1 4607   3.506   1.445   0.381
 1236SOL    HW2 4608   3.373   1.488   0.464
 1237SOL     OW 4609   1.423   0.532   4.526
 1237SOL    HW1 4610   1.461   0.523   4.434
 1237SOL    HW2 4611   1.388   0.625   4.538
 1238SOL     OW 4612   0.360   0.389   2.932
 1238SOL    HW1 4613   0.299   0.350   2.863
 1238SOL    HW2 4614   0.310   0.402   3.017
 1239SOL     OW 4615   0.099   5.228   4.264
 1239SOL    HW1 4616   0.021   5.192   4.315
 1239SOL    HW2 4617   0.145   5.153   4.216
 1240SOL     OW 4618   6.146   5.725   2.841
 1240SOL    HW1 4619   6.146   5.629   2.870
 1240SOL    HW2 4620   6.101   5.733   2.752
 1241SOL     OW 4621   6.935   5.393   4.162
 1241SOL    HW1 4622   7.020   5.352   4.195
 1241SOL    HW2 4623   6.880   5.323   4.117
 1242SOL     OW 4624   1.500   3.753   0.084
 1242SOL    HW1 4625   1.421   3.706   0.124
 1242SOL    HW2 4626   1.581   3.732   0.137
 1243SOL     OW 4627   0.796   3.256   5.772
 1243SOL    HW1 4628   0.859   3.233   5.846
 1243SOL    HW2 4629   0.706   3.218   5.791
 1244SOL     OW 4630   5.787   6.571   5.100
 1244SOL    HW1 4631   5.693   6.602   5.105
 1244SOL    HW2 4632   5.789   6.474   5.075
 1245SOL     OW 4633   5.275   5.594   1.068
 1245SOL    HW1 4634   5.297   5.687   1.037
 1245SOL    HW2 4635   5.281   5.532   0.990
 1246SOL     OW 4636   4.802   1.029   1.014
 1246SOL    HW1 4637   4.709   1.057   0.989
 1246SOL    HW2 4638   4.866   1.061   0.944
 1247SOL     OW 4639   0.071   6.662   3.798
 1247SOL    HW1 4640   7.007   6.690   3.841
 1247SOL    HW2 4641   0.117   6.743   3.761
 1248SOL     OW 4642   0.079   6.565   4.477
 1248SOL    HW1 4643   0.083   6.476   4.522
 1248SOL    HW2 4644   0.004   6.619   4.515
 1249SOL     OW 4645   0.624   4.408   1.514
 1249SOL    HW1 4646   0.544   4.359   1.546
 1249SOL    HW2 4647   0.695   4.343   1.485
 1250SOL     OW 4648   6.140   3.637   5.045
 1250SOL    HW1 4649   6.117   3.695   4.967
 1250SOL    HW2 4650   6.203   3.566   5.016
 1251SOL     OW 4651   2.046   1.412   3.153
 1251SOL    HW1 4652   2.027   1.385   3.059
 1251SOL    HW2 4653   2.134   1.375   3.182
 1252SOL     OW 4654   3.126   5.565   0.089
 1252SOL    HW1 4655   3.219   5.603   0.092
 1252SOL    HW2 4656   3.064   5.632   0.050
 1253SOL     OW 4657   3.101   0.453   0.967
 1253SOL    HW1 4658   3.050   0.538   0.980
 1253SOL    HW2 4659   3.186   0.471   0.919
 1254SOL     OW 4660   6.115   1.699   3.096
 1254SOL    HW1 4661   6.085   1.791   3.122
 1254SOL    HW2 4662   6.049   1.659   3.033
 1255SOL     OW 4663   5.786   2.741   4.929
 1255SOL    HW1 4664   5.827   2.721   4.840
 1255SOL    HW2 4665   5.781   2.657   4.983
 1256SOL     OW 4666   6.568   5.780   3.435
 1256SOL    HW1 4667   6.608   5.694   3.403
 1256SOL    HW2 4668   6.641   5.838   3.473
 1257SOL     OW 4669   0.898   4.591   3.681
 1257SOL    HW1 4670   0.940   4.665   3.733
 1257SOL    HW2 4671   0.840   4.536   3.742
 1258SOL     OW 4672   1.700   5.849   3.618
 1258SOL    HW1 4673   1.673   5.915   3.688
 1258SOL    HW2 4674   1.619   5.804   3.582
 1259SOL     OW 4675   4.555   0.493   5.358
 1259SOL    HW1 4676   4.516   0.535   5.441
 1259SOL    HW2 4677   4.483   0.449   5.306
 1260SOL     OW 4678   2.906   0.802   2.171
 1260SOL    HW1 4679   2.869   0.783   2.080
 1260SOL    HW2 4680   2.929   0.899   2.178
 1261SOL     OW 4681   0.183   3.994   6.799
 1261SOL    HW1 4682   0.123   3.999   6.878
 1261SOL    HW2 4683   0.128   3.979   6.716
 1262SOL     OW 4684   4.567   5.080   1.258
 1262SOL    HW1 4685   4.485   5.047   1.211
 1262SOL    HW2 4686   4.645   5.075   1.196
 1263SOL     OW 4687   6.538   2.063   1.133
 1263SOL    HW1 4688   6.546   2.163   1.138
 1263SOL    HW2 4689   6.551   2.033   1.038
 1264SOL     OW 4690   0.320   4.806   3.570
 1264SOL    HW1 4691   0.230   4.796   3.611
 1264SOL    HW2 4692   0.344   4.723   3.520
 1265SOL     OW 4693   0.580   4.103   4.045
 1265SOL    HW1 4694   0.505   4.120   4.109
 1265SOL    HW2 4695   0.622   4.190   4.019
 1266SOL     OW 4696   2.624   1.480   5.140
 1266SOL    HW1 4697   2.610   1.461   5.043
 1266SOL    HW2 4698   2.569   1.559   5.167
 1267SOL     OW 4699   7.013   5.656   2.705
 1267SOL    HW1 4700   0.038   5.605   2.633
 1267SOL    HW2 4701   6.990   5.747   2.671
 1268SOL     OW 4702   5.471   2.168   6.980
 1268SOL    HW1 4703   5.487   2.263   6.953
 1268SOL    HW2 4704   5.384   2.137   6.941
 1269SOL     OW 4705   6.523   6.525   5.282
 1269SOL    HW1 4706   6.594   6.559   5.220
 1269SOL    HW2 4707   6.498   6.598   5.347
 1270SOL     OW 4708   2.214   3.973   4.368
 1270SOL    HW1 4709   2.254   3.893   4.411
 1270SOL    HW2 4710   2.239   4.055   4.419
 1271SOL     OW 4711   3.361   2.141   3.157
 1271SOL    HW1 4712   3.288   2.183   3.103
 1271SOL    HW2 4713   3.321   2.094   3.236
 1272SOL     OW 4714   0.048   5.968   1.161
 1272SOL    HW1 4715   0.007   5.889   1.117
 1272SOL    HW2 4716   0.144   5.949   1.182
 1273SOL     OW 4717   2.100   3.987   0.399
 1273SOL    HW1 4718   2.023   4.042   0.431
 1273SOL    HW2 4719   2.066   3.909   0.346
 1274SOL     OW 4720   0.477   2.948   1.770
 1274SOL    HW1 4721   0.564   2.996   1.783
 1274SOL    HW2 4722   0.446   2.909   1.856
 1275SOL     OW 4723   4.382   0.909   3.641
 1275SOL    HW1 4724   4.399   0.990   3.696
 1275SOL    HW2 4725   4.433   0.916   3.555
 1276SOL     OW 4726   6.756   0.469   3.110
 1276SOL    HW1 4727   6.688   0.473   3.037
 1276SOL    HW2 4728   6.720   0.416   3.187
 1277SOL     OW 4729   0.622   1.154   5.018
 1277SOL    HW1 4730   0.674   1.236   4.992
 1277SOL    HW2 4731   0.663   1.113   5.099
 1278SOL     OW 4732   2.325   2.071   5.548
 1278SOL    HW1 4733   2.319   2.122   5.463
 1278SOL    HW2 4734   2.244   2.013   5.557
 1279SOL     OW 4735   2.436   0.063   0.855
 1279SOL    HW1 4736   2.349   0.017   0.839
 1279SOL    HW2 4737   2.464   0.050   0.950
 1280SOL     OW 4738   2.547   0.405   2.589
 1280SOL    HW1 4739   2.482   0.478   2.567
 1280SOL    HW2 4740   2.585   0.367   2.505
 1281SOL     OW 4741   0.816   5.936   3.274
 1281SOL    HW1 4742   0.746   5.972   3.212
 1281SOL    HW2 4743   0.778   5.860   3.326
 1282SOL     OW 4744   0.635   1.050   1.198
 1282SOL    HW1 4745   0.640   0.987   1.120
 1282SOL    HW2 4746   0.648   1.144   1.165
 1283SOL     OW 4747   5.583   3.754   5.253
 1283SOL    HW1 4748   5.647   3.731   5.325
 1283SOL    HW2 4749   5.490   3.758   5.291
 1284SOL     OW 4750   3.043   2.557   1.677
 1284SOL    HW1 4751   2.970   2.543   1.744
 1284SOL    HW2 4752   3.127   2.516   1.711
 1285SOL     OW 4753   5.930   3.429   6.493
 1285SOL    HW1 4754   5.860   3.417   6.423
 1285SOL    HW2 4755   5.955   3.526   6.499
 1286SOL     OW 4756   4.797   4.829   2.219
 1286SOL    HW1 4757   4.826   4.733   2.217
 1286SOL    HW2 4758   4.749   4.848   2.305
 1287SOL     OW 4759   5.937   4.680   6.712
 1287SOL    HW1 4760   6.017   4.707   6.659
 1287SOL    HW2 4761   5.861   4.659   6.650
 1288SOL     OW 4762   0.407   2.886   0.502
 1288SOL    HW1 4763   0.316   2.911   0.469
 1288SOL    HW2 4764   0.468   2.874   0.424
 1289SOL     OW 4765   0.191   5.978   1.540
 1289SOL    HW1 4766   0.237   5.911   1.481
 1289SOL    HW2 4767   0.094   5.980   1.518
 1290SOL     OW 4768   0.394   0.749   6.878
 1290SOL    HW1 4769   0.427   0.671   6.824
 1290SOL    HW2 4770   0.396   0.725   6.975
 1291SOL     OW 4771   2.095   4.899   6.245
 1291SOL    HW1 4772   2.116   4.895   6.148
 1291SOL    HW2 4773   2.165   4.848   6.296
 1292SOL     OW 4774   6.665   4.474   2.051
 1292SOL    HW1 4775   6.728   4.531   2.104
 1292SOL    HW2 4776   6.713   4.392   2.020
 1293SOL     OW 4777   2.676   1.158   6.043
 1293SOL    HW1 4778   2.723   1.108   5.970
 1293SOL    HW2 4779   2.600   1.210   6.003
 1294SOL     OW 4780   0.223   3.048   1.661
 1294SOL    HW1 4781   0.308   2.996   1.654
 1294SOL    HW2 4782   0.146   2.986   1.671
 1295SOL     OW 4783   6.189   3.845   2.630
 1295SOL    HW1 4784   6.224   3.767   2.682
 1295SOL    HW2 4785   6.247   3.861   2.551
 1296SOL     OW 4786   3.213   1.831   6.273
 1296SOL    HW1 4787   3.186   1.748   6.321
 1296SOL    HW2 4788   3.188   1.823   6.177
 1297SOL     OW 4789   5.734   1.573   5.907
 1297SOL    HW1 4790   5.744   1.671   5.922
 1297SOL    HW2 4791   5.672   1.557   5.830
 1298SOL     OW 4792   5.709   3.329   3.322
 1298SOL    HW1 4793   5.772   3.377   3.261
 1298SOL    HW2 4794   5.623   3.379   3.327
 1299SOL     OW 4795   1.899   4.198   3.240
 1299SOL    HW1 4796   1.960   4.121   3.256
 1299SOL    HW2 4797   1.912   4.266   3.313
 1300SOL     OW 4798   2.970   3.869   2.441
 1300SOL    HW1 4799   3.049   3.851   2.499
 1300SOL    HW2 4800   2.911   3.937   2.484
 1301SOL     OW 4801   1.117   6.301   2.267
 1301SOL    HW1 4802   1.195   6.332   2.322
 1301SOL    HW2 4803   1.115   6.353   2.182
 1302SOL     OW 4804   2.140   6.848   4.508
 1302SOL    HW1 4805   2.119   6.927   4.451
 1302SOL    HW2 4806   2.161   6.879   4.601
 1303SOL     OW 4807   4.108   1.025   0.992
 1303SOL    HW1 4808   4.158   0.939   1.002
 1303SOL    HW2 4809   4.173   1.101   1.000
 1304SOL     OW 4810   1.473   0.947   6.272
 1304SOL    HW1 4811   1.426   0.876   6.324
 1304SOL    HW2 4812   1.469   0.924   6.174
 1305SOL     OW 4813   5.709   5.653   5.163
 1305SOL    HW1 4814   5.733   5.561   5.133
 1305SOL    HW2 4815   5.713   5.715   5.085
 1306SOL     OW 4816   1.000   4.117   5.368
 1306SOL    HW1 4817   1.021   4.078   5.458
 1306SOL    HW2 4818   0.946   4.052   5.315
 1307SOL     OW 4819   1.674   3.057   4.667
 1307SOL    HW1 4820   1.733   3.000   4.724
 1307SOL    HW2 4821   1.726   3.137   4.636
 1308SOL     OW 4822   4.268   5.789   4.710
 1308SOL    HW1 4823   4.228   5.750   4.794
 1308SOL    HW2 4824   4.207   5.771   4.633
 1309SOL     OW 4825   5.469   3.380   5.392
 1309SOL    HW1 4826   5.446   3.284   5.406
 1309SOL    HW2 4827   5.540   3.387   5.321
 1310SOL     OW 4828   5.943   3.945   5.125
 1310SOL    HW1 4829   6.015   4.009   5.098
 1310SOL    HW2 4830   5.968   3.901   5.212
 1311SOL     OW 4831   5.928   6.584   4.294
 1311SOL    HW1 4832   5.840   6.628   4.279
 1311SOL    HW2 4833   5.927   6.492   4.256
 1312SOL     OW 4834   0.658   0.726   6.943
 1312SOL    HW1 4835   0.698   0.817   6.936
 1312SOL    HW2 4836   0.565   0.726   6.908
 1313SOL     OW 4837   2.703   5.744   5.513
 1313SOL    HW1 4838   2.665   5.815   5.454
 1313SOL    HW2 4839   2.663   5.655   5.488
 1314SOL     OW 4840   1.947   1.389   5.863
 1314SOL    HW1 4841   1.936   1.291   5.848
 1314SOL    HW2 4842   1.954   1.436   5.775
 1315SOL     OW 4843   1.077   1.066   0.674
 1315SOL    HW1 4844   1.122   1.080   0.586
 1315SOL    HW2 4845   1.110   0.980   0.714
 1316SOL     OW 4846   1.998   6.987   3.007
 1316SOL    HW1 4847   2.056   6.923   2.957
 1316SOL    HW2 4848   1.932   6.936   3.063
 1317SOL     OW 4849   0.685   4.627   4.640
 1317SOL    HW1 4850   0.593   4.662   4.655
 1317SOL    HW2 4851   0.744   4.700   4.605
 1318SOL     OW 4852   0.591   0.810   1.004
 1318SOL    HW1 4853   0.497   0.820   0.972
 1318SOL    HW2 4854   0.634   0.732   0.959
 1319SOL     OW 4855   6.135   1.436   0.078
 1319SOL    HW1 4856   6.109   1.374   0.152
 1319SOL    HW2 4857   6.233   1.452   0.080
 1320SOL     OW 4858   5.659   4.364   6.976
 1320SOL    HW1 4859   5.647   4.389   0.050
 1320SOL    HW2 4860   5.709   4.278   6.970
 1321SOL     OW 4861   4.487   2.800   6.992
 1321SOL    HW1 4862   4.535   2.739   6.930
 1321SOL    HW2 4863   4.411   2.751   0.013
 1322SOL     OW 4864   5.305   1.424   2.993
 1322SOL    HW1 4865   5.264   1.333   2.990
 1322SOL    HW2 4866   5.398   1.420   2.956
 1323SOL     OW 4867   5.506   1.503   5.305
 1323SOL    HW1 4868   5.552   1.587   5.334
 1323SOL    HW2 4869   5.544   1.425   5.355
 1324SOL     OW 4870   1.694   2.283   2.057
 1324SOL    HW1 4871   1.793   2.270   2.059
 1324SOL    HW2 4872   1.650   2.217   2.119
 1325SOL     OW 4873   2.335   0.235   2.784
 1325SOL    HW1 4874   2.375   0.213   2.695
 1325SOL    HW2 4875   2.407   0.268   2.845
 1326SOL     OW 4876   4.807   2.910   4.548
 1326SOL    HW1 4877   4.778   2.895   4.454
 1326SOL    HW2 4878   4.894   2.959   4.548
 1327SOL     OW 4879   2.544   5.445   2.831
 1327SOL    HW1 4880   2.643   5.446   2.845
 1327SOL    HW2 4881   2.520   5.372   2.768
 1328SOL     OW 4882   0.972   2.111   0.039
 1328SOL    HW1 4883   0.951   2.163   6.979
 1328SOL    HW2 4884   1.063   2.071   0.031
 1329SOL     OW 4885   6.527   1.490   1.108
 1329SOL    HW1 4886   6.546   1.424   1.035
 1329SOL    HW2 4887   6.435   1.526   1.097
 1330SOL     OW 4888   6.587   6.752   0.862
 1330SOL    HW1 4889   6.588   6.656   0.833
 1330SOL    HW2 4890   6.533   6.760   0.946
 1331SOL     OW 4891   5.075   1.867   3.144
 1331SOL    HW1 4892   5.106   1.813   3.066
 1331SOL    HW2 4893   5.057   1.961   3.115
 1332SOL     OW 4894   3.579   0.583   1.212
 1332SOL    HW1 4895   3.647   0.538   1.269
 1332SOL    HW2 4896   3.623   0.623   1.131
 1333SOL     OW 4897   3.650   4.174   4.936
 1333SOL    HW1 4898   3.699   4.108   4.994
 1333SOL    HW2 4899   3.707   4.255   4.922
 1334SOL     OW 4900   0.846   3.276   4.965
 1334SOL    HW1 4901   0.823   3.373   4.967
 1334SOL    HW2 4902   0.826   3.239   4.874
 1335SOL     OW 4903   2.061   6.726   2.836
 1335SOL    HW1 4904   2.059   6.629   2.859
 1335SOL    HW2 4905   1.973   6.754   2.797
 1336SOL     OW 4906   1.327   1.448   6.778
 1336SOL    HW1 4907   1.387   1.522   6.806
 1336SOL    HW2 4908   1.370   1.396   6.705
 1337SOL     OW 4909   1.375   2.587   5.278
 1337SOL    HW1 4910   1.384   2.548   5.186
 1337SOL    HW2 4911   1.347   2.683   5.270
 1338SOL     OW 4912   4.118   3.745   6.345
 1338SOL    HW1 4913   4.071   3.770   6.261
 1338SOL    HW2 4914   4.157   3.827   6.388
 1339SOL     OW 4915   0.004   4.893   6.534
 1339SOL    HW1 4916   6.952   4.852   6.586
 1339SOL    HW2 4917   0.090   4.846   6.556
 1340SOL     OW 4918   0.917   1.731   1.239
 1340SOL    HW1 4919   1.001   1.677   1.247
 1340SOL    HW2 4920   0.871   1.708   1.153
 1341SOL     OW 4921   4.126   1.124   5.150
 1341SOL    HW1 4922   4.167   1.082   5.069
 1341SOL    HW2 4923   4.195   1.134   5.221
 1342SOL     OW 4924   1.590   5.429   5.950
 1342SOL    HW1 4925   1.571   5.335   5.977
 1342SOL    HW2 4926   1.569   5.490   6.026
 1343SOL     OW 4927   3.659   6.758   2.320
 1343SOL    HW1 4928   3.669   6.792   2.413
 1343SOL    HW2 4929   3.712   6.815   2.258
 1344SOL     OW 4930   6.387   2.408   3.381
 1344SOL    HW1 4931   6.484   2.395   3.398
 1344SOL    HW2 4932   6.338   2.412   3.468
 1345SOL     OW 4933   0.751   1.405   3.561
 1345SOL    HW1 4934   0.823   1.461   3.602
 1345SOL    HW2 4935   0.666   1.458   3.555
 1346SOL     OW 4936   1.121   6.858   2.830
 1346SOL    HW1 4937   1.054   6.931   2.842
 1346SOL    HW2 4938   1.080   6.783   2.779
 1347SOL     OW 4939   6.053   6.525   3.657
 1347SOL    HW1 4940   6.077   6.573   3.573
 1347SOL    HW2 4941   6.004   6.587   3.718
 1348SOL     OW 4942   5.766   5.403   3.571
 1348SOL    HW1 4943   5.736   5.457   3.649
 1348SOL    HW2 4944   5.837   5.339   3.600
 1349SOL     OW 4945   4.967   3.018   6.680
 1349SOL    HW1 4946   4.993   3.112   6.660
 1349SOL    HW2 4947   4.867   3.010   6.674
 1350SOL     OW 4948   3.546   4.903   6.908
 1350SOL    HW1 4949   3.527   4.984   6.852
 1350SOL    HW2 4950   3.460   4.860   6.933
 1351SOL     OW 4951   1.092   0.922   2.726
 1351SOL    HW1 4952   1.112   0.912   2.628
 1351SOL    HW2 4953   1.139   0.851   2.777
 1352SOL     OW 4954   7.003   6.838   3.518
 1352SOL    HW1 4955   0.019   6.918   3.565
 1352SOL    HW2 4956   0.038   6.814   3.441
 1353SOL     OW 4957   6.702   4.601   5.697
 1353SOL    HW1 4958   6.610   4.594   5.657
 1353SOL    HW2 4959   6.767   4.631   5.627
 1354SOL     OW 4960   6.795   1.162   0.907
 1354SOL    HW1 4961   6.843   1.146   0.994
 1354SOL    HW2 4962   6.857   1.142   0.831
 1355SOL     OW 4963   5.144   3.853   0.353
 1355SOL    HW1 4964   5.170   3.910   0.275
 1355SOL    HW2 4965   5.162   3.902   0.438
 1356SOL     OW 4966   3.848   4.039   3.519
 1356SOL    HW1 4967   3.843   3.977   3.598
 1356SOL    HW2 4968   3.755   4.055   3.484
 1357SOL     OW 4969   3.014   3.209   6.263
 1357SOL    HW1 4970   3.031   3.111   6.278
 1357SOL    HW2 4971   2.920   3.222   6.230
 1358SOL     OW 4972   2.329   2.763   6.332
 1358SOL    HW1 4973   2.298   2.792   6.422
 1358SOL    HW2 4974   2.280   2.815   6.262
 1359SOL     OW 4975   6.789   3.686   1.563
 1359SOL    HW1 4976   6.781   3.591   1.591
 1359SOL    HW2 4977   6.885   3.713   1.563
 1360SOL     OW 4978   4.011   3.776   2.366
 1360SOL    HW1 4979   3.953   3.696   2.349
 1360SOL    HW2 4980   4.057   3.803   2.282
 1361SOL     OW 4981   0.529   6.764   5.777
 1361SOL    HW1 4982   0.497   6.845   5.728
 1361SOL    HW2 4983   0.453   6.723   5.828
 1362SOL     OW 4984   3.049   3.273   5.524
 1362SOL    HW1 4985   3.035   3.178   5.496
 1362SOL    HW2 4986   3.133   3.281   5.578
 1363SOL     OW 4987   6.511   6.038   3.626
 1363SOL    HW1 4988   6.603   6.005   3.606
 1363SOL    HW2 4989   6.463   6.060   3.541
 1364SOL     OW 4990   6.962   2.770   0.520
 1364SOL    HW1 4991   6.979   2.856   0.569
 1364SOL    HW2 4992   0.008   2.702   0.547
 1365SOL     OW 4993   0.998   4.027   5.623
 1365SOL    HW1 4994   0.965   3.934   5.641
 1365SOL    HW2 4995   1.004   4.077   5.710
 1366SOL     OW 4996   0.321   3.227   1.182
 1366SOL    HW1 4997   0.256   3.173   1.236
 1366SOL    HW2 4998   0.394   3.167   1.149
 1367SOL     OW 4999   1.178   5.080   3.527
 1367SOL    HW1 5000   1.234   4.997   3.522
 1367SOL    HW2 5001   1.092   5.059   3.575
 1368SOL     OW 5002   6.765   6.627   3.920
 1368SOL    HW1 5003   6.756   6.561   3.994
 1368SOL    HW2 5004   6.756   6.720   3.956
 1369SOL     OW 5005   2.580   6.086   1.499
 1369SOL    HW1 5006   2.601   6.183   1.494
 1369SOL    HW2 5007   2.640   6.035   1.436
 1370SOL     OW 5008   0.305   1.901   4.034
 1370SOL    HW1 5009   0.295   1.833   3.961
 1370SOL    HW2 5010   0.233   1.888   4.102
 1371SOL     OW 5011   5.222   0.981   5.464
 1371SOL    HW1 5012   5.308   0.937   5.490
 1371SOL    HW2 5013   5.145   0.926   5.497
 1372SOL     OW 5014   6.221   2.438   0.762
 1372SOL    HW1 5015   6.174   2.478   0.683
 1372SOL    HW2 5016   6.308   2.485   0.776
 1373SOL     OW 5017   4.740   1.986   0.794
 1373SOL    HW1 5018   4.802   1.953   0.865
 1373SOL    HW2 5019   4.751   2.085   0.783
 1374SOL     OW 5020   5.407   4.124   0.490
 1374SOL    HW1 5021   5.428   4.066   0.412
 1374SOL    HW2 5022   5.323   4.092   0.534
 1375SOL     OW 5023   0.092   6.088   5.933
 1375SOL    HW1 5024   0.116   6.100   5.836
 1375SOL    HW2 5025   0.053   5.997   5.947
 1376SOL     OW 5026   3.073   4.748   6.097
 1376SOL    HW1 5027   3.003   4.753   6.026
 1376SOL    HW2 5028   3.161   4.727   6.055
 1377SOL     OW 5029   1.246   2.471   4.293
 1377SOL    HW1 5030   1.336   2.482   4.251
 1377SOL    HW2 5031   1.249   2.503   4.388
 1378SOL     OW 5032   4.536   2.492   4.759
 1378SOL    HW1 5033   4.455   2.482   4.817
 1378SOL    HW2 5034   4.561   2.589   4.752
 1379SOL     OW 5035   5.126   5.990   2.487
 1379SOL    HW1 5036   5.032   6.015   2.509
 1379SOL    HW2 5037   5.184   6.005   2.567
 1380SOL     OW 5038   6.763   6.253   2.523
 1380SOL    HW1 5039   6.705   6.273   2.602
 1380SOL    HW2 5040   6.751   6.157   2.497
 1381SOL     OW 5041   5.524   2.172   6.650
 1381SOL    HW1 5042   5.595   2.231   6.610
 1381SOL    HW2 5043   5.549   2.076   6.636
 1382SOL     OW 5044   4.957   3.528   1.908
 1382SOL    HW1 5045   4.940   3.430   1.898
 1382SOL    HW2 5046   4.937   3.575   1.822
 1383SOL     OW 5047   1.028   6.299   1.648
 1383SOL    HW1 5048   1.058   6.234   1.578
 1383SOL    HW2 5049   0.986   6.249   1.724
 1384SOL     OW 5050   4.301   6.949   1.065
 1384SOL    HW1 5051   4.245   6.966   0.984
 1384SOL    HW2 5052   4.258   6.991   1.145
 1385SOL     OW 5053   2.347   5.002   3.640
 1385SOL    HW1 5054   2.349   5.102   3.639
 1385SOL    HW2 5055   2.435   4.966   3.670
 1386SOL     OW 5056   3.200   6.510   3.132
 1386SOL    HW1 5057   3.147   6.566   3.194
 1386SOL    HW2 5058   3.151   6.424   3.114
 1387SOL     OW 5059   3.186   6.218   2.015
 1387SOL    HW1 5060   3.098   6.231   1.969
 1387SOL    HW2 5061   3.260   6.234   1.950
 1388SOL     OW 5062   6.490   6.238   1.146
 1388SOL    HW1 5063   6.451   6.321   1.106
 1388SOL    HW2 5064   6.549   6.263   1.223
 1389SOL     OW 5065   5.730   1.810   3.242
 1389SOL    HW1 5066   5.819   1.844   3.212
 1389SOL    HW2 5067   5.704   1.853   3.329
 1390SOL     OW 5068   0.083   4.038   0.036
 1390SOL    HW1 5069   0.167   4.002   0.077
 1390SOL    HW2 5070   0.028   4.082   0.107
 1391SOL     OW 5071   6.498   0.291   4.112
 1391SOL    HW1 5072   6.536   0.279   4.021
 1391SOL    HW2 5073   6.519   0.382   4.146
 1392SOL     OW 5074   5.114   5.688   6.200
 1392SOL    HW1 5075   5.092   5.767   6.143
 1392SOL    HW2 5076   5.204   5.701   6.241
 1393SOL     OW 5077   6.245   5.066   4.821
 1393SOL    HW1 5078   6.341   5.042   4.810
 1393SOL    HW2 5079   6.226   5.153   4.775
 1394SOL     OW 5080   3.019   5.902   4.989
 1394SOL    HW1 5081   3.006   5.831   5.058
 1394SOL    HW2 5082   2.983   5.870   4.901
 1395SOL     OW 5083   2.557   4.118   6.384
 1395SOL    HW1 5084   2.632   4.182   6.367
 1395SOL    HW2 5085   2.561   4.044   6.317
 1396SOL     OW 5086   1.977   0.845   4.819
 1396SOL    HW1 5087   2.068   0.845   4.776
 1396SOL    HW2 5088   1.950   0.750   4.838
 1397SOL     OW 5089   0.271   0.247   3.967
 1397SOL    HW1 5090   0.239   0.155   3.988
 1397SOL    HW2 5091   0.224   0.281   3.886
 1398SOL     OW 5092   2.421   0.897   5.955
 1398SOL    HW1 5093   2.372   0.957   6.018
 1398SOL    HW2 5094   2.382   0.905   5.863
 1399SOL     OW 5095   3.921   6.667   0.733
 1399SOL    HW1 5096   4.004   6.698   0.687
 1399SOL    HW2 5097   3.931   6.680   0.832
 1400SOL     OW 5098   6.550   1.611   3.075
 1400SOL    HW1 5099   6.512   1.660   2.996
 1400SOL    HW2 5100   6.646   1.637   3.087
 1401SOL     OW 5101   0.086   1.876   4.807
 1401SOL    HW1 5102   0.043   1.899   4.895
 1401SOL    HW2 5103   0.075   1.953   4.744
 1402SOL     OW 5104   0.583   4.225   0.365
 1402SOL    HW1 5105   0.591   4.246   0.267
 1402SOL    HW2 5106   0.587   4.311   0.417
 1403SOL     OW 5107   3.161   1.887   1.627
 1403SOL    HW1 5108   3.120   1.893   1.718
 1403SOL    HW2 5109   3.099   1.928   1.559
 1404SOL     OW 5110   5.139   6.852   6.887
 1404SOL    HW1 5111   5.200   6.793   6.834
 1404SOL    HW2 5112   5.066   6.886   6.829
 1405SOL     OW 5113   2.082   3.820   1.235
 1405SOL    HW1 5114   1.986   3.802   1.254
 1405SOL    HW2 5115   2.124   3.737   1.197
 1406SOL     OW 5116   1.543   5.600   1.248
 1406SOL    HW1 5117   1.447   5.597   1.277
 1406SOL    HW2 5118   1.547   5.584   1.149
 1407SOL     OW 5119   0.642   2.188   1.968
 1407SOL    HW1 5120   0.600   2.097   1.966
 1407SOL    HW2 5121   0.734   2.181   2.007
 1408SOL     OW 5122   5.222   1.209   5.750
 1408SOL    HW1 5123   5.319   1.207   5.728
 1408SOL    HW2 5124   5.200   1.133   5.812
 1409SOL     OW 5125   0.319   0.142   4.981
 1409SOL    HW1 5126   0.387   0.070   4.991
 1409SOL    HW2 5127   0.277   0.162   5.070
 1410SOL     OW 5128   2.196   3.607   6.616
 1410SOL    HW1 5129   2.197   3.541   6.542
 1410SOL    HW2 5130   2.278   3.664   6.611
 1411SOL     OW 5131   2.644   6.604   2.372
 1411SOL    HW1 5132   2.586   6.602   2.453
 1411SOL    HW2 5133   2.698   6.520   2.368
 1412SOL     OW 5134   0.306   2.043   1.000
 1412SOL    HW1 5135   0.265   2.104   1.068
 1412SOL    HW2 5136   0.241   1.969   0.979
 1413SOL     OW 5137   1.951   1.226   5.082
 1413SOL    HW1 5138   2.002   1.188   5.159
 1413SOL    HW2 5139   1.854   1.204   5.093
 1414SOL     OW 5140   2.627   0.924   1.426
 1414SOL    HW1 5141   2.668   1.002   1.379
 1414SOL    HW2 5142   2.538   0.951   1.464
 1415SOL     OW 5143   2.834   0.680   4.581
 1415SOL    HW1 5144   2.837   0.760   4.522
 1415SOL    HW2 5145   2.807   0.708   4.673
 1416SOL     OW 5146   4.436   4.627   4.352
 1416SOL    HW1 5147   4.506   4.556   4.351
 1416SOL    HW2 5148   4.439   4.675   4.440
 1417SOL     OW 5149   2.813   1.390   6.923
 1417SOL    HW1 5150   2.744   1.462   6.918
 1417SOL    HW2 5151   2.793   1.319   6.854
 1418SOL     OW 5152   2.949   3.388   3.811
 1418SOL    HW1 5153   2.989   3.425   3.727
 1418SOL    HW2 5154   2.875   3.325   3.787
 1419SOL     OW 5155   2.500   6.606   4.770
 1419SOL    HW1 5156   2.445   6.598   4.854
 1419SOL    HW2 5157   2.472   6.688   4.720
 1420SOL     OW 5158   2.328   0.119   1.547
 1420SOL    HW1 5159   2.246   0.120   1.489
 1420SOL    HW2 5160   2.332   0.034   1.598
 1421SOL     OW 5161   1.865   3.399   3.234
 1421SOL    HW1 5162   1.937   3.331   3.218
 1421SOL    HW2 5163   1.845   3.404   3.332
 1422SOL     OW 5164   2.098   3.778   1.730
 1422SOL    HW1 5165   2.196   3.781   1.713
 1422SOL    HW2 5166   2.073   3.851   1.794
 1423SOL     OW 5167   5.349   6.416   3.045
 1423SOL    HW1 5168   5.349   6.491   3.111
 1423SOL    HW2 5169   5.377   6.332   3.090
 1424SOL     OW 5170   7.019   4.339   5.223
 1424SOL    HW1 5171   0.060   4.281   5.171
 1424SOL    HW2 5172   6.938   4.357   5.168
 1425SOL     OW 5173   0.954   6.700   4.351
 1425SOL    HW1 5174   0.883   6.771   4.356
 1425SOL    HW2 5175   1.036   6.733   4.398
 1426SOL     OW 5176   0.830   2.058   6.159
 1426SOL    HW1 5177   0.815   1.961   6.175
 1426SOL    HW2 5178   0.842   2.105   6.247
 1427SOL     OW 5179   0.287   6.994   3.398
 1427SOL    HW1 5180   0.383   6.982   3.373
 1427SOL    HW2 5181   0.229   6.951   3.329
 1428SOL     OW 5182   5.353   2.649   0.617
 1428SOL    HW1 5183   5.418   2.684   0.549
 1428SOL    HW2 5184   5.344   2.716   0.692
 1429SOL     OW 5185   5.604   1.980   0.327
 1429SOL    HW1 5186   5.575   1.884   0.328
 1429SOL    HW2 5187   5.566   2.028   0.406
 1430SOL     OW 5188   1.970   4.999   4.345
 1430SOL    HW1 5189   1.891   5.031   4.292
 1430SOL    HW2 5190   1.956   5.021   4.442
 1431SOL     OW 5191   2.275   1.849   0.441
 1431SOL    HW1 5192   2.267   1.785   0.366
 1431SOL    HW2 5193   2.192   1.848   0.496
 1432SOL     OW 5194   3.623   1.424   2.925
 1432SOL    HW1 5195   3.660   1.441   3.016
 1432SOL    HW2 5196   3.533   1.466   2.916
 1433SOL     OW 5197   4.346   1.608   4.503
 1433SOL    HW1 5198   4.392   1.565   4.581
 1433SOL    HW2 5199   4.345   1.545   4.425
 1434SOL     OW 5200   0.012   0.810   6.096
 1434SOL    HW1 5201   0.057   0.742   6.154
 1434SOL    HW2 5202   0.029   0.788   6.000
 1435SOL     OW 5203   6.030   0.372   2.396
 1435SOL    HW1 5204   6.015   0.276   2.372
 1435SOL    HW2 5205   5.979   0.430   2.333
 1436SOL     OW 5206   5.866   3.933   0.594
 1436SOL    HW1 5207   5.881   3.939   0.496
 1436SOL    HW2 5208   5.816   4.013   0.626
 1437SOL     OW 5209   2.416   2.422   3.419
 1437SOL    HW1 5210   2.495   2.420   3.480
 1437SOL    HW2 5211   2.332   2.410   3.473
 1438SOL     OW 5212   3.116   6.693   1.253
 1438SOL    HW1 5213   3.182   6.734   1.191
 1438SOL    HW2 5214   3.089   6.759   1.322
 1439SOL     OW 5215   6.775   5.722   1.279
 1439SOL    HW1 5216   6.763   5.773   1.364
 1439SOL    HW2 5217   6.685   5.693   1.246
 1440SOL     OW 5218   3.080   3.665   0.216
 1440SOL    HW1 5219   3.160   3.697   0.166
 1440SOL    HW2 5220   3.103   3.582   0.267
 1441SOL     OW 5221   5.982   0.829   2.933
 1441SOL    HW1 5222   6.058   0.784   2.884
 1441SOL    HW2 5223   6.003   0.926   2.943
 1442SOL     OW 5224   7.015   5.627   6.901
 1442SOL    HW1 5225   0.027   5.536   6.925
 1442SOL    HW2 5226   6.920   5.635   6.929
 1443SOL     OW 5227   0.479   2.634   2.347
 1443SOL    HW1 5228   0.489   2.637   2.248
 1443SOL    HW2 5229   0.445   2.543   2.374
 1444SOL     OW 5230   5.320   6.128   0.798
 1444SOL    HW1 5231   5.376   6.211   0.796
 1444SOL    HW2 5232   5.227   6.151   0.767
 1445SOL     OW 5233   0.909   2.994   2.171
 1445SOL    HW1 5234   0.827   3.041   2.139
 1445SOL    HW2 5235   0.984   3.060   2.178
 1446SOL     OW 5236   5.799   1.067   6.558
 1446SOL    HW1 5237   5.899   1.068   6.564
 1446SOL    HW2 5238   5.760   1.077   6.649
 1447SOL     OW 5239   5.778   5.931   4.146
 1447SOL    HW1 5240   5.873   5.949   4.172
 1447SOL    HW2 5241   5.718   6.001   4.186
 1448SOL     OW 5242   6.654   2.930   5.298
 1448SOL    HW1 5243   6.624   2.875   5.376
 1448SOL    HW2 5244   6.749   2.957   5.310
 1449SOL     OW 5245   1.642   4.086   5.657
 1449SOL    HW1 5246   1.613   4.002   5.612
 1449SOL    HW2 5247   1.576   4.159   5.639
 1450SOL     OW 5248   0.861   1.867   7.011
 1450SOL    HW1 5249   0.796   1.870   0.064
 1450SOL    HW2 5250   0.922   1.946   7.017
 1451SOL     OW 5251   1.341   6.485   2.123
 1451SOL    HW1 5252   1.291   6.439   2.050
 1451SOL    HW2 5253   1.397   6.558   2.085
 1452SOL     OW 5254   4.363   2.784   5.320
 1452SOL    HW1 5255   4.371   2.794   5.419
 1452SOL    HW2 5256   4.312   2.862   5.283
 1453SOL     OW 5257   0.551   4.306   6.063
 1453SOL    HW1 5258   0.535   4.207   6.065
 1453SOL    HW2 5259   0.639   4.325   6.020
 1454SOL     OW 5260   1.294   2.128   1.863
 1454SOL    HW1 5261   1.391   2.136   1.843
 1454SOL    HW2 5262   1.243   2.123   1.777
 1455SOL     OW 5263   1.772   6.819   2.255
 1455SOL    HW1 5264   1.755   6.866   2.341
 1455SOL    HW2 5265   1.838   6.871   2.201
 1456SOL     OW 5266   6.471   0.007   6.023
 1456SOL    HW1 5267   6.406   0.012   6.099
 1456SOL    HW2 5268   6.561   7.003   6.058
 1457SOL     OW 5269   1.099   5.774   0.564
 1457SOL    HW1 5270   1.108   5.680   0.530
 1457SOL    HW2 5271   1.121   5.838   0.491
 1458SOL     OW 5272   6.211   5.102   5.396
 1458SOL    HW1 5273   6.244   5.087   5.303
 1458SOL    HW2 5274   6.113   5.084   5.400
 1459SOL     OW 5275   4.159   6.663   5.499
 1459SOL    HW1 5276   4.192   6.747   5.459
 1459SOL    HW2 5277   4.092   6.684   5.570
 1460SOL     OW 5278   1.832   6.797   5.099
 1460SOL    HW1 5279   1.868   6.890   5.085
 1460SOL    HW2 5280   1.738   6.803   5.132
 1461SOL     OW 5281   6.843   4.272   2.996
 1461SOL    HW1 5282   6.790   4.349   3.031
 1461SOL    HW2 5283   6.801   4.237   2.912
 1462SOL     OW 5284   1.128   0.895   6.640
 1462SOL    HW1 5285   1.136   0.878   6.541
 1462SOL    HW2 5286   1.192   0.967   6.667
 1463SOL     OW 5287   1.173   4.840   5.909
 1463SOL    HW1 5288   1.116   4.921   5.919
 1463SOL    HW2 5289   1.239   4.836   5.985
 1464SOL     OW 5290   6.601   5.213   2.261
 1464SOL    HW1 5291   6.701   5.212   2.265
 1464SOL    HW2 5292   6.566   5.126   2.297
 1465SOL     OW 5293   1.440   1.322   4.061
 1465SOL    HW1 5294   1.512   1.313   4.131
 1465SOL    HW2 5295   1.351   1.320   4.106
 1466SOL     OW 5296   3.724   1.848   2.125
 1466SOL    HW1 5297   3.658   1.924   2.129
 1466SOL    HW2 5298   3.797   1.864   2.191
 1467SOL     OW 5299   1.737   1.020   3.764
 1467SOL    HW1 5300   1.794   1.099   3.740
 1467SOL    HW2 5301   1.757   0.992   3.858
 1468SOL     OW 5302   2.090   5.857   2.159
 1468SOL    HW1 5303   2.004   5.908   2.169
 1468SOL    HW2 5304   2.105   5.836   2.063
 1469SOL     OW 5305   6.901   6.597   2.625
 1469SOL    HW1 5306   6.865   6.657   2.696
 1469SOL    HW2 5307   6.850   6.609   2.540
 1470SOL     OW 5308   0.230   1.490   2.108
 1470SOL    HW1 5309   0.242   1.508   2.010
 1470SOL    HW2 5310   0.272   1.402   2.131
 1471SOL     OW 5311   1.283   0.152   0.093
 1471SOL    HW1 5312   1.239   0.156   0.182
 1471SOL    HW2 5313   1.223   0.190   0.023
 1472SOL     OW 5314   3.402   5.628   0.505
 1472SOL    HW1 5315   3.398   5.599   0.410
 1472SOL    HW2 5316   3.311   5.659   0.534
 1473SOL     OW 5317   2.562   6.070   5.190
 1473SOL    HW1 5318   2.648   6.051   5.143
 1473SOL    HW2 5319   2.580   6.126   5.271
 1474SOL     OW 5320   4.595   4.292   1.413
 1474SOL    HW1 5321   4.550   4.246   1.336
 1474SOL    HW2 5322   4.668   4.233   1.449
 1475SOL     OW 5323   5.354   0.845   0.285
 1475SOL    HW1 5324   5.377   0.756   0.247
 1475SOL    HW2 5325   5.394   0.855   0.376
 1476SOL     OW 5326   2.317   1.230   1.241
 1476SOL    HW1 5327   2.339   1.197   1.333
 1476SOL    HW2 5328   2.397   1.277   1.203
 1477SOL     OW 5329   3.380   6.293   6.703
 1477SOL    HW1 5330   3.334   6.343   6.629
 1477SOL    HW2 5331   3.392   6.353   6.782
 1478SOL     OW 5332   6.372   5.323   5.148
 1478SOL    HW1 5333   6.318   5.370   5.218
 1478SOL    HW2 5334   6.383   5.383   5.068
 1479SOL     OW 5335   3.028   3.497   1.310
 1479SOL    HW1 5336   3.019   3.502   1.409
 1479SOL    HW2 5337   3.117   3.534   1.283
 1480SOL     OW 5338   3.012   0.045   4.420
 1480SOL    HW1 5339   2.996   6.974   4.452
 1480SOL    HW2 5340   3.054   0.043   4.330
 1481SOL     OW 5341   5.803   3.226   5.847
 1481SOL    HW1 5342   5.738   3.301   5.832
 1481SOL    HW2 5343   5.759   3.154   5.900
 1482SOL     OW 5344   4.799   0.845   1.442
 1482SOL    HW1 5345   4.842   0.924   1.398
 1482SOL    HW2 5346   4.791   0.770   1.376
 1483SOL     OW 5347   5.808   2.450   5.056
 1483SOL    HW1 5348   5.878   2.461   5.126
 1483SOL    HW2 5349   5.851   2.418   4.971
 1484SOL     OW 5350   4.719   4.545   3.857
 1484SOL    HW1 5351   4.816   4.554   3.835
 1484SOL    HW2 5352   4.678   4.636   3.867
 1485SOL     OW 5353   5.314   0.751   4.321
 1485SOL    HW1 5354   5.300   0.756   4.222
 1485SOL    HW2 5355   5.405   0.787   4.344
 1486SOL     OW 5356   4.962   0.646   3.137
 1486SOL    HW1 5357   5.031   0.577   3.116
 1486SOL    HW2 5358   4.989   0.694   3.220
 1487SOL     OW 5359   0.217   2.008   0.139
 1487SOL    HW1 5360   0.201   2.055   0.226
 1487SOL    HW2 5361   0.150   1.934   0.129
 1488SOL     OW 5362   4.588   0.207   3.290
 1488SOL    HW1 5363   4.536   0.253   3.219
 1488SOL    HW2 5364   4.666   0.263   3.317
 1489SOL     OW 5365   3.835   4.511   6.041
 1489SOL    HW1 5366   3.919   4.564   6.027
 1489SOL    HW2 5367   3.755   4.570   6.027
 1490SOL     OW 5368   0.282   3.366   0.725
 1490SOL    HW1 5369   0.350   3.411   0.667
 1490SOL    HW2 5370   0.204   3.339   0.669
 1491SOL     OW 5371   6.521   3.879   2.697
 1491SOL    HW1 5372   6.433   3.909   2.661
 1491SOL    HW2 5373   6.510   3.788   2.737
 1492SOL     OW 5374   6.101   0.047   2.543
 1492SOL    HW1 5375   6.015   0.016   2.584
 1492SOL    HW2 5376   6.092   0.048   2.443
 1493SOL     OW 5377   3.761   0.603   6.253
 1493SOL    HW1 5378   3.773   0.675   6.185
 1493SOL    HW2 5379   3.663   0.583   6.262
 1494SOL     OW 5380   6.190   2.700   6.659
 1494SOL    HW1 5381   6.113   2.751   6.621
 1494SOL    HW2 5382   6.156   2.632   6.724
 1495SOL     OW 5383   0.144   4.162   5.400
 1495SOL    HW1 5384   0.185   4.243   5.442
 1495SOL    HW2 5385   0.125   4.180   5.303
 1496SOL     OW 5386   1.324   0.396   0.266
 1496SOL    HW1 5387   1.241   0.396   0.321
 1496SOL    HW2 5388   1.375   0.312   0.282
 1497SOL     OW 5389   5.329   3.161   1.964
 1497SOL    HW1 5390   5.242   3.150   2.012
 1497SOL    HW2 5391   5.358   3.073   1.927
 1498SOL     OW 5392   2.697   4.734   0.818
 1498SOL    HW1 5393   2.761   4.661   0.793
 1498SOL    HW2 5394   2.607   4.694   0.838
 1499SOL     OW 5395   0.157   3.429   5.795
 1499SOL    HW1 5396   0.250   3.393   5.805
 1499SOL    HW2 5397   0.134   3.484   5.875
 1500SOL     OW 5398   0.400   6.771   7.008
 1500SOL    HW1 5399   0.431   6.797   0.078
 1500SOL    HW2 5400   0.310   6.727   7.015
 1501SOL     OW 5401   5.803   1.706   6.351
 1501SOL    HW1 5402   5.790   1.727   6.448
 1501SOL    HW2 5403   5.737   1.637   6.322
 1502SOL     OW 5404   4.990   1.298   6.763
 1502SOL    HW1 5405   4.990   1.209   6.808
 1502SOL    HW2 5406   5.022   1.368   6.828
 1503SOL     OW 5407   1.458   3.046   2.312
 1503SOL    HW1 5408   1.405   2.962   2.304
 1503SOL    HW2 5409   1.442   3.104   2.232
 1504SOL     OW 5410   0.781   6.847   3.418
 1504SOL    HW1 5411   0.779   6.751   3.446
 1504SOL    HW2 5412   0.838   6.900   3.481
 1505SOL     OW 5413   5.022   7.017   5.542
 1505SOL    HW1 5414   5.109   0.032   5.509
 1505SOL    HW2 5415   5.030   6.993   5.639
 1506SOL     OW 5416   1.251   6.727   0.221
 1506SOL    HW1 5417   1.335   6.734   0.165
 1506SOL    HW2 5418   1.193   6.806   0.203
 1507SOL     OW 5419   0.028   2.082   5.660
 1507SOL    HW1 5420   0.042   2.017   5.735
 1507SOL    HW2 5421   0.085   2.163   5.675
 1508SOL     OW 5422   6.425   1.365   1.747
 1508SOL    HW1 5423   6.475   1.430   1.690
 1508SOL    HW2 5424   6.327   1.383   1.739
 1509SOL     OW 5425   4.772   2.062   4.936
 1509SOL    HW1 5426   4.752   2.076   5.033
 1509SOL    HW2 5427   4.766   2.150   4.888
 1510SOL     OW 5428   5.732   6.980   4.550
 1510SOL    HW1 5429   5.656   6.985   4.615
 1510SOL    HW2 5430   5.805   6.922   4.589
 1511SOL     OW 5431   4.019   3.405   4.238
 1511SOL    HW1 5432   3.942   3.460   4.206
 1511SOL    HW2 5433   3.985   3.330   4.295
 1512SOL     OW 5434   6.216   5.816   1.537
 1512SOL    HW1 5435   6.250   5.742   1.595
 1512SOL    HW2 5436   6.290   5.881   1.520
 1513SOL     OW 5437   3.568   0.432   4.579
 1513SOL    HW1 5438   3.588   0.343   4.539
 1513SOL    HW2 5439   3.470   0.452   4.569
 1514SOL     OW 5440   4.274   2.623   5.988
 1514SOL    HW1 5441   4.234   2.653   5.901
 1514SOL    HW2 5442   4.286   2.702   6.048
 1515SOL     OW 5443   5.844   1.294   2.479
 1515SOL    HW1 5444   5.889   1.331   2.399
 1515SOL    HW2 5445   5.912   1.264   2.546
 1516SOL     OW 5446   5.513   5.284   5.609
 1516SOL    HW1 5447   5.587   5.216   5.605
 1516SOL    HW2 5448   5.549   5.373   5.580
 1517SOL     OW 5449   4.483   6.118   2.871
 1517SOL    HW1 5450   4.476   6.090   2.967
 1517SOL    HW2 5451   4.404   6.083   2.820
 1518SOL     OW 5452   6.692   2.897   0.551
 1518SOL    HW1 5453   6.756   2.820   0.550
 1518SOL    HW2 5454   6.644   2.898   0.639
 1519SOL     OW 5455   6.370   4.696   0.981
 1519SOL    HW1 5456   6.388   4.623   0.915
 1519SOL    HW2 5457   6.333   4.657   1.065
 1520SOL     OW 5458   0.557   4.829   1.637
 1520SOL    HW1 5459   0.564   4.776   1.552
 1520SOL    HW2 5460   0.562   4.768   1.715
 1521SOL     OW 5461   2.319   4.956   6.784
 1521SOL    HW1 5462   2.369   5.026   6.835
 1521SOL    HW2 5463   2.236   4.997   6.746
 1522SOL     OW 5464   6.441   5.346   4.716
 1522SOL    HW1 5465   6.465   5.436   4.753
 1522SOL    HW2 5466   6.342   5.333   4.721
 1523SOL     OW 5467   3.741   6.213   6.879
 1523SOL    HW1 5468   3.677   6.143   6.910
 1523SOL    HW2 5469   3.738   6.291   6.941
 1524SOL     OW 5470   2.645   1.686   2.447
 1524SOL    HW1 5471   2.663   1.607   2.507
 1524SOL    HW2 5472   2.655   1.658   2.352
 1525SOL     OW 5473   5.886   2.812   0.734
 1525SOL    HW1 5474   5.891   2.712   0.726
 1525SOL    HW2 5475   5.922   2.854   0.651
 1526SOL     OW 5476   0.072   1.147   0.198
 1526SOL    HW1 5477   0.134   1.110   0.129
 1526SOL    HW2 5478   7.005   1.104   0.188
 1527SOL     OW 5479   3.357   0.887   4.086
 1527SOL    HW1 5480   3.285   0.955   4.098
 1527SOL    HW2 5481   3.418   0.916   4.013
 1528SOL     OW 5482   4.406   4.790   2.031
 1528SOL    HW1 5483   4.473   4.856   2.066
 1528SOL    HW2 5484   4.322   4.797   2.085
 1529SOL     OW 5485   4.703   1.054   6.745
 1529SOL    HW1 5486   4.723   1.149   6.771
 1529SOL    HW2 5487   4.782   1.015   6.698
 1530SOL     OW 5488   3.554   1.418   1.706
 1530SOL    HW1 5489   3.505   1.504   1.715
 1530SOL    HW2 5490   3.584   1.387   1.796
 1531SOL     OW 5491   4.675   0.647   5.120
 1531SOL    HW1 5492   4.702   0.559   5.159
 1531SOL    HW2 5493   4.642   0.707   5.193
 1532SOL     OW 5494   3.716   4.119   5.851
 1532SOL    HW1 5495   3.622   4.142   5.825
 1532SOL    HW2 5496   3.728   4.020   5.847
 1533SOL     OW 5497   5.789   5.636   0.179
 1533SOL    HW1 5498   5.761   5.715   0.233
 1533SOL    HW2 5499   5.885   5.645   0.155
 1534SOL     OW 5500   3.188   5.957   6.052
 1534SOL    HW1 5501   3.199   6.006   5.965
 1534SOL    HW2 5502   3.217   6.016   6.127
 1535SOL     OW 5503   4.958   5.604   4.454
 1535SOL    HW1 5504   5.025   5.639   4.387
 1535SOL    HW2 5505   4.955   5.666   4.532
 1536SOL     OW 5506   4.272   5.004   6.494
 1536SOL    HW1 5507   4.272   4.904   6.495
 1536SOL    HW2 5508   4.187   5.036   6.451
 1537SOL     OW 5509   4.456   6.096   4.129
 1537SOL    HW1 5510   4.357   6.084   4.120
 1537SOL    HW2 5511   4.503   6.018   4.087
 1538SOL     OW 5512   3.689   6.668   6.616
 1538SOL    HW1 5513   3.597   6.707   6.622
 1538SOL    HW2 5514   3.684   6.569   6.623
 1539SOL     OW 5515   4.981   3.661   2.128
 1539SOL    HW1 5516   4.977   3.616   2.217
 1539SOL    HW2 5517   4.983   3.592   2.055
 1540SOL     OW 5518   0.415   6.886   5.391
 1540SOL    HW1 5519   0.353   6.919   5.320
 1540SOL    HW2 5520   0.420   6.786   5.386
 1541SOL     OW 5521   3.403   3.017   4.154
 1541SOL    HW1 5522   3.312   3.023   4.196
 1541SOL    HW2 5523   3.408   3.081   4.077
 1542SOL     OW 5524   6.742   0.195   1.728
 1542SOL    HW1 5525   6.687   0.125   1.683
 1542SOL    HW2 5526   6.736   0.281   1.677
 1543SOL     OW 5527   3.786   4.965   4.974
 1543SOL    HW1 5528   3.726   5.038   5.004
 1543SOL    HW2 5529   3.781   4.955   4.874
 1544SOL     OW 5530   3.647   3.552   3.540
 1544SOL    HW1 5531   3.607   3.492   3.610
 1544SOL    HW2 5532   3.622   3.647   3.559
 1545SOL     OW 5533   4.342   0.792   3.186
 1545SOL    HW1 5534   4.281   0.808   3.264
 1545SOL    HW2 5535   4.310   0.712   3.135
 1546SOL     OW 5536   5.153   6.298   5.370
 1546SOL    HW1 5537   5.114   6.244   5.445
 1546SOL    HW2 5538   5.179   6.237   5.295
 1547SOL     OW 5539   1.577   3.878   1.088
 1547SOL    HW1 5540   1.486   3.892   1.050
 1547SOL    HW2 5541   1.581   3.789   1.134
 1548SOL     OW 5542   5.217   4.022   0.155
 1548SOL    HW1 5543   5.168   4.049   0.072
 1548SOL    HW2 5544   5.260   4.103   0.196
 1549SOL     OW 5545   3.892   1.640   1.742
 1549SOL    HW1 5546   3.822   1.634   1.813
 1549SOL    HW2 5547   3.866   1.583   1.665
 1550SOL     OW 5548   3.091   3.691   0.975
 1550SOL    HW1 5549   2.992   3.677   0.967
 1550SOL    HW2 5550   3.109   3.763   1.042
 1551SOL     OW 5551   2.119   4.597   6.428
 1551SOL    HW1 5552   2.125   4.506   6.387
 1551SOL    HW2 5553   2.174   4.661   6.375
 1552SOL     OW 5554   1.928   5.313   1.091
 1552SOL    HW1 5555   1.933   5.232   1.032
 1552SOL    HW2 5556   1.908   5.394   1.036
 1553SOL     OW 5557   6.649   1.693   6.573
 1553SOL    HW1 5558   6.625   1.596   6.578
 1553SOL    HW2 5559   6.577   1.743   6.527
 1554SOL     OW 5560   3.198   1.790   3.717
 1554SOL    HW1 5561   3.256   1.835   3.649
 1554SOL    HW2 5562   3.102   1.809   3.696
 1555SOL     OW 5563   5.617   3.419   0.050
 1555SOL    HW1 5564   5.657   3.375   0.130
 1555SOL    HW2 5565   5.552   3.357   0.006
 1556SOL     OW 5566   1.933   2.151   6.640
 1556SOL    HW1 5567   1.863   2.118   6.703
 1556SOL    HW2 5568   1.938   2.090   6.561
 1557SOL     OW 5569   1.904   2.936   5.324
 1557SOL    HW1 5570   1.888   3.007   5.392
 1557SOL    HW2 5571   1.939   2.978   5.240
 1558SOL     OW 5572   6.282   0.740   4.923
 1558SOL    HW1 5573   6.329   0.735   4.835
 1558SOL    HW2 5574   6.280   0.835   4.954
 1559SOL     OW 5575   1.653   3.021   6.644
 1559SOL    HW1 5576   1.593   3.101   6.640
 1559SOL    HW2 5577   1.709   3.026   6.726
 1560SOL     OW 5578   0.134   0.548   6.213
 1560SOL    HW1 5579   0.181   0.463   6.237
 1560SOL    HW2 5580   0.065   0.530   6.142
 1561SOL     OW 5581   5.172   6.171   3.930
 1561SOL    HW1 5582   5.108   6.142   4.001
 1561SOL    HW2 5583   5.265   6.148   3.959
 1562SOL     OW 5584   4.868   6.114   2.597
 1562SOL    HW1 5585   4.913   6.201   2.616
 1562SOL    HW2 5586   4.774   6.131   2.566
 1563SOL     OW 5587   2.385   0.371   4.868
 1563SOL    HW1 5588   2.403   0.451   4.810
 1563SOL    HW2 5589   2.444   0.375   4.949
 1564SOL     OW 5590   1.395   1.255   3.385
 1564SOL    HW1 5591   1.340   1.259   3.468
 1564SOL    HW2 5592   1.491   1.244   3.410
 1565SOL     OW 5593   4.982   4.459   3.307
 1565SOL    HW1 5594   5.014   4.502   3.223
 1565SOL    HW2 5595   5.059   4.417   3.355
 1566SOL     OW 5596   5.833   4.343   2.956
 1566SOL    HW1 5597   5.742   4.384   2.952
 1566SOL    HW2 5598   5.893   4.400   3.011
 1567SOL     OW 5599   6.747   6.188   0.920
 1567SOL    HW1 5600   6.803   6.175   1.001
 1567SOL    HW2 5601   6.706   6.279   0.921
 1568SOL     OW 5602   1.546   6.572   0.081
 1568SOL    HW1 5603   1.624   6.510   0.075
 1568SOL    HW2 5604   1.553   6.643   0.011
 1569SOL     OW 5605   4.204   6.074   3.330
 1569SOL    HW1 5606   4.135   6.054   3.400
 1569SOL    HW2 5607   4.159   6.111   3.248
 1570SOL     OW 5608   1.604   6.974   0.810
 1570SOL    HW1 5609   1.514   7.017   0.816
 1570SOL    HW2 5610   1.642   6.990   0.718
 1571SOL     OW 5611   5.613   2.511   1.010
 1571SOL    HW1 5612   5.550   2.434   1.024
 1571SOL    HW2 5613   5.685   2.484   0.946
 1572SOL     OW 5614   0.212   0.218   1.466
 1572SOL    HW1 5615   0.154   0.224   1.547
 1572SOL    HW2 5616   0.281   0.147   1.479
 1573SOL     OW 5617   5.191   1.931   2.123
 1573SOL    HW1 5618   5.193   2.030   2.108
 1573SOL    HW2 5619   5.160   1.885   2.040
 1574SOL     OW 5620   6.260   1.160   2.040
 1574SOL    HW1 5621   6.200   1.089   2.074
 1574SOL    HW2 5622   6.314   1.197   2.115
 1575SOL     OW 5623   2.973   1.643   0.567
 1575SOL    HW1 5624   2.926   1.609   0.486
 1575SOL    HW2 5625   2.965   1.576   0.640
 1576SOL     OW 5626   6.614   6.162   3.958
 1576SOL    HW1 5627   6.629   6.228   4.032
 1576SOL    HW2 5628   6.701   6.120   3.933
 1577SOL     OW 5629   3.273   1.672   4.441
 1577SOL    HW1 5630   3.181   1.702   4.469
 1577SOL    HW2 5631   3.285   1.689   4.344
 1578SOL     OW 5632   6.054   3.491   5.670
 1578SOL    HW1 5633   6.072   3.589   5.663
 1578SOL    HW2 5634   6.066   3.462   5.765
 1579SOL     OW 5635   0.059   1.511   3.434
 1579SOL    HW1 5636   7.007   1.511   3.501
 1579SOL    HW2 5637   0.026   1.474   3.348
 1580SOL     OW 5638   2.716   3.601   5.470
 1580SOL    HW1 5639   2.727   3.637   5.377
 1580SOL    HW2 5640   2.727   3.676   5.536
 1581SOL     OW 5641   0.129   4.645   4.884
 1581SOL    HW1 5642   0.146   4.551   4.855
 1581SOL    HW2 5643   0.123   4.648   4.984
 1582SOL     OW 5644   1.467   6.852   4.296
 1582SOL    HW1 5645   1.542   6.785   4.302
 1582SOL    HW2 5646   1.497   6.939   4.334
 1583SOL     OW 5647   0.699   3.022   4.008
 1583SOL    HW1 5648   0.739   3.110   4.031
 1583SOL    HW2 5649   0.771   2.953   4.002
 1584SOL     OW 5650   1.470   6.593   4.618
 1584SOL    HW1 5651   1.402   6.521   4.630
 1584SOL    HW2 5652   1.483   6.612   4.521
 1585SOL     OW 5653   5.921   1.510   3.641
 1585SOL    HW1 5654   5.986   1.520   3.566
 1585SOL    HW2 5655   5.828   1.523   3.607
 1586SOL     OW 5656   3.644   4.132   1.509
 1586SOL    HW1 5657   3.617   4.038   1.488
 1586SOL    HW2 5658   3.698   4.169   1.433
 1587SOL     OW 5659   3.314   4.956   0.156
 1587SOL    HW1 5660   3.368   4.884   0.201
 1587SOL    HW2 5661   3.285   4.923   0.066
 1588SOL     OW 5662   4.624   1.465   3.086
 1588SOL    HW1 5663   4.667   1.459   2.996
 1588SOL    HW2 5664   4.529   1.435   3.079
 1589SOL     OW 5665   5.812   4.074   3.409
 1589SOL    HW1 5666   5.910   4.057   3.408
 1589SOL    HW2 5667   5.763   3.988   3.396
 1590SOL     OW 5668   2.066   6.761   5.954
 1590SOL    HW1 5669   2.107   6.851   5.940
 1590SOL    HW2 5670   2.133   6.690   5.930
 1591SOL     OW 5671   0.887   5.080   3.113
 1591SOL    HW1 5672   0.950   5.118   3.045
 1591SOL    HW2 5673   0.843   5.155   3.163
 1592SOL     OW 5674   2.281   4.368   1.386
 1592SOL    HW1 5675   2.365   4.419   1.405
 1592SOL    HW2 5676   2.204   4.411   1.434
 1593SOL     OW 5677   1.429   6.670   3.463
 1593SOL    HW1 5678   1.490   6.595   3.437
 1593SOL    HW2 5679   1.353   6.676   3.399
 1594SOL     OW 5680   0.289   4.955   2.809
 1594SOL    HW1 5681   0.309   5.049   2.783
 1594SOL    HW2 5682   0.294   4.896   2.729
 1595SOL     OW 5683   0.638   4.740   6.415
 1595SOL    HW1 5684   0.710   4.761   6.349
 1595SOL    HW2 5685   0.573   4.816   6.418
 1596SOL     OW 5686   1.009   2.960   5.755
 1596SOL    HW1 5687   1.022   3.040   5.698
 1596SOL    HW2 5688   0.933   2.906   5.720
 1597SOL     OW 5689   3.057   5.299   0.905
 1597SOL    HW1 5690   3.020   5.390   0.889
 1597SOL    HW2 5691   3.157   5.303   0.905
 1598SOL     OW 5692   0.631   4.289   0.089
 1598SOL    HW1 5693   0.722   4.327   0.077
 1598SOL    HW2 5694   0.622   4.206   0.033
 1599SOL     OW 5695   4.795   3.857   5.915
 1599SOL    HW1 5696   4.876   3.799   5.908
 1599SOL    HW2 5697   4.720   3.818   5.861
 1600SOL     OW 5698   5.359   2.189   4.797
 1600SOL    HW1 5699   5.308   2.109   4.765
 1600SOL    HW2 5700   5.295   2.258   4.830
 1601SOL     OW 5701   0.493   5.506   4.524
 1601SOL    HW1 5702   0.534   5.431   4.577
 1601SOL    HW2 5703   0.401   5.479   4.495
 1602SOL     OW 5704   2.173   5.837   4.254
 1602SOL    HW1 5705   2.264   5.813   4.288
 1602SOL    HW2 5706   2.104   5.820   4.325
 1603SOL     OW 5707   0.879   6.167   1.849
 1603SOL    HW1 5708   0.780   6.178   1.835
 1603SOL    HW2 5709   0.895   6.121   1.937
 1604SOL     OW 5710   6.012   4.552   6.956
 1604SOL    HW1 5711   5.992   4.597   0.020
 1604SOL    HW2 5712   5.960   4.596   6.882
 1605SOL     OW 5713   6.129   0.029   1.906
 1605SOL    HW1 5714   6.091   6.993   1.835
 1605SOL    HW2 5715   6.105   0.124   1.887
 1606SOL     OW 5716   4.606   0.842   5.328
 1606SOL    HW1 5717   4.525   0.836   5.386
 1606SOL    HW2 5718   4.661   0.921   5.354
 1607SOL     OW 5719   4.950   2.656   0.713
 1607SOL    HW1 5720   4.994   2.703   0.636
 1607SOL    HW2 5721   4.970   2.705   0.798
 1608SOL     OW 5722   1.531   0.275   5.696
 1608SOL    HW1 5723   1.437   0.306   5.682
 1608SOL    HW2 5724   1.558   0.290   5.791
 1609SOL     OW 5725   4.430   0.961   6.737
 1609SOL    HW1 5726   4.380   0.991   6.818
 1609SOL    HW2 5727   4.515   1.013   6.728
 1610SOL     OW 5728   5.982   3.899   5.411
 1610SOL    HW1 5729   6.021   3.988   5.391
 1610SOL    HW2 5730   6.052   3.840   5.451
 1611SOL     OW 5731   3.485   3.548   2.014
 1611SOL    HW1 5732   3.390   3.541   2.045
 1611SOL    HW2 5733   3.505   3.473   1.951
 1612SOL     OW 5734   2.884   1.054   5.474
 1612SOL    HW1 5735   2.806   0.997   5.498
 1612SOL    HW2 5736   2.956   0.997   5.435
 1613SOL     OW 5737   1.954   6.189   1.266
 1613SOL    HW1 5738   2.015   6.110   1.273
 1613SOL    HW2 5739   1.970   6.251   1.344
 1614SOL     OW 5740   6.674   4.310   0.406
 1614SOL    HW1 5741   6.606   4.244   0.374
 1614SOL    HW2 5742   6.677   4.389   0.344
 1615SOL     OW 5743   6.168   5.110   1.186
 1615SOL    HW1 5744   6.170   5.208   1.170
 1615SOL    HW2 5745   6.262   5.074   1.183
 1616SOL     OW 5746   4.502   2.266   5.848
 1616SOL    HW1 5747   4.575   2.199   5.833
 1616SOL    HW2 5748   4.427   2.249   5.785
 1617SOL     OW 5749   5.745   6.887   1.158
 1617SOL    HW1 5750   5.764   6.978   1.121
 1617SOL    HW2 5751   5.827   6.831   1.152
 1618SOL     OW 5752   0.754   3.802   1.465
 1618SOL    HW1 5753   0.757   3.792   1.366
 1618SOL    HW2 5754   0.794   3.890   1.491
 1619SOL     OW 5755   1.612   2.562   4.716
 1619SOL    HW1 5756   1.684   2.558   4.785
 1619SOL    HW2 5757   1.560   2.476   4.717
 1620SOL     OW 5758   1.910   5.812   0.980
 1620SOL    HW1 5759   1.884   5.769   1.066
 1620SOL    HW2 5760   1.856   5.894   0.966
 1621SOL     OW 5761   0.386   0.812   0.351
 1621SOL    HW1 5762   0.401   0.758   0.268
 1621SOL    HW2 5763   0.361   0.906   0.325
 1622SOL     OW 5764   1.444   2.164   4.448
 1622SOL    HW1 5765   1.532   2.116   4.439
 1622SOL    HW2 5766   1.457   2.246   4.503
 1623SOL     OW 5767   2.464   2.774   6.019
 1623SOL    HW1 5768   2.371   2.779   5.982
 1623SOL    HW2 5769   2.511   2.694   5.983
 1624SOL     OW 5770   3.110   0.879   5.760
 1624SOL    HW1 5771   3.170   0.924   5.693
 1624SOL    HW2 5772   3.155   0.796   5.793
 1625SOL     OW 5773   1.199   5.325   2.301
 1625SOL    HW1 5774   1.266   5.398   2.310
 1625SOL    HW2 5775   1.246   5.236   2.305
 1626SOL     OW 5776   2.372   1.564   6.629
 1626SOL    HW1 5777   2.397   1.565   6.532
 1626SOL    HW2 5778   2.441   1.615   6.681
 1627SOL     OW 5779   0.065   2.671   4.627
 1627SOL    HW1 5780   0.100   2.647   4.537
 1627SOL    HW2 5781   0.139   2.669   4.694
 1628SOL     OW 5782   4.560   5.020   6.866
 1628SOL    HW1 5783   4.556   4.962   6.947
 1628SOL    HW2 5784   4.469   5.054   6.843
 1629SOL     OW 5785   2.929   2.284   4.404
 1629SOL    HW1 5786   3.010   2.227   4.417
 1629SOL    HW2 5787   2.913   2.298   4.306
 1630SOL     OW 5788   0.754   6.068   5.964
 1630SOL    HW1 5789   0.737   6.153   6.014
 1630SOL    HW2 5790   0.667   6.021   5.948
 1631SOL     OW 5791   6.543   0.822   6.294
 1631SOL    HW1 5792   6.641   0.810   6.310
 1631SOL    HW2 5793   6.526   0.833   6.196
 1632SOL     OW 5794   0.241   1.461   6.869
 1632SOL    HW1 5795   0.297   1.386   6.901
 1632SOL    HW2 5796   0.148   1.452   6.906
 1633SOL     OW 5797   5.208   2.442   3.880
 1633SOL    HW1 5798   5.151   2.375   3.832
 1633SOL    HW2 5799   5.228   2.408   3.972
 1634SOL     OW 5800   4.413   5.563   5.295
 1634SOL    HW1 5801   4.493   5.603   5.340
 1634SOL    HW2 5802   4.330   5.610   5.326
 1635SOL     OW 5803   6.452   5.116   4.576
 1635SOL    HW1 5804   6.499   5.058   4.643
 1635SOL    HW2 5805   6.449   5.210   4.608
 1636SOL     OW 5806   1.969   4.438   1.181
 1636SOL    HW1 5807   2.067   4.452   1.164
 1636SOL    HW2 5808   1.922   4.526   1.179
 1637SOL     OW 5809   6.350   1.446   2.881
 1637SOL    HW1 5810   6.384   1.506   2.809
 1637SOL    HW2 5811   6.389   1.354   2.868
 1638SOL     OW 5812   1.160   3.962   4.023
 1638SOL    HW1 5813   1.158   4.057   3.992
 1638SOL    HW2 5814   1.231   3.911   3.974
 1639SOL     OW 5815   4.693   6.538   2.416
 1639SOL    HW1 5816   4.613   6.540   2.477
 1639SOL    HW2 5817   4.661   6.531   2.321
 1640SOL     OW 5818   5.777   1.866   1.017
 1640SOL    HW1 5819   5.804   1.962   1.009
 1640SOL    HW2 5820   5.847   1.808   0.975
 1641SOL     OW 5821   5.777   2.735   3.629
 1641SOL    HW1 5822   5.705   2.713   3.694
 1641SOL    HW2 5823   5.792   2.658   3.567
 1642SOL     OW 5824   6.789   3.151   0.496
 1642SOL    HW1 5825   6.776   3.054   0.514
 1642SOL    HW2 5826   6.828   3.163   0.404
 1643SOL     OW 5827   3.018   6.220   4.116
 1643SOL    HW1 5828   2.999   6.285   4.190
 1643SOL    HW2 5829   2.934   6.172   4.092
 1644SOL     OW 5830   1.746   2.636   0.782
 1644SOL    HW1 5831   1.727   2.685   0.697
 1644SOL    HW2 5832   1.845   2.630   0.795
 1645SOL     OW 5833   3.057   6.436   5.054
 1645SOL    HW1 5834   3.093   6.343   5.045
 1645SOL    HW2 5835   2.961   6.432   5.081
 1646SOL     OW 5836   2.686   5.395   1.341
 1646SOL    HW1 5837   2.613   5.463   1.331
 1646SOL    HW2 5838   2.671   5.320   1.277
 1647SOL     OW 5839   5.555   2.651   4.306
 1647SOL    HW1 5840   5.642   2.699   4.297
 1647SOL    HW2 5841   5.571   2.558   4.338
 1648SOL     OW 5842   6.109   6.250   1.568
 1648SOL    HW1 5843   6.200   6.222   1.598
 1648SOL    HW2 5844   6.040   6.200   1.620
 1649SOL     OW 5845   3.356   0.439   3.322
 1649SOL    HW1 5846   3.277   0.379   3.329
 1649SOL    HW2 5847   3.405   0.440   3.409
 1650SOL     OW 5848   3.155   6.674   4.014
 1650SOL    HW1 5849   3.088   6.600   4.007
 1650SOL    HW2 5850   3.217   6.671   3.935
 1651SOL     OW 5851   0.885   0.625   1.129
 1651SOL    HW1 5852   0.829   0.565   1.187
 1651SOL    HW2 5853   0.860   0.720   1.147
 1652SOL     OW 5854   1.827   2.246   1.523
 1652SOL    HW1 5855   1.859   2.156   1.554
 1652SOL    HW2 5856   1.867   2.266   1.434
 1653SOL     OW 5857   1.049   5.684   1.308
 1653SOL    HW1 5858   1.046   5.610   1.241
 1653SOL    HW2 5859   0.960   5.730   1.311
 1654SOL     OW 5860   6.852   3.409   1.885
 1654SOL    HW1 5861   6.930   3.404   1.946
 1654SOL    HW2 5862   6.881   3.391   1.791
 1655SOL     OW 5863   5.298   3.855   6.093
 1655SOL    HW1 5864   5.393   3.852   6.064
 1655SOL    HW2 5865   5.241   3.888   6.017
 1656SOL     OW 5866   1.755   4.178   3.550
 1656SOL    HW1 5867   1.677   4.228   3.512
 1656SOL    HW2 5868   1.836   4.236   3.548
 1657SOL     OW 5869   0.356   1.732   4.766
 1657SOL    HW1 5870   0.350   1.696   4.673
 1657SOL    HW2 5871   0.272   1.780   4.788
 1658SOL     OW 5872   0.151   0.367   3.123
 1658SOL    HW1 5873   0.074   0.379   3.059
 1658SOL    HW2 5874   0.157   0.271   3.150
 1659SOL     OW 5875   4.259   2.102   6.205
 1659SOL    HW1 5876   4.303   2.182   6.165
 1659SOL    HW2 5877   4.159   2.110   6.195
 1660SOL     OW 5878   1.162   5.284   3.967
 1660SOL    HW1 5879   1.195   5.336   4.046
 1660SOL    HW2 5880   1.189   5.189   3.976
 1661SOL     OW 5881   3.534   1.865   1.877
 1661SOL    HW1 5882   3.611   1.859   1.941
 1661SOL    HW2 5883   3.488   1.953   1.889
 1662SOL     OW 5884   6.280   1.039   3.904
 1662SOL    HW1 5885   6.292   1.068   3.809
 1662SOL    HW2 5886   6.343   0.964   3.925
 1663SOL     OW 5887   2.524   0.908   2.991
 1663SOL    HW1 5888   2.561   0.915   3.083
 1663SOL    HW2 5889   2.599   0.892   2.926
 1664SOL     OW 5890   1.444   0.608   4.141
 1664SOL    HW1 5891   1.379   0.667   4.188
 1664SOL    HW2 5892   1.537   0.642   4.154
 1665SOL     OW 5893   0.184   1.718   2.974
 1665SOL    HW1 5894   0.103   1.666   2.948
 1665SOL    HW2 5895   0.197   1.714   3.073
 1666SOL     OW 5896   6.137   2.780   0.913
 1666SOL    HW1 5897   6.234   2.801   0.914
 1666SOL    HW2 5898   6.096   2.814   0.828
 1667SOL     OW 5899   5.475   6.363   0.760
 1667SOL    HW1 5900   5.485   6.461   0.742
 1667SOL    HW2 5901   5.557   6.330   0.807
 1668SOL     OW 5902   4.637   6.567   5.400
 1668SOL    HW1 5903   4.559   6.570   5.463
 1668SOL    HW2 5904   4.612   6.610   5.313
 1669SOL     OW 5905   6.206   6.808   0.371
 1669SOL    HW1 5906   6.233   6.903   0.351
 1669SOL    HW2 5907   6.158   6.805   0.458
 1670SOL     OW 5908   0.268   5.600   6.034
 1670SOL    HW1 5909   0.364   5.597   6.005
 1670SOL    HW2 5910   0.234   5.693   6.026
 1671SOL     OW 5911   4.185   2.140   1.124
 1671SOL    HW1 5912   4.214   2.228   1.161
 1671SOL    HW2 5913   4.123   2.095   1.189
 1672SOL     OW 5914   1.652   3.859   3.008
 1672SOL    HW1 5915   1.615   3.949   3.033
 1672SOL    HW2 5916   1.752   3.863   3.007
 1673SOL     OW 5917   0.644   2.517   4.442
 1673SOL    HW1 5918   0.582   2.494   4.517
 1673SOL    HW2 5919   0.592   2.533   4.359
 1674SOL     OW 5920   1.866   3.909   1.588
 1674SOL    HW1 5921   1.878   3.912   1.489
 1674SOL    HW2 5922   1.926   3.840   1.627
 1675SOL     OW 5923   4.037   6.935   6.255
 1675SOL    HW1 5924   3.960   6.985   6.294
 1675SOL    HW2 5925   4.074   6.985   6.177
 1676SOL     OW 5926   3.276   1.322   2.619
 1676SOL    HW1 5927   3.229   1.356   2.700
 1676SOL    HW2 5928   3.345   1.255   2.647
 1677SOL     OW 5929   5.009   2.326   5.648
 1677SOL    HW1 5930   4.963   2.271   5.717
 1677SOL    HW2 5931   5.000   2.423   5.672
 1678SOL     OW 5932   5.438   4.867   4.262
 1678SOL    HW1 5933   5.378   4.871   4.342
 1678SOL    HW2 5934   5.434   4.953   4.213
 1679SOL     OW 5935   1.942   3.568   5.311
 1679SOL    HW1 5936   1.987   3.501   5.370
 1679SOL    HW2 5937   1.965   3.549   5.216
 1680SOL     OW 5938   1.023   1.632   4.242
 1680SOL    HW1 5939   0.951   1.576   4.201
 1680SOL    HW2 5940   1.085   1.574   4.295
 1681SOL     OW 5941   6.888   5.777   1.042
 1681SOL    HW1 5942   6.842   5.765   1.130
 1681SOL    HW2 5943   6.890   5.690   0.994
 1682SOL     OW 5944   0.311   3.336   4.875
 1682SOL    HW1 5945   0.309   3.250   4.926
 1682SOL    HW2 5946   0.231   3.341   4.815
 1683SOL     OW 5947   4.399   5.174   0.938
 1683SOL    HW1 5948   4.335   5.223   0.997
 1683SOL    HW2 5949   4.421   5.085   0.979
 1684SOL     OW 5950   1.267   6.780   3.037
 1684SOL    HW1 5951   1.222   6.733   3.113
 1684SOL    HW2 5952   1.200   6.800   2.965
 1685SOL     OW 5953   1.900   1.219   6.713
 1685SOL    HW1 5954   1.936   1.311   6.697
 1685SOL    HW2 5955   1.952   1.175   6.787
 1686SOL     OW 5956   2.259   5.709   5.831
 1686SOL    HW1 5957   2.237   5.618   5.864
 1686SOL    HW2 5958   2.278   5.769   5.909
 1687SOL     OW 5959   1.795   3.221   1.699
 1687SOL    HW1 5960   1.833   3.279   1.626
 1687SOL    HW2 5961   1.863   3.212   1.773
 1688SOL     OW 5962   1.842   2.033   3.696
 1688SOL    HW1 5963   1.863   2.111   3.637
 1688SOL    HW2 5964   1.924   2.004   3.746
 1689SOL     OW 5965   3.511   1.108   1.834
 1689SOL    HW1 5966   3.544   1.020   1.867
 1689SOL    HW2 5967   3.589   1.167   1.812
 1690SOL     OW 5968   1.339   2.848   3.285
 1690SOL    HW1 5969   1.406   2.880   3.218
 1690SOL    HW2 5970   1.338   2.911   3.363
 1691SOL     OW 5971   5.076   3.955   3.278
 1691SOL    HW1 5972   5.119   3.938   3.190
 1691SOL    HW2 5973   5.006   4.026   3.269
 1692SOL     OW 5974   6.851   6.999   1.239
 1692SOL    HW1 5975   6.936   6.964   1.278
 1692SOL    HW2 5976   6.842   6.968   1.144
 1693SOL     OW 5977   2.059   2.794   2.650
 1693SOL    HW1 5978   2.063   2.758   2.557
 1693SOL    HW2 5979   1.982   2.857   2.659
 1694SOL     OW 5980   3.907   6.563   4.212
 1694SOL    HW1 5981   3.918   6.521   4.302
 1694SOL    HW2 5982   3.967   6.516   4.146
 1695SOL     OW 5983   2.897   0.897   4.421
 1695SOL    HW1 5984   2.894   0.987   4.463
 1695SOL    HW2 5985   2.979   0.888   4.365
 1696SOL     OW 5986   5.306   5.236   0.463
 1696SOL    HW1 5987   5.388   5.230   0.406
 1696SOL    HW2 5988   5.248   5.155   0.447
 1697SOL     OW 5989   0.053   6.725   1.282
 1697SOL    HW1 5990   0.006   6.773   1.357
 1697SOL    HW2 5991   0.103   6.647   1.318
 1698SOL     OW 5992   4.534   1.667   1.259
 1698SOL    HW1 5993   4.478   1.743   1.293
 1698SOL    HW2 5994   4.614   1.704   1.210
 1699SOL     OW 5995   2.887   1.560   1.942
 1699SOL    HW1 5996   2.867   1.615   1.861
 1699SOL    HW2 5997   2.971   1.507   1.927
 1700SOL     OW 5998   6.237   2.457   3.605
 1700SOL    HW1 5999   6.247   2.444   3.704
 1700SOL    HW2 6000   6.240   2.555   3.585
 1701SOL     OW 6001   5.040   3.106   5.114
 1701SOL    HW1 6002   5.127   3.148   5.085
 1701SOL    HW2 6003   4.972   3.119   5.042
 1702SOL     OW 6004   6.559   3.306   0.480
 1702SOL    HW1 6005   6.644   3.262   0.509
 1702SOL    HW2 6006   6.507   3.335   0.560
 1703SOL     OW 6007   3.505   3.932   3.138
 1703SOL    HW1 6008   3.553   3.847   3.159
 1703SOL    HW2 6009   3.413   3.929   3.178
 1704SOL     OW 6010   0.442   1.288   1.010
 1704SOL    HW1 6011   0.417   1.327   0.921
 1704SOL    HW2 6012   0.540   1.296   1.024
 1705SOL     OW 6013   3.315   2.101   2.041
 1705SOL    HW1 6014   3.354   2.150   1.963
 1705SOL    HW2 6015   3.388   2.064   2.098
 1706SOL     OW 6016   4.172   6.693   1.109
 1706SOL    HW1 6017   4.234   6.772   1.106
 1706SOL    HW2 6018   4.220   6.614   1.145
 1707SOL     OW 6019   4.214   1.523   2.166
 1707SOL    HW1 6020   4.307   1.531   2.131
 1707SOL    HW2 6021   4.207   1.442   2.224
 1708SOL     OW 6022   5.865   6.139   3.098
 1708SOL    HW1 6023   5.830   6.053   3.061
 1708SOL    HW2 6024   5.934   6.119   3.168
 1709SOL     OW 6025   2.733   6.530   2.036
 1709SOL    HW1 6026   2.708   6.499   1.945
 1709SOL    HW2 6027   2.658   6.512   2.099
 1710SOL     OW 6028   6.195   4.362   3.972
 1710SOL    HW1 6029   6.259   4.406   3.909
 1710SOL    HW2 6030   6.141   4.294   3.923
 1711SOL     OW 6031   1.643   4.330   4.829
 1711SOL    HW1 6032   1.557   4.333   4.881
 1711SOL    HW2 6033   1.672   4.236   4.818
 1712SOL     OW 6034   0.469   3.325   6.508
 1712SOL    HW1 6035   0.464   3.403   6.446
 1712SOL    HW2 6036   0.515   3.352   6.593
 1713SOL     OW 6037   2.721   2.063   1.150
 1713SOL    HW1 6038   2.775   2.112   1.218
 1713SOL    HW2 6039   2.632   2.109   1.139
 1714SOL     OW 6040   3.862   1.749   6.344
 1714SOL    HW1 6041   3.859   1.653   6.316
 1714SOL    HW2 6042   3.789   1.799   6.297
 1715SOL     OW 6043   6.811   3.277   2.762
 1715SOL    HW1 6044   6.889   3.292   2.701
 1715SOL    HW2 6045   6.837   3.211   2.833
 1716SOL     OW 6046   5.495   6.265   1.556
 1716SOL    HW1 6047   5.488   6.361   1.529
 1716SOL    HW2 6048   5.591   6.237   1.556
 1717SOL     OW 6049   2.629   6.447   6.589
 1717SOL    HW1 6050   2.609   6.542   6.613
 1717SOL    HW2 6051   2.550   6.407   6.541
 1718SOL     OW 6052   2.028   2.219   0.463
 1718SOL    HW1 6053   2.063   2.285   0.397
 1718SOL    HW2 6054   2.091   2.212   0.540
 1719SOL     OW 6055   2.751   4.116   1.613
 1719SOL    HW1 6056   2.651   4.109   1.617
 1719SOL    HW2 6057   2.779   4.158   1.527
 1720SOL     OW 6058   6.363   1.906   1.568
 1720SOL    HW1 6059   6.315   1.819   1.577
 1720SOL    HW2 6060   6.461   1.888   1.557
 1721SOL     OW 6061   1.353   6.751   2.366
 1721SOL    HW1 6062   1.426   6.682   2.372
 1721SOL    HW2 6063   1.270   6.708   2.331
 1722SOL     OW 6064   5.049   1.179   3.354
 1722SOL    HW1 6065   5.002   1.205   3.269
 1722SOL    HW2 6066   5.145   1.207   3.349
 1723SOL     OW 6067   6.644   2.297   3.354
 1723SOL    HW1 6068   6.672   2.347   3.272
 1723SOL    HW2 6069   6.585   2.221   3.328
 1724SOL     OW 6070   5.959   1.027   0.802
 1724SOL    HW1 6071   5.916   0.967   0.735
 1724SOL    HW2 6072   6.016   1.094   0.755
 1725SOL     OW 6073   3.262   4.119   0.256
 1725SOL    HW1 6074   3.204   4.066   0.318
 1725SOL    HW2 6075   3.204   4.170   0.192
 1726SOL     OW 6076   0.258   4.677   5.159
 1726SOL    HW1 6077   0.176   4.690   5.214
 1726SOL    HW2 6078   0.294   4.767   5.131
 1727SOL     OW 6079   3.671   2.914   4.220
 1727SOL    HW1 6080   3.576   2.923   4.192
 1727SOL    HW2 6081   3.675   2.879   4.314
 1728SOL     OW 6082   5.283   4.834   4.468
 1728SOL    HW1 6083   5.204   4.818   4.408
 1728SOL    HW2 6084   5.314   4.747   4.506
 1729SOL     OW 6085   2.160   3.939   3.884
 1729SOL    HW1 6086   2.137   3.854   3.837
 1729SOL    HW2 6087   2.079   3.998   3.888
 1730SOL     OW 6088   6.685   0.936   4.989
 1730SOL    HW1 6089   6.658   0.849   4.947
 1730SOL    HW2 6090   6.728   0.994   4.919
 1731SOL     OW 6091   0.991   5.103   2.356
 1731SOL    HW1 6092   0.952   5.087   2.265
 1731SOL    HW2 6093   1.091   5.108   2.349
 1732SOL     OW 6094   2.298   4.463   6.231
 1732SOL    HW1 6095   2.386   4.500   6.261
 1732SOL    HW2 6096   2.285   4.373   6.273
 1733SOL     OW 6097   1.540   3.552   2.426
 1733SOL    HW1 6098   1.468   3.556   2.357
 1733SOL    HW2 6099   1.616   3.611   2.397
 1734SOL     OW 6100   5.145   3.140   1.663
 1734SOL    HW1 6101   5.090   3.076   1.609
 1734SOL    HW2 6102   5.085   3.195   1.721
 1735SOL     OW 6103   5.757   5.591   1.662
 1735SOL    HW1 6104   5.689   5.661   1.638
 1735SOL    HW2 6105   5.727   5.541   1.742
 1736SOL     OW 6106   4.671   1.615   0.139
 1736SOL    HW1 6107   4.746   1.641   0.200
 1736SOL    HW2 6108   4.651   1.518   0.151
 1737SOL     OW 6109   2.627   0.582   4.214
 1737SOL    HW1 6110   2.575   0.667   4.216
 1737SOL    HW2 6111   2.628   0.546   4.121
 1738SOL     OW 6112   2.510   2.596   3.747
 1738SOL    HW1 6113   2.520   2.692   3.772
 1738SOL    HW2 6114   2.541   2.538   3.822
 1739SOL     OW 6115   4.798   2.737   5.439
 1739SOL    HW1 6116   4.739   2.743   5.358
 1739SOL    HW2 6117   4.767   2.661   5.497
 1740SOL     OW 6118   7.011   1.306   6.946
 1740SOL    HW1 6119   6.930   1.362   6.929
 1740SOL    HW2 6120   6.994   1.213   6.915
 1741SOL     OW 6121   2.393   0.999   2.283
 1741SOL    HW1 6122   2.352   0.917   2.324
 1741SOL    HW2 6123   2.476   0.974   2.234
 1742SOL     OW 6124   4.004   5.710   5.792
 1742SOL    HW1 6125   3.990   5.702   5.693
 1742SOL    HW2 6126   3.915   5.704   5.838
 1743SOL     OW 6127   2.264   1.241   2.338
 1743SOL    HW1 6128   2.332   1.168   2.331
 1743SOL    HW2 6129   2.310   1.329   2.346
 1744SOL     OW 6130   0.985   6.711   1.742
 1744SOL    HW1 6131   1.074   6.723   1.699
 1744SOL    HW2 6132   0.997   6.694   1.840
 1745SOL     OW 6133   0.119   1.458   4.830
 1745SOL    HW1 6134   0.161   1.377   4.872
 1745SOL    HW2 6135   0.176   1.538   4.847
 1746SOL     OW 6136   2.118   5.981   5.765
 1746SOL    HW1 6137   2.102   5.925   5.846
 1746SOL    HW2 6138   2.052   5.956   5.694
 1747SOL     OW 6139   4.893   6.703   2.527
 1747SOL    HW1 6140   4.950   6.749   2.458
 1747SOL    HW2 6141   4.824   6.648   2.481
 1748SOL     OW 6142   0.091   0.847   3.927
 1748SOL    HW1 6143   0.131   0.902   3.854
 1748SOL    HW2 6144   0.060   0.906   4.001
 1749SOL     OW 6145   3.346   6.501   5.235
 1749SOL    HW1 6146   3.353   6.585   5.290
 1749SOL    HW2 6147   3.339   6.525   5.139
 1750SOL     OW 6148   5.409   0.822   3.615
 1750SOL    HW1 6149   5.461   0.907   3.620
 1750SOL    HW2 6150   5.325   0.830   3.670
 1751SOL     OW 6151   3.136   5.325   4.538
 1751SOL    HW1 6152   3.173   5.399   4.594
 1751SOL    HW2 6153   3.038   5.340   4.523
 1752SOL     OW 6154   6.622   2.370   1.833
 1752SOL    HW1 6155   6.597   2.431   1.758
 1752SOL    HW2 6156   6.641   2.278   1.797
 1753SOL     OW 6157   0.792   1.227   0.361
 1753SOL    HW1 6158   0.796   1.151   0.425
 1753SOL    HW2 6159   0.717   1.288   0.386
 1754SOL     OW 6160   3.732   3.172   1.124
 1754SOL    HW1 6161   3.825   3.138   1.110
 1754SOL    HW2 6162   3.717   3.253   1.067
 1755SOL     OW 6163   5.749   5.119   2.165
 1755SOL    HW1 6164   5.770   5.215   2.143
 1755SOL    HW2 6165   5.781   5.060   2.090
 1756SOL     OW 6166   4.684   4.493   5.768
 1756SOL    HW1 6167   4.587   4.514   5.752
 1756SOL    HW2 6168   4.691   4.427   5.843
 1757SOL     OW 6169   2.280   6.486   4.457
 1757SOL    HW1 6170   2.190   6.489   4.500
 1757SOL    HW2 6171   2.349   6.464   4.527
 1758SOL     OW 6172   2.996   0.510   3.522
 1758SOL    HW1 6173   2.936   0.550   3.453
 1758SOL    HW2 6174   3.012   0.413   3.501
 1759SOL     OW 6175   1.131   5.147   6.676
 1759SOL    HW1 6176   1.182   5.114   6.755
 1759SOL    HW2 6177   1.189   5.144   6.595
 1760SOL     OW 6178   6.103   1.432   1.749
 1760SOL    HW1 6179   6.063   1.359   1.804
 1760SOL    HW2 6180   6.030   1.484   1.704
 1761SOL     OW 6181   6.886   6.832   0.635
 1761SOL    HW1 6182   6.863   6.927   0.653
 1761SOL    HW2 6183   6.890   6.781   0.721
 1762SOL     OW 6184   6.430   1.403   5.079
 1762SOL    HW1 6185   6.486   1.436   5.003
 1762SOL    HW2 6186   6.361   1.473   5.102
 1763SOL     OW 6187   1.734   3.608   4.557
 1763SOL    HW1 6188   1.784   3.606   4.644
 1763SOL    HW2 6189   1.798   3.616   4.481
 1764SOL     OW 6190   1.658   3.687   3.208
 1764SOL    HW1 6191   1.631   3.593   3.187
 1764SOL    HW2 6192   1.652   3.742   3.125
 1765SOL     OW 6193   3.574   2.127   6.760
 1765SOL    HW1 6194   3.578   2.227   6.768
 1765SOL    HW2 6195   3.666   2.089   6.768
 1766SOL     OW 6196   5.030   3.004   4.347
 1766SOL    HW1 6197   5.080   3.014   4.433
 1766SOL    HW2 6198   5.038   2.910   4.314
 1767SOL     OW 6199   5.539   4.108   3.025
 1767SOL    HW1 6200   5.450   4.114   2.981
 1767SOL    HW2 6201   5.568   4.012   3.030
 1768SOL     OW 6202   3.873   0.955   4.901
 1768SOL    HW1 6203   3.961   0.955   4.855
 1768SOL    HW2 6204   3.886   0.939   4.999
 1769SOL     OW 6205   4.350   2.303   4.527
 1769SOL    HW1 6206   4.261   2.294   4.482
 1769SOL    HW2 6207   4.404   2.220   4.512
 1770SOL     OW 6208   1.607   5.949   5.143
 1770SOL    HW1 6209   1.639   5.988   5.229
 1770SOL    HW2 6210   1.568   6.021   5.086
 1771SOL     OW 6211   3.190   5.371   6.646
 1771SOL    HW1 6212   3.171   5.361   6.548
 1771SOL    HW2 6213   3.284   5.405   6.658
 1772SOL     OW 6214   3.221   6.265   3.465
 1772SOL    HW1 6215   3.263   6.343   3.511
 1772SOL    HW2 6216   3.152   6.298   3.400
 1773SOL     OW 6217   2.057   5.054   5.734
 1773SOL    HW1 6218   1.975   5.014   5.692
 1773SOL    HW2 6219   2.138   5.025   5.683
 1774SOL     OW 6220   4.468   6.268   1.525
 1774SOL    HW1 6221   4.503   6.175   1.522
 1774SOL    HW2 6222   4.511   6.322   1.453
 1775SOL     OW 6223   1.925   4.051   3.844
 1775SOL    HW1 6224   1.847   4.069   3.905
 1775SOL    HW2 6225   1.895   3.997   3.766
 1776SOL     OW 6226   3.249   0.227   3.557
 1776SOL    HW1 6227   3.202   0.160   3.499
 1776SOL    HW2 6228   3.341   0.195   3.578
 1777SOL     OW 6229   3.424   5.360   5.683
 1777SOL    HW1 6230   3.420   5.275   5.631
 1777SOL    HW2 6231   3.518   5.377   5.712
 1778SOL     OW 6232   4.329   3.485   5.439
 1778SOL    HW1 6233   4.409   3.453   5.389
 1778SOL    HW2 6234   4.345   3.578   5.472
 1779SOL     OW 6235   4.192   0.967   4.392
 1779SOL    HW1 6236   4.156   0.994   4.303
 1779SOL    HW2 6237   4.251   1.040   4.427
 1780SOL     OW 6238   3.339   2.935   0.007
 1780SOL    HW1 6239   3.415   2.897   6.976
 1780SOL    HW2 6240   3.253   2.895   6.997
 1781SOL     OW 6241   4.592   5.893   4.030
 1781SOL    HW1 6242   4.577   5.805   4.076
 1781SOL    HW2 6243   4.686   5.897   3.996
 1782SOL     OW 6244   3.043   1.738   2.927
 1782SOL    HW1 6245   2.970   1.806   2.934
 1782SOL    HW2 6246   3.108   1.752   3.002
 1783SOL     OW 6247   1.732   4.875   6.509
 1783SOL    HW1 6248   1.781   4.960   6.489
 1783SOL    HW2 6249   1.797   4.808   6.545
 1784SOL     OW 6250   4.009   1.149   6.212
 1784SOL    HW1 6251   3.943   1.110   6.147
 1784SOL    HW2 6252   3.970   1.232   6.253
 1785SOL     OW 6253   6.153   4.400   3.288
 1785SOL    HW1 6254   6.190   4.492   3.294
 1785SOL    HW2 6255   6.169   4.351   3.374
 1786SOL     OW 6256   1.822   2.840   0.357
 1786SOL    HW1 6257   1.892   2.911   0.357
 1786SOL    HW2 6258   1.855   2.760   0.408
 1787SOL     OW 6259   3.411   0.790   4.864
 1787SOL    HW1 6260   3.431   0.747   4.951
 1787SOL    HW2 6261   3.494   0.836   4.829
 1788SOL     OW 6262   3.114   2.744   0.393
 1788SOL    HW1 6263   3.031   2.715   0.441
 1788SOL    HW2 6264   3.096   2.830   0.346
 1789SOL     OW 6265   6.089   2.332   3.358
 1789SOL    HW1 6266   6.148   2.348   3.438
 1789SOL    HW2 6267   6.145   2.298   3.282
 1790SOL     OW 6268   3.880   5.813   4.105
 1790SOL    HW1 6269   3.806   5.746   4.101
 1790SOL    HW2 6270   3.846   5.898   4.145
 1791SOL     OW 6271   5.789   0.857   3.462
 1791SOL    HW1 6272   5.861   0.831   3.397
 1791SOL    HW2 6273   5.812   0.946   3.503
 1792SOL     OW 6274   6.882   2.630   4.811
 1792SOL    HW1 6275   6.849   2.536   4.803
 1792SOL    HW2 6276   6.951   2.647   4.741
 1793SOL     OW 6277   6.733   6.862   3.484
 1793SOL    HW1 6278   6.718   6.767   3.456
 1793SOL    HW2 6279   6.831   6.878   3.498
 1794SOL     OW 6280   5.658   6.158   5.916
 1794SOL    HW1 6281   5.607   6.113   5.989
 1794SOL    HW2 6282   5.623   6.130   5.827
 1795SOL     OW 6283   1.384   2.466   0.508
 1795SOL    HW1 6284   1.461   2.530   0.503
 1795SOL    HW2 6285   1.342   2.458   0.418
 1796SOL     OW 6286   2.429   0.477   4.450
 1796SOL    HW1 6287   2.528   0.464   4.459
 1796SOL    HW2 6288   2.382   0.391   4.469
 1797SOL     OW 6289   1.725   6.930   6.684
 1797SOL    HW1 6290   1.761   6.985   6.759
 1797SOL    HW2 6291   1.798   6.872   6.647
 1798SOL     OW 6292   5.402   2.563   4.101
 1798SOL    HW1 6293   5.383   2.631   4.031
 1798SOL    HW2 6294   5.461   2.602   4.171
 1799SOL     OW 6295   6.785   1.916   5.906
 1799SOL    HW1 6296   6.747   1.900   5.815
 1799SOL    HW2 6297   6.875   1.959   5.897
 1800SOL     OW 6298   3.954   4.768   1.946
 1800SOL    HW1 6299   3.976   4.755   2.042
 1800SOL    HW2 6300   3.855   4.760   1.933
 1801SOL     OW 6301   0.146   0.382   2.188
 1801SOL    HW1 6302   0.050   0.398   2.211
 1801SOL    HW2 6303   0.159   0.286   2.165
 1802SOL     OW 6304   5.681   5.361   3.201
 1802SOL    HW1 6305   5.584   5.359   3.176
 1802SOL    HW2 6306   5.701   5.445   3.252
 1803SOL     OW 6307   0.880   5.797   6.906
 1803SOL    HW1 6308   0.916   5.704   6.907
 1803SOL    HW2 6309   0.955   5.862   6.891
 1804SOL     OW 6310   2.627   3.850   5.288
 1804SOL    HW1 6311   2.628   3.885   5.382
 1804SOL    HW2 6312   2.549   3.889   5.239
 1805SOL     OW 6313   6.089   4.025   5.706
 1805SOL    HW1 6314   6.131   4.002   5.618
 1805SOL    HW2 6315   6.000   4.067   5.691
 1806SOL     OW 6316   0.019   0.811   0.566
 1806SOL    HW1 6317   0.004   0.738   0.499
 1806SOL    HW2 6318   7.013   0.780   0.656
 1807SOL     OW 6319   5.202   2.905   5.308
 1807SOL    HW1 6320   5.130   2.836   5.308
 1807SOL    HW2 6321   5.174   2.984   5.363
 1808SOL     OW 6322   0.564   4.301   6.653
 1808SOL    HW1 6323   0.577   4.204   6.635
 1808SOL    HW2 6324   0.545   4.348   6.567
 1809SOL     OW 6325   2.133   2.159   4.564
 1809SOL    HW1 6326   2.151   2.250   4.600
 1809SOL    HW2 6327   2.043   2.128   4.595
 1810SOL     OW 6328   3.082   6.706   3.277
 1810SOL    HW1 6329   3.146   6.756   3.219
 1810SOL    HW2 6330   3.022   6.771   3.324
 1811SOL     OW 6331   5.876   5.696   3.144
 1811SOL    HW1 6332   5.971   5.710   3.172
 1811SOL    HW2 6333   5.830   5.641   3.214
 1812SOL     OW 6334   4.347   6.442   5.196
 1812SOL    HW1 6335   4.376   6.528   5.236
 1812SOL    HW2 6336   4.427   6.391   5.163
 1813SOL     OW 6337   6.508   5.257   1.233
 1813SOL    HW1 6338   6.606   5.243   1.224
 1813SOL    HW2 6339   6.487   5.291   1.325
 1814SOL     OW 6340   6.246   0.852   0.805
 1814SOL    HW1 6341   6.217   0.762   0.772
 1814SOL    HW2 6342   6.214   0.866   0.899
 1815SOL     OW 6343   0.106   2.330   2.483
 1815SOL    HW1 6344   0.051   2.276   2.547
 1815SOL    HW2 6345   0.117   2.423   2.518
 1816SOL     OW 6346   3.161   3.252   0.922
 1816SOL    HW1 6347   3.184   3.166   0.878
 1816SOL    HW2 6348   3.239   3.314   0.918
 1817SOL     OW 6349   3.146   0.069   2.877
 1817SOL    HW1 6350   3.210   0.065   2.800
 1817SOL    HW2 6351   3.141   7.001   2.921
 1818SOL     OW 6352   1.794   6.781   2.739
 1818SOL    HW1 6353   1.771   6.878   2.750
 1818SOL    HW2 6354   1.745   6.744   2.659
 1819SOL     OW 6355   1.443   4.961   1.656
 1819SOL    HW1 6356   1.391   4.994   1.578
 1819SOL    HW2 6357   1.476   4.868   1.638
 1820SOL     OW 6358   4.792   1.041   2.326
 1820SOL    HW1 6359   4.852   1.087   2.392
 1820SOL    HW2 6360   4.730   0.980   2.375
 1821SOL     OW 6361   0.625   1.133   2.166
 1821SOL    HW1 6362   0.628   1.115   2.068
 1821SOL    HW2 6363   0.580   1.220   2.183
 1822SOL     OW 6364   2.539   2.957   0.965
 1822SOL    HW1 6365   2.621   2.964   0.909
 1822SOL    HW2 6366   2.501   3.049   0.980
 1823SOL     OW 6367   2.900   5.844   2.944
 1823SOL    HW1 6368   2.942   5.874   2.858
 1823SOL    HW2 6369   2.809   5.808   2.926
 1824SOL     OW 6370   3.290   2.662   1.048
 1824SOL    HW1 6371   3.328   2.735   1.105
 1824SOL    HW2 6372   3.303   2.574   1.093
 1825SOL     OW 6373   1.592   1.782   3.057
 1825SOL    HW1 6374   1.574   1.690   3.024
 1825SOL    HW2 6375   1.663   1.779   3.129
 1826SOL     OW 6376   3.332   0.496   1.385
 1826SOL    HW1 6377   3.284   0.448   1.312
 1826SOL    HW2 6378   3.398   0.560   1.345
 1827SOL     OW 6379   0.508   5.571   2.427
 1827SOL    HW1 6380   0.501   5.475   2.455
 1827SOL    HW2 6381   0.604   5.599   2.427
 1828SOL     OW 6382   0.917   2.127   0.378
 1828SOL    HW1 6383   0.969   2.044   0.397
 1828SOL    HW2 6384   0.929   2.154   0.283
 1829SOL     OW 6385   4.079   0.342   3.744
 1829SOL    HW1 6386   3.992   0.391   3.742
 1829SOL    HW2 6387   4.063   0.246   3.723
 1830SOL     OW 6388   5.543   5.744   4.231
 1830SOL    HW1 6389   5.597   5.696   4.301
 1830SOL    HW2 6390   5.592   5.825   4.201
 1831SOL     OW 6391   6.023   0.598   2.577
 1831SOL    HW1 6392   5.929   0.630   2.566
 1831SOL    HW2 6393   6.033   0.509   2.534
 1832SOL     OW 6394   5.212   1.569   0.698
 1832SOL    HW1 6395   5.288   1.634   0.695
 1832SOL    HW2 6396   5.154   1.588   0.776
 1833SOL     OW 6397   5.558   0.839   4.988
 1833SOL    HW1 6398   5.460   0.852   5.003
 1833SOL    HW2 6399   5.584   0.748   5.019
 1834SOL     OW 6400   2.799   3.676   0.606
 1834SOL    HW1 6401   2.721   3.640   0.658
 1834SOL    HW2 6402   2.884   3.638   0.643
 1835SOL     OW 6403   1.386   4.522   1.595
 1835SOL    HW1 6404   1.370   4.495   1.690
 1835SOL    HW2 6405   1.302   4.507   1.542
 1836SOL     OW 6406   5.616   1.576   0.939
 1836SOL    HW1 6407   5.689   1.574   1.006
 1836SOL    HW2 6408   5.540   1.632   0.973
 1837SOL     OW 6409   0.836   2.221   3.810
 1837SOL    HW1 6410   0.863   2.175   3.895
 1837SOL    HW2 6411   0.887   2.306   3.800
 1838SOL     OW 6412   0.037   2.364   3.932
 1838SOL    HW1 6413   0.001   2.280   3.973
 1838SOL    HW2 6414   0.094   2.341   3.853
 1839SOL     OW 6415   4.496   2.600   5.096
 1839SOL    HW1 6416   4.561   2.542   5.047
 1839SOL    HW2 6417   4.406   2.592   5.053
 1840SOL     OW 6418   3.685   5.922   1.315
 1840SOL    HW1 6419   3.701   5.856   1.388
 1840SOL    HW2 6420   3.769   5.972   1.297
 1841SOL     OW 6421   2.380   2.808   4.307
 1841SOL    HW1 6422   2.312   2.805   4.380
 1841SOL    HW2 6423   2.384   2.901   4.269
 1842SOL     OW 6424   0.659   5.530   0.553
 1842SOL    HW1 6425   0.670   5.434   0.578
 1842SOL    HW2 6426   0.706   5.548   0.467
 1843SOL     OW 6427   0.701   1.998   4.528
 1843SOL    HW1 6428   0.727   2.088   4.493
 1843SOL    HW2 6429   0.682   2.004   4.626
 1844SOL     OW 6430   3.260   0.832   5.377
 1844SOL    HW1 6431   3.208   0.760   5.331
 1844SOL    HW2 6432   3.235   0.921   5.339
 1845SOL     OW 6433   2.157   6.762   5.483
 1845SOL    HW1 6434   2.148   6.850   5.528
 1845SOL    HW2 6435   2.072   6.738   5.437
 1846SOL     OW 6436   3.908   1.829   0.463
 1846SOL    HW1 6437   3.942   1.788   0.548
 1846SOL    HW2 6438   3.984   1.873   0.415
 1847SOL     OW 6439   1.355   0.772   6.459
 1847SOL    HW1 6440   1.279   0.708   6.472
 1847SOL    HW2 6441   1.415   0.770   6.540
 1848SOL     OW 6442   1.170   6.934   2.020
 1848SOL    HW1 6443   1.160   6.979   2.109
 1848SOL    HW2 6444   1.209   6.999   1.954
 1849SOL     OW 6445   3.624   1.720   0.653
 1849SOL    HW1 6446   3.614   1.792   0.584
 1849SOL    HW2 6447   3.552   1.730   0.722
 1850SOL     OW 6448   6.459   2.939   2.558
 1850SOL    HW1 6449   6.397   2.931   2.480
 1850SOL    HW2 6450   6.525   3.012   2.541
 1851SOL     OW 6451   0.531   2.046   1.376
 1851SOL    HW1 6452   0.553   1.967   1.320
 1851SOL    HW2 6453   0.513   2.125   1.317
 1852SOL     OW 6454   5.919   3.923   1.133
 1852SOL    HW1 6455   5.827   3.885   1.120
 1852SOL    HW2 6456   5.960   3.883   1.215
 1853SOL     OW 6457   0.677   2.997   2.549
 1853SOL    HW1 6458   0.753   2.939   2.520
 1853SOL    HW2 6459   0.709   3.091   2.559
 1854SOL     OW 6460   2.597   5.856   2.967
 1854SOL    HW1 6461   2.606   5.954   2.951
 1854SOL    HW2 6462   2.581   5.809   2.880
 1855SOL     OW 6463   4.481   4.228   6.856
 1855SOL    HW1 6464   4.500   4.131   6.869
 1855SOL    HW2 6465   4.421   4.261   6.930
 1856SOL     OW 6466   6.434   3.811   5.198
 1856SOL    HW1 6467   6.395   3.818   5.106
 1856SOL    HW2 6468   6.518   3.758   5.194
 1857SOL     OW 6469   3.300   0.879   6.299
 1857SOL    HW1 6470   3.236   0.934   6.351
 1857SOL    HW2 6471   3.277   0.885   6.201
 1858SOL     OW 6472   6.266   2.726   3.938
 1858SOL    HW1 6473   6.177   2.686   3.917
 1858SOL    HW2 6474   6.338   2.671   3.895
 1859SOL     OW 6475   4.347   1.466   3.061
 1859SOL    HW1 6476   4.247   1.471   3.063
 1859SOL    HW2 6477   4.383   1.543   3.008
 1860SOL     OW 6478   6.157   0.630   3.325
 1860SOL    HW1 6479   6.216   0.635   3.244
 1860SOL    HW2 6480   6.197   0.685   3.399
 1861SOL     OW 6481   5.103   6.625   2.695
 1861SOL    HW1 6482   5.031   6.671   2.643
 1861SOL    HW2 6483   5.152   6.692   2.750
 1862SOL     OW 6484   2.188   0.111   6.466
 1862SOL    HW1 6485   2.190   0.118   6.566
 1862SOL    HW2 6486   2.137   0.189   6.428
 1863SOL     OW 6487   1.829   2.017   6.938
 1863SOL    HW1 6488   1.729   2.028   6.938
 1863SOL    HW2 6489   1.852   1.925   6.908
 1864SOL     OW 6490   1.198   6.702   5.427
 1864SOL    HW1 6491   1.296   6.717   5.438
 1864SOL    HW2 6492   1.148   6.778   5.469
 1865SOL     OW 6493   3.294   6.906   5.731
 1865SOL    HW1 6494   3.202   6.903   5.770
 1865SOL    HW2 6495   3.335   6.815   5.736
 1866SOL     OW 6496   4.453   4.826   3.250
 1866SOL    HW1 6497   4.393   4.865   3.321
 1866SOL    HW2 6498   4.399   4.766   3.191
 1867SOL     OW 6499   1.096   4.735   0.266
 1867SOL    HW1 6500   1.025   4.679   0.309
 1867SOL    HW2 6501   1.186   4.704   0.296
 1868SOL     OW 6502   4.910   3.823   0.728
 1868SOL    HW1 6503   4.938   3.728   0.742
 1868SOL    HW2 6504   4.831   3.843   0.786
 1869SOL     OW 6505   6.119   2.324   5.632
 1869SOL    HW1 6506   6.133   2.239   5.683
 1869SOL    HW2 6507   6.194   2.334   5.565
 1870SOL     OW 6508   1.739   2.963   6.177
 1870SOL    HW1 6509   1.672   2.889   6.176
 1870SOL    HW2 6510   1.788   2.963   6.265
 1871SOL     OW 6511   0.499   0.344   6.887
 1871SOL    HW1 6512   0.461   0.353   6.979
 1871SOL    HW2 6513   0.459   0.264   6.842
 1872SOL     OW 6514   3.907   3.163   0.319
 1872SOL    HW1 6515   3.994   3.207   0.296
 1872SOL    HW2 6516   3.866   3.125   0.237
 1873SOL     OW 6517   4.751   1.567   5.376
 1873SOL    HW1 6518   4.663   1.595   5.417
 1873SOL    HW2 6519   4.820   1.636   5.396
 1874SOL     OW 6520   3.077   1.179   0.905
 1874SOL    HW1 6521   3.170   1.214   0.915
 1874SOL    HW2 6522   3.027   1.191   0.991
 1875SOL     OW 6523   0.756   1.479   0.084
 1875SOL    HW1 6524   0.788   1.387   0.105
 1875SOL    HW2 6525   0.751   1.490   7.007
 1876SOL     OW 6526   3.533   0.016   5.821
 1876SOL    HW1 6527   3.456   6.976   5.806
 1876SOL    HW2 6528   3.544   0.074   5.741
 1877SOL     OW 6529   0.495   0.195   2.650
 1877SOL    HW1 6530   0.397   0.214   2.652
 1877SOL    HW2 6531   0.540   0.244   2.725
 1878SOL     OW 6532   6.478   1.949   3.852
 1878SOL    HW1 6533   6.565   1.976   3.813
 1878SOL    HW2 6534   6.405   2.009   3.818
 1879SOL     OW 6535   1.040   4.551   4.282
 1879SOL    HW1 6536   1.075   4.579   4.371
 1879SOL    HW2 6537   1.114   4.556   4.215
 1880SOL     OW 6538   6.939   1.671   4.788
 1880SOL    HW1 6539   7.012   1.735   4.763
 1880SOL    HW2 6540   6.979   1.584   4.816
 1881SOL     OW 6541   5.971   1.953   3.136
 1881SOL    HW1 6542   5.929   1.977   3.048
 1881SOL    HW2 6543   6.026   2.029   3.168
 1882SOL     OW 6544   1.573   4.029   6.215
 1882SOL    HW1 6545   1.549   4.118   6.253
 1882SOL    HW2 6546   1.608   4.041   6.121
 1883SOL     OW 6547   6.907   2.117   3.261
 1883SOL    HW1 6548   6.815   2.155   3.273
 1883SOL    HW2 6549   6.904   2.017   3.274
 1884SOL     OW 6550   0.136   1.758   0.619
 1884SOL    HW1 6551   0.121   1.839   0.676
 1884SOL    HW2 6552   0.052   1.736   0.570
 1885SOL     OW 6553   1.988   1.767   6.242
 1885SOL    HW1 6554   2.039   1.686   6.214
 1885SOL    HW2 6555   1.932   1.799   6.165
 1886SOL     OW 6556   1.326   0.357   1.751
 1886SOL    HW1 6557   1.347   0.389   1.843
 1886SOL    HW2 6558   1.407   0.366   1.693
 1887SOL     OW 6559   1.213   5.634   5.627
 1887SOL    HW1 6560   1.306   5.629   5.663
 1887SOL    HW2 6561   1.214   5.614   5.529
 1888SOL     OW 6562   2.980   2.596   6.905
 1888SOL    HW1 6563   2.953   2.600   7.001
 1888SOL    HW2 6564   2.907   2.553   6.852
 1889SOL     OW 6565   0.530   3.628   5.214
 1889SOL    HW1 6566   0.460   3.597   5.149
 1889SOL    HW2 6567   0.486   3.668   5.294
 1890SOL     OW 6568   1.485   5.851   4.088
 1890SOL    HW1 6569   1.535   5.934   4.115
 1890SOL    HW2 6570   1.406   5.877   4.033
 1891SOL     OW 6571   4.961   2.916   1.598
 1891SOL    HW1 6572   4.940   2.921   1.695
 1891SOL    HW2 6573   4.878   2.894   1.546
 1892SOL     OW 6574   1.447   0.430   2.720
 1892SOL    HW1 6575   1.507   0.510   2.729
 1892SOL    HW2 6576   1.484   0.368   2.652
 1893SOL     OW 6577   3.205   3.458   1.770
 1893SOL    HW1 6578   3.247   3.367   1.764
 1893SOL    HW2 6579   3.126   3.463   1.710
 1894SOL     OW 6580   4.034   3.515   3.703
 1894SOL    HW1 6581   4.109   3.462   3.663
 1894SOL    HW2 6582   3.975   3.551   3.630
 1895SOL     OW 6583   4.017   0.467   1.102
 1895SOL    HW1 6584   4.061   0.517   1.176
 1895SOL    HW2 6585   3.918   0.468   1.115
 1896SOL     OW 6586   5.852   1.531   1.627
 1896SOL    HW1 6587   5.818   1.617   1.589
 1896SOL    HW2 6588   5.874   1.468   1.553
 1897SOL     OW 6589   2.038   5.381   1.556
 1897SOL    HW1 6590   2.136   5.379   1.533
 1897SOL    HW2 6591   1.985   5.354   1.476
 1898SOL     OW 6592   1.919   5.222   4.000
 1898SOL    HW1 6593   1.933   5.290   4.071
 1898SOL    HW2 6594   2.004   5.171   3.986
 1899SOL     OW 6595   0.319   1.245   1.246
 1899SOL    HW1 6596   0.328   1.153   1.285
 1899SOL    HW2 6597   0.365   1.248   1.157
 1900SOL     OW 6598   2.183   0.898   6.780
 1900SOL    HW1 6599   2.250   0.827   6.804
 1900SOL    HW2 6600   2.230   0.985   6.771
 1901SOL     OW 6601   1.860   2.013   0.566
 1901SOL    HW1 6602   1.845   2.031   0.663
 1901SOL    HW2 6603   1.915   2.087   0.527
 1902SOL     OW 6604   2.144   0.684   5.092
 1902SOL    HW1 6605   2.235   0.646   5.076
 1902SOL    HW2 6606   2.097   0.696   5.004
 1903SOL     OW 6607   0.499   3.225   3.153
 1903SOL    HW1 6608   0.440   3.147   3.175
 1903SOL    HW2 6609   0.455   3.280   3.082
 1904SOL     OW 6610   5.884   5.166   3.650
 1904SOL    HW1 6611   5.798   5.154   3.699
 1904SOL    HW2 6612   5.919   5.076   3.623
 1905SOL     OW 6613   0.914   0.254   3.304
 1905SOL    HW1 6614   0.899   0.198   3.223
 1905SOL    HW2 6615   0.883   0.205   3.386
 1906SOL     OW 6616   2.945   0.400   5.425
 1906SOL    HW1 6617   2.975   0.428   5.516
 1906SOL    HW2 6618   2.913   0.305   5.429
 1907SOL     OW 6619   4.343   2.108   1.769
 1907SOL    HW1 6620   4.427   2.056   1.757
 1907SOL    HW2 6621   4.283   2.094   1.690
 1908SOL     OW 6622   3.716   5.908   6.157
 1908SOL    HW1 6623   3.778   5.913   6.235
 1908SOL    HW2 6624   3.755   5.960   6.080
 1909SOL     OW 6625   0.856   2.994   3.722
 1909SOL    HW1 6626   0.759   2.997   3.746
 1909SOL    HW2 6627   0.870   2.928   3.648
 1910SOL     OW 6628   0.346   5.323   5.943
 1910SOL    HW1 6629   0.311   5.415   5.960
 1910SOL    HW2 6630   0.288   5.276   5.877
 1911SOL     OW 6631   0.352   3.556   4.579
 1911SOL    HW1 6632   0.389   3.599   4.496
 1911SOL    HW2 6633   0.427   3.528   4.638
 1912SOL     OW 6634   2.816   6.368   1.810
 1912SOL    HW1 6635   2.903   6.416   1.821
 1912SOL    HW2 6636   2.833   6.277   1.771
 1913SOL     OW 6637   3.144   0.838   4.287
 1913SOL    HW1 6638   3.209   0.795   4.225
 1913SOL    HW2 6639   3.192   0.875   4.366
 1914SOL     OW 6640   3.500   2.807   6.848
 1914SOL    HW1 6641   3.496   2.864   6.766
 1914SOL    HW2 6642   3.594   2.776   6.863
 1915SOL     OW 6643   4.082   2.501   5.732
 1915SOL    HW1 6644   3.987   2.531   5.727
 1915SOL    HW2 6645   4.089   2.424   5.795
 1916SOL     OW 6646   4.196   5.932   1.331
 1916SOL    HW1 6647   4.143   5.854   1.297
 1916SOL    HW2 6648   4.236   5.982   1.254
 1917SOL     OW 6649   1.902   3.688   0.051
 1917SOL    HW1 6650   1.935   3.710   6.981
 1917SOL    HW2 6651   1.811   3.647   0.044
 1918SOL     OW 6652   1.093   1.300   4.794
 1918SOL    HW1 6653   1.048   1.270   4.878
 1918SOL    HW2 6654   1.187   1.265   4.792
 1919SOL     OW 6655   1.788   1.731   1.652
 1919SOL    HW1 6656   1.887   1.722   1.658
 1919SOL    HW2 6657   1.764   1.788   1.574
 1920SOL     OW 6658   6.381   3.875   3.105
 1920SOL    HW1 6659   6.393   3.963   3.058
 1920SOL    HW2 6660   6.284   3.863   3.127
 1921SOL     OW 6661   1.900   3.209   0.087
 1921SOL    HW1 6662   1.987   3.164   0.104
 1921SOL    HW2 6663   1.910   3.275   0.013
 1922SOL     OW 6664   3.023   3.718   1.826
 1922SOL    HW1 6665   3.082   3.756   1.897
 1922SOL    HW2 6666   2.944   3.778   1.813
 1923SOL     OW 6667   4.200   2.175   6.566
 1923SOL    HW1 6668   4.155   2.201   6.481
 1923SOL    HW2 6669   4.155   2.095   6.605
 1924SOL     OW 6670   4.545   6.581   0.200
 1924SOL    HW1 6671   4.495   6.665   0.221
 1924SOL    HW2 6672   4.640   6.590   0.231
 1925SOL     OW 6673   1.303   5.358   1.441
 1925SOL    HW1 6674   1.205   5.375   1.450
 1925SOL    HW2 6675   1.347   5.365   1.531
 1926SOL     OW 6676   3.288   0.146   2.097
 1926SOL    HW1 6677   3.193   0.166   2.073
 1926SOL    HW2 6678   3.348   0.212   2.053
 1927SOL     OW 6679   2.197   4.195   0.685
 1927SOL    HW1 6680   2.190   4.291   0.655
 1927SOL    HW2 6681   2.206   4.193   0.785
 1928SOL     OW 6682   5.273   4.298   4.782
 1928SOL    HW1 6683   5.294   4.331   4.690
 1928SOL    HW2 6684   5.339   4.226   4.807
 1929SOL     OW 6685   2.234   0.627   1.727
 1929SOL    HW1 6686   2.139   0.600   1.745
 1929SOL    HW2 6687   2.235   0.705   1.664
 1930SOL     OW 6688   5.566   3.176   6.576
 1930SOL    HW1 6689   5.524   3.149   6.663
 1930SOL    HW2 6690   5.519   3.130   6.501
 1931SOL     OW 6691   0.982   1.614   7.011
 1931SOL    HW1 6692   0.938   1.704   7.009
 1931SOL    HW2 6693   0.929   1.552   0.047
 1932SOL     OW 6694   4.627   2.659   3.539
 1932SOL    HW1 6695   4.628   2.574   3.592
 1932SOL    HW2 6696   4.663   2.733   3.595
 1933SOL     OW 6697   1.349   2.490   0.803
 1933SOL    HW1 6698   1.407   2.479   0.722
 1933SOL    HW2 6699   1.254   2.469   0.779
 1934SOL     OW 6700   0.193   1.008   5.058
 1934SOL    HW1 6701   0.214   0.950   5.137
 1934SOL    HW2 6702   0.104   0.981   5.020
 1935SOL     OW 6703   4.383   4.635   3.563
 1935SOL    HW1 6704   4.363   4.570   3.637
 1935SOL    HW2 6705   4.306   4.638   3.500
 1936SOL     OW 6706   4.879   3.772   4.029
 1936SOL    HW1 6707   4.893   3.673   4.037
 1936SOL    HW2 6708   4.874   3.797   3.933
 1937SOL     OW 6709   4.373   6.138   0.174
 1937SOL    HW1 6710   4.443   6.160   0.106
 1937SOL    HW2 6711   4.283   6.151   0.133
 1938SOL     OW 6712   1.511   1.813   0.727
 1938SOL    HW1 6713   1.565   1.840   0.806
 1938SOL    HW2 6714   1.435   1.876   0.716
 1939SOL     OW 6715   0.226   6.148   4.103
 1939SOL    HW1 6716   0.165   6.167   4.180
 1939SOL    HW2 6717   0.235   6.050   4.090
 1940SOL     OW 6718   6.237   4.520   1.156
 1940SOL    HW1 6719   6.289   4.441   1.188
 1940SOL    HW2 6720   6.142   4.511   1.185
 1941SOL     OW 6721   1.122   3.166   3.446
 1941SOL    HW1 6722   1.181   3.176   3.366
 1941SOL    HW2 6723   1.154   3.089   3.502
 1942SOL     OW 6724   5.497   3.645   2.784
 1942SOL    HW1 6725   5.492   3.558   2.832
 1942SOL    HW2 6726   5.421   3.651   2.719
 1943SOL     OW 6727   1.081   1.330   2.628
 1943SOL    HW1 6728   1.104   1.271   2.707
 1943SOL    HW2 6729   1.158   1.391   2.610
 1944SOL     OW 6730   6.303   4.292   0.121
 1944SOL    HW1 6731   6.222   4.310   0.177
 1944SOL    HW2 6732   6.284   4.217   0.058
 1945SOL     OW 6733   3.907   6.152   0.643
 1945SOL    HW1 6734   3.983   6.105   0.598
 1945SOL    HW2 6735   3.917   6.144   0.742
 1946SOL     OW 6736   5.801   6.591   1.460
 1946SOL    HW1 6737   5.829   6.542   1.542
 1946SOL    HW2 6738   5.837   6.544   1.379
 1947SOL     OW 6739   5.969   5.611   4.172
 1947SOL    HW1 6740   6.041   5.604   4.103
 1947SOL    HW2 6741   5.939   5.706   4.180
 1948SOL     OW 6742   5.475   5.331   2.823
 1948SOL    HW1 6743   5.405   5.401   2.835
 1948SOL    HW2 6744   5.565   5.370   2.842
 1949SOL     OW 6745   4.165   3.827   0.238
 1949SOL    HW1 6746   4.196   3.767   0.311
 1949SOL    HW2 6747   4.067   3.845   0.248
 1950SOL     OW 6748   3.931   3.228   3.319
 1950SOL    HW1 6749   4.000   3.274   3.375
 1950SOL    HW2 6750   3.891   3.152   3.370
 1951SOL     OW 6751   6.995   4.282   6.309
 1951SOL    HW1 6752   6.953   4.367   6.339
 1951SOL    HW2 6753   0.034   4.248   6.381
 1952SOL     OW 6754   5.521   5.094   1.135
 1952SOL    HW1 6755   5.504   5.192   1.150
 1952SOL    HW2 6756   5.619   5.079   1.123
 1953SOL     OW 6757   6.640   1.431   6.501
 1953SOL    HW1 6758   6.731   1.472   6.499
 1953SOL    HW2 6759   6.641   1.352   6.561
 1954SOL     OW 6760   5.534   6.814   1.354
 1954SOL    HW1 6761   5.503   6.899   1.396
 1954SOL    HW2 6762   5.600   6.835   1.282
 1955SOL     OW 6763   0.091   0.964   1.570
 1955SOL    HW1 6764   0.076   1.037   1.504
 1955SOL    HW2 6765   0.003   0.927   1.599
 1956SOL     OW 6766   4.587   6.844   2.964
 1956SOL    HW1 6767   4.653   6.828   2.890
 1956SOL    HW2 6768   4.506   6.787   2.949
 1957SOL     OW 6769   5.386   3.881   3.952
 1957SOL    HW1 6770   5.470   3.875   3.898
 1957SOL    HW2 6771   5.373   3.796   4.003
 1958SOL     OW 6772   4.863   1.366   1.800
 1958SOL    HW1 6773   4.898   1.457   1.820
 1958SOL    HW2 6774   4.767   1.360   1.826
 1959SOL     OW 6775   6.907   6.430   3.794
 1959SOL    HW1 6776   6.880   6.518   3.831
 1959SOL    HW2 6777   6.941   6.442   3.700
 1960SOL     OW 6778   0.356   3.397   2.974
 1960SOL    HW1 6779   0.263   3.362   2.959
 1960SOL    HW2 6780   0.417   3.360   2.904
 1961SOL     OW 6781   6.339   4.508   4.566
 1961SOL    HW1 6782   6.262   4.571   4.557
 1961SOL    HW2 6783   6.379   4.491   4.476
 1962SOL     OW 6784   1.069   5.863   2.491
 1962SOL    HW1 6785   1.158   5.902   2.466
 1962SOL    HW2 6786   1.026   5.919   2.562
 1963SOL     OW 6787   1.604   2.138   1.170
 1963SOL    HW1 6788   1.532   2.164   1.235
 1963SOL    HW2 6789   1.629   2.042   1.184
 1964SOL     OW 6790   5.016   4.671   1.741
 1964SOL    HW1 6791   5.044   4.766   1.726
 1964SOL    HW2 6792   5.050   4.613   1.667
 1965SOL     OW 6793   1.725   2.717   4.188
 1965SOL    HW1 6794   1.825   2.718   4.186
 1965SOL    HW2 6795   1.691   2.655   4.117
 1966SOL     OW 6796   1.661   5.111   1.135
 1966SOL    HW1 6797   1.650   5.012   1.131
 1966SOL    HW2 6798   1.585   5.151   1.186
 1967SOL     OW 6799   6.433   2.703   4.193
 1967SOL    HW1 6800   6.447   2.760   4.112
 1967SOL    HW2 6801   6.396   2.758   4.268
 1968SOL     OW 6802   2.847   1.218   5.274
 1968SOL    HW1 6803   2.776   1.160   5.235
 1968SOL    HW2 6804   2.886   1.174   5.355
 1969SOL     OW 6805   3.229   0.926   1.439
 1969SOL    HW1 6806   3.223   0.969   1.349
 1969SOL    HW2 6807   3.237   0.997   1.509
 1970SOL     OW 6808   6.862   0.178   5.686
 1970SOL    HW1 6809   6.850   0.088   5.643
 1970SOL    HW2 6810   6.908   0.167   5.774
 1971SOL     OW 6811   0.474   0.296   5.541
 1971SOL    HW1 6812   0.573   0.278   5.546
 1971SOL    HW2 6813   0.453   0.379   5.592
 1972SOL     OW 6814   5.929   2.607   1.478
 1972SOL    HW1 6815   5.889   2.557   1.402
 1972SOL    HW2 6816   5.973   2.543   1.541
 1973SOL     OW 6817   2.461   4.100   1.699
 1973SOL    HW1 6818   2.433   4.130   1.608
 1973SOL    HW2 6819   2.397   4.136   1.768
 1974SOL     OW 6820   4.315   0.033   4.886
 1974SOL    HW1 6821   4.355   6.975   4.841
 1974SOL    HW2 6822   4.377   0.111   4.878
 1975SOL     OW 6823   1.997   2.705   4.177
 1975SOL    HW1 6824   1.984   2.617   4.222
 1975SOL    HW2 6825   2.091   2.711   4.143
 1976SOL     OW 6826   5.060   6.294   6.292
 1976SOL    HW1 6827   5.135   6.267   6.352
 1976SOL    HW2 6828   4.985   6.228   6.299
 1977SOL     OW 6829   2.318   3.327   6.095
 1977SOL    HW1 6830   2.370   3.336   6.010
 1977SOL    HW2 6831   2.331   3.408   6.152
 1978SOL     OW 6832   1.509   6.118   2.863
 1978SOL    HW1 6833   1.490   6.103   2.960
 1978SOL    HW2 6834   1.454   6.195   2.831
 1979SOL     OW 6835   5.471   5.243   0.025
 1979SOL    HW1 6836   5.548   5.306   0.041
 1979SOL    HW2 6837   5.440   5.252   6.953
 1980SOL     OW 6838   3.693   0.639   2.800
 1980SOL    HW1 6839   3.608   0.589   2.818
 1980SOL    HW2 6840   3.771   0.584   2.833
 1981SOL     OW 6841   5.462   2.542   2.240
 1981SOL    HW1 6842   5.423   2.506   2.325
 1981SOL    HW2 6843   5.401   2.521   2.164
 1982SOL     OW 6844   6.802   3.918   3.688
 1982SOL    HW1 6845   6.730   3.876   3.743
 1982SOL    HW2 6846   6.787   3.899   3.592
 1983SOL     OW 6847   0.545   0.194   1.469
 1983SOL    HW1 6848   0.489   0.125   1.423
 1983SOL    HW2 6849   0.618   0.148   1.521
 1984SOL     OW 6850   5.026   2.687   5.304
 1984SOL    HW1 6851   5.019   2.617   5.233
 1984SOL    HW2 6852   4.940   2.693   5.354
 1985SOL     OW 6853   6.639   5.548   2.183
 1985SOL    HW1 6854   6.650   5.632   2.131
 1985SOL    HW2 6855   6.698   5.550   2.264
 1986SOL     OW 6856   2.845   1.354   6.169
 1986SOL    HW1 6857   2.916   1.311   6.224
 1986SOL    HW2 6858   2.802   1.286   6.110
 1987SOL     OW 6859   1.984   1.614   4.198
 1987SOL    HW1 6860   2.002   1.516   4.208
 1987SOL    HW2 6861   1.966   1.636   4.102
 1988SOL     OW 6862   6.817   1.374   1.281
 1988SOL    HW1 6863   6.729   1.372   1.326
 1988SOL    HW2 6864   6.822   1.452   1.218
 1989SOL     OW 6865   2.368   6.069   4.035
 1989SOL    HW1 6866   2.343   6.163   4.011
 1989SOL    HW2 6867   2.289   6.009   4.018
 1990SOL     OW 6868   3.572   6.997   0.800
 1990SOL    HW1 6869   3.585   6.898   0.798
 1990SOL    HW2 6870   3.560   0.009   0.707
 1991SOL     OW 6871   2.329   5.078   0.053
 1991SOL    HW1 6872   2.351   5.034   0.139
 1991SOL    HW2 6873   2.412   5.091   7.021
 1992SOL     OW 6874   6.770   0.025   0.772
 1992SOL    HW1 6875   6.813   0.033   0.862
 1992SOL    HW2 6876   6.682   0.073   0.773
 1993SOL     OW 6877   3.400   2.159   4.559
 1993SOL    HW1 6878   3.474   2.112   4.509
 1993SOL    HW2 6879   3.433   2.184   4.649
 1994SOL     OW 6880   4.894   1.785   0.931
 1994SOL    HW1 6881   4.953   1.704   0.927
 1994SOL    HW2 6882   4.858   1.796   1.023
 1995SOL     OW 6883   5.567   3.585   4.393
 1995SOL    HW1 6884   5.484   3.544   4.433
 1995SOL    HW2 6885   5.605   3.522   4.325
 1996SOL     OW 6886   2.535   1.300   1.103
 1996SOL    HW1 6887   2.551   1.390   1.064
 1996SOL    HW2 6888   2.602   1.235   1.066
 1997SOL     OW 6889   2.902   1.682   4.111
 1997SOL    HW1 6890   2.887   1.773   4.071
 1997SOL    HW2 6891   2.994   1.649   4.087
 1998SOL     OW 6892   1.413   3.633   0.727
 1998SOL    HW1 6893   1.389   3.671   0.637
 1998SOL    HW2 6894   1.512   3.624   0.734
 1999SOL     OW 6895   0.281   0.682   4.823
 1999SOL    HW1 6896   0.300   0.735   4.741
 1999SOL    HW2 6897   0.358   0.688   4.886
 2000SOL     OW 6898   3.941   3.748   6.124
 2000SOL    HW1 6899   3.886   3.672   6.088
 2000SOL    HW2 6900   3.976   3.802   6.047
 2001SOL     OW 6901   1.057   1.889   0.435
 2001SOL    HW1 6902   1.125   1.858   0.501
 2001SOL    HW2 6903   1.029   1.812   0.377
 2002SOL     OW 6904   0.655   5.659   0.779
 2002SOL    HW1 6905   0.676   5.756   0.764
 2002SOL    HW2 6906   0.653   5.611   0.692
 2003SOL     OW 6907   6.674   5.198   1.764
 2003SOL    HW1 6908   6.644   5.260   1.837
 2003SOL    HW2 6909   6.744   5.136   1.800
 2004SOL     OW 6910   4.442   1.232   4.230
 2004SOL    HW1 6911   4.417   1.175   4.151
 2004SOL    HW2 6912   4.531   1.204   4.265
 2005SOL     OW 6913   6.860   5.332   6.840
 2005SOL    HW1 6914   6.885   5.379   6.755
 2005SOL    HW2 6915   6.935   5.341   6.906
 2006SOL     OW 6916   5.356   0.075   4.033
 2006SOL    HW1 6917   5.415   0.001   4.067
 2006SOL    HW2 6918   5.339   0.061   3.935
 2007SOL     OW 6919   5.558   4.005   1.127
 2007SOL    HW1 6920   5.540   3.980   1.032
 2007SOL    HW2 6921   5.646   4.053   1.133
 2008SOL     OW 6922   2.144   3.303   4.086
 2008SOL    HW1 6923   2.153   3.336   4.179
 2008SOL    HW2 6924   2.122   3.379   4.025
 2009SOL     OW 6925   5.267   6.454   1.917
 2009SOL    HW1 6926   5.309   6.399   1.989
 2009SOL    HW2 6927   5.173   6.423   1.902
 2010SOL     OW 6928   1.555   1.865   1.704
 2010SOL    HW1 6929   1.644   1.818   1.701
 2010SOL    HW2 6930   1.564   1.951   1.754
 2011SOL     OW 6931   6.685   0.483   5.038
 2011SOL    HW1 6932   6.668   0.542   4.959
 2011SOL    HW2 6933   6.723   0.396   5.007
 2012SOL     OW 6934   1.386   3.622   2.158
 2012SOL    HW1 6935   1.330   3.543   2.183
 2012SOL    HW2 6936   1.450   3.595   2.086
 2013SOL     OW 6937   6.913   3.121   3.495
 2013SOL    HW1 6938   6.982   3.054   3.468
 2013SOL    HW2 6939   6.829   3.074   3.520
 2014SOL     OW 6940   3.088   0.535   3.003
 2014SOL    HW1 6941   3.084   0.611   3.067
 2014SOL    HW2 6942   3.114   0.452   3.052
 2015SOL     OW 6943   3.379   0.044   1.000
 2015SOL    HW1 6944   3.442   7.006   0.952
 2015SOL    HW2 6945   3.358   0.123   0.942
 2016SOL     OW 6946   1.491   5.654   5.700
 2016SOL    HW1 6947   1.549   5.582   5.664
 2016SOL    HW2 6948   1.497   5.734   5.640
 2017SOL     OW 6949   4.158   0.740   3.378
 2017SOL    HW1 6950   4.133   0.773   3.470
 2017SOL    HW2 6951   4.085   0.763   3.314
 2018SOL     OW 6952   0.064   2.613   4.010
 2018SOL    HW1 6953   6.993   2.649   4.005
 2018SOL    HW2 6954   0.067   2.522   3.968
 2019SOL     OW 6955   6.416   4.361   6.240
 2019SOL    HW1 6956   6.320   4.358   6.210
 2019SOL    HW2 6957   6.432   4.287   6.305
 2020SOL     OW 6958   1.164   6.264   6.351
 2020SOL    HW1 6959   1.129   6.358   6.356
 2020SOL    HW2 6960   1.247   6.256   6.406
 2021SOL     OW 6961   6.041   7.000   3.480
 2021SOL    HW1 6962   5.998   6.970   3.565
 2021SOL    HW2 6963   6.029   0.077   3.469
 2022SOL     OW 6964   1.749   4.721   4.561
 2022SOL    HW1 6965   1.691   4.640   4.574
 2022SOL    HW2 6966   1.837   4.707   4.605
 2023SOL     OW 6967   6.943   0.161   6.463
 2023SOL    HW1 6968   6.852   0.174   6.503
 2023SOL    HW2 6969   6.994   0.095   6.518
 2024SOL     OW 6970   7.017   5.832   3.876
 2024SOL    HW1 6971   6.949   5.775   3.828
 2024SOL    HW2 6972   0.022   5.907   3.816
 2025SOL     OW 6973   3.148   0.694   3.367
 2025SOL    HW1 6974   3.185   0.751   3.439
 2025SOL    HW2 6975   3.125   0.604   3.404
 2026SOL     OW 6976   6.461   1.915   6.942
 2026SOL    HW1 6977   6.529   1.969   6.893
 2026SOL    HW2 6978   6.402   1.868   6.876
 2027SOL     OW 6979   0.572   6.128   1.648
 2027SOL    HW1 6980   0.634   6.192   1.602
 2027SOL    HW2 6981   0.594   6.035   1.619
 2028SOL     OW 6982   3.451   5.798   2.795
 2028SOL    HW1 6983   3.506   5.864   2.846
 2028SOL    HW2 6984   3.458   5.816   2.697
 2029SOL     OW 6985   6.672   1.751   0.311
 2029SOL    HW1 6986   6.603   1.794   0.368
 2029SOL    HW2 6987   6.640   1.747   0.216
 2030SOL     OW 6988   3.361   6.843   2.590
 2030SOL    HW1 6989   3.432   6.793   2.541
 2030SOL    HW2 6990   3.376   6.941   2.581
 2031SOL     OW 6991   6.920   5.864   2.537
 2031SOL    HW1 6992   6.860   5.865   2.457
 2031SOL    HW2 6993   6.902   5.945   2.594
 2032SOL     OW 6994   3.335   1.290   0.923
 2032SOL    HW1 6995   3.317   1.363   0.989
 2032SOL    HW2 6996   3.354   1.331   0.833
 2033SOL     OW 6997   1.665   1.332   0.613
 2033SOL    HW1 6998   1.645   1.252   0.670
 2033SOL    HW2 6999   1.646   1.415   0.665
 2034SOL     OW 7000   1.567   5.492   5.378
 2034SOL    HW1 7001   1.563   5.535   5.288
 2034SOL    HW2 7002   1.492   5.426   5.386
 2035SOL     OW 7003   6.367   0.164   2.282
 2035SOL    HW1 7004   6.375   0.109   2.365
 2035SOL    HW2 7005   6.400   0.111   2.204
 2036SOL     OW 7006   1.383   3.347   3.025
 2036SOL    HW1 7007   1.476   3.350   3.061
 2036SOL    HW2 7008   1.367   3.427   2.967
 2037SOL     OW 7009   6.831   2.556   6.105
 2037SOL    HW1 7010   6.829   2.521   6.198
 2037SOL    HW2 7011   6.766   2.504   6.049
 2038SOL     OW 7012   2.704   1.078   0.184
 2038SOL    HW1 7013   2.608   1.106   0.186
 2038SOL    HW2 7014   2.762   1.158   0.177
 2039SOL     OW 7015   6.876   5.561   2.340
 2039SOL    HW1 7016   6.900   5.539   2.435
 2039SOL    HW2 7017   6.950   5.615   2.299
 2040SOL     OW 7018   1.876   2.464   6.810
 2040SOL    HW1 7019   1.937   2.416   6.746
 2040SOL    HW2 7020   1.803   2.402   6.839
 2041SOL     OW 7021   1.565   6.868   5.244
 2041SOL    HW1 7022   1.515   6.800   5.298
 2041SOL    HW2 7023   1.637   6.909   5.300
 2042SOL     OW 7024   4.907   6.985   6.155
 2042SOL    HW1 7025   4.844   6.912   6.129
 2042SOL    HW2 7026   4.860   0.051   6.152
 2043SOL     OW 7027   6.464   2.173   2.146
 2043SOL    HW1 7028   6.484   2.267   2.120
 2043SOL    HW2 7029   6.529   2.143   2.216
 2044SOL     OW 7030   5.941   1.001   1.721
 2044SOL    HW1 7031   5.947   0.913   1.769
 2044SOL    HW2 7032   5.891   0.988   1.635
 2045SOL     OW 7033   1.903   5.998   5.272
 2045SOL    HW1 7034   1.853   5.913   5.287
 2045SOL    HW2 7035   1.906   6.019   5.174
 2046SOL     OW 7036   6.650   1.910   5.686
 2046SOL    HW1 7037   6.557   1.877   5.669
 2046SOL    HW2 7038   6.676   1.975   5.615
 2047SOL     OW 7039   6.207   2.063   1.079
 2047SOL    HW1 7040   6.182   2.102   0.991
 2047SOL    HW2 7041   6.306   2.073   1.093
 2048SOL     OW 7042   0.595   1.739   4.842
 2048SOL    HW1 7043   0.663   1.706   4.776
 2048SOL    HW2 7044   0.507   1.749   4.796
 2049SOL     OW 7045   4.855   1.208   4.884
 2049SOL    HW1 7046   4.827   1.259   4.802
 2049SOL    HW2 7047   4.839   1.264   4.965
 2050SOL     OW 7048   6.940   2.153   4.864
 2050SOL    HW1 7049   7.002   2.215   4.913
 2050SOL    HW2 7050   6.926   2.071   4.919
 2051SOL     OW 7051   1.982   5.997   0.263
 2051SOL    HW1 7052   2.058   6.048   0.303
 2051SOL    HW2 7053   2.015   5.940   0.188
 2052SOL     OW 7054   1.258   3.262   0.696
 2052SOL    HW1 7055   1.245   3.349   0.744
 2052SOL    HW2 7056   1.328   3.272   0.626
 2053SOL     OW 7057   0.491   5.539   4.213
 2053SOL    HW1 7058   0.504   5.443   4.238
 2053SOL    HW2 7059   0.576   5.575   4.175
 2054SOL     OW 7060   3.501   2.896   2.571
 2054SOL    HW1 7061   3.500   2.920   2.668
 2054SOL    HW2 7062   3.409   2.870   2.542
 2055SOL     OW 7063   6.800   2.816   5.026
 2055SOL    HW1 7064   6.865   2.891   5.034
 2055SOL    HW2 7065   6.842   2.740   4.976
 2056SOL     OW 7066   4.741   4.519   1.262
 2056SOL    HW1 7067   4.717   4.448   1.329
 2056SOL    HW2 7068   4.693   4.604   1.285
 2057SOL     OW 7069   5.336   3.104   4.400
 2057SOL    HW1 7070   5.337   3.087   4.499
 2057SOL    HW2 7071   5.412   3.056   4.357
 2058SOL     OW 7072   0.501   6.638   2.638
 2058SOL    HW1 7073   0.529   6.658   2.732
 2058SOL    HW2 7074   0.582   6.619   2.582
 2059SOL     OW 7075   2.617   0.821   5.335
 2059SOL    HW1 7076   2.526   0.807   5.375
 2059SOL    HW2 7077   2.656   0.732   5.309
 2060SOL     OW 7078   0.951   3.445   0.373
 2060SOL    HW1 7079   0.948   3.514   0.301
 2060SOL    HW2 7080   0.913   3.359   0.339
 2061SOL     OW 7081   2.162   2.744   2.394
 2061SOL    HW1 7082   2.097   2.675   2.425
 2061SOL    HW2 7083   2.254   2.704   2.392
 2062SOL     OW 7084   6.570   5.229   5.528
 2062SOL    HW1 7085   6.612   5.142   5.554
 2062SOL    HW2 7086   6.590   5.248   5.432
 2063SOL     OW 7087   1.568   6.431   5.170
 2063SOL    HW1 7088   1.480   6.400   5.133
 2063SOL    HW2 7089   1.619   6.479   5.099
 2064SOL     OW 7090   1.408   3.801   4.305
 2064SOL    HW1 7091   1.449   3.711   4.292
 2064SOL    HW2 7092   1.308   3.793   4.297
 2065SOL     OW 7093   5.518   2.906   5.593
 2065SOL    HW1 7094   5.606   2.902   5.642
 2065SOL    HW2 7095   5.448   2.861   5.648
 2066SOL     OW 7096   6.416   3.751   5.660
 2066SOL    HW1 7097   6.458   3.807   5.590
 2066SOL    HW2 7098   6.458   3.770   5.749
 2067SOL     OW 7099   6.055   4.486   2.205
 2067SOL    HW1 7100   5.999   4.569   2.200
 2067SOL    HW2 7101   6.093   4.466   2.115
 2068SOL     OW 7102   3.453   1.232   3.819
 2068SOL    HW1 7103   3.369   1.183   3.796
 2068SOL    HW2 7104   3.465   1.309   3.757
 2069SOL     OW 7105   0.262   2.112   4.251
 2069SOL    HW1 7106   0.309   2.133   4.165
 2069SOL    HW2 7107   0.328   2.074   4.316
 2070SOL     OW 7108   1.478   3.179   1.329
 2070SOL    HW1 7109   1.463   3.081   1.339
 2070SOL    HW2 7110   1.523   3.197   1.242
 2071SOL     OW 7111   6.250   1.669   6.300
 2071SOL    HW1 7112   6.319   1.604   6.330
 2071SOL    HW2 7113   6.225   1.651   6.205
 2072SOL     OW 7114   3.895   4.778   5.684
 2072SOL    HW1 7115   3.837   4.753   5.608
 2072SOL    HW2 7116   3.938   4.696   5.723
 2073SOL     OW 7117   3.814   5.887   6.445
 2073SOL    HW1 7118   3.825   5.952   6.521
 2073SOL    HW2 7119   3.735   5.829   6.462
 2074SOL     OW 7120   1.544   3.097   6.008
 2074SOL    HW1 7121   1.575   3.128   5.918
 2074SOL    HW2 7122   1.622   3.062   6.060
 2075SOL     OW 7123   6.454   2.250   2.570
 2075SOL    HW1 7124   6.430   2.315   2.642
 2075SOL    HW2 7125   6.512   2.295   2.501
 2076SOL     OW 7126   6.288   6.919   4.814
 2076SOL    HW1 7127   6.374   6.970   4.825
 2076SOL    HW2 7128   6.259   6.925   4.718
 2077SOL     OW 7129   6.971   2.349   1.809
 2077SOL    HW1 7130   6.905   2.421   1.828
 2077SOL    HW2 7131   6.973   2.284   1.885
 2078SOL     OW 7132   1.681   4.964   5.929
 2078SOL    HW1 7133   1.686   4.957   6.028
 2078SOL    HW2 7134   1.704   5.057   5.901
 2079SOL     OW 7135   5.184   0.649   2.180
 2079SOL    HW1 7136   5.246   0.608   2.114
 2079SOL    HW2 7137   5.228   0.728   2.223
 2080SOL     OW 7138   3.000   2.115   4.655
 2080SOL    HW1 7139   2.916   2.098   4.602
 2080SOL    HW2 7140   3.071   2.150   4.594
 2081SOL     OW 7141   0.566   6.473   3.433
 2081SOL    HW1 7142   0.502   6.494   3.508
 2081SOL    HW2 7143   0.560   6.544   3.363
 2082SOL     OW 7144   0.634   6.246   2.602
 2082SOL    HW1 7145   0.635   6.177   2.529
 2082SOL    HW2 7146   0.627   6.337   2.561
 2083SOL     OW 7147   0.548   5.745   3.400
 2083SOL    HW1 7148   0.462   5.776   3.358
 2083SOL    HW2 7149   0.538   5.746   3.499
 2084SOL     OW 7150   1.185   2.083   1.142
 2084SOL    HW1 7151   1.193   2.006   1.078
 2084SOL    HW2 7152   1.088   2.105   1.154
 2085SOL     OW 7153   4.877   5.499   0.452
 2085SOL    HW1 7154   4.909   5.582   0.498
 2085SOL    HW2 7155   4.955   5.446   0.420
 2086SOL     OW 7156   3.418   6.724   7.019
 2086SOL    HW1 7157   3.356   6.799   0.020
 2086SOL    HW2 7158   3.482   6.709   0.072
 2087SOL     OW 7159   4.196   2.087   6.922
 2087SOL    HW1 7160   4.218   2.166   6.866
 2087SOL    HW2 7161   4.175   2.009   6.863
 2088SOL     OW 7162   0.913   5.898   6.116
 2088SOL    HW1 7163   0.918   5.934   6.210
 2088SOL    HW2 7164   0.876   5.968   6.056
 2089SOL     OW 7165   3.978   2.690   5.329
 2089SOL    HW1 7166   4.052   2.646   5.278
 2089SOL    HW2 7167   3.931   2.755   5.269
 2090SOL     OW 7168   4.536   3.172   5.775
 2090SOL    HW1 7169   4.437   3.186   5.781
 2090SOL    HW2 7170   4.565   3.106   5.844
 2091SOL     OW 7171   6.749   5.853   1.525
 2091SOL    HW1 7172   6.717   5.945   1.504
 2091SOL    HW2 7173   6.809   5.856   1.605
 2092SOL     OW 7174   4.952   3.917   1.084
 2092SOL    HW1 7175   4.957   4.015   1.103
 2092SOL    HW2 7176   5.015   3.894   1.010
 2093SOL     OW 7177   3.886   2.123   2.162
 2093SOL    HW1 7178   3.817   2.169   2.106
 2093SOL    HW2 7179   3.971   2.176   2.160
 2094SOL     OW 7180   5.737   2.584   0.539
 2094SOL    HW1 7181   5.708   2.659   0.480
 2094SOL    HW2 7182   5.837   2.582   0.544
 2095SOL     OW 7183   5.581   6.048   3.264
 2095SOL    HW1 7184   5.579   6.143   3.296
 2095SOL    HW2 7185   5.671   6.009   3.283
 2096SOL     OW 7186   4.786   6.239   2.991
 2096SOL    HW1 7187   4.710   6.243   3.056
 2096SOL    HW2 7188   4.770   6.306   2.918
 2097SOL     OW 7189   2.465   4.358   6.514
 2097SOL    HW1 7190   2.525   4.356   6.594
 2097SOL    HW2 7191   2.462   4.267   6.472
 2098SOL     OW 7192   3.992   6.151   3.505
 2098SOL    HW1 7193   3.903   6.142   3.462
 2098SOL    HW2 7194   4.045   6.222   3.458
 2099SOL     OW 7195   4.002   1.687   0.172
 2099SOL    HW1 7196   3.988   1.660   0.267
 2099SOL    HW2 7197   3.933   1.755   0.146
 2100SOL     OW 7198   5.168   1.288   0.339
 2100SOL    HW1 7199   5.118   1.308   0.423
 2100SOL    HW2 7200   5.112   1.231   0.280
 2101SOL     OW 7201   0.354   6.188   0.840
 2101SOL    HW1 7202   0.374   6.270   0.893
 2101SOL    HW2 7203   0.326   6.213   0.747
 2102SOL     OW 7204   4.102   2.937   1.679
 2102SOL    HW1 7205   4.102   2.999   1.758
 2102SOL    HW2 7206   4.041   2.973   1.609
 2103SOL     OW 7207   3.258   4.495   0.477
 2103SOL    HW1 7208   3.264   4.590   0.507
 2103SOL    HW2 7209   3.249   4.435   0.557
 2104SOL     OW 7210   1.898   4.658   2.546
 2104SOL    HW1 7211   1.826   4.691   2.484
 2104SOL    HW2 7212   1.856   4.624   2.630
 2105SOL     OW 7213   4.774   4.233   0.597
 2105SOL    HW1 7214   4.740   4.326   0.579
 2105SOL    HW2 7215   4.697   4.174   0.621
 2106SOL     OW 7216   5.454   3.589   1.450
 2106SOL    HW1 7217   5.362   3.625   1.443
 2106SOL    HW2 7218   5.451   3.490   1.462
 2107SOL     OW 7219   5.358   3.572   6.298
 2107SOL    HW1 7220   5.343   3.670   6.305
 2107SOL    HW2 7221   5.289   3.532   6.237
 2108SOL     OW 7222   5.723   6.458   5.925
 2108SOL    HW1 7223   5.821   6.446   5.944
 2108SOL    HW2 7224   5.687   6.374   5.883
 2109SOL     OW 7225   3.251   4.879   2.223
 2109SOL    HW1 7226   3.168   4.847   2.269
 2109SOL    HW2 7227   3.235   4.970   2.185
 2110SOL     OW 7228   4.028   0.731   6.645
 2110SOL    HW1 7229   3.995   0.706   6.554
 2110SOL    HW2 7230   4.125   0.754   6.641
 2111SOL     OW 7231   1.130   2.552   5.935
 2111SOL    HW1 7232   1.096   2.643   5.959
 2111SOL    HW2 7233   1.077   2.483   5.985
 2112SOL     OW 7234   6.008   1.211   6.925
 2112SOL    HW1 7235   6.092   1.196   6.874
 2112SOL    HW2 7236   6.011   1.301   6.968
 2113SOL     OW 7237   2.201   6.389   4.044
 2113SOL    HW1 7238   2.242   6.340   3.967
 2113SOL    HW2 7239   2.150   6.467   4.010
 2114SOL     OW 7240   2.468   3.075   0.371
 2114SOL    HW1 7241   2.412   3.026   0.439
 2114SOL    HW2 7242   2.528   3.139   0.419
 2115SOL     OW 7243   0.982   4.342   2.457
 2115SOL    HW1 7244   1.079   4.331   2.475
 2115SOL    HW2 7245   0.936   4.376   2.540
 2116SOL     OW 7246   1.061   2.501   0.715
 2116SOL    HW1 7247   1.027   2.591   0.689
 2116SOL    HW2 7248   1.067   2.495   0.815
 2117SOL     OW 7249   5.904   2.703   2.016
 2117SOL    HW1 7250   5.860   2.631   2.069
 2117SOL    HW2 7251   5.856   2.789   2.031
 2118SOL     OW 7252   6.777   3.682   2.782
 2118SOL    HW1 7253   6.789   3.652   2.688
 2118SOL    HW2 7254   6.773   3.602   2.843
 2119SOL     OW 7255   2.157   0.575   6.633
 2119SOL    HW1 7256   2.196   0.622   6.554
 2119SOL    HW2 7257   2.197   0.612   6.717
 2120SOL     OW 7258   6.659   1.977   2.670
 2120SOL    HW1 7259   6.605   2.025   2.739
 2120SOL    HW2 7260   6.608   1.975   2.584
 2121SOL     OW 7261   1.890   1.131   5.791
 2121SOL    HW1 7262   1.810   1.159   5.737
 2121SOL    HW2 7263   1.861   1.070   5.865
 2122SOL     OW 7264   5.363   6.969   5.878
 2122SOL    HW1 7265   5.276   7.016   5.894
 2122SOL    HW2 7266   5.375   6.956   5.779
 2123SOL     OW 7267   0.194   6.328   2.441
 2123SOL    HW1 7268   0.231   6.384   2.514
 2123SOL    HW2 7269   0.094   6.330   2.445
 2124SOL     OW 7270   3.517   2.895   5.874
 2124SOL    HW1 7271   3.464   2.892   5.790
 2124SOL    HW2 7272   3.556   2.805   5.894
 2125SOL     OW 7273   1.561   6.067   3.368
 2125SOL    HW1 7274   1.570   5.971   3.395
 2125SOL    HW2 7275   1.600   6.125   3.439
 2126SOL     OW 7276   3.892   3.258   0.695
 2126SOL    HW1 7277   3.858   3.287   0.605
 2126SOL    HW2 7278   3.871   3.161   0.709
 2127SOL     OW 7279   0.015   2.740   6.099
 2127SOL    HW1 7280   0.109   2.707   6.091
 2127SOL    HW2 7281   6.974   2.663   6.096
 2128SOL     OW 7282   5.793   3.753   0.923
 2128SOL    HW1 7283   5.847   3.717   0.847
 2128SOL    HW2 7284   5.774   3.680   0.988
 2129SOL     OW 7285   5.186   4.064   3.931
 2129SOL    HW1 7286   5.266   4.005   3.919
 2129SOL    HW2 7287   5.157   4.062   4.026
 2130SOL     OW 7288   2.491   1.428   1.509
 2130SOL    HW1 7289   2.526   1.342   1.547
 2130SOL    HW2 7290   2.567   1.491   1.494
 2131SOL     OW 7291   5.481   1.861   5.988
 2131SOL    HW1 7292   5.437   1.775   5.962
 2131SOL    HW2 7293   5.464   1.880   6.085
 2132SOL     OW 7294   2.824   1.613   6.439
 2132SOL    HW1 7295   2.807   1.657   6.527
 2132SOL    HW2 7296   2.786   1.670   6.366
 2133SOL     OW 7297   2.375   1.736   1.435
 2133SOL    HW1 7298   2.319   1.709   1.514
 2133SOL    HW2 7299   2.383   1.835   1.432
 2134SOL     OW 7300   0.165   0.110   4.197
 2134SOL    HW1 7301   0.242   0.058   4.234
 2134SOL    HW2 7302   0.182   0.207   4.211
 2135SOL     OW 7303   0.662   1.762   3.606
 2135SOL    HW1 7304   0.602   1.841   3.592
 2135SOL    HW2 7305   0.749   1.778   3.560
 2136SOL     OW 7306   1.151   3.366   4.974
 2136SOL    HW1 7307   1.223   3.315   4.927
 2136SOL    HW2 7308   1.068   3.311   4.979
 2137SOL     OW 7309   0.708   6.428   5.251
 2137SOL    HW1 7310   0.675   6.341   5.288
 2137SOL    HW2 7311   0.804   6.441   5.275
 2138SOL     OW 7312   0.109   2.404   1.158
 2138SOL    HW1 7313   0.067   2.327   1.111
 2138SOL    HW2 7314   0.132   2.475   1.092
 2139SOL     OW 7315   2.802   0.792   3.783
 2139SOL    HW1 7316   2.704   0.805   3.798
 2139SOL    HW2 7317   2.842   0.876   3.746
 2140SOL     OW 7318   2.514   6.537   2.961
 2140SOL    HW1 7319   2.546   6.533   2.867
 2140SOL    HW2 7320   2.591   6.522   3.023
 2141SOL     OW 7321   6.739   2.636   1.034
 2141SOL    HW1 7322   6.759   2.550   1.082
 2141SOL    HW2 7323   6.720   2.707   1.101
 2142SOL     OW 7324   1.806   1.963   3.418
 2142SOL    HW1 7325   1.834   1.952   3.513
 2142SOL    HW2 7326   1.779   2.058   3.402
 2143SOL     OW 7327   4.163   6.453   1.393
 2143SOL    HW1 7328   4.230   6.490   1.328
 2143SOL    HW2 7329   4.175   6.498   1.482
 2144SOL     OW 7330   1.227   0.697   2.862
 2144SOL    HW1 7331   1.293   0.700   2.788
 2144SOL    HW2 7332   1.253   0.763   2.933
 2145SOL     OW 7333   3.308   5.865   3.774
 2145SOL    HW1 7334   3.246   5.936   3.804
 2145SOL    HW2 7335   3.367   5.837   3.850
 2146SOL     OW 7336   3.256   3.901   1.926
 2146SOL    HW1 7337   3.226   3.993   1.899
 2146SOL    HW2 7338   3.244   3.890   2.024
 2147SOL     OW 7339   0.367   1.735   0.204
 2147SOL    HW1 7340   0.270   1.739   0.182
 2147SOL    HW2 7341   0.381   1.767   0.298
 2148SOL     OW 7342   4.880   3.659   3.594
 2148SOL    HW1 7343   4.841   3.720   3.525
 2148SOL    HW2 7344   4.931   3.586   3.549
 2149SOL     OW 7345   3.992   0.401   1.615
 2149SOL    HW1 7346   3.965   0.484   1.664
 2149SOL    HW2 7347   4.053   0.424   1.540
 2150SOL     OW 7348   3.854   2.055   2.640
 2150SOL    HW1 7349   3.768   2.018   2.605
 2150SOL    HW2 7350   3.877   2.009   2.726
 2151SOL     OW 7351   3.405   2.614   5.589
 2151SOL    HW1 7352   3.370   2.525   5.559
 2151SOL    HW2 7353   3.347   2.649   5.662
 2152SOL     OW 7354   5.964   6.607   1.999
 2152SOL    HW1 7355   5.911   6.597   2.084
 2152SOL    HW2 7356   5.902   6.602   1.921
 2153SOL     OW 7357   4.851   1.544   3.620
 2153SOL    HW1 7358   4.907   1.566   3.700
 2153SOL    HW2 7359   4.911   1.523   3.542
 2154SOL     OW 7360   2.782   5.530   4.955
 2154SOL    HW1 7361   2.814   5.532   4.860
 2154SOL    HW2 7362   2.792   5.438   4.991
 2155SOL     OW 7363   2.264   5.115   0.511
 2155SOL    HW1 7364   2.205   5.049   0.465
 2155SOL    HW2 7365   2.223   5.206   0.508
 2156SOL     OW 7366   1.742   0.297   1.085
 2156SOL    HW1 7367   1.715   0.377   1.032
 2156SOL    HW2 7368   1.829   0.262   1.050
 2157SOL     OW 7369   6.972   1.632   5.240
 2157SOL    HW1 7370   6.949   1.536   5.258
 2157SOL    HW2 7371   6.907   1.691   5.288
 2158SOL     OW 7372   3.635   6.736   0.808
 2158SOL    HW1 7373   3.713   6.735   0.746
 2158SOL    HW2 7374   3.644   6.661   0.874
 2159SOL     OW 7375   1.323   6.846   4.646
 2159SOL    HW1 7376   1.298   6.859   4.742
 2159SOL    HW2 7377   1.388   6.770   4.639
 2160SOL     OW 7378   3.862   3.845   1.236
 2160SOL    HW1 7379   3.916   3.909   1.290
 2160SOL    HW2 7380   3.780   3.891   1.202
 2161SOL     OW 7381   4.876   3.612   3.191
 2161SOL    HW1 7382   4.849   3.519   3.165
 2161SOL    HW2 7383   4.945   3.608   3.263
 2162SOL     OW 7384   2.070   0.758   6.416
 2162SOL    HW1 7385   2.019   0.819   6.477
 2162SOL    HW2 7386   2.164   0.790   6.406
 2163SOL     OW 7387   1.672   6.902   0.044
 2163SOL    HW1 7388   1.585   6.892   0.092
 2163SOL    HW2 7389   1.655   6.946   6.978
 2164SOL     OW 7390   1.964   0.727   6.148
 2164SOL    HW1 7391   2.047   0.672   6.151
 2164SOL    HW2 7392   1.965   0.794   6.222
 2165SOL     OW 7393   1.415   1.088   2.853
 2165SOL    HW1 7394   1.356   1.108   2.775
 2165SOL    HW2 7395   1.434   0.990   2.856
 2166SOL     OW 7396   1.201   1.895   5.664
 2166SOL    HW1 7397   1.135   1.957   5.620
 2166SOL    HW2 7398   1.288   1.898   5.615
 2167SOL     OW 7399   2.633   0.978   2.110
 2167SOL    HW1 7400   2.665   0.888   2.082
 2167SOL    HW2 7401   2.693   1.048   2.071
 2168SOL     OW 7402   5.920   3.372   4.903
 2168SOL    HW1 7403   5.965   3.367   4.992
 2168SOL    HW2 7404   5.986   3.396   4.833
 2169SOL     OW 7405   5.702   2.835   5.810
 2169SOL    HW1 7406   5.639   2.770   5.853
 2169SOL    HW2 7407   5.769   2.784   5.755
 2170SOL     OW 7408   5.365   4.653   5.327
 2170SOL    HW1 7409   5.275   4.696   5.315
 2170SOL    HW2 7410   5.366   4.565   5.280
 2171SOL     OW 7411   6.495   2.805   7.001
 2171SOL    HW1 7412   6.547   2.862   6.938
 2171SOL    HW2 7413   6.514   2.833   0.073
 2172SOL     OW 7414   2.852   0.946   0.371
 2172SOL    HW1 7415   2.812   0.999   0.295
 2172SOL    HW2 7416   2.799   0.963   0.454
 2173SOL     OW 7417   3.943   0.335   5.714
 2173SOL    HW1 7418   3.927   0.262   5.648
 2173SOL    HW2 7419   3.953   0.296   5.806
 2174SOL     OW 7420   6.630   4.312   5.269
 2174SOL    HW1 7421   6.683   4.227   5.270
 2174SOL    HW2 7422   6.602   4.335   5.362
 2175SOL     OW 7423   3.178   0.266   3.077
 2175SOL    HW1 7424   3.143   0.187   3.026
 2175SOL    HW2 7425   3.277   0.273   3.063
 2176SOL     OW 7426   2.223   2.399   2.078
 2176SOL    HW1 7427   2.145   2.459   2.060
 2176SOL    HW2 7428   2.258   2.362   1.992
 2177SOL     OW 7429   6.504   1.448   1.380
 2177SOL    HW1 7430   6.459   1.359   1.391
 2177SOL    HW2 7431   6.502   1.475   1.284
 2178SOL     OW 7432   1.170   5.014   6.940
 2178SOL    HW1 7433   1.225   5.033   7.021
 2178SOL    HW2 7434   1.074   5.001   6.966
 2179SOL     OW 7435   0.934   5.959   4.031
 2179SOL    HW1 7436   0.841   5.926   4.015
 2179SOL    HW2 7437   0.956   6.030   3.964
 2180SOL     OW 7438   3.209   4.021   2.889
 2180SOL    HW1 7439   3.214   4.087   2.814
 2180SOL    HW2 7440   3.119   3.977   2.889
 2181SOL     OW 7441   4.917   5.197   5.733
 2181SOL    HW1 7442   4.992   5.165   5.674
 2181SOL    HW2 7443   4.898   5.128   5.803
 2182SOL     OW 7444   6.956   3.468   6.804
 2182SOL    HW1 7445   0.029   3.496   6.803
 2182SOL    HW2 7446   6.922   3.466   6.898
 2183SOL     OW 7447   3.226   2.955   0.764
 2183SOL    HW1 7448   3.140   2.903   0.771
 2183SOL    HW2 7449   3.231   2.998   0.674
 2184SOL     OW 7450   3.777   1.256   6.711
 2184SOL    HW1 7451   3.767   1.179   6.775
 2184SOL    HW2 7452   3.868   1.296   6.722
 2185SOL     OW 7453   1.641   0.622   0.516
 2185SOL    HW1 7454   1.711   0.561   0.553
 2185SOL    HW2 7455   1.684   0.687   0.454
 2186SOL     OW 7456   6.961   4.443   2.728
 2186SOL    HW1 7457   6.973   4.426   2.826
 2186SOL    HW2 7458   6.902   4.523   2.715
 2187SOL     OW 7459   6.366   1.201   1.406
 2187SOL    HW1 7460   6.416   1.137   1.348
 2187SOL    HW2 7461   6.297   1.152   1.459
 2188SOL     OW 7462   5.135   6.546   3.985
 2188SOL    HW1 7463   5.056   6.570   4.042
 2188SOL    HW2 7464   5.104   6.494   3.905
 2189SOL     OW 7465   1.895   0.086   5.729
 2189SOL    HW1 7466   1.804   0.080   5.689
 2189SOL    HW2 7467   1.891   0.056   5.825
 2190SOL     OW 7468   6.415   2.748   1.963
 2190SOL    HW1 7469   6.500   2.784   1.922
 2190SOL    HW2 7470   6.340   2.759   1.898
 2191SOL     OW 7471   3.342   2.553   6.836
 2191SOL    HW1 7472   3.377   2.645   6.852
 2191SOL    HW2 7473   3.264   2.557   6.774
 2192SOL     OW 7474   4.095   6.187   5.377
 2192SOL    HW1 7475   4.085   6.246   5.456
 2192SOL    HW2 7476   4.112   6.242   5.295
 2193SOL     OW 7477   1.067   5.545   5.129
 2193SOL    HW1 7478   0.996   5.510   5.190
 2193SOL    HW2 7479   1.029   5.618   5.072
 2194SOL     OW 7480   2.174   6.141   0.414
 2194SOL    HW1 7481   2.259   6.121   0.463
 2194SOL    HW2 7482   2.103   6.167   0.480
 2195SOL     OW 7483   1.010   5.776   2.230
 2195SOL    HW1 7484   0.958   5.690   2.236
 2195SOL    HW2 7485   1.009   5.822   2.319
 2196SOL     OW 7486   3.534   1.120   5.654
 2196SOL    HW1 7487   3.526   1.217   5.633
 2196SOL    HW2 7488   3.630   1.095   5.665
 2197SOL     OW 7489   5.110   4.463   1.514
 2197SOL    HW1 7490   5.106   4.407   1.430
 2197SOL    HW2 7491   5.018   4.472   1.552
 2198SOL     OW 7492   6.782   4.177   0.012
 2198SOL    HW1 7493   6.702   4.117   0.014
 2198SOL    HW2 7494   6.754   4.271   0.029
 2199SOL     OW 7495   4.790   6.662   0.313
 2199SOL    HW1 7496   4.848   6.743   0.309
 2199SOL    HW2 7497   4.797   6.619   0.403
 2200SOL     OW 7498   4.324   0.630   4.550
 2200SOL    HW1 7499   4.357   0.640   4.644
 2200SOL    HW2 7500   4.236   0.676   4.541
 2201SOL     OW 7501   6.329   3.148   2.113
 2201SOL    HW1 7502   6.276   3.215   2.166
 2201SOL    HW2 7503   6.267   3.089   2.062
 2202SOL     OW 7504   3.720   4.899   4.344
 2202SOL    HW1 7505   3.626   4.928   4.364
 2202SOL    HW2 7506   3.726   4.867   4.250
 2203SOL     OW 7507   3.399   2.071   3.656
 2203SOL    HW1 7508   3.389   2.058   3.557
 2203SOL    HW2 7509   3.484   2.028   3.687
 2204SOL     OW 7510   3.101   1.636   0.068
 2204SOL    HW1 7511   3.145   1.681   0.146
 2204SOL    HW2 7512   3.137   1.674   7.005
 2205SOL     OW 7513   1.777   0.096   6.875
 2205SOL    HW1 7514   1.708   0.137   6.934
 2205SOL    HW2 7515   1.866   0.137   6.895
 2206SOL     OW 7516   3.367   3.538   6.512
 2206SOL    HW1 7517   3.384   3.580   6.422
 2206SOL    HW2 7518   3.433   3.464   6.527
 2207SOL     OW 7519   1.457   4.368   6.019
 2207SOL    HW1 7520   1.428   4.457   6.055
 2207SOL    HW2 7521   1.539   4.338   6.068
 2208SOL     OW 7522   0.102   3.459   1.952
 2208SOL    HW1 7523   0.126   3.415   1.865
 2208SOL    HW2 7524   0.178   3.450   2.016
 2209SOL     OW 7525   1.585   5.451   6.591
 2209SOL    HW1 7526   1.576   5.482   6.685
 2209SOL    HW2 7527   1.637   5.365   6.589
 2210SOL     OW 7528   0.805   5.750   3.609
 2210SOL    HW1 7529   0.718   5.792   3.635
 2210SOL    HW2 7530   0.790   5.653   3.590
 2211SOL     OW 7531   6.093   0.885   5.441
 2211SOL    HW1 7532   6.019   0.865   5.377
 2211SOL    HW2 7533   6.056   0.891   5.534
 2212SOL     OW 7534   0.923   0.106   6.226
 2212SOL    HW1 7535   0.833   0.069   6.206
 2212SOL    HW2 7536   0.951   0.079   6.318
 2213SOL     OW 7537   4.192   2.119   3.532
 2213SOL    HW1 7538   4.213   2.025   3.558
 2213SOL    HW2 7539   4.111   2.120   3.474
 2214SOL     OW 7540   5.205   0.504   4.584
 2214SOL    HW1 7541   5.170   0.503   4.491
 2214SOL    HW2 7542   5.296   0.461   4.587
 2215SOL     OW 7543   6.983   2.076   5.392
 2215SOL    HW1 7544   0.010   2.061   5.307
 2215SOL    HW2 7545   0.026   2.078   5.468
 2216SOL     OW 7546   1.124   6.554   0.945
 2216SOL    HW1 7547   1.182   6.472   0.939
 2216SOL    HW2 7548   1.180   6.635   0.931
 2217SOL     OW 7549   4.168   7.012   1.408
 2217SOL    HW1 7550   4.086   7.002   1.352
 2217SOL    HW2 7551   4.164   6.950   1.486
 2218SOL     OW 7552   1.348   5.460   6.401
 2218SOL    HW1 7553   1.396   5.375   6.420
 2218SOL    HW2 7554   1.262   5.441   6.354
 2219SOL     OW 7555   1.246   3.737   3.330
 2219SOL    HW1 7556   1.167   3.676   3.331
 2219SOL    HW2 7557   1.235   3.805   3.258
 2220SOL     OW 7558   0.362   2.212   5.461
 2220SOL    HW1 7559   0.323   2.248   5.376
 2220SOL    HW2 7560   0.361   2.112   5.459
 2221SOL     OW 7561   6.719   2.048   1.538
 2221SOL    HW1 7562   6.812   2.014   1.550
 2221SOL    HW2 7563   6.707   2.131   1.593
 2222SOL     OW 7564   4.600   6.946   2.233
 2222SOL    HW1 7565   4.694   6.913   2.221
 2222SOL    HW2 7566   4.596   0.021   2.213
 2223SOL     OW 7567   5.724   5.513   4.152
 2223SOL    HW1 7568   5.669   5.588   4.116
 2223SOL    HW2 7569   5.817   5.544   4.168
 2224SOL     OW 7570   1.973   5.018   1.723
 2224SOL    HW1 7571   1.973   4.926   1.762
 2224SOL    HW2 7572   1.885   5.062   1.741
 2225SOL     OW 7573   6.254   4.759   2.474
 2225SOL    HW1 7574   6.223   4.664   2.479
 2225SOL    HW2 7575   6.353   4.763   2.485
 2226SOL     OW 7576   3.917   2.675   1.207
 2226SOL    HW1 7577   3.887   2.712   1.119
 2226SOL    HW2 7578   4.000   2.621   1.193
 2227SOL     OW 7579   6.623   3.943   6.057
 2227SOL    HW1 7580   6.667   4.033   6.057
 2227SOL    HW2 7581   6.645   3.895   6.142
 2228SOL     OW 7582   2.869   4.772   6.403
 2228SOL    HW1 7583   2.851   4.703   6.333
 2228SOL    HW2 7584   2.958   4.755   6.445
 2229SOL     OW 7585   4.534   1.408   3.469
 2229SOL    HW1 7586   4.520   1.469   3.392
 2229SOL    HW2 7587   4.555   1.316   3.436
 2230SOL     OW 7588   0.665   5.840   5.241
 2230SOL    HW1 7589   0.707   5.789   5.166
 2230SOL    HW2 7590   0.704   5.932   5.244
 2231SOL     OW 7591   2.070   0.693   1.986
 2231SOL    HW1 7592   2.007   0.765   1.959
 2231SOL    HW2 7593   2.164   0.725   1.974
 2232SOL     OW 7594   6.923   3.027   2.476
 2232SOL    HW1 7595   6.990   3.067   2.538
 2232SOL    HW2 7596   6.841   3.002   2.528
 2233SOL     OW 7597   3.763   6.134   0.370
 2233SOL    HW1 7598   3.721   6.076   0.439
 2233SOL    HW2 7599   3.820   6.203   0.414
 2234SOL     OW 7600   3.382   1.463   0.722
 2234SOL    HW1 7601   3.419   1.431   0.635
 2234SOL    HW2 7602   3.341   1.553   0.710
 2235SOL     OW 7603   1.486   6.936   0.402
 2235SOL    HW1 7604   1.522   6.857   0.353
 2235SOL    HW2 7605   1.397   6.914   0.440
 2236SOL     OW 7606   0.641   4.449   1.192
 2236SOL    HW1 7607   0.695   4.523   1.152
 2236SOL    HW2 7608   0.698   4.397   1.255
 2237SOL     OW 7609   0.090   3.195   4.711
 2237SOL    HW1 7610   0.000   3.225   4.742
 2237SOL    HW2 7611   0.091   3.095   4.703
 2238SOL     OW 7612   0.453   5.406   2.074
 2238SOL    HW1 7613   0.407   5.488   2.108
 2238SOL    HW2 7614   0.434   5.395   1.977
 2239SOL     OW 7615   3.985   4.815   3.538
 2239SOL    HW1 7616   3.979   4.756   3.458
 2239SOL    HW2 7617   4.080   4.844   3.552
 2240SOL     OW 7618   6.742   4.932   3.355
 2240SOL    HW1 7619   6.693   5.019   3.345
 2240SOL    HW2 7620   6.830   4.948   3.399
 2241SOL     OW 7621   0.057   6.536   1.853
 2241SOL    HW1 7622   0.137   6.514   1.798
 2241SOL    HW2 7623   0.060   6.484   1.938
 2242SOL     OW 7624   5.192   2.482   2.941
 2242SOL    HW1 7625   5.103   2.517   2.911
 2242SOL    HW2 7626   5.229   2.421   2.871
 2243SOL     OW 7627   2.090   5.938   4.771
 2243SOL    HW1 7628   2.145   5.916   4.690
 2243SOL    HW2 7629   2.048   5.855   4.807
 2244SOL     OW 7630   2.750   0.197   4.144
 2244SOL    HW1 7631   2.733   0.258   4.222
 2244SOL    HW2 7632   2.766   0.104   4.177
 2245SOL     OW 7633   0.419   1.726   2.793
 2245SOL    HW1 7634   0.421   1.657   2.721
 2245SOL    HW2 7635   0.324   1.747   2.818
 2246SOL     OW 7636   1.229   3.977   6.175
 2246SOL    HW1 7637   1.292   4.049   6.147
 2246SOL    HW2 7638   1.278   3.890   6.181
 2247SOL     OW 7639   1.919   2.557   5.977
 2247SOL    HW1 7640   1.926   2.575   6.075
 2247SOL    HW2 7641   1.851   2.618   5.936
 2248SOL     OW 7642   4.745   4.322   5.459
 2248SOL    HW1 7643   4.792   4.408   5.479
 2248SOL    HW2 7644   4.679   4.303   5.531
 2249SOL     OW 7645   5.361   6.158   3.122
 2249SOL    HW1 7646   5.421   6.079   3.131
 2249SOL    HW2 7647   5.266   6.129   3.132
 2250SOL     OW 7648   6.247   4.009   1.100
 2250SOL    HW1 7649   6.345   3.992   1.093
 2250SOL    HW2 7650   6.197   3.928   1.072
 2251SOL     OW 7651   5.887   1.496   6.933
 2251SOL    HW1 7652   5.807   1.436   6.924
 2251SOL    HW2 7653   5.915   1.500   0.007
 2252SOL     OW 7654   5.521   2.658   5.225
 2252SOL    HW1 7655   5.617   2.670   5.250
 2252SOL    HW2 7656   5.486   2.742   5.182
 2253SOL     OW 7657   2.734   3.146   6.803
 2253SOL    HW1 7658   2.827   3.119   6.830
 2253SOL    HW2 7659   2.691   3.195   6.879
 2254SOL     OW 7660   1.785   3.328   6.190
 2254SOL    HW1 7661   1.782   3.323   6.090
 2254SOL    HW2 7662   1.771   3.422   6.219
 2255SOL     OW 7663   6.114   2.639   2.275
 2255SOL    HW1 7664   6.192   2.597   2.321
 2255SOL    HW2 7665   6.133   2.646   2.177
 2256SOL     OW 7666   3.995   4.827   2.215
 2256SOL    HW1 7667   4.083   4.790   2.243
 2256SOL    HW2 7668   3.934   4.834   2.294
 2257SOL     OW 7669   1.515   3.521   4.214
 2257SOL    HW1 7670   1.599   3.476   4.182
 2257SOL    HW2 7671   1.470   3.462   4.281
 2258SOL     OW 7672   1.865   5.375   5.219
 2258SOL    HW1 7673   1.772   5.390   5.183
 2258SOL    HW2 7674   1.929   5.433   5.168
 2259SOL     OW 7675   5.189   3.668   6.891
 2259SOL    HW1 7676   5.151   3.724   6.818
 2259SOL    HW2 7677   5.226   3.727   6.962
 2260SOL     OW 7678   5.041   5.292   1.745
 2260SOL    HW1 7679   5.054   5.271   1.649
 2260SOL    HW2 7680   5.006   5.211   1.793
 2261SOL     OW 7681   5.076   6.356   0.527
 2261SOL    HW1 7682   5.059   6.342   0.624
 2261SOL    HW2 7683   5.173   6.343   0.508
 2262SOL     OW 7684   5.193   2.384   4.293
 2262SOL    HW1 7685   5.096   2.392   4.268
 2262SOL    HW2 7686   5.250   2.401   4.213
 2263SOL     OW 7687   1.547   4.934   6.195
 2263SOL    HW1 7688   1.625   4.873   6.211
 2263SOL    HW2 7689   1.561   5.020   6.244
 2264SOL     OW 7690   3.194   3.574   3.102
 2264SOL    HW1 7691   3.115   3.567   3.042
 2264SOL    HW2 7692   3.252   3.493   3.091
 2265SOL     OW 7693   0.181   0.828   2.365
 2265SOL    HW1 7694   0.207   0.815   2.270
 2265SOL    HW2 7695   0.234   0.767   2.423
 2266SOL     OW 7696   6.211   0.602   0.683
 2266SOL    HW1 7697   6.248   0.618   0.591
 2266SOL    HW2 7698   6.283   0.567   0.743
 2267SOL     OW 7699   5.929   2.082   4.998
 2267SOL    HW1 7700   6.014   2.053   4.954
 2267SOL    HW2 7701   5.905   2.174   4.968
 2268SOL     OW 7702   0.123   6.480   6.741
 2268SOL    HW1 7703   0.180   6.416   6.793
 2268SOL    HW2 7704   0.040   6.501   6.793
 2269SOL     OW 7705   6.669   5.810   5.918
 2269SOL    HW1 7706   6.754   5.788   5.966
 2269SOL    HW2 7707   6.640   5.731   5.865
 2270SOL     OW 7708   3.105   3.209   1.966
 2270SOL    HW1 7709   3.068   3.301   1.951
 2270SOL    HW2 7710   3.180   3.193   1.902
 2271SOL     OW 7711   5.653   4.840   1.824
 2271SOL    HW1 7712   5.689   4.752   1.796
 2271SOL    HW2 7713   5.567   4.858   1.775
 2272SOL     OW 7714   5.345   1.915   5.406
 2272SOL    HW1 7715   5.265   1.949   5.357
 2272SOL    HW2 7716   5.324   1.906   5.503
 2273SOL     OW 7717   0.823   1.124   3.556
 2273SOL    HW1 7718   0.875   1.126   3.471
 2273SOL    HW2 7719   0.793   1.216   3.580
 2274SOL     OW 7720   1.472   3.509   4.572
 2274SOL    HW1 7721   1.439   3.569   4.644
 2274SOL    HW2 7722   1.566   3.534   4.547
 2275SOL     OW 7723   5.162   5.774   4.756
 2275SOL    HW1 7724   5.203   5.722   4.832
 2275SOL    HW2 7725   5.063   5.762   4.758
 2276SOL     OW 7726   4.248   3.927   0.703
 2276SOL    HW1 7727   4.152   3.935   0.678
 2276SOL    HW2 7728   4.299   3.881   0.630
 2277SOL     OW 7729   3.129   3.320   6.656
 2277SOL    HW1 7730   3.199   3.311   6.727
 2277SOL    HW2 7731   3.173   3.324   6.566
 2278SOL     OW 7732   5.354   6.194   1.954
 2278SOL    HW1 7733   5.316   6.213   1.863
 2278SOL    HW2 7734   5.312   6.110   1.990
 2279SOL     OW 7735   5.536   3.109   4.989
 2279SOL    HW1 7736   5.613   3.045   4.995
 2279SOL    HW2 7737   5.560   3.183   4.926
 2280SOL     OW 7738   6.169   6.292   5.467
 2280SOL    HW1 7739   6.135   6.284   5.560
 2280SOL    HW2 7740   6.268   6.307   5.468
 2281SOL     OW 7741   3.634   1.955   1.519
 2281SOL    HW1 7742   3.546   1.908   1.518
 2281SOL    HW2 7743   3.623   2.047   1.557
 2282SOL     OW 7744   4.566   5.342   3.700
 2282SOL    HW1 7745   4.477   5.319   3.739
 2282SOL    HW2 7746   4.625   5.261   3.702
 2283SOL     OW 7747   0.210   3.525   3.431
 2283SOL    HW1 7748   0.206   3.545   3.529
 2283SOL    HW2 7749   0.294   3.562   3.393
 2284SOL     OW 7750   2.538   2.023   1.694
 2284SOL    HW1 7751   2.589   1.956   1.749
 2284SOL    HW2 7752   2.563   2.115   1.724
 2285SOL     OW 7753   1.011   3.766   0.185
 2285SOL    HW1 7754   1.009   3.852   0.135
 2285SOL    HW2 7755   0.979   3.782   0.279
 2286SOL     OW 7756   5.930   5.956   4.499
 2286SOL    HW1 7757   5.998   5.982   4.567
 2286SOL    HW2 7758   5.886   5.871   4.528
 2287SOL     OW 7759   2.386   2.268   1.336
 2287SOL    HW1 7760   2.433   2.339   1.387
 2287SOL    HW2 7761   2.344   2.308   1.254
 2288SOL     OW 7762   0.124   6.516   2.661
 2288SOL    HW1 7763   0.029   6.546   2.656
 2288SOL    HW2 7764   0.184   6.588   2.625
 2289SOL     OW 7765   5.972   1.510   2.326
 2289SOL    HW1 7766   5.907   1.502   2.250
 2289SOL    HW2 7767   5.991   1.607   2.343
 2290SOL     OW 7768   3.072   3.874   3.400
 2290SOL    HW1 7769   3.112   3.879   3.308
 2290SOL    HW2 7770   3.091   3.959   3.449
 2291SOL     OW 7771   2.044   2.182   0.945
 2291SOL    HW1 7772   2.050   2.085   0.968
 2291SOL    HW2 7773   1.950   2.214   0.957
 2292SOL     OW 7774   4.701   2.153   3.278
 2292SOL    HW1 7775   4.649   2.099   3.344
 2292SOL    HW2 7776   4.658   2.144   3.188
 2293SOL     OW 7777   5.418   1.398   0.522
 2293SOL    HW1 7778   5.332   1.397   0.572
 2293SOL    HW2 7779   5.400   1.409   0.425
 2294SOL     OW 7780   1.312   2.410   6.474
 2294SOL    HW1 7781   1.367   2.469   6.532
 2294SOL    HW2 7782   1.295   2.455   6.386
 2295SOL     OW 7783   6.763   6.937   1.983
 2295SOL    HW1 7784   6.862   6.923   1.981
 2295SOL    HW2 7785   6.739   6.990   2.064
 2296SOL     OW 7786   2.506   5.311   3.334
 2296SOL    HW1 7787   2.576   5.269   3.392
 2296SOL    HW2 7788   2.439   5.357   3.391
 2297SOL     OW 7789   4.896   5.087   5.408
 2297SOL    HW1 7790   4.844   5.169   5.384
 2297SOL    HW2 7791   4.914   5.033   5.325
 2298SOL     OW 7792   3.808   3.208   4.693
 2298SOL    HW1 7793   3.839   3.231   4.785
 2298SOL    HW2 7794   3.810   3.109   4.681
 2299SOL     OW 7795   5.606   3.357   5.134
 2299SOL    HW1 7796   5.689   3.339   5.186
 2299SOL    HW2 7797   5.584   3.276   5.079
 2300SOL     OW 7798   3.993   6.427   3.177
 2300SOL    HW1 7799   4.031   6.518   3.161
 2300SOL    HW2 7800   3.970   6.417   3.274
 2301SOL     OW 7801   3.133   2.979   4.207
 2301SOL    HW1 7802   3.132   3.043   4.284
 2301SOL    HW2 7803   3.095   2.891   4.237
 2302SOL     OW 7804   4.242   1.553   0.446
 2302SOL    HW1 7805   4.206   1.519   0.533
 2302SOL    HW2 7806   4.218   1.489   0.373
 2303SOL     OW 7807   2.614   2.462   0.925
 2303SOL    HW1 7808   2.621   2.474   0.825
 2303SOL    HW2 7809   2.554   2.533   0.962
 2304SOL     OW 7810   6.385   6.113   2.989
 2304SOL    HW1 7811   6.323   6.046   2.946
 2304SOL    HW2 7812   6.478   6.076   2.989
 2305SOL     OW 7813   0.989   1.220   5.082
 2305SOL    HW1 7814   0.913   1.200   5.021
 2305SOL    HW2 7815   0.958   1.216   5.177
 2306SOL     OW 7816   2.399   4.687   3.426
 2306SOL    HW1 7817   2.364   4.612   3.482
 2306SOL    HW2 7818   2.326   4.752   3.408
 2307SOL     OW 7819   1.360   2.547   5.543
 2307SOL    HW1 7820   1.443   2.595   5.571
 2307SOL    HW2 7821   1.349   2.557   5.444
 2308SOL     OW 7822   2.501   4.644   1.560
 2308SOL    HW1 7823   2.457   4.627   1.648
 2308SOL    HW2 7824   2.599   4.627   1.568
 2309SOL     OW 7825   1.257   6.854   4.114
 2309SOL    HW1 7826   1.340   6.853   4.171
 2309SOL    HW2 7827   1.259   6.775   4.053
 2310SOL     OW 7828   4.377   6.844   1.561
 2310SOL    HW1 7829   4.413   6.907   1.630
 2310SOL    HW2 7830   4.449   6.821   1.496
 2311SOL     OW 7831   2.745   5.936   0.797
 2311SOL    HW1 7832   2.713   5.844   0.773
 2311SOL    HW2 7833   2.831   5.955   0.750
 2312SOL     OW 7834   3.875   5.465   2.712
 2312SOL    HW1 7835   3.824   5.478   2.797
 2312SOL    HW2 7836   3.829   5.516   2.638
 2313SOL     OW 7837   4.731   5.031   2.739
 2313SOL    HW1 7838   4.646   5.021   2.789
 2313SOL    HW2 7839   4.782   5.110   2.775
 2314SOL     OW 7840   3.313   5.853   3.258
 2314SOL    HW1 7841   3.318   5.784   3.330
 2314SOL    HW2 7842   3.378   5.927   3.277
 2315SOL     OW 7843   4.747   3.456   6.052
 2315SOL    HW1 7844   4.791   3.522   6.113
 2315SOL    HW2 7845   4.657   3.490   6.025
 2316SOL     OW 7846   5.517   3.255   2.858
 2316SOL    HW1 7847   5.599   3.199   2.850
 2316SOL    HW2 7848   5.529   3.320   2.933
 2317SOL     OW 7849   1.947   4.385   3.432
 2317SOL    HW1 7850   1.932   4.476   3.393
 2317SOL    HW2 7851   1.984   4.393   3.524
 2318SOL     OW 7852   0.230   1.372   3.062
 2318SOL    HW1 7853   0.247   1.331   3.152
 2318SOL    HW2 7854   0.150   1.328   3.020
 2319SOL     OW 7855   1.535   4.866   4.472
 2319SOL    HW1 7856   1.557   4.921   4.391
 2319SOL    HW2 7857   1.619   4.828   4.511
 2320SOL     OW 7858   0.205   2.836   4.006
 2320SOL    HW1 7859   0.195   2.835   3.907
 2320SOL    HW2 7860   0.173   2.749   4.044
 2321SOL     OW 7861   3.036   6.814   4.938
 2321SOL    HW1 7862   3.057   6.775   4.848
 2321SOL    HW2 7863   2.939   6.801   4.958
 2322SOL     OW 7864   1.263   1.015   5.472
 2322SOL    HW1 7865   1.349   0.972   5.500
 2322SOL    HW2 7866   1.191   0.945   5.467
 2323SOL     OW 7867   4.633   5.562   2.774
 2323SOL    HW1 7868   4.587   5.574   2.686
 2323SOL    HW2 7869   4.620   5.643   2.830
 2324SOL     OW 7870   0.606   6.075   2.393
 2324SOL    HW1 7871   0.515   6.102   2.364
 2324SOL    HW2 7872   0.632   5.990   2.348
 2325SOL     OW 7873   1.457   3.986   1.517
 2325SOL    HW1 7874   1.512   4.020   1.593
 2325SOL    HW2 7875   1.472   4.044   1.437
 2326SOL     OW 7876   1.734   5.138   6.950
 2326SOL    HW1 7877   1.636   5.126   6.964
 2326SOL    HW2 7878   1.780   5.050   6.955
 2327SOL     OW 7879   5.061   2.765   3.937
 2327SOL    HW1 7880   5.114   2.788   4.019
 2327SOL    HW2 7881   5.124   2.738   3.863
 2328SOL     OW 7882   4.745   1.447   2.812
 2328SOL    HW1 7883   4.682   1.441   2.735
 2328SOL    HW2 7884   4.830   1.490   2.783
 2329SOL     OW 7885   1.151   5.965   4.217
 2329SOL    HW1 7886   1.159   5.867   4.237
 2329SOL    HW2 7887   1.075   5.980   4.154
 2330SOL     OW 7888   0.754   4.166   2.724
 2330SOL    HW1 7889   0.814   4.218   2.785
 2330SOL    HW2 7890   0.809   4.102   2.670
 2331SOL     OW 7891   0.516   4.196   5.280
 2331SOL    HW1 7892   0.460   4.277   5.297
 2331SOL    HW2 7893   0.599   4.222   5.232
 2332SOL     OW 7894   5.699   2.304   5.501
 2332SOL    HW1 7895   5.771   2.343   5.559
 2332SOL    HW2 7896   5.634   2.254   5.558
 2333SOL     OW 7897   1.163   5.711   3.258
 2333SOL    HW1 7898   1.101   5.712   3.179
 2333SOL    HW2 7899   1.191   5.617   3.277
 2334SOL     OW 7900   3.029   0.048   6.406
 2334SOL    HW1 7901   3.057   6.982   6.366
 2334SOL    HW2 7902   2.949   0.035   6.464
 2335SOL     OW 7903   4.853   0.014   3.441
 2335SOL    HW1 7904   4.922   6.966   3.455
 2335SOL    HW2 7905   4.805   7.019   3.355
 2336SOL     OW 7906   5.066   0.678   6.342
 2336SOL    HW1 7907   4.997   0.743   6.375
 2336SOL    HW2 7908   5.133   0.726   6.286
 2337SOL     OW 7909   5.136   0.156   2.905
 2337SOL    HW1 7910   5.095   0.066   2.902
 2337SOL    HW2 7911   5.066   0.225   2.924
 2338SOL     OW 7912   0.687   6.787   6.798
 2338SOL    HW1 7913   0.627   6.865   6.816
 2338SOL    HW2 7914   0.777   6.805   6.838
 2339SOL     OW 7915   3.483   4.748   0.261
 2339SOL    HW1 7916   3.517   4.729   0.353
 2339SOL    HW2 7917   3.560   4.766   0.200
 2340SOL     OW 7918   3.468   5.694   4.548
 2340SOL    HW1 7919   3.486   5.774   4.490
 2340SOL    HW2 7920   3.525   5.700   4.631
 2341SOL     OW 7921   5.278   5.244   0.911
 2341SOL    HW1 7922   5.331   5.199   0.839
 2341SOL    HW2 7923   5.317   5.222   1.000
 2342SOL     OW 7924   6.360   0.189   5.089
 2342SOL    HW1 7925   6.359   0.245   5.006
 2342SOL    HW2 7926   6.454   0.175   5.118
 2343SOL     OW 7927   1.053   5.445   0.791
 2343SOL    HW1 7928   0.956   5.454   0.768
 2343SOL    HW2 7929   1.081   5.520   0.851
 2344SOL     OW 7930   2.182   2.299   2.684
 2344SOL    HW1 7931   2.187   2.307   2.584
 2344SOL    HW2 7932   2.168   2.390   2.724
 2345SOL     OW 7933   1.836   0.880   4.316
 2345SOL    HW1 7934   1.770   0.892   4.390
 2345SOL    HW2 7935   1.928   0.898   4.350
 2346SOL     OW 7936   5.429   3.873   5.595
 2346SOL    HW1 7937   5.391   3.805   5.533
 2346SOL    HW2 7938   5.527   3.858   5.605
 2347SOL     OW 7939   1.673   2.951   1.842
 2347SOL    HW1 7940   1.756   3.007   1.841
 2347SOL    HW2 7941   1.674   2.891   1.922
 2348SOL     OW 7942   2.817   6.091   2.653
 2348SOL    HW1 7943   2.872   6.166   2.615
 2348SOL    HW2 7944   2.876   6.017   2.683
 2349SOL     OW 7945   6.602   6.663   6.221
 2349SOL    HW1 7946   6.620   6.683   6.124
 2349SOL    HW2 7947   6.562   6.744   6.264
 2350SOL     OW 7948   2.654   0.506   6.095
 2350SOL    HW1 7949   2.622   0.601   6.101
 2350SOL    HW2 7950   2.739   0.502   6.042
 2351SOL     OW 7951   2.523   5.111   3.981
 2351SOL    HW1 7952   2.618   5.120   4.008
 2351SOL    HW2 7953   2.505   5.017   3.953
 2352SOL     OW 7954   0.147   4.086   3.280
 2352SOL    HW1 7955   0.133   4.164   3.220
 2352SOL    HW2 7956   0.243   4.058   3.277
 2353SOL     OW 7957   2.940   4.331   5.831
 2353SOL    HW1 7958   3.008   4.378   5.776
 2353SOL    HW2 7959   2.849   4.360   5.802
 2354SOL     OW 7960   3.407   1.718   0.819
 2354SOL    HW1 7961   3.315   1.754   0.804
 2354SOL    HW2 7962   3.404   1.646   0.889
 2355SOL     OW 7963   0.474   6.545   0.259
 2355SOL    HW1 7964   0.470   6.592   0.170
 2355SOL    HW2 7965   0.534   6.465   0.251
 2356SOL     OW 7966   2.613   4.988   2.815
 2356SOL    HW1 7967   2.524   5.015   2.853
 2356SOL    HW2 7968   2.605   4.899   2.772
 2357SOL     OW 7969   6.242   4.162   2.287
 2357SOL    HW1 7970   6.266   4.125   2.198
 2357SOL    HW2 7971   6.149   4.199   2.284
 2358SOL     OW 7972   3.955   0.844   5.963
 2358SOL    HW1 7973   3.957   0.817   5.867
 2358SOL    HW2 7974   4.041   0.818   6.007
 2359SOL     OW 7975   2.485   1.803   5.459
 2359SOL    HW1 7976   2.495   1.883   5.399
 2359SOL    HW2 7977   2.463   1.833   5.551
 2360SOL     OW 7978   4.302   4.684   1.191
 2360SOL    HW1 7979   4.218   4.657   1.143
 2360SOL    HW2 7980   4.285   4.688   1.289
 2361SOL     OW 7981   3.395   6.803   2.279
 2361SOL    HW1 7982   3.343   6.739   2.223
 2361SOL    HW2 7983   3.486   6.765   2.298
 2362SOL     OW 7984   4.337   5.366   4.862
 2362SOL    HW1 7985   4.240   5.385   4.848
 2362SOL    HW2 7986   4.390   5.449   4.847
 2363SOL     OW 7987   3.142   3.140   0.555
 2363SOL    HW1 7988   3.109   3.103   0.468
 2363SOL    HW2 7989   3.231   3.183   0.540
 2364SOL     OW 7990   4.633   1.848   1.983
 2364SOL    HW1 7991   4.636   1.914   1.908
 2364SOL    HW2 7992   4.582   1.888   2.060
 2365SOL     OW 7993   5.390   3.491   4.098
 2365SOL    HW1 7994   5.313   3.554   4.091
 2365SOL    HW2 7995   5.357   3.400   4.120
 2366SOL     OW 7996   2.526   4.302   5.505
 2366SOL    HW1 7997   2.492   4.325   5.414
 2366SOL    HW2 7998   2.481   4.219   5.537
 2367SOL     OW 7999   0.748   3.954   6.216
 2367SOL    HW1 8000   0.723   3.912   6.129
 2367SOL    HW2 8001   0.846   3.974   6.217
 2368SOL     OW 8002   5.543   0.286   3.822
 2368SOL    HW1 8003   5.586   0.291   3.913
 2368SOL    HW2 8004   5.462   0.344   3.821
 2369SOL     OW 8005   2.933   1.579   3.849
 2369SOL    HW1 8006   2.910   1.568   3.946
 2369SOL    HW2 8007   2.991   1.504   3.820
 2370SOL     OW 8008   5.430   3.311   1.350
 2370SOL    HW1 8009   5.369   3.266   1.414
 2370SOL    HW2 8010   5.518   3.329   1.394
 2371SOL     OW 8011   0.822   6.693   2.804
 2371SOL    HW1 8012   0.885   6.697   2.727
 2371SOL    HW2 8013   0.825   6.601   2.845
 2372SOL     OW 8014   6.620   1.171   6.053
 2372SOL    HW1 8015   6.679   1.096   6.025
 2372SOL    HW2 8016   6.673   1.236   6.108
 2373SOL     OW 8017   6.275   0.200   5.886
 2373SOL    HW1 8018   6.274   0.176   5.789
 2373SOL    HW2 8019   6.349   0.150   5.932
 2374SOL     OW 8020   5.998   6.404   3.281
 2374SOL    HW1 8021   6.032   6.376   3.191
 2374SOL    HW2 8022   6.026   6.338   3.349
 2375SOL     OW 8023   1.098   0.454   4.118
 2375SOL    HW1 8024   1.147   0.534   4.153
 2375SOL    HW2 8025   1.122   0.440   4.022
 2376SOL     OW 8026   6.336   2.534   3.150
 2376SOL    HW1 8027   6.387   2.485   3.079
 2376SOL    HW2 8028   6.344   2.486   3.237
 2377SOL     OW 8029   4.172   5.015   5.817
 2377SOL    HW1 8030   4.207   5.109   5.817
 2377SOL    HW2 8031   4.093   5.008   5.757
 2378SOL     OW 8032   6.301   1.737   0.812
 2378SOL    HW1 8033   6.318   1.680   0.892
 2378SOL    HW2 8034   6.230   1.694   0.755
 2379SOL     OW 8035   6.907   5.293   0.509
 2379SOL    HW1 8036   6.822   5.335   0.539
 2379SOL    HW2 8037   6.903   5.194   0.525
 2380SOL     OW 8038   5.057   4.119   4.692
 2380SOL    HW1 8039   5.133   4.178   4.719
 2380SOL    HW2 8040   5.088   4.025   4.682
 2381SOL     OW 8041   2.642   4.909   5.313
 2381SOL    HW1 8042   2.678   4.988   5.364
 2381SOL    HW2 8043   2.710   4.879   5.246
 2382SOL     OW 8044   1.594   5.800   2.324
 2382SOL    HW1 8045   1.622   5.843   2.238
 2382SOL    HW2 8046   1.644   5.840   2.400
 2383SOL     OW 8047   5.545   5.778   4.877
 2383SOL    HW1 8048   5.493   5.734   4.950
 2383SOL    HW2 8049   5.541   5.722   4.794
 2384SOL     OW 8050   0.967   1.906   1.440
 2384SOL    HW1 8051   0.952   1.994   1.395
 2384SOL    HW2 8052   0.947   1.832   1.376
 2385SOL     OW 8053   0.546   1.725   0.938
 2385SOL    HW1 8054   0.476   1.712   0.868
 2385SOL    HW2 8055   0.546   1.646   0.999
 2386SOL     OW 8056   3.671   5.636   4.100
 2386SOL    HW1 8057   3.704   5.551   4.058
 2386SOL    HW2 8058   3.576   5.652   4.074
 2387SOL     OW 8059   1.063   2.107   3.508
 2387SOL    HW1 8060   1.072   2.076   3.413
 2387SOL    HW2 8061   1.153   2.127   3.545
 2388SOL     OW 8062   6.936   2.033   6.302
 2388SOL    HW1 8063   6.901   1.993   6.387
 2388SOL    HW2 8064   6.863   2.033   6.233
 2389SOL     OW 8065   4.894   4.613   4.162
 2389SOL    HW1 8066   4.905   4.564   4.076
 2389SOL    HW2 8067   4.802   4.651   4.168
 2390SOL     OW 8068   4.578   3.601   6.286
 2390SOL    HW1 8069   4.582   3.503   6.304
 2390SOL    HW2 8070   4.591   3.651   6.372
 2391SOL     OW 8071   3.376   3.384   6.097
 2391SOL    HW1 8072   3.327   3.305   6.134
 2391SOL    HW2 8073   3.353   3.395   6.000
 2392SOL     OW 8074   3.391   5.771   5.269
 2392SOL    HW1 8075   3.325   5.812   5.331
 2392SOL    HW2 8076   3.412   5.678   5.299
 2393SOL     OW 8077   3.979   5.455   1.471
 2393SOL    HW1 8078   4.077   5.454   1.453
 2393SOL    HW2 8079   3.948   5.362   1.492
 2394SOL     OW 8080   0.135   3.220   2.987
 2394SOL    HW1 8081   0.170   3.207   3.080
 2394SOL    HW2 8082   0.057   3.282   2.990
 2395SOL     OW 8083   0.578   3.112   6.363
 2395SOL    HW1 8084   0.577   3.142   6.267
 2395SOL    HW2 8085   0.540   3.184   6.421
 2396SOL     OW 8086   5.971   0.628   4.976
 2396SOL    HW1 8087   6.023   0.642   4.891
 2396SOL    HW2 8088   5.985   0.534   5.007
 2397SOL     OW 8089   0.867   4.921   5.230
 2397SOL    HW1 8090   0.838   4.828   5.255
 2397SOL    HW2 8091   0.923   4.959   5.304
 2398SOL     OW 8092   2.518   5.224   3.707
 2398SOL    HW1 8093   2.488   5.203   3.800
 2398SOL    HW2 8094   2.531   5.323   3.699
 2399SOL     OW 8095   2.647   2.446   3.548
 2399SOL    HW1 8096   2.703   2.375   3.593
 2399SOL    HW2 8097   2.608   2.505   3.618
 2400SOL     OW 8098   1.855   3.953   0.234
 2400SOL    HW1 8099   1.810   4.032   0.275
 2400SOL    HW2 8100   1.883   3.975   0.141
 2401SOL     OW 8101   3.710   0.106   4.903
 2401SOL    HW1 8102   3.719   0.076   4.998
 2401SOL    HW2 8103   3.791   0.160   4.877
 2402SOL     OW 8104   0.804   2.218   2.340
 2402SOL    HW1 8105   0.884   2.213   2.401
 2402SOL    HW2 8106   0.746   2.295   2.368
 2403SOL     OW 8107   3.847   3.576   2.301
 2403SOL    HW1 8108   3.805   3.526   2.225
 2403SOL    HW2 8109   3.816   3.538   2.388
 2404SOL     OW 8110   6.595   1.023   1.032
 2404SOL    HW1 8111   6.683   1.030   0.985
 2404SOL    HW2 8112   6.530   1.087   0.990
 2405SOL     OW 8113   2.255   4.485   0.390
 2405SOL    HW1 8114   2.196   4.500   0.469
 2405SOL    HW2 8115   2.281   4.573   0.351
 2406SOL     OW 8116   1.699   0.285   3.851
 2406SOL    HW1 8117   1.633   0.300   3.925
 2406SOL    HW2 8118   1.662   0.319   3.765
 2407SOL     OW 8119   3.930   1.887   3.474
 2407SOL    HW1 8120   3.995   1.845   3.411
 2407SOL    HW2 8121   3.883   1.963   3.428
 2408SOL     OW 8122   2.114   5.917   3.552
 2408SOL    HW1 8123   2.053   5.927   3.474
 2408SOL    HW2 8124   2.066   5.873   3.627
 2409SOL     OW 8125   2.268   2.323   1.080
 2409SOL    HW1 8126   2.196   2.295   1.016
 2409SOL    HW2 8127   2.351   2.268   1.063
 2410SOL     OW 8128   6.118   3.391   5.923
 2410SOL    HW1 8129   6.182   3.378   5.999
 2410SOL    HW2 8130   6.047   3.321   5.927
 2411SOL     OW 8131   2.723   3.769   6.769
 2411SOL    HW1 8132   2.799   3.805   6.713
 2411SOL    HW2 8133   2.647   3.834   6.767
 2412SOL     OW 8134   2.910   2.119   6.684
 2412SOL    HW1 8135   2.973   2.123   6.762
 2412SOL    HW2 8136   2.838   2.053   6.703
 2413SOL     OW 8137   7.021   3.032   6.512
 2413SOL    HW1 8138   6.987   2.955   6.460
 2413SOL    HW2 8139   6.981   3.031   6.604
 2414SOL     OW 8140   5.753   2.802   4.024
 2414SOL    HW1 8141   5.777   2.823   4.119
 2414SOL    HW2 8142   5.835   2.805   3.967
 2415SOL     OW 8143   2.462   6.352   0.866
 2415SOL    HW1 8144   2.378   6.311   0.901
 2415SOL    HW2 8145   2.458   6.451   0.873
 2416SOL     OW 8146   0.113   3.539   2.802
 2416SOL    HW1 8147   0.064   3.558   2.718
 2416SOL    HW2 8148   0.049   3.537   2.879
 2417SOL     OW 8149   4.553   2.387   7.007
 2417SOL    HW1 8150   4.626   2.364   0.050
 2417SOL    HW2 8151   4.484   2.315   7.008
 2418SOL     OW 8152   4.518   4.248   5.607
 2418SOL    HW1 8153   4.459   4.300   5.669
 2418SOL    HW2 8154   4.568   4.179   5.660
 2419SOL     OW 8155   1.998   6.605   4.468
 2419SOL    HW1 8156   2.052   6.689   4.475
 2419SOL    HW2 8157   1.903   6.628   4.444
 2420SOL     OW 8158   3.430   5.422   2.298
 2420SOL    HW1 8159   3.394   5.473   2.376
 2420SOL    HW2 8160   3.464   5.333   2.329
 2421SOL     OW 8161   3.124   0.197   4.618
 2421SOL    HW1 8162   3.059   0.151   4.557
 2421SOL    HW2 8163   3.146   0.136   4.695
 2422SOL     OW 8164   3.719   6.943   2.137
 2422SOL    HW1 8165   3.816   6.921   2.131
 2422SOL    HW2 8166   3.670   6.897   2.063
 2423SOL     OW 8167   1.844   5.411   2.113
 2423SOL    HW1 8168   1.930   5.427   2.161
 2423SOL    HW2 8169   1.863   5.381   2.020
 2424SOL     OW 8170   5.240   0.368   6.624
 2424SOL    HW1 8171   5.224   0.467   6.615
 2424SOL    HW2 8172   5.329   0.352   6.666
 2425SOL     OW 8173   4.756   5.309   5.376
 2425SOL    HW1 8174   4.754   5.405   5.403
 2425SOL    HW2 8175   4.664   5.271   5.380
 2426SOL     OW 8176   1.446   5.298   5.736
 2426SOL    HW1 8177   1.493   5.344   5.811
 2426SOL    HW2 8178   1.488   5.209   5.720
 2427SOL     OW 8179   4.698   6.560   6.236
 2427SOL    HW1 8180   4.609   6.520   6.258
 2427SOL    HW2 8181   4.686   6.648   6.191
 2428SOL     OW 8182   0.059   1.425   3.821
 2428SOL    HW1 8183   0.023   1.518   3.820
 2428SOL    HW2 8184   0.101   1.407   3.910
 2429SOL     OW 8185   5.049   4.853   2.420
 2429SOL    HW1 8186   5.013   4.903   2.342
 2429SOL    HW2 8187   4.989   4.775   2.441
 2430SOL     OW 8188   5.663   2.333   0.460
 2430SOL    HW1 8189   5.665   2.287   0.549
 2430SOL    HW2 8190   5.666   2.432   0.474
 2431SOL     OW 8191   6.315   1.886   1.964
 2431SOL    HW1 8192   6.284   1.980   1.954
 2431SOL    HW2 8193   6.236   1.826   1.978
 2432SOL     OW 8194   3.344   5.325   2.034
 2432SOL    HW1 8195   3.331   5.404   1.975
 2432SOL    HW2 8196   3.383   5.353   2.121
 2433SOL     OW 8197   6.783   5.532   0.200
 2433SOL    HW1 8198   6.870   5.553   0.244
 2433SOL    HW2 8199   6.727   5.476   0.262
 2434SOL     OW 8200   4.081   1.897   2.804
 2434SOL    HW1 8201   4.072   1.859   2.712
 2434SOL    HW2 8202   4.121   1.989   2.798
 2435SOL     OW 8203   5.427   7.007   6.674
 2435SOL    HW1 8204   5.515   6.969   6.645
 2435SOL    HW2 8205   5.364   7.007   6.597
 2436SOL     OW 8206   1.364   1.110   1.644
 2436SOL    HW1 8207   1.334   1.047   1.716
 2436SOL    HW2 8208   1.318   1.086   1.558
 2437SOL     OW 8209   6.063   6.246   2.342
 2437SOL    HW1 8210   6.059   6.315   2.414
 2437SOL    HW2 8211   6.089   6.158   2.381
 2438SOL     OW 8212   3.384   1.749   4.138
 2438SOL    HW1 8213   3.315   1.793   4.082
 2438SOL    HW2 8214   3.447   1.819   4.175
 2439SOL     OW 8215   0.422   5.159   6.552
 2439SOL    HW1 8216   0.337   5.209   6.571
 2439SOL    HW2 8217   0.443   5.098   6.628
 2440SOL     OW 8218   3.735   1.460   4.147
 2440SOL    HW1 8219   3.652   1.425   4.105
 2440SOL    HW2 8220   3.807   1.469   4.078
 2441SOL     OW 8221   5.681   0.806   6.762
 2441SOL    HW1 8222   5.681   0.792   6.861
 2441SOL    HW2 8223   5.603   0.864   6.737
 2442SOL     OW 8224   5.210   3.832   2.018
 2442SOL    HW1 8225   5.126   3.779   2.007
 2442SOL    HW2 8226   5.215   3.865   2.113
 2443SOL     OW 8227   2.264   1.201   7.005
 2443SOL    HW1 8228   2.285   1.194   6.907
 2443SOL    HW2 8229   2.317   1.132   0.033
 2444SOL     OW 8230   4.837   4.872   0.626
 2444SOL    HW1 8231   4.788   4.821   0.697
 2444SOL    HW2 8232   4.849   4.966   0.656
 2445SOL     OW 8233   0.028   1.970   2.102
 2445SOL    HW1 8234   6.985   1.894   2.113
 2445SOL    HW2 8235   0.097   1.945   2.035
 2446SOL     OW 8236   1.259   3.038   1.977
 2446SOL    HW1 8237   1.286   2.956   2.026
 2446SOL    HW2 8238   1.190   3.087   2.030
 2447SOL     OW 8239   2.151   0.987   0.341
 2447SOL    HW1 8240   2.230   1.023   0.390
 2447SOL    HW2 8241   2.176   0.969   0.246
 2448SOL     OW 8242   5.961   1.967   4.343
 2448SOL    HW1 8243   5.916   2.047   4.381
 2448SOL    HW2 8244   6.043   1.946   4.397
 2449SOL     OW 8245   1.914   4.644   1.951
 2449SOL    HW1 8246   1.973   4.675   1.877
 2449SOL    HW2 8247   1.965   4.581   2.010
 2450SOL     OW 8248   3.242   5.146   6.809
 2450SOL    HW1 8249   3.235   5.201   6.893
 2450SOL    HW2 8250   3.216   5.203   6.731
 2451SOL     OW 8251   0.597   0.095   4.160
 2451SOL    HW1 8252   0.600   0.155   4.080
 2451SOL    HW2 8253   0.638   0.142   4.239
 2452SOL     OW 8254   2.342   2.179   3.249
 2452SOL    HW1 8255   2.368   2.275   3.259
 2452SOL    HW2 8256   2.257   2.173   3.196
 2453SOL     OW 8257   6.566   1.924   0.897
 2453SOL    HW1 8258   6.631   1.866   0.849
 2453SOL    HW2 8259   6.479   1.876   0.906
 2454SOL     OW 8260   3.116   5.559   0.797
 2454SOL    HW1 8261   3.199   5.510   0.771
 2454SOL    HW2 8262   3.123   5.590   0.891
 2455SOL     OW 8263   2.891   1.294   0.121
 2455SOL    HW1 8264   2.979   1.248   0.132
 2455SOL    HW2 8265   2.874   1.312   0.024
 2456SOL     OW 8266   0.686   3.670   7.015
 2456SOL    HW1 8267   0.588   3.661   6.996
 2456SOL    HW2 8268   0.726   3.736   6.950
 2457SOL     OW 8269   5.630   1.510   5.666
 2457SOL    HW1 8270   5.549   1.549   5.622
 2457SOL    HW2 8271   5.700   1.493   5.596
 2458SOL     OW 8272   0.837   0.762   3.242
 2458SOL    HW1 8273   0.821   0.841   3.301
 2458SOL    HW2 8274   0.916   0.779   3.183
 2459SOL     OW 8275   2.701   5.486   5.965
 2459SOL    HW1 8276   2.652   5.514   5.882
 2459SOL    HW2 8277   2.796   5.464   5.942
 2460SOL     OW 8278   0.795   0.970   6.927
 2460SOL    HW1 8279   0.881   0.960   6.978
 2460SOL    HW2 8280   0.784   1.065   6.899
 2461SOL     OW 8281   4.261   6.923   4.243
 2461SOL    HW1 8282   4.332   6.990   4.222
 2461SOL    HW2 8283   4.294   6.858   4.311
 2462SOL     OW 8284   0.755   4.770   0.626
 2462SOL    HW1 8285   0.849   4.780   0.593
 2462SOL    HW2 8286   0.749   4.690   0.686
 2463SOL     OW 8287   6.596   1.446   0.618
 2463SOL    HW1 8288   6.626   1.420   0.710
 2463SOL    HW2 8289   6.652   1.522   0.586
 2464SOL     OW 8290   0.728   2.550   3.158
 2464SOL    HW1 8291   0.696   2.595   3.241
 2464SOL    HW2 8292   0.730   2.617   3.083
 2465SOL     OW 8293   6.921   5.911   6.033
 2465SOL    HW1 8294   6.836   5.961   6.053
 2465SOL    HW2 8295   6.986   5.926   6.108
 2466SOL     OW 8296   1.739   1.840   2.050
 2466SOL    HW1 8297   1.680   1.906   2.097
 2466SOL    HW2 8298   1.683   1.779   1.994
 2467SOL     OW 8299   4.429   1.875   5.849
 2467SOL    HW1 8300   4.373   1.909   5.773
 2467SOL    HW2 8301   4.374   1.873   5.932
 2468SOL     OW 8302   3.894   0.399   6.631
 2468SOL    HW1 8303   3.948   0.401   6.548
 2468SOL    HW2 8304   3.883   0.304   6.661
 2469SOL     OW 8305   4.093   3.225   5.552
 2469SOL    HW1 8306   4.014   3.167   5.536
 2469SOL    HW2 8307   4.063   3.320   5.564
 2470SOL     OW 8308   4.084   4.397   6.225
 2470SOL    HW1 8309   4.175   4.409   6.265
 2470SOL    HW2 8310   4.020   4.370   6.297
 2471SOL     OW 8311   3.140   6.994   0.639
 2471SOL    HW1 8312   3.073   0.021   0.584
 2471SOL    HW2 8313   3.227   6.989   0.589
 2472SOL     OW 8314   4.387   2.249   3.303
 2472SOL    HW1 8315   4.439   2.335   3.297
 2472SOL    HW2 8316   4.379   2.222   3.399
 2473SOL     OW 8317   1.314   4.691   4.986
 2473SOL    HW1 8318   1.220   4.668   5.008
 2473SOL    HW2 8319   1.345   4.766   5.043
 2474SOL     OW 8320   1.059   5.702   0.191
 2474SOL    HW1 8321   1.140   5.761   0.200
 2474SOL    HW2 8322   1.045   5.680   0.095
 2475SOL     OW 8323   4.460   0.405   1.079
 2475SOL    HW1 8324   4.505   0.438   0.996
 2475SOL    HW2 8325   4.484   0.465   1.156
 2476SOL     OW 8326   5.643   0.080   2.544
 2476SOL    HW1 8327   5.583   0.029   2.605
 2476SOL    HW2 8328   5.609   0.073   2.450
 2477SOL     OW 8329   3.772   0.794   3.038
 2477SOL    HW1 8330   3.677   0.778   3.065
 2477SOL    HW2 8331   3.809   0.712   2.995
 2478SOL     OW 8332   4.901   0.797   1.884
 2478SOL    HW1 8333   4.900   0.697   1.893
 2478SOL    HW2 8334   4.879   0.839   1.972
 2479SOL     OW 8335   1.453   2.526   1.470
 2479SOL    HW1 8336   1.372   2.470   1.450
 2479SOL    HW2 8337   1.430   2.622   1.461
 2480SOL     OW 8338   3.833   2.424   1.145
 2480SOL    HW1 8339   3.821   2.510   1.194
 2480SOL    HW2 8340   3.895   2.365   1.195
 2481SOL     OW 8341   2.787   0.541   1.425
 2481SOL    HW1 8342   2.797   0.513   1.521
 2481SOL    HW2 8343   2.813   0.465   1.365
 2482SOL     OW 8344   5.132   3.627   0.230
 2482SOL    HW1 8345   5.127   3.707   0.290
 2482SOL    HW2 8346   5.039   3.599   0.205
 2483SOL     OW 8347   1.353   1.335   0.409
 2483SOL    HW1 8348   1.443   1.328   0.451
 2483SOL    HW2 8349   1.361   1.370   0.316
 2484SOL     OW 8350   3.207   0.657   0.428
 2484SOL    HW1 8351   3.180   0.748   0.398
 2484SOL    HW2 8352   3.264   0.614   0.359
 2485SOL     OW 8353   5.197   3.102   0.462
 2485SOL    HW1 8354   5.270   3.147   0.411
 2485SOL    HW2 8355   5.114   3.099   0.407
 2486SOL     OW 8356   1.179   5.282   5.792
 2486SOL    HW1 8357   1.279   5.282   5.779
 2486SOL    HW2 8358   1.155   5.355   5.856
 2487SOL     OW 8359   4.154   6.218   0.044
 2487SOL    HW1 8360   4.128   6.314   0.033
 2487SOL    HW2 8361   4.087   6.160   7.020
 2488SOL     OW 8362   0.781   3.368   1.762
 2488SOL    HW1 8363   0.780   3.291   1.699
 2488SOL    HW2 8364   0.805   3.451   1.712
 2489SOL     OW 8365   1.162   6.033   3.596
 2489SOL    HW1 8366   1.066   6.050   3.616
 2489SOL    HW2 8367   1.178   5.935   3.588
 2490SOL     OW 8368   0.424   5.932   0.912
 2490SOL    HW1 8369   0.393   6.020   0.876
 2490SOL    HW2 8370   0.377   5.912   0.998
 2491SOL     OW 8371   3.393   4.406   1.422
 2491SOL    HW1 8372   3.320   4.343   1.393
 2491SOL    HW2 8373   3.398   4.408   1.521
 2492SOL     OW 8374   4.406   3.177   1.290
 2492SOL    HW1 8375   4.415   3.238   1.369
 2492SOL    HW2 8376   4.368   3.228   1.213
 2493SOL     OW 8377   6.679   6.878   1.419
 2493SOL    HW1 8378   6.624   6.959   1.437
 2493SOL    HW2 8379   6.775   6.903   1.411
 2494SOL     OW 8380   5.937   4.208   2.194
 2494SOL    HW1 8381   5.964   4.300   2.221
 2494SOL    HW2 8382   5.852   4.183   2.242
 2495SOL     OW 8383   5.399   5.604   3.633
 2495SOL    HW1 8384   5.302   5.628   3.624
 2495SOL    HW2 8385   5.417   5.520   3.583
 2496SOL     OW 8386   0.306   3.272   6.913
 2496SOL    HW1 8387   0.207   3.260   6.913
 2496SOL    HW2 8388   0.346   3.220   6.838
 2497SOL     OW 8389   0.370   0.004   0.912
 2497SOL    HW1 8390   0.436   0.008   0.986
 2497SOL    HW2 8391   0.325   0.093   0.902
 2498SOL     OW 8392   3.357   2.384   5.439
 2498SOL    HW1 8393   3.294   2.327   5.492
 2498SOL    HW2 8394   3.307   2.426   5.362
 2499SOL     OW 8395   5.859   3.334   2.163
 2499SOL    HW1 8396   5.945   3.286   2.151
 2499SOL    HW2 8397   5.810   3.296   2.242
 2500SOL     OW 8398   3.392   4.448   6.806
 2500SOL    HW1 8399   3.363   4.406   6.892
 2500SOL    HW2 8400   3.492   4.450   6.802
 2501SOL     OW 8401   5.516   5.659   0.021
 2501SOL    HW1 8402   5.509   5.609   0.107
 2501SOL    HW2 8403   5.604   5.639   7.000
 2502SOL     OW 8404   1.224   0.181   4.889
 2502SOL    HW1 8405   1.313   0.157   4.927
 2502SOL    HW2 8406   1.235   0.256   4.823
 2503SOL     OW 8407   2.732   6.531   4.658
 2503SOL    HW1 8408   2.739   6.431   4.651
 2503SOL    HW2 8409   2.646   6.555   4.703
 2504SOL     OW 8410   3.635   5.814   3.675
 2504SOL    HW1 8411   3.729   5.844   3.691
 2504SOL    HW2 8412   3.621   5.798   3.578
 2505SOL     OW 8413   0.409   6.761   2.969
 2505SOL    HW1 8414   0.344   6.689   2.944
 2505SOL    HW2 8415   0.360   6.848   2.979
 2506SOL     OW 8416   6.545   3.185   6.334
 2506SOL    HW1 8417   6.465   3.185   6.394
 2506SOL    HW2 8418   6.628   3.175   6.389
 2507SOL     OW 8419   6.344   3.095   0.064
 2507SOL    HW1 8420   6.311   3.054   7.002
 2507SOL    HW2 8421   6.311   3.042   0.142
 2508SOL     OW 8422   2.591   1.634   3.805
 2508SOL    HW1 8423   2.684   1.669   3.814
 2508SOL    HW2 8424   2.526   1.710   3.802
 2509SOL     OW 8425   0.132   4.468   1.327
 2509SOL    HW1 8426   0.197   4.409   1.279
 2509SOL    HW2 8427   0.119   4.552   1.275
 2510SOL     OW 8428   2.814   4.390   0.986
 2510SOL    HW1 8429   2.718   4.369   1.006
 2510SOL    HW2 8430   2.835   4.363   0.893
 2511SOL     OW 8431   2.839   1.943   4.058
 2511SOL    HW1 8432   2.836   1.992   3.972
 2511SOL    HW2 8433   2.880   2.002   4.129
 2512SOL     OW 8434   4.512   3.705   5.328
 2512SOL    HW1 8435   4.577   3.688   5.254
 2512SOL    HW2 8436   4.432   3.753   5.292
 2513SOL     OW 8437   2.154   4.955   4.889
 2513SOL    HW1 8438   2.163   4.887   4.961
 2513SOL    HW2 8439   2.060   4.958   4.857
 2514SOL     OW 8440   0.801   3.727   5.134
 2514SOL    HW1 8441   0.813   3.815   5.181
 2514SOL    HW2 8442   0.722   3.680   5.172
 2515SOL     OW 8443   1.723   6.295   0.436
 2515SOL    HW1 8444   1.713   6.242   0.520
 2515SOL    HW2 8445   1.816   6.329   0.429
 2516SOL     OW 8446   5.090   1.469   2.817
 2516SOL    HW1 8447   5.139   1.476   2.904
 2516SOL    HW2 8448   5.040   1.554   2.800
 2517SOL     OW 8449   1.305   0.315   6.109
 2517SOL    HW1 8450   1.375   0.325   6.180
 2517SOL    HW2 8451   1.258   0.403   6.096
 2518SOL     OW 8452   1.603   5.557   0.997
 2518SOL    HW1 8453   1.535   5.501   0.949
 2518SOL    HW2 8454   1.684   5.568   0.939
 2519SOL     OW 8455   4.213   0.266   1.893
 2519SOL    HW1 8456   4.157   0.313   1.824
 2519SOL    HW2 8457   4.281   0.330   1.929
 2520SOL     OW 8458   3.172   1.515   1.011
 2520SOL    HW1 8459   3.105   1.560   0.953
 2520SOL    HW2 8460   3.129   1.440   1.061
 2521SOL     OW 8461   3.105   0.382   5.218
 2521SOL    HW1 8462   3.058   0.368   5.131
 2521SOL    HW2 8463   3.039   0.375   5.293
 2522SOL     OW 8464   0.776   1.766   5.293
 2522SOL    HW1 8465   0.701   1.832   5.287
 2522SOL    HW2 8466   0.797   1.731   5.202
 2523SOL     OW 8467   1.048   2.804   0.933
 2523SOL    HW1 8468   0.975   2.872   0.942
 2523SOL    HW2 8469   1.080   2.802   0.838
 2524SOL     OW 8470   0.013   6.560   4.790
 2524SOL    HW1 8471   0.019   6.532   4.886
 2524SOL    HW2 8472   0.047   6.485   4.733
 2525SOL     OW 8473   0.973   2.006   5.515
 2525SOL    HW1 8474   0.891   1.965   5.556
 2525SOL    HW2 8475   0.991   1.963   5.427
 2526SOL     OW 8476   1.763   4.809   0.030
 2526SOL    HW1 8477   1.853   4.816   7.010
 2526SOL    HW2 8478   1.755   4.722   0.077
 2527SOL     OW 8479   5.963   6.404   6.000
 2527SOL    HW1 8480   6.008   6.342   6.064
 2527SOL    HW2 8481   6.013   6.491   5.998
 2528SOL     OW 8482   5.923   5.213   6.369
 2528SOL    HW1 8483   5.946   5.300   6.411
 2528SOL    HW2 8484   6.003   5.153   6.369
 2529SOL     OW 8485   6.460   6.135   6.607
 2529SOL    HW1 8486   6.364   6.117   6.588
 2529SOL    HW2 8487   6.471   6.229   6.640
 2530SOL     OW 8488   2.475   6.276   4.553
 2530SOL    HW1 8489   2.572   6.258   4.571
 2530SOL    HW2 8490   2.444   6.219   4.477
 2531SOL     OW 8491   5.538   5.669   4.609
 2531SOL    HW1 8492   5.465   5.737   4.608
 2531SOL    HW2 8493   5.505   5.584   4.569
 2532SOL     OW 8494   0.247   5.979   0.562
 2532SOL    HW1 8495   0.250   6.076   0.586
 2532SOL    HW2 8496   0.158   5.941   0.586
 2533SOL     OW 8497   3.805   0.077   4.009
 2533SOL    HW1 8498   3.869   0.058   4.084
 2533SOL    HW2 8499   3.783   7.015   3.961
 2534SOL     OW 8500   3.782   1.574   2.052
 2534SOL    HW1 8501   3.781   1.557   2.150
 2534SOL    HW2 8502   3.780   1.672   2.035
 2535SOL     OW 8503   3.661   3.333   6.110
 2535SOL    HW1 8504   3.688   3.392   6.187
 2535SOL    HW2 8505   3.561   3.333   6.102
 2536SOL     OW 8506   1.578   1.411   5.473
 2536SOL    HW1 8507   1.517   1.345   5.429
 2536SOL    HW2 8508   1.525   1.474   5.529
 2537SOL     OW 8509   3.417   0.201   6.248
 2537SOL    HW1 8510   3.380   0.169   6.335
 2537SOL    HW2 8511   3.500   0.150   6.226
 2538SOL     OW 8512   0.603   4.390   3.415
 2538SOL    HW1 8513   0.610   4.316   3.482
 2538SOL    HW2 8514   0.686   4.446   3.418
 2539SOL     OW 8515   5.531   0.944   4.650
 2539SOL    HW1 8516   5.578   0.944   4.738
 2539SOL    HW2 8517   5.434   0.926   4.663
 2540SOL     OW 8518   4.007   2.229   2.498
 2540SOL    HW1 8519   3.948   2.165   2.547
 2540SOL    HW2 8520   3.996   2.215   2.399
 2541SOL     OW 8521   3.591   0.937   4.483
 2541SOL    HW1 8522   3.624   0.907   4.572
 2541SOL    HW2 8523   3.495   0.910   4.472
 2542SOL     OW 8524   3.650   3.084   6.201
 2542SOL    HW1 8525   3.701   3.025   6.137
 2542SOL    HW2 8526   3.663   3.180   6.176
 2543SOL     OW 8527   0.248   0.904   3.551
 2543SOL    HW1 8528   0.285   0.840   3.483
 2543SOL    HW2 8529   0.293   0.992   3.541
 2544SOL     OW 8530   0.755   5.981   0.718
 2544SOL    HW1 8531   0.666   6.008   0.681
 2544SOL    HW2 8532   0.810   6.062   0.737
 2545SOL     OW 8533   1.254   6.946   1.638
 2545SOL    HW1 8534   1.166   6.939   1.592
 2545SOL    HW2 8535   1.286   6.855   1.665
 2546SOL     OW 8536   6.739   1.311   2.052
 2546SOL    HW1 8537   6.837   1.294   2.058
 2546SOL    HW2 8538   6.704   1.334   2.143
 2547SOL     OW 8539   6.983   4.202   0.219
 2547SOL    HW1 8540   6.897   4.215   0.170
 2547SOL    HW2 8541   6.963   4.188   0.317
 2548SOL     OW 8542   0.712   6.848   5.372
 2548SOL    HW1 8543   0.618   6.882   5.362
 2548SOL    HW2 8544   0.733   6.787   5.296
 2549SOL     OW 8545   0.945   0.253   0.963
 2549SOL    HW1 8546   1.028   0.306   0.945
 2549SOL    HW2 8547   0.905   0.282   1.050
 2550SOL     OW 8548   0.211   0.363   6.770
 2550SOL    HW1 8549   0.291   0.412   6.734
 2550SOL    HW2 8550   0.134   0.374   6.707
 2551SOL     OW 8551   3.597   4.599   0.752
 2551SOL    HW1 8552   3.553   4.511   0.740
 2551SOL    HW2 8553   3.604   4.646   0.664
 2552SOL     OW 8554   1.539   6.245   4.248
 2552SOL    HW1 8555   1.603   6.319   4.233
 2552SOL    HW2 8556   1.527   6.231   4.347
 2553SOL     OW 8557   4.354   3.545   5.742
 2553SOL    HW1 8558   4.413   3.479   5.695
 2553SOL    HW2 8559   4.266   3.503   5.762
 2554SOL     OW 8560   2.677   0.386   0.685
 2554SOL    HW1 8561   2.658   0.440   0.766
 2554SOL    HW2 8562   2.771   0.353   0.688
 2555SOL     OW 8563   6.060   0.322   5.017
 2555SOL    HW1 8564   6.144   0.320   4.963
 2555SOL    HW2 8565   6.001   0.245   4.991
 2556SOL     OW 8566   3.862   6.346   0.107
 2556SOL    HW1 8567   3.882   6.283   0.182
 2556SOL    HW2 8568   3.795   6.414   0.138
 2557SOL     OW 8569   2.308   4.240   0.249
 2557SOL    HW1 8570   2.264   4.328   0.269
 2557SOL    HW2 8571   2.312   4.185   0.333
 2558SOL     OW 8572   4.986   1.711   5.353
 2558SOL    HW1 8573   5.001   1.760   5.268
 2558SOL    HW2 8574   5.036   1.625   5.351
 2559SOL     OW 8575   0.618   3.881   5.392
 2559SOL    HW1 8576   0.610   3.954   5.460
 2559SOL    HW2 8577   0.540   3.819   5.399
 2560SOL     OW 8578   5.752   2.971   5.068
 2560SOL    HW1 8579   5.836   3.022   5.049
 2560SOL    HW2 8580   5.759   2.880   5.025
 2561SOL     OW 8581   3.010   5.760   5.419
 2561SOL    HW1 8582   3.050   5.750   5.328
 2561SOL    HW2 8583   2.911   5.742   5.414
 2562SOL     OW 8584   2.325   5.375   1.507
 2562SOL    HW1 8585   2.375   5.408   1.427
 2562SOL    HW2 8586   2.387   5.324   1.567
 2563SOL     OW 8587   3.171   1.799   0.755
 2563SOL    HW1 8588   3.103   1.737   0.795
 2563SOL    HW2 8589   3.125   1.877   0.714
 2564SOL     OW 8590   2.349   5.665   6.791
 2564SOL    HW1 8591   2.267   5.716   6.819
 2564SOL    HW2 8592   2.324   5.597   6.722
 2565SOL     OW 8593   1.197   6.862   6.684
 2565SOL    HW1 8594   1.154   6.910   6.760
 2565SOL    HW2 8595   1.149   6.776   6.668
 2566SOL     OW 8596   2.075   6.953   1.066
 2566SOL    HW1 8597   2.084   0.030   1.075
 2566SOL    HW2 8598   1.981   6.929   1.044
 2567SOL     OW 8599   1.181   0.392   0.937
 2567SOL    HW1 8600   1.155   0.435   1.024
 2567SOL    HW2 8601   1.260   0.332   0.952
 2568SOL     OW 8602   4.054   1.286   0.033
 2568SOL    HW1 8603   4.001   1.222   7.000
 2568SOL    HW2 8604   4.057   1.375   7.009
 2569SOL     OW 8605   3.245   0.584   2.249
 2569SOL    HW1 8606   3.160   0.559   2.201
 2569SOL    HW2 8607   3.223   0.613   2.342
 2570SOL     OW 8608   5.467   0.031   6.325
 2570SOL    HW1 8609   5.535   0.105   6.323
 2570SOL    HW2 8610   5.378   0.068   6.300
 2571SOL     OW 8611   2.050   4.589   4.874
 2571SOL    HW1 8612   2.090   4.615   4.962
 2571SOL    HW2 8613   1.958   4.553   4.888
 2572SOL     OW 8614   2.756   5.986   1.319
 2572SOL    HW1 8615   2.821   5.935   1.375
 2572SOL    HW2 8616   2.727   5.930   1.242
 2573SOL     OW 8617   0.143   1.843   1.663
 2573SOL    HW1 8618   0.226   1.836   1.608
 2573SOL    HW2 8619   0.162   1.895   1.746
 2574SOL     OW 8620   5.750   4.169   0.657
 2574SOL    HW1 8621   5.652   4.171   0.636
 2574SOL    HW2 8622   5.792   4.254   0.625
 2575SOL     OW 8623   4.959   5.818   0.703
 2575SOL    HW1 8624   4.945   5.727   0.741
 2575SOL    HW2 8625   5.038   5.817   0.642
 2576SOL     OW 8626   4.416   6.491   4.706
 2576SOL    HW1 8627   4.360   6.540   4.640
 2576SOL    HW2 8628   4.359   6.463   4.784
 2577SOL     OW 8629   4.160   6.736   2.169
 2577SOL    HW1 8630   4.228   6.739   2.096
 2577SOL    HW2 8631   4.107   6.651   2.161
 2578SOL     OW 8632   4.669   1.802   4.388
 2578SOL    HW1 8633   4.627   1.856   4.461
 2578SOL    HW2 8634   4.647   1.843   4.300
 2579SOL     OW 8635   1.483   6.713   3.728
 2579SOL    HW1 8636   1.410   6.778   3.747
 2579SOL    HW2 8637   1.467   6.671   3.638
 2580SOL     OW 8638   2.537   4.551   6.329
 2580SOL    HW1 8639   2.615   4.507   6.284
 2580SOL    HW2 8640   2.515   4.500   6.413
 2581SOL     OW 8641   2.250   4.842   2.187
 2581SOL    HW1 8642   2.221   4.926   2.141
 2581SOL    HW2 8643   2.170   4.797   2.227
 2582SOL     OW 8644   0.332   4.322   1.205
 2582SOL    HW1 8645   0.412   4.379   1.187
 2582SOL    HW2 8646   0.362   4.233   1.238
 2583SOL     OW 8647   1.054   1.441   6.790
 2583SOL    HW1 8648   1.024   1.506   6.861
 2583SOL    HW2 8649   1.153   1.438   6.788
 2584SOL     OW 8650   4.951   5.505   6.091
 2584SOL    HW1 8651   4.967   5.497   5.993
 2584SOL    HW2 8652   5.022   5.563   6.131
 2585SOL     OW 8653   3.624   3.474   1.112
 2585SOL    HW1 8654   3.677   3.412   1.054
 2585SOL    HW2 8655   3.610   3.561   1.064
 2586SOL     OW 8656   3.142   0.657   5.200
 2586SOL    HW1 8657   3.084   0.674   5.120
 2586SOL    HW2 8658   3.129   0.563   5.231
 2587SOL     OW 8659   6.184   1.282   3.987
 2587SOL    HW1 8660   6.193   1.194   3.941
 2587SOL    HW2 8661   6.250   1.347   3.949
 2588SOL     OW 8662   4.760   2.200   5.756
 2588SOL    HW1 8663   4.721   2.139   5.687
 2588SOL    HW2 8664   4.810   2.146   5.823
 2589SOL     OW 8665   1.423   6.548   5.809
 2589SOL    HW1 8666   1.467   6.547   5.899
 2589SOL    HW2 8667   1.471   6.485   5.748
 2590SOL     OW 8668   3.976   4.681   0.444
 2590SOL    HW1 8669   4.037   4.733   0.384
 2590SOL    HW2 8670   3.933   4.743   0.510
 2591SOL     OW 8671   6.931   4.582   3.403
 2591SOL    HW1 8672   6.978   4.645   3.341
 2591SOL    HW2 8673   6.834   4.603   3.405
 2592SOL     OW 8674   3.099   4.651   0.037
 2592SOL    HW1 8675   3.149   4.737   0.038
 2592SOL    HW2 8676   3.078   4.624   6.965
 2593SOL     OW 8677   4.060   5.735   0.108
 2593SOL    HW1 8678   4.067   5.802   0.182
 2593SOL    HW2 8679   4.054   5.783   0.021
 2594SOL     OW 8680   2.198   3.673   6.191
 2594SOL    HW1 8681   2.144   3.638   6.115
 2594SOL    HW2 8682   2.252   3.752   6.160
 2595SOL     OW 8683   7.010   0.616   4.219
 2595SOL    HW1 8684   6.948   0.606   4.297
 2595SOL    HW2 8685   6.956   0.625   4.135
 2596SOL     OW 8686   2.861   2.218   1.665
 2596SOL    HW1 8687   2.940   2.171   1.704
 2596SOL    HW2 8688   2.881   2.242   1.569
 2597SOL     OW 8689   0.811   5.097   6.036
 2597SOL    HW1 8690   0.737   5.144   6.083
 2597SOL    HW2 8691   0.773   5.037   5.965
 2598SOL     OW 8692   6.541   1.632   2.662
 2598SOL    HW1 8693   6.477   1.655   2.588
 2598SOL    HW2 8694   6.630   1.610   2.623
 2599SOL     OW 8695   1.354   5.782   0.590
 2599SOL    HW1 8696   1.390   5.700   0.634
 2599SOL    HW2 8697   1.254   5.777   0.587
 2600SOL     OW 8698   5.759   2.603   4.619
 2600SOL    HW1 8699   5.670   2.559   4.627
 2600SOL    HW2 8700   5.757   2.668   4.543
 2601SOL     OW 8701   1.444   1.831   1.178
 2601SOL    HW1 8702   1.372   1.773   1.139
 2601SOL    HW2 8703   1.448   1.816   1.277
 2602SOL     OW 8704   1.371   4.932   5.107
 2602SOL    HW1 8705   1.449   4.992   5.127
 2602SOL    HW2 8706   1.287   4.976   5.140
 2603SOL     OW 8707   3.120   1.316   2.839
 2603SOL    HW1 8708   3.036   1.369   2.831
 2603SOL    HW2 8709   3.113   1.254   2.917
 2604SOL     OW 8710   4.738   2.052   2.823
 2604SOL    HW1 8711   4.706   2.067   2.730
 2604SOL    HW2 8712   4.757   1.954   2.836
 2605SOL     OW 8713   1.445   3.472   2.677
 2605SOL    HW1 8714   1.462   3.528   2.596
 2605SOL    HW2 8715   1.462   3.376   2.654
 2606SOL     OW 8716   6.021   5.136   1.976
 2606SOL    HW1 8717   6.108   5.118   1.929
 2606SOL    HW2 8718   5.960   5.058   1.964
 2607SOL     OW 8719   0.705   1.324   1.112
 2607SOL    HW1 8720   0.698   1.393   1.184
 2607SOL    HW2 8721   0.746   1.364   1.031
 2608SOL     OW 8722   4.001   5.464   0.672
 2608SOL    HW1 8723   4.071   5.462   0.600
 2608SOL    HW2 8724   3.910   5.459   0.630
 2609SOL     OW 8725   5.847   1.343   2.143
 2609SOL    HW1 8726   5.761   1.323   2.096
 2609SOL    HW2 8727   5.921   1.292   2.099
 2610SOL     OW 8728   0.609   4.668   4.233
 2610SOL    HW1 8729   0.604   4.763   4.263
 2610SOL    HW2 8730   0.684   4.658   4.167
 2611SOL     OW 8731   4.577   6.188   7.021
 2611SOL    HW1 8732   4.516   6.207   6.944
 2611SOL    HW2 8733   4.671   6.210   6.996
 2612SOL     OW 8734   5.624   6.612   4.565
 2612SOL    HW1 8735   5.654   6.624   4.470
 2612SOL    HW2 8736   5.596   6.517   4.579
 2613SOL     OW 8737   2.335   5.361   0.017
 2613SOL    HW1 8738   2.373   5.453   0.022
 2613SOL    HW2 8739   2.396   5.302   6.986
 2614SOL     OW 8740   6.388   1.435   0.174
 2614SOL    HW1 8741   6.448   1.502   0.129
 2614SOL    HW2 8742   6.393   1.448   0.273
 2615SOL     OW 8743   1.210   3.490   0.828
 2615SOL    HW1 8744   1.202   3.471   0.926
 2615SOL    HW2 8745   1.294   3.542   0.812
 2616SOL     OW 8746   1.722   1.725   5.759
 2616SOL    HW1 8747   1.715   1.816   5.800
 2616SOL    HW2 8748   1.801   1.722   5.697
 2617SOL     OW 8749   4.678   0.998   0.611
 2617SOL    HW1 8750   4.675   1.043   0.700
 2617SOL    HW2 8751   4.588   0.963   0.588
 2618SOL     OW 8752   0.597   6.392   4.163
 2618SOL    HW1 8753   0.649   6.404   4.247
 2618SOL    HW2 8754   0.646   6.436   4.087
 2619SOL     OW 8755   4.822   1.759   1.727
 2619SOL    HW1 8756   4.827   1.726   1.821
 2619SOL    HW2 8757   4.784   1.687   1.669
 2620SOL     OW 8758   6.515   0.360   2.615
 2620SOL    HW1 8759   6.428   0.410   2.623
 2620SOL    HW2 8760   6.530   0.306   2.697
 2621SOL     OW 8761   0.866   4.554   2.176
 2621SOL    HW1 8762   0.781   4.535   2.224
 2621SOL    HW2 8763   0.908   4.637   2.213
 2622SOL     OW 8764   3.089   3.220   5.942
 2622SOL    HW1 8765   3.123   3.152   6.006
 2622SOL    HW2 8766   2.993   3.202   5.921
 2623SOL     OW 8767   0.808   0.840   4.813
 2623SOL    HW1 8768   0.800   0.819   4.911
 2623SOL    HW2 8769   0.717   0.840   4.771
 2624SOL     OW 8770   6.774   2.404   5.072
 2624SOL    HW1 8771   6.740   2.395   4.979
 2624SOL    HW2 8772   6.872   2.385   5.074
 2625SOL     OW 8773   2.365   4.084   5.622
 2625SOL    HW1 8774   2.286   4.122   5.575
 2625SOL    HW2 8775   2.342   4.069   5.719
 2626SOL     OW 8776   6.594   0.245   5.954
 2626SOL    HW1 8777   6.546   0.158   5.948
 2626SOL    HW2 8778   6.590   0.292   5.866
 2627SOL     OW 8779   0.995   0.755   6.112
 2627SOL    HW1 8780   0.903   0.719   6.129
 2627SOL    HW2 8781   0.992   0.821   6.037
 2628SOL     OW 8782   1.993   3.520   5.041
 2628SOL    HW1 8783   2.071   3.459   5.052
 2628SOL    HW2 8784   1.926   3.477   4.980
 2629SOL     OW 8785   4.088   3.564   2.764
 2629SOL    HW1 8786   4.097   3.475   2.808
 2629SOL    HW2 8787   4.088   3.636   2.834
 2630SOL     OW 8788   3.511   1.826   3.544
 2630SOL    HW1 8789   3.542   1.845   3.637
 2630SOL    HW2 8790   3.538   1.902   3.484
 2631SOL     OW 8791   5.502   1.010   6.718
 2631SOL    HW1 8792   5.484   1.067   6.638
 2631SOL    HW2 8793   5.547   1.064   6.788
 2632SOL     OW 8794   6.224   3.569   0.955
 2632SOL    HW1 8795   6.198   3.492   1.014
 2632SOL    HW2 8796   6.177   3.652   0.984
 2633SOL     OW 8797   6.610   2.120   5.170
 2633SOL    HW1 8798   6.603   2.216   5.195
 2633SOL    HW2 8799   6.693   2.081   5.208
 2634SOL     OW 8800   0.542   5.829   3.666
 2634SOL    HW1 8801   0.501   5.797   3.752
 2634SOL    HW2 8802   0.502   5.917   3.641
 2635SOL     OW 8803   6.249   5.614   4.041
 2635SOL    HW1 8804   6.280   5.583   4.131
 2635SOL    HW2 8805   6.213   5.536   3.990
 2636SOL     OW 8806   3.948   0.513   0.135
 2636SOL    HW1 8807   4.026   0.477   0.187
 2636SOL    HW2 8808   3.974   0.524   0.039
 2637SOL     OW 8809   6.137   1.729   4.036
 2637SOL    HW1 8810   6.172   1.668   3.965
 2637SOL    HW2 8811   6.067   1.789   3.997
 2638SOL     OW 8812   0.163   6.868   4.483
 2638SOL    HW1 8813   0.236   6.881   4.416
 2638SOL    HW2 8814   0.075   6.861   4.436
 2639SOL     OW 8815   5.271   5.403   5.725
 2639SOL    HW1 8816   5.343   5.342   5.691
 2639SOL    HW2 8817   5.294   5.432   5.818
 2640SOL     OW 8818   6.618   0.088   5.071
 2640SOL    HW1 8819   6.648   0.090   4.976
 2640SOL    HW2 8820   6.688   0.131   5.129
 2641SOL     OW 8821   4.689   2.128   1.069
 2641SOL    HW1 8822   4.674   2.224   1.095
 2641SOL    HW2 8823   4.601   2.085   1.048
 2642SOL     OW 8824   6.053   0.581   3.822
 2642SOL    HW1 8825   6.079   0.544   3.733
 2642SOL    HW2 8826   6.131   0.629   3.862
 2643SOL     OW 8827   1.717   3.139   3.915
 2643SOL    HW1 8828   1.762   3.225   3.939
 2643SOL    HW2 8829   1.781   3.063   3.927
 2644SOL     OW 8830   4.765   5.577   5.087
 2644SOL    HW1 8831   4.853   5.530   5.097
 2644SOL    HW2 8832   4.774   5.652   5.021
 2645SOL     OW 8833   5.300   4.726   3.628
 2645SOL    HW1 8834   5.303   4.633   3.590
 2645SOL    HW2 8835   5.211   4.740   3.671
 2646SOL     OW 8836   0.398   3.551   6.902
 2646SOL    HW1 8837   0.354   3.470   6.939
 2646SOL    HW2 8838   0.346   3.585   6.824
 2647SOL     OW 8839   5.787   6.803   1.741
 2647SOL    HW1 8840   5.882   6.832   1.730
 2647SOL    HW2 8841   5.777   6.709   1.709
 2648SOL     OW 8842   0.174   6.651   4.140
 2648SOL    HW1 8843   0.227   6.567   4.125
 2648SOL    HW2 8844   0.213   6.725   4.086
 2649SOL     OW 8845   5.609   3.321   1.561
 2649SOL    HW1 8846   5.668   3.386   1.607
 2649SOL    HW2 8847   5.524   3.310   1.613
 2650SOL     OW 8848   2.265   5.887   4.560
 2650SOL    HW1 8849   2.302   5.832   4.486
 2650SOL    HW2 8850   2.334   5.898   4.632
 2651SOL     OW 8851   3.445   1.043   0.183
 2651SOL    HW1 8852   3.377   1.003   0.121
 2651SOL    HW2 8853   3.482   0.972   0.242
 2652SOL     OW 8854   4.752   3.347   5.766
 2652SOL    HW1 8855   4.767   3.389   5.855
 2652SOL    HW2 8856   4.665   3.297   5.767
 2653SOL     OW 8857   3.895   6.032   5.631
 2653SOL    HW1 8858   3.801   6.058   5.655
 2653SOL    HW2 8859   3.941   5.996   5.712
 2654SOL     OW 8860   5.068   6.741   0.586
 2654SOL    HW1 8861   5.081   6.755   0.488
 2654SOL    HW2 8862   5.080   6.644   0.608
 2655SOL     OW 8863   4.553   5.941   3.575
 2655SOL    HW1 8864   4.543   5.891   3.490
 2655SOL    HW2 8865   4.650   5.942   3.602
 2656SOL     OW 8866   3.347   5.191   3.718
 2656SOL    HW1 8867   3.440   5.160   3.696
 2656SOL    HW2 8868   3.351   5.287   3.746
 2657SOL     OW 8869   1.955   3.094   0.575
 2657SOL    HW1 8870   1.954   3.029   0.651
 2657SOL    HW2 8871   2.046   3.136   0.568
 2658SOL     OW 8872   4.941   4.578   0.657
 2658SOL    HW1 8873   4.982   4.623   0.577
 2658SOL    HW2 8874   4.848   4.612   0.670
 2659SOL     OW 8875   4.785   3.183   5.209
 2659SOL    HW1 8876   4.865   3.133   5.176
 2659SOL    HW2 8877   4.815   3.263   5.260
 2660SOL     OW 8878   0.348   0.984   1.327
 2660SOL    HW1 8879   0.439   0.970   1.288
 2660SOL    HW2 8880   0.311   0.896   1.356
 2661SOL     OW 8881   1.804   0.455   1.873
 2661SOL    HW1 8882   1.797   0.554   1.881
 2661SOL    HW2 8883   1.880   0.431   1.813
 2662SOL     OW 8884   2.512   0.370   3.573
 2662SOL    HW1 8885   2.515   0.468   3.553
 2662SOL    HW2 8886   2.438   0.351   3.637
 2663SOL     OW 8887   4.395   5.899   5.971
 2663SOL    HW1 8888   4.322   5.884   6.038
 2663SOL    HW2 8889   4.432   5.992   5.982
 2664SOL     OW 8890   3.850   2.999   5.607
 2664SOL    HW1 8891   3.776   3.000   5.540
 2664SOL    HW2 8892   3.925   2.943   5.573
 2665SOL     OW 8893   2.582   3.182   5.587
 2665SOL    HW1 8894   2.588   3.127   5.503
 2665SOL    HW2 8895   2.664   3.238   5.596
 2666SOL     OW 8896   1.663   3.281   2.086
 2666SOL    HW1 8897   1.679   3.368   2.040
 2666SOL    HW2 8898   1.564   3.264   2.092
 2667SOL     OW 8899   1.010   5.607   3.972
 2667SOL    HW1 8900   0.996   5.696   3.929
 2667SOL    HW2 8901   1.095   5.608   4.025
 2668SOL     OW 8902   5.652   3.257   4.540
 2668SOL    HW1 8903   5.587   3.290   4.471
 2668SOL    HW2 8904   5.736   3.226   4.494
 2669SOL     OW 8905   3.378   5.769   6.681
 2669SOL    HW1 8906   3.398   5.671   6.683
 2669SOL    HW2 8907   3.279   5.783   6.677
 2670SOL     OW 8908   6.360   2.077   4.999
 2670SOL    HW1 8909   6.291   2.062   5.069
 2670SOL    HW2 8910   6.439   2.124   5.039
 2671SOL     OW 8911   4.740   5.790   5.960
 2671SOL    HW1 8912   4.754   5.882   5.924
 2671SOL    HW2 8913   4.821   5.761   6.011
 2672SOL     OW 8914   2.951   0.497   1.842
 2672SOL    HW1 8915   2.954   0.527   1.937
 2672SOL    HW2 8916   3.036   0.449   1.819
 2673SOL     OW 8917   5.451   1.273   2.331
 2673SOL    HW1 8918   5.522   1.207   2.355
 2673SOL    HW2 8919   5.407   1.305   2.415
 2674SOL     OW 8920   1.884   4.904   3.864
 2674SOL    HW1 8921   1.922   4.835   3.803
 2674SOL    HW2 8922   1.795   4.933   3.831
 2675SOL     OW 8923   0.243   6.843   3.688
 2675SOL    HW1 8924   0.231   6.793   3.602
 2675SOL    HW2 8925   0.253   6.940   3.668
 2676SOL     OW 8926   3.423   3.827   2.547
 2676SOL    HW1 8927   3.412   3.784   2.457
 2676SOL    HW2 8928   3.505   3.792   2.591
 2677SOL     OW 8929   2.912   4.588   1.132
 2677SOL    HW1 8930   2.890   4.510   1.073
 2677SOL    HW2 8931   2.835   4.652   1.132
 2678SOL     OW 8932   6.812   3.137   2.030
 2678SOL    HW1 8933   6.776   3.199   1.960
 2678SOL    HW2 8934   6.737   3.109   2.091
 2679SOL     OW 8935   1.825   5.211   2.665
 2679SOL    HW1 8936   1.755   5.279   2.648
 2679SOL    HW2 8937   1.865   5.226   2.755
 2680SOL     OW 8938   1.222   2.476   0.262
 2680SOL    HW1 8939   1.233   2.383   0.298
 2680SOL    HW2 8940   1.167   2.473   0.179
 2681SOL     OW 8941   1.608   2.957   5.267
 2681SOL    HW1 8942   1.648   2.908   5.189
 2681SOL    HW2 8943   1.568   3.043   5.236
 2682SOL     OW 8944   5.284   4.166   2.920
 2682SOL    HW1 8945   5.200   4.127   2.881
 2682SOL    HW2 8946   5.337   4.210   2.848
 2683SOL     OW 8947   2.156   4.547   2.589
 2683SOL    HW1 8948   2.201   4.634   2.609
 2683SOL    HW2 8949   2.063   4.565   2.554
 2684SOL     OW 8950   5.221   6.616   1.447
 2684SOL    HW1 8951   5.195   6.713   1.439
 2684SOL    HW2 8952   5.290   6.606   1.518
 2685SOL     OW 8953   6.711   4.818   4.619
 2685SOL    HW1 8954   6.736   4.894   4.679
 2685SOL    HW2 8955   6.791   4.791   4.565
 2686SOL     OW 8956   1.006   1.317   5.335
 2686SOL    HW1 8957   1.063   1.397   5.318
 2686SOL    HW2 8958   1.001   1.300   5.433
 2687SOL     OW 8959   3.877   6.662   1.409
 2687SOL    HW1 8960   3.974   6.636   1.409
 2687SOL    HW2 8961   3.824   6.591   1.362
 2688SOL     OW 8962   3.204   2.153   0.821
 2688SOL    HW1 8963   3.215   2.153   0.721
 2688SOL    HW2 8964   3.274   2.095   0.862
 2689SOL     OW 8965   0.284   3.778   2.802
 2689SOL    HW1 8966   0.334   3.767   2.888
 2689SOL    HW2 8967   0.250   3.689   2.771
 2690SOL     OW 8968   2.800   3.308   0.172
 2690SOL    HW1 8969   2.890   3.323   0.131
 2690SOL    HW2 8970   2.774   3.388   0.226
 2691SOL     OW 8971   0.059   4.588   3.781
 2691SOL    HW1 8972   0.056   4.590   3.881
 2691SOL    HW2 8973   0.085   4.497   3.750
 2692SOL     OW 8974   2.338   5.951   3.390
 2692SOL    HW1 8975   2.321   5.932   3.293
 2692SOL    HW2 8976   2.251   5.967   3.437
 2693SOL     OW 8977   1.684   5.219   4.228
 2693SOL    HW1 8978   1.753   5.289   4.247
 2693SOL    HW2 8979   1.729   5.135   4.200
 2694SOL     OW 8980   4.043   6.997   3.154
 2694SOL    HW1 8981   4.130   6.947   3.156
 2694SOL    HW2 8982   4.017   7.014   3.059
 2695SOL     OW 8983   6.087   0.266   3.005
 2695SOL    HW1 8984   6.060   0.356   3.040
 2695SOL    HW2 8985   6.103   0.272   2.907
 2696SOL     OW 8986   4.670   4.238   6.587
 2696SOL    HW1 8987   4.638   4.320   6.539
 2696SOL    HW2 8988   4.660   4.251   6.686
 2697SOL     OW 8989   4.640   1.229   1.895
 2697SOL    HW1 8990   4.609   1.324   1.886
 2697SOL    HW2 8991   4.612   1.193   1.984
 2698SOL     OW 8992   2.058   5.039   6.658
 2698SOL    HW1 8993   2.028   5.119   6.709
 2698SOL    HW2 8994   2.017   5.040   6.567
 2699SOL     OW 8995   2.961   5.830   1.443
 2699SOL    HW1 8996   3.021   5.854   1.367
 2699SOL    HW2 8997   3.009   5.766   1.504
 2700SOL     OW 8998   2.493   1.668   0.782
 2700SOL    HW1 8999   2.460   1.758   0.810
 2700SOL    HW2 9000   2.416   1.604   0.780
 2701SOL     OW 9001   5.301   2.735   5.669
 2701SOL    HW1 9002   5.328   2.677   5.593
 2701SOL    HW2 9003   5.212   2.705   5.704
 2702SOL     OW 9004   1.302   2.096   3.714
 2702SOL    HW1 9005   1.302   2.178   3.772
 2702SOL    HW2 9006   1.393   2.083   3.675
 2703SOL     OW 9007   1.809   5.722   1.265
 2703SOL    HW1 9008   1.866   5.684   1.338
 2703SOL    HW2 9009   1.732   5.660   1.248
 2704SOL     OW 9010   6.677   5.671   2.580
 2704SOL    HW1 9011   6.700   5.574   2.584
 2704SOL    HW2 9012   6.756   5.723   2.548
 2705SOL     OW 9013   6.488   1.173   5.690
 2705SOL    HW1 9014   6.439   1.100   5.642
 2705SOL    HW2 9015   6.424   1.226   5.744
 2706SOL     OW 9016   6.004   4.350   4.751
 2706SOL    HW1 9017   5.930   4.416   4.765
 2706SOL    HW2 9018   6.070   4.357   4.826
 2707SOL     OW 9019   3.998   6.475   3.981
 2707SOL    HW1 9020   4.066   6.407   3.953
 2707SOL    HW2 9021   3.908   6.449   3.946
 2708SOL     OW 9022   6.409   2.566   0.442
 2708SOL    HW1 9023   6.350   2.638   0.478
 2708SOL    HW2 9024   6.504   2.599   0.439
 2709SOL     OW 9025   4.640   6.760   6.032
 2709SOL    HW1 9026   4.642   6.766   5.932
 2709SOL    HW2 9027   4.570   6.822   6.067
 2710SOL     OW 9028   1.774   2.515   3.599
 2710SOL    HW1 9029   1.700   2.581   3.607
 2710SOL    HW2 9030   1.761   2.460   3.516
 2711SOL     OW 9031   3.128   1.522   3.442
 2711SOL    HW1 9032   3.037   1.560   3.423
 2711SOL    HW2 9033   3.124   1.465   3.524
 2712SOL     OW 9034   3.140   5.535   1.904
 2712SOL    HW1 9035   3.080   5.501   1.976
 2712SOL    HW2 9036   3.148   5.465   1.832
 2713SOL     OW 9037   3.894   4.249   6.357
 2713SOL    HW1 9038   3.861   4.248   6.263
 2713SOL    HW2 9039   3.884   4.158   6.397
 2714SOL     OW 9040   4.038   3.883   6.775
 2714SOL    HW1 9041   4.061   3.795   6.733
 2714SOL    HW2 9042   4.071   3.884   6.870
 2715SOL     OW 9043   5.127   1.952   1.072
 2715SOL    HW1 9044   5.059   2.014   1.032
 2715SOL    HW2 9045   5.181   2.002   1.139
 2716SOL     OW 9046   4.731   2.796   3.299
 2716SOL    HW1 9047   4.674   2.767   3.376
 2716SOL    HW2 9048   4.809   2.735   3.290
 2717SOL     OW 9049   0.425   6.952   2.459
 2717SOL    HW1 9050   0.495   6.948   2.531
 2717SOL    HW2 9051   0.335   6.966   2.501
 2718SOL     OW 9052   6.603   0.928   5.315
 2718SOL    HW1 9053   6.535   0.858   5.295
 2718SOL    HW2 9054   6.651   0.953   5.231
 2719SOL     OW 9055   1.358   4.285   2.227
 2719SOL    HW1 9056   1.271   4.236   2.213
 2719SOL    HW2 9057   1.434   4.221   2.218
 2720SOL     OW 9058   0.930   0.234   4.528
 2720SOL    HW1 9059   0.927   0.134   4.534
 2720SOL    HW2 9060   0.997   0.261   4.458
 2721SOL     OW 9061   3.304   6.441   2.392
 2721SOL    HW1 9062   3.266   6.352   2.365
 2721SOL    HW2 9063   3.366   6.428   2.469
 2722SOL     OW 9064   4.895   5.337   6.651
 2722SOL    HW1 9065   4.865   5.283   6.729
 2722SOL    HW2 9066   4.816   5.372   6.601
 2723SOL     OW 9067   2.796   6.352   6.966
 2723SOL    HW1 9068   2.782   6.263   7.011
 2723SOL    HW2 9069   2.857   6.341   6.888
 2724SOL     OW 9070   1.438   5.678   6.782
 2724SOL    HW1 9071   1.449   5.723   6.693
 2724SOL    HW2 9072   1.528   5.666   6.825
 2725SOL     OW 9073   5.399   4.057   4.410
 2725SOL    HW1 9074   5.466   4.129   4.429
 2725SOL    HW2 9075   5.446   3.977   4.373
 2726SOL     OW 9076   0.620   2.417   1.814
 2726SOL    HW1 9077   0.652   2.344   1.874
 2726SOL    HW2 9078   0.562   2.379   1.742
 2727SOL     OW 9079   1.890   3.662   4.304
 2727SOL    HW1 9080   1.853   3.703   4.220
 2727SOL    HW2 9081   1.981   3.700   4.323
 2728SOL     OW 9082   5.130   5.784   6.669
 2728SOL    HW1 9083   5.206   5.739   6.716
 2728SOL    HW2 9084   5.104   5.731   6.589
 2729SOL     OW 9085   6.751   6.275   6.766
 2729SOL    HW1 9086   6.768   6.254   6.670
 2729SOL    HW2 9087   6.697   6.201   6.807
 2730SOL     OW 9088   0.743   5.619   1.039
 2730SOL    HW1 9089   0.764   5.710   1.074
 2730SOL    HW2 9090   0.707   5.627   0.946
 2731SOL     OW 9091   2.921   3.330   3.244
 2731SOL    HW1 9092   2.983   3.257   3.216
 2731SOL    HW2 9093   2.871   3.364   3.165
 2732SOL     OW 9094   5.246   2.329   1.519
 2732SOL    HW1 9095   5.314   2.389   1.478
 2732SOL    HW2 9096   5.170   2.384   1.555
 2733SOL     OW 9097   6.960   1.374   5.291
 2733SOL    HW1 9098   6.939   1.340   5.199
 2733SOL    HW2 9099   6.995   1.299   5.346
 2734SOL     OW 9100   3.376   5.992   1.647
 2734SOL    HW1 9101   3.337   5.901   1.632
 2734SOL    HW2 9102   3.395   6.036   1.559
 2735SOL     OW 9103   1.627   2.302   0.453
 2735SOL    HW1 9104   1.681   2.292   0.537
 2735SOL    HW2 9105   1.575   2.387   0.458
 2736SOL     OW 9106   5.550   6.118   4.262
 2736SOL    HW1 9107   5.619   6.129   4.333
 2736SOL    HW2 9108   5.460   6.107   4.304
 2737SOL     OW 9109   3.203   2.675   5.760
 2737SOL    HW1 9110   3.188   2.726   5.845
 2737SOL    HW2 9111   3.115   2.644   5.723
 2738SOL     OW 9112   6.376   6.849   2.316
 2738SOL    HW1 9113   6.343   6.884   2.228
 2738SOL    HW2 9114   6.355   6.915   2.388
 2739SOL     OW 9115   0.619   5.066   0.967
 2739SOL    HW1 9116   0.622   4.967   0.954
 2739SOL    HW2 9117   0.666   5.112   0.891
 2740SOL     OW 9118   0.514   5.174   2.215
 2740SOL    HW1 9119   0.506   5.243   2.144
 2740SOL    HW2 9120   0.523   5.218   2.304
 2741SOL     OW 9121   0.379   1.903   5.044
 2741SOL    HW1 9122   0.345   1.821   5.089
 2741SOL    HW2 9123   0.472   1.922   5.075
 2742SOL     OW 9124   2.726   5.461   1.820
 2742SOL    HW1 9125   2.791   5.388   1.841
 2742SOL    HW2 9126   2.635   5.434   1.850
 2743SOL     OW 9127   6.966   4.913   2.321
 2743SOL    HW1 9128   6.876   4.890   2.358
 2743SOL    HW2 9129   7.008   4.831   2.282
 2744SOL     OW 9130   3.585   3.241   2.271
 2744SOL    HW1 9131   3.523   3.214   2.345
 2744SOL    HW2 9132   3.560   3.333   2.240
 2745SOL     OW 9133   6.876   1.304   5.034
 2745SOL    HW1 9134   6.892   1.259   4.946
 2745SOL    HW2 9135   6.791   1.355   5.030
 2746SOL     OW 9136   0.645   1.643   4.450
 2746SOL    HW1 9137   0.713   1.677   4.514
 2746SOL    HW2 9138   0.690   1.619   4.364
 2747SOL     OW 9139   4.801   5.198   6.859
 2747SOL    HW1 9140   4.740   5.274   6.883
 2747SOL    HW2 9141   4.774   5.117   6.911
 2748SOL     OW 9142   4.696   0.496   1.463
 2748SOL    HW1 9143   4.634   0.480   1.540
 2748SOL    HW2 9144   4.791   0.490   1.494
 2749SOL     OW 9145   0.714   4.736   0.172
 2749SOL    HW1 9146   0.646   4.795   0.129
 2749SOL    HW2 9147   0.800   4.743   0.123
 2750SOL     OW 9148   2.618   5.047   1.930
 2750SOL    HW1 9149   2.716   5.066   1.927
 2750SOL    HW2 9150   2.600   4.956   1.895
 2751SOL     OW 9151   1.768   2.269   1.006
 2751SOL    HW1 9152   1.749   2.366   1.016
 2751SOL    HW2 9153   1.714   2.217   1.072
 2752SOL     OW 9154   3.800   4.644   6.339
 2752SOL    HW1 9155   3.768   4.610   6.427
 2752SOL    HW2 9156   3.872   4.583   6.304
 2753SOL     OW 9157   6.725   5.856   5.224
 2753SOL    HW1 9158   6.688   5.887   5.136
 2753SOL    HW2 9159   6.796   5.788   5.208
 2754SOL     OW 9160   0.654   0.018   0.107
 2754SOL    HW1 9161   0.721   6.998   0.046
 2754SOL    HW2 9162   0.616   6.970   0.167
 2755SOL     OW 9163   3.544   6.979   3.086
 2755SOL    HW1 9164   3.611   6.909   3.058
 2755SOL    HW2 9165   3.591   0.030   3.135
 2756SOL     OW 9166   4.410   6.365   0.355
 2756SOL    HW1 9167   4.399   6.287   0.293
 2756SOL    HW2 9168   4.430   6.447   0.302
 2757SOL     OW 9169   2.062   5.861   0.561
 2757SOL    HW1 9170   2.062   5.933   0.492
 2757SOL    HW2 9171   1.981   5.804   0.549
 2758SOL     OW 9172   4.980   0.253   4.864
 2758SOL    HW1 9173   5.016   0.344   4.882
 2758SOL    HW2 9174   4.885   0.261   4.833
 2759SOL     OW 9175   5.126   6.493   4.544
 2759SOL    HW1 9176   5.035   6.459   4.519
 2759SOL    HW2 9177   5.139   6.484   4.643
 2760SOL     OW 9178   1.308   5.630   1.376
 2760SOL    HW1 9179   1.210   5.649   1.372
 2760SOL    HW2 9180   1.322   5.531   1.384
 2761SOL     OW 9181   1.766   4.969   4.115
 2761SOL    HW1 9182   1.804   4.887   4.158
 2761SOL    HW2 9183   1.809   4.982   4.025
 2762SOL     OW 9184   0.765   0.724   5.051
 2762SOL    HW1 9185   0.776   0.633   5.091
 2762SOL    HW2 9186   0.697   0.776   5.103
 2763SOL     OW 9187   5.562   1.826   4.082
 2763SOL    HW1 9188   5.584   1.731   4.057
 2763SOL    HW2 9189   5.647   1.877   4.095
 2764SOL     OW 9190   6.172   0.383   1.325
 2764SOL    HW1 9191   6.184   0.477   1.359
 2764SOL    HW2 9192   6.095   0.340   1.373
 2765SOL     OW 9193   5.512   0.473   0.501
 2765SOL    HW1 9194   5.426   0.426   0.480
 2765SOL    HW2 9195   5.583   0.443   0.437
 2766SOL     OW 9196   5.260   1.918   0.517
 2766SOL    HW1 9197   5.165   1.897   0.539
 2766SOL    HW2 9198   5.264   2.007   0.471
 2767SOL     OW 9199   6.883   4.958   6.317
 2767SOL    HW1 9200   6.835   5.045   6.315
 2767SOL    HW2 9201   6.928   4.946   6.406
 2768SOL     OW 9202   5.185   0.645   0.136
 2768SOL    HW1 9203   5.149   0.571   0.079
 2768SOL    HW2 9204   5.127   0.656   0.216
 2769SOL     OW 9205   6.729   4.589   3.836
 2769SOL    HW1 9206   6.704   4.577   3.932
 2769SOL    HW2 9207   6.787   4.513   3.807
 2770SOL     OW 9208   2.481   5.239   5.991
 2770SOL    HW1 9209   2.439   5.151   6.012
 2770SOL    HW2 9210   2.557   5.256   6.053
 2771SOL     OW 9211   5.554   1.563   2.016
 2771SOL    HW1 9212   5.587   1.492   2.078
 2771SOL    HW2 9213   5.507   1.521   1.938
 2772SOL     OW 9214   4.429   2.022   1.081
 2772SOL    HW1 9215   4.462   1.964   1.156
 2772SOL    HW2 9216   4.340   2.059   1.105
 2773SOL     OW 9217   5.317   3.469   5.608
 2773SOL    HW1 9218   5.370   3.469   5.524
 2773SOL    HW2 9219   5.262   3.386   5.614
 2774SOL     OW 9220   6.931   3.352   3.031
 2774SOL    HW1 9221   6.858   3.298   3.074
 2774SOL    HW2 9222   6.889   3.427   2.979
 2775SOL     OW 9223   0.005   5.516   0.355
 2775SOL    HW1 9224   0.044   5.564   0.433
 2775SOL    HW2 9225   7.003   5.423   0.382
 2776SOL     OW 9226   4.989   5.666   5.492
 2776SOL    HW1 9227   4.979   5.704   5.400
 2776SOL    HW2 9228   4.913   5.697   5.549
 2777SOL     OW 9229   3.113   1.386   2.006
 2777SOL    HW1 9230   3.210   1.403   1.990
 2777SOL    HW2 9231   3.088   1.418   2.097
 2778SOL     OW 9232   1.175   1.442   5.110
 2778SOL    HW1 9233   1.157   1.500   5.031
 2778SOL    HW2 9234   1.116   1.361   5.105
 2779SOL     OW 9235   4.707   6.920   0.890
 2779SOL    HW1 9236   4.776   6.872   0.835
 2779SOL    HW2 9237   4.625   6.934   0.834
 2780SOL     OW 9238   6.847   5.370   6.126
 2780SOL    HW1 9239   6.932   5.415   6.150
 2780SOL    HW2 9240   6.865   5.273   6.106
 2781SOL     OW 9241   5.933   5.637   2.070
 2781SOL    HW1 9242   5.868   5.699   2.116
 2781SOL    HW2 9243   5.977   5.685   1.995
 2782SOL     OW 9244   2.941   2.576   5.682
 2782SOL    HW1 9245   2.871   2.631   5.726
 2782SOL    HW2 9246   2.911   2.481   5.679
 2783SOL     OW 9247   5.854   3.143   4.768
 2783SOL    HW1 9248   5.877   3.231   4.808
 2783SOL    HW2 9249   5.767   3.151   4.719
 2784SOL     OW 9250   2.806   1.477   1.215
 2784SOL    HW1 9251   2.780   1.458   1.310
 2784SOL    HW2 9252   2.732   1.528   1.170
 2785SOL     OW 9253   5.854   1.550   0.204
 2785SOL    HW1 9254   5.895   1.637   0.176
 2785SOL    HW2 9255   5.804   1.562   0.290
 2786SOL     OW 9256   4.363   6.518   1.230
 2786SOL    HW1 9257   4.453   6.524   1.273
 2786SOL    HW2 9258   4.353   6.429   1.186
 2787SOL     OW 9259   2.287   2.753   6.608
 2787SOL    HW1 9260   2.335   2.840   6.616
 2787SOL    HW2 9261   2.299   2.701   6.693
 2788SOL     OW 9262   2.287   4.027   0.036
 2788SOL    HW1 9263   2.338   3.943   0.055
 2788SOL    HW2 9264   2.299   4.092   0.111
 2789SOL     OW 9265   1.674   2.830   3.468
 2789SOL    HW1 9266   1.671   2.897   3.394
 2789SOL    HW2 9267   1.760   2.839   3.518
 2790SOL     OW 9268   2.809   5.513   2.692
 2790SOL    HW1 9269   2.825   5.598   2.643
 2790SOL    HW2 9270   2.890   5.454   2.683
 2791SOL     OW 9271   0.999   4.358   4.504
 2791SOL    HW1 9272   1.054   4.274   4.495
 2791SOL    HW2 9273   1.025   4.423   4.433
 2792SOL     OW 9274   0.872   0.053   5.361
 2792SOL    HW1 9275   0.826   6.987   5.372
 2792SOL    HW2 9276   0.890   0.070   5.265
 2793SOL     OW 9277   4.912   2.420   2.809
 2793SOL    HW1 9278   4.913   2.374   2.898
 2793SOL    HW2 9279   4.821   2.458   2.792
 2794SOL     OW 9280   6.835   2.418   0.552
 2794SOL    HW1 9281   6.886   2.402   0.637
 2794SOL    HW2 9282   6.880   2.370   0.477
 2795SOL     OW 9283   2.642   3.533   0.782
 2795SOL    HW1 9284   2.691   3.455   0.821
 2795SOL    HW2 9285   2.546   3.508   0.766
 2796SOL     OW 9286   6.683   5.030   2.957
 2796SOL    HW1 9287   6.583   5.032   2.962
 2796SOL    HW2 9288   6.714   4.935   2.955
 2797SOL     OW 9289   4.885   5.761   4.692
 2797SOL    HW1 9290   4.827   5.842   4.693
 2797SOL    HW2 9291   4.841   5.688   4.745
 2798SOL     OW 9292   1.316   4.472   1.865
 2798SOL    HW1 9293   1.228   4.514   1.887
 2798SOL    HW2 9294   1.386   4.508   1.926
 2799SOL     OW 9295   0.468   5.569   0.039
 2799SOL    HW1 9296   0.382   5.600   0.078
 2799SOL    HW2 9297   0.540   5.637   0.059
 2800SOL     OW 9298   4.247   4.623   6.757
 2800SOL    HW1 9299   4.259   4.533   6.715
 2800SOL    HW2 9300   4.336   4.668   6.764
 2801SOL     OW 9301   4.467   5.569   4.667
 2801SOL    HW1 9302   4.404   5.644   4.688
 2801SOL    HW2 9303   4.556   5.588   4.709
 2802SOL     OW 9304   4.842   3.474   6.442
 2802SOL    HW1 9305   4.779   3.498   6.517
 2802SOL    HW2 9306   4.798   3.407   6.382
 2803SOL     OW 9307   3.239   6.037   6.325
 2803SOL    HW1 9308   3.139   6.045   6.328
 2803SOL    HW2 9309   3.275   6.025   6.417
 2804SOL     OW 9310   0.038   4.477   4.556
 2804SOL    HW1 9311   6.993   4.436   4.618
 2804SOL    HW2 9312   7.017   4.551   4.505
 2805SOL     OW 9313   4.644   3.069   1.199
 2805SOL    HW1 9314   4.705   3.144   1.225
 2805SOL    HW2 9315   4.552   3.087   1.233
 2806SOL     OW 9316   5.974   4.973   3.877
 2806SOL    HW1 9317   5.895   4.916   3.898
 2806SOL    HW2 9318   5.956   5.067   3.906
 2807SOL     OW 9319   5.452   5.128   4.123
 2807SOL    HW1 9320   5.409   5.138   4.033
 2807SOL    HW2 9321   5.544   5.167   4.120
 2808SOL     OW 9322   4.913   2.580   2.346
 2808SOL    HW1 9323   4.996   2.570   2.402
 2808SOL    HW2 9324   4.940   2.593   2.251
 2809SOL     OW 9325   6.833   2.591   1.837
 2809SOL    HW1 9326   6.735   2.585   1.855
 2809SOL    HW2 9327   6.849   2.650   1.757
 2810SOL     OW 9328   3.015   6.259   4.507
 2810SOL    HW1 9329   3.012   6.175   4.454
 2810SOL    HW2 9330   3.076   6.324   4.462
 2811SOL     OW 9331   0.671   0.503   3.552
 2811SOL    HW1 9332   0.687   0.596   3.518
 2811SOL    HW2 9333   0.750   0.473   3.605
 2812SOL     OW 9334   6.151   3.508   0.707
 2812SOL    HW1 9335   6.180   3.564   0.629
 2812SOL    HW2 9336   6.184   3.550   0.792
 2813SOL     OW 9337   6.188   6.983   5.706
 2813SOL    HW1 9338   6.109   0.013   5.738
 2813SOL    HW2 9339   6.250   0.023   5.657
 2814SOL     OW 9340   5.045   2.858   0.104
 2814SOL    HW1 9341   5.118   2.799   0.139
 2814SOL    HW2 9342   4.965   2.803   0.082
 2815SOL     OW 9343   6.882   1.954   5.026
 2815SOL    HW1 9344   6.788   1.919   5.037
 2815SOL    HW2 9345   6.931   1.944   5.113
 2816SOL     OW 9346   6.889   6.104   3.935
 2816SOL    HW1 9347   6.936   6.100   3.847
 2816SOL    HW2 9348   6.869   6.012   3.968
 2817SOL     OW 9349   2.127   0.180   1.145
 2817SOL    HW1 9350   2.125   0.182   1.245
 2817SOL    HW2 9351   2.121   0.274   1.110
 2818SOL     OW 9352   0.121   5.924   6.238
 2818SOL    HW1 9353   0.220   5.906   6.235
 2818SOL    HW2 9354   0.105   6.022   6.248
 2819SOL     OW 9355   0.110   1.424   1.291
 2819SOL    HW1 9356   0.114   1.475   1.377
 2819SOL    HW2 9357   0.166   1.342   1.298
 2820SOL     OW 9358   0.854   1.850   2.806
 2820SOL    HW1 9359   0.804   1.869   2.891
 2820SOL    HW2 9360   0.931   1.912   2.798
 2821SOL     OW 9361   3.920   3.789   7.020
 2821SOL    HW1 9362   3.908   3.885   6.992
 2821SOL    HW2 9363   3.915   3.782   0.097
 2822SOL     OW 9364   4.671   2.626   6.856
 2822SOL    HW1 9365   4.651   2.532   6.882
 2822SOL    HW2 9366   4.709   2.628   6.764
 2823SOL     OW 9367   3.023   6.890   0.894
 2823SOL    HW1 9368   3.092   6.818   0.897
 2823SOL    HW2 9369   3.040   6.949   0.815
 2824SOL     OW 9370   2.335   1.280   4.490
 2824SOL    HW1 9371   2.282   1.365   4.484
 2824SOL    HW2 9372   2.314   1.222   4.411
 2825SOL     OW 9373   0.093   0.014   6.642
 2825SOL    HW1 9374   0.080   0.037   6.738
 2825SOL    HW2 9375   0.103   6.937   6.632
 2826SOL     OW 9376   5.231   2.055   6.867
 2826SOL    HW1 9377   5.198   2.079   6.776
 2826SOL    HW2 9378   5.154   2.054   6.931
 2827SOL     OW 9379   5.897   1.176   5.173
 2827SOL    HW1 9380   5.810   1.133   5.195
 2827SOL    HW2 9381   5.950   1.116   5.113
 2828SOL     OW 9382   3.335   0.771   6.831
 2828SOL    HW1 9383   3.349   0.676   6.858
 2828SOL    HW2 9384   3.391   0.793   6.751
 2829SOL     OW 9385   3.134   4.259   6.014
 2829SOL    HW1 9386   3.068   4.285   5.943
 2829SOL    HW2 9387   3.148   4.160   6.012
 2830SOL     OW 9388   0.630   3.449   6.765
 2830SOL    HW1 9389   0.581   3.490   6.842
 2830SOL    HW2 9390   0.631   3.512   6.688
 2831SOL     OW 9391   0.239   6.159   3.801
 2831SOL    HW1 9392   0.322   6.108   3.777
 2831SOL    HW2 9393   0.241   6.181   3.898
 2832SOL     OW 9394   6.984   1.447   1.740
 2832SOL    HW1 9395   6.890   1.411   1.741
 2832SOL    HW2 9396   0.027   1.371   1.741
 2833SOL     OW 9397   4.980   2.536   2.093
 2833SOL    HW1 9398   4.922   2.500   2.021
 2833SOL    HW2 9399   5.076   2.536   2.063
 2834SOL     OW 9400   2.569   7.020   5.993
 2834SOL    HW1 9401   2.633   0.049   5.935
 2834SOL    HW2 9402   2.606   7.014   6.085
 2835SOL     OW 9403   6.819   0.630   2.262
 2835SOL    HW1 9404   6.782   0.582   2.182
 2835SOL    HW2 9405   6.813   0.570   2.342
 2836SOL     OW 9406   6.528   6.849   1.916
 2836SOL    HW1 9407   6.621   6.886   1.924
 2836SOL    HW2 9408   6.476   6.904   1.849
 2837SOL     OW 9409   5.782   3.334   2.985
 2837SOL    HW1 9410   5.832   3.310   3.067
 2837SOL    HW2 9411   5.784   3.257   2.921
 2838SOL     OW 9412   1.697   4.263   1.684
 2838SOL    HW1 9413   1.668   4.168   1.686
 2838SOL    HW2 9414   1.695   4.301   1.777
 2839SOL     OW 9415   5.655   1.068   1.841
 2839SOL    HW1 9416   5.607   1.128   1.905
 2839SOL    HW2 9417   5.696   0.992   1.890
 2840SOL     OW 9418   0.896   1.227   3.877
 2840SOL    HW1 9419   0.978   1.284   3.891
 2840SOL    HW2 9420   0.816   1.287   3.865
 2841SOL     OW 9421   7.012   0.509   5.970
 2841SOL    HW1 9422   6.949   0.456   5.914
 2841SOL    HW2 9423   0.001   0.600   5.931
 2842SOL     OW 9424   0.074   2.601   4.347
 2842SOL    HW1 9425   0.164   2.558   4.338
 2842SOL    HW2 9426   0.003   2.530   4.352
 2843SOL     OW 9427   2.922   1.660   3.347
 2843SOL    HW1 9428   2.966   1.749   3.333
 2843SOL    HW2 9429   2.928   1.606   3.263
 2844SOL     OW 9430   1.436   5.259   0.445
 2844SOL    HW1 9431   1.523   5.276   0.398
 2844SOL    HW2 9432   1.424   5.161   0.458
 2845SOL     OW 9433   0.794   3.093   0.924
 2845SOL    HW1 9434   0.742   3.129   0.847
 2845SOL    HW2 9435   0.892   3.108   0.908
 2846SOL     OW 9436   4.382   1.226   6.612
 2846SOL    HW1 9437   4.370   1.278   6.527
 2846SOL    HW2 9438   4.385   1.129   6.591
 2847SOL     OW 9439   5.167   3.620   2.913
 2847SOL    HW1 9440   5.069   3.638   2.919
 2847SOL    HW2 9441   5.194   3.618   2.816
 2848SOL     OW 9442   0.879   4.364   6.304
 2848SOL    HW1 9443   0.870   4.392   6.399
 2848SOL    HW2 9444   0.829   4.428   6.245
 2849SOL     OW 9445   3.602   6.680   1.520
 2849SOL    HW1 9446   3.567   6.719   1.435
 2849SOL    HW2 9447   3.701   6.669   1.514
 2850SOL     OW 9448   3.265   7.020   2.317
 2850SOL    HW1 9449   3.269   0.055   2.235
 2850SOL    HW2 9450   3.313   6.934   2.299
 2851SOL     OW 9451   6.832   3.414   5.726
 2851SOL    HW1 9452   6.736   3.426   5.751
 2851SOL    HW2 9453   6.857   3.481   5.656
 2852SOL     OW 9454   5.570   4.464   0.226
 2852SOL    HW1 9455   5.491   4.404   0.216
 2852SOL    HW2 9456   5.539   4.557   0.244
 2853SOL     OW 9457   2.464   2.321   0.463
 2853SOL    HW1 9458   2.452   2.237   0.409
 2853SOL    HW2 9459   2.506   2.298   0.551
 2854SOL     OW 9460   3.714   1.768   4.502
 2854SOL    HW1 9461   3.661   1.688   4.528
 2854SOL    HW2 9462   3.765   1.802   4.582
 2855SOL     OW 9463   2.445   1.225   6.248
 2855SOL    HW1 9464   2.512   1.290   6.212
 2855SOL    HW2 9465   2.492   1.144   6.282
 2856SOL     OW 9466   2.218   3.107   6.226
 2856SOL    HW1 9467   2.224   3.024   6.169
 2856SOL    HW2 9468   2.284   3.174   6.193
 2857SOL     OW 9469   3.426   1.735   2.138
 2857SOL    HW1 9470   3.514   1.781   2.125
 2857SOL    HW2 9471   3.425   1.648   2.090
 2858SOL     OW 9472   6.410   3.562   1.724
 2858SOL    HW1 9473   6.445   3.521   1.809
 2858SOL    HW2 9474   6.449   3.512   1.646
 2859SOL     OW 9475   4.950   2.122   0.597
 2859SOL    HW1 9476   4.979   2.217   0.585
 2859SOL    HW2 9477   4.882   2.098   0.528
 2860SOL     OW 9478   3.486   1.843   1.200
 2860SOL    HW1 9479   3.463   1.749   1.174
 2860SOL    HW2 9480   3.442   1.865   1.287
 2861SOL     OW 9481   4.791   4.980   5.861
 2861SOL    HW1 9482   4.692   4.993   5.871
 2861SOL    HW2 9483   4.834   4.990   5.951
 2862SOL     OW 9484   5.252   2.005   3.616
 2862SOL    HW1 9485   5.296   1.936   3.674
 2862SOL    HW2 9486   5.322   2.059   3.569
 2863SOL     OW 9487   5.514   1.415   6.624
 2863SOL    HW1 9488   5.488   1.479   6.696
 2863SOL    HW2 9489   5.605   1.439   6.589
 2864SOL     OW 9490   4.204   1.082   1.631
 2864SOL    HW1 9491   4.198   1.063   1.729
 2864SOL    HW2 9492   4.126   1.138   1.604
 2865SOL     OW 9493   5.249   4.320   5.906
 2865SOL    HW1 9494   5.319   4.306   5.836
 2865SOL    HW2 9495   5.210   4.411   5.896
 2866SOL     OW 9496   6.580   6.042   6.865
 2866SOL    HW1 9497   6.492   6.035   6.911
 2866SOL    HW2 9498   6.583   5.978   6.788
 2867SOL     OW 9499   5.974   3.816   2.406
 2867SOL    HW1 9500   6.033   3.860   2.474
 2867SOL    HW2 9501   5.878   3.833   2.430
 2868SOL     OW 9502   0.412   3.253   5.655
 2868SOL    HW1 9503   0.360   3.212   5.580
 2868SOL    HW2 9504   0.420   3.352   5.640
 2869SOL     OW 9505   6.239   1.261   3.475
 2869SOL    HW1 9506   6.144   1.230   3.470
 2869SOL    HW2 9507   6.243   1.348   3.524
 2870SOL     OW 9508   0.384   1.181   4.611
 2870SOL    HW1 9509   0.449   1.250   4.641
 2870SOL    HW2 9510   0.383   1.105   4.676
 2871SOL     OW 9511   1.561   1.349   0.131
 2871SOL    HW1 9512   1.638   1.338   0.068
 2871SOL    HW2 9513   1.590   1.325   0.224
 2872SOL     OW 9514   2.579   1.879   3.486
 2872SOL    HW1 9515   2.638   1.946   3.441
 2872SOL    HW2 9516   2.532   1.823   3.418
 2873SOL     OW 9517   0.877   4.886   2.738
 2873SOL    HW1 9518   0.937   4.958   2.703
 2873SOL    HW2 9519   0.832   4.917   2.821
 2874SOL     OW 9520   3.799   5.792   2.835
 2874SOL    HW1 9521   3.772   5.774   2.740
 2874SOL    HW2 9522   3.899   5.786   2.843
 2875SOL     OW 9523   4.958   6.155   6.907
 2875SOL    HW1 9524   4.911   6.195   6.985
 2875SOL    HW2 9525   4.903   6.170   6.824
 2876SOL     OW 9526   0.838   7.022   2.055
 2876SOL    HW1 9527   0.743   0.021   2.078
 2876SOL    HW2 9528   0.891   0.084   2.050
 2877SOL     OW 9529   3.835   2.928   5.203
 2877SOL    HW1 9530   3.738   2.920   5.228
 2877SOL    HW2 9531   3.872   3.014   5.239
 2878SOL     OW 9532   3.609   5.120   4.586
 2878SOL    HW1 9533   3.568   5.102   4.496
 2878SOL    HW2 9534   3.664   5.041   4.614
 2879SOL     OW 9535   5.057   4.991   0.095
 2879SOL    HW1 9536   5.111   5.016   0.014
 2879SOL    HW2 9537   5.066   4.892   0.111
 2880SOL     OW 9538   5.720   6.827   0.629
 2880SOL    HW1 9539   5.726   6.925   0.652
 2880SOL    HW2 9540   5.689   6.817   0.535
 2881SOL     OW 9541   5.896   6.446   1.241
 2881SOL    HW1 9542   5.842   6.373   1.283
 2881SOL    HW2 9543   5.981   6.408   1.204
 2882SOL     OW 9544   0.646   3.396   2.161
 2882SOL    HW1 9545   0.674   3.477   2.109
 2882SOL    HW2 9546   0.570   3.420   2.221
 2883SOL     OW 9547   5.427   6.092   4.018
 2883SOL    HW1 9548   5.433   6.003   3.972
 2883SOL    HW2 9549   5.462   6.084   4.111
 2884SOL     OW 9550   0.805   5.652   2.690
 2884SOL    HW1 9551   0.717   5.682   2.653
 2884SOL    HW2 9552   0.814   5.684   2.784
 2885SOL     OW 9553   0.380   3.265   1.946
 2885SOL    HW1 9554   0.437   3.345   1.961
 2885SOL    HW2 9555   0.408   3.218   1.862
 2886SOL     OW 9556   2.211   3.950   6.478
 2886SOL    HW1 9557   2.114   3.959   6.500
 2886SOL    HW2 9558   2.223   3.885   6.403
 2887SOL     OW 9559   1.486   0.086   4.989
 2887SOL    HW1 9560   1.551   0.060   4.917
 2887SOL    HW2 9561   1.502   0.030   5.070
 2888SOL     OW 9562   0.673   4.781   6.931
 2888SOL    HW1 9563   0.767   4.759   6.956
 2888SOL    HW2 9564   0.613   4.707   6.962
 2889SOL     OW 9565   1.822   7.013   2.436
 2889SOL    HW1 9566   1.737   7.008   2.489
 2889SOL    HW2 9567   1.892   0.039   2.488
 2890SOL     OW 9568   2.683   0.646   1.007
 2890SOL    HW1 9569   2.642   0.555   1.003
 2890SOL    HW2 9570   2.690   0.676   1.102
 2891SOL     OW 9571   2.398   4.510   3.705
 2891SOL    HW1 9572   2.412   4.452   3.785
 2891SOL    HW2 9573   2.369   4.453   3.628
 2892SOL     OW 9574   5.679   3.582   0.466
 2892SOL    HW1 9575   5.604   3.636   0.429
 2892SOL    HW2 9576   5.753   3.642   0.497
 2893SOL     OW 9577   0.415   6.456   4.872
 2893SOL    HW1 9578   0.425   6.543   4.824
 2893SOL    HW2 9579   0.505   6.414   4.884
 2894SOL     OW 9580   3.167   2.618   0.144
 2894SOL    HW1 9581   3.140   2.707   0.106
 2894SOL    HW2 9582   3.194   2.629   0.239
 2895SOL     OW 9583   4.043   3.200   6.509
 2895SOL    HW1 9584   4.046   3.189   6.409
 2895SOL    HW2 9585   4.106   3.134   6.550
 2896SOL     OW 9586   3.120   5.283   6.400
 2896SOL    HW1 9587   3.191   5.348   6.371
 2896SOL    HW2 9588   3.158   5.190   6.399
 2897SOL     OW 9589   2.976   5.924   3.441
 2897SOL    HW1 9590   2.978   5.825   3.431
 2897SOL    HW2 9591   3.020   5.967   3.362
 2898SOL     OW 9592   4.303   5.107   3.681
 2898SOL    HW1 9593   4.296   5.016   3.721
 2898SOL    HW2 9594   4.215   5.132   3.639
 2899SOL     OW 9595   0.452   2.063   0.480
 2899SOL    HW1 9596   0.452   2.121   0.562
 2899SOL    HW2 9597   0.530   2.089   0.422
 2900SOL     OW 9598   1.851   4.915   5.619
 2900SOL    HW1 9599   1.848   4.815   5.617
 2900SOL    HW2 9600   1.763   4.951   5.650
 2901SOL     OW 9601   1.835   0.481   2.713
 2901SOL    HW1 9602   1.851   0.409   2.645
 2901SOL    HW2 9603   1.893   0.466   2.793
 2902SOL     OW 9604   5.675   5.922   1.349
 2902SOL    HW1 9605   5.668   5.864   1.268
 2902SOL    HW2 9606   5.584   5.955   1.374
 2903SOL     OW 9607   3.008   0.230   1.505
 2903SOL    HW1 9608   3.048   0.321   1.498
 2903SOL    HW2 9609   3.041   0.185   1.588
 2904SOL     OW 9610   2.072   3.373   5.419
 2904SOL    HW1 9611   2.047   3.289   5.371
 2904SOL    HW2 9612   2.158   3.359   5.469
 2905SOL     OW 9613   1.426   2.394   3.609
 2905SOL    HW1 9614   1.447   2.490   3.588
 2905SOL    HW2 9615   1.389   2.388   3.702
 2906SOL     OW 9616   4.798   5.436   2.959
 2906SOL    HW1 9617   4.765   5.492   2.883
 2906SOL    HW2 9618   4.849   5.493   3.023
 2907SOL     OW 9619   0.474   1.124   4.366
 2907SOL    HW1 9620   0.451   1.140   4.462
 2907SOL    HW2 9621   0.549   1.185   4.339
 2908SOL     OW 9622   4.114   6.871   3.932
 2908SOL    HW1 9623   4.121   6.778   3.968
 2908SOL    HW2 9624   4.205   6.909   3.919
 2909SOL     OW 9625   0.606   6.078   3.138
 2909SOL    HW1 9626   0.650   6.059   3.050
 2909SOL    HW2 9627   0.519   6.029   3.143
 2910SOL     OW 9628   4.685   6.040   4.316
 2910SOL    HW1 9629   4.598   6.072   4.277
 2910SOL    HW2 9630   4.706   5.949   4.281
 2911SOL     OW 9631   1.609   5.006   3.383
 2911SOL    HW1 9632   1.680   5.030   3.449
 2911SOL    HW2 9633   1.597   5.082   3.318
 2912SOL     OW 9634   3.967   6.066   6.937
 2912SOL    HW1 9635   3.870   6.083   6.950
 2912SOL    HW2 9636   3.979   5.991   6.871
 2913SOL     OW 9637   1.895   5.139   2.402
 2913SOL    HW1 9638   1.875   5.168   2.495
 2913SOL    HW2 9639   1.972   5.192   2.366
 2914SOL     OW 9640   6.049   5.822   5.615
 2914SOL    HW1 9641   5.976   5.861   5.671
 2914SOL    HW2 9642   6.138   5.855   5.648
 2915SOL     OW 9643   5.062   1.864   5.128
 2915SOL    HW1 9644   5.160   1.861   5.108
 2915SOL    HW2 9645   5.014   1.807   5.061
 2916SOL     OW 9646   6.368   5.480   5.967
 2916SOL    HW1 9647   6.396   5.528   6.050
 2916SOL    HW2 9648   6.432   5.405   5.949
 2917SOL     OW 9649   4.399   0.511   1.959
 2917SOL    HW1 9650   4.490   0.471   1.975
 2917SOL    HW2 9651   4.370   0.562   2.040
 2918SOL     OW 9652   0.380   3.654   3.078
 2918SOL    HW1 9653   0.287   3.691   3.077
 2918SOL    HW2 9654   0.378   3.558   3.052
 2919SOL     OW 9655   6.400   1.147   0.170
 2919SOL    HW1 9656   6.307   1.111   0.173
 2919SOL    HW2 9657   6.398   1.244   0.145
 2920SOL     OW 9658   3.231   1.845   2.559
 2920SOL    HW1 9659   3.324   1.824   2.527
 2920SOL    HW2 9660   3.223   1.944   2.573
 2921SOL     OW 9661   0.589   0.448   3.130
 2921SOL    HW1 9662   0.527   0.436   3.052
 2921SOL    HW2 9663   0.572   0.537   3.173
 2922SOL     OW 9664   5.778   6.796   6.899
 2922SOL    HW1 9665   5.759   6.799   6.997
 2922SOL    HW2 9666   5.870   6.759   6.885
 2923SOL     OW 9667   0.102   4.586   1.870
 2923SOL    HW1 9668   0.011   4.611   1.835
 2923SOL    HW2 9669   0.106   4.488   1.885
 2924SOL     OW 9670   0.108   2.095   6.699
 2924SOL    HW1 9671   0.062   2.045   6.773
 2924SOL    HW2 9672   0.040   2.145   6.647
 2925SOL     OW 9673   5.234   0.920   3.142
 2925SOL    HW1 9674   5.316   0.895   3.091
 2925SOL    HW2 9675   5.224   0.860   3.221
 2926SOL     OW 9676   0.270   1.292   4.982
 2926SOL    HW1 9677   0.287   1.336   5.070
 2926SOL    HW2 9678   0.247   1.196   4.996
 2927SOL     OW 9679   1.975   1.715   2.005
 2927SOL    HW1 9680   1.887   1.763   2.007
 2927SOL    HW2 9681   2.034   1.749   2.078
 2928SOL     OW 9682   6.699   2.370   6.282
 2928SOL    HW1 9683   6.618   2.348   6.336
 2928SOL    HW2 9684   6.685   2.341   6.188
 2929SOL     OW 9685   0.700   0.995   5.713
 2929SOL    HW1 9686   0.645   1.043   5.645
 2929SOL    HW2 9687   0.668   1.019   5.805
 2930SOL     OW 9688   4.642   6.492   4.951
 2930SOL    HW1 9689   4.603   6.583   4.937
 2930SOL    HW2 9690   4.680   6.459   4.865
 2931SOL     OW 9691   5.710   6.336   6.812
 2931SOL    HW1 9692   5.676   6.404   6.877
 2931SOL    HW2 9693   5.675   6.357   6.721
 2932SOL     OW 9694   1.653   4.957   2.025
 2932SOL    HW1 9695   1.698   5.012   1.954
 2932SOL    HW2 9696   1.597   4.887   1.981
 2933SOL     OW 9697   5.712   2.845   3.076
 2933SOL    HW1 9698   5.764   2.867   2.994
 2933SOL    HW2 9699   5.676   2.929   3.117
 2934SOL     OW 9700   3.820   0.977   0.236
 2934SOL    HW1 9701   3.793   0.958   0.330
 2934SOL    HW2 9702   3.812   1.075   0.217
 2935SOL     OW 9703   6.508   3.452   1.486
 2935SOL    HW1 9704   6.512   3.375   1.422
 2935SOL    HW2 9705   6.489   3.536   1.437
 2936SOL     OW 9706   4.964   5.636   1.980
 2936SOL    HW1 9707   4.865   5.644   1.989
 2936SOL    HW2 9708   4.988   5.626   1.884
 2937SOL     OW 9709   3.982   4.402   0.584
 2937SOL    HW1 9710   3.929   4.415   0.668
 2937SOL    HW2 9711   3.991   4.490   0.536
 2938SOL     OW 9712   4.869   4.626   6.000
 2938SOL    HW1 9713   4.832   4.616   5.908
 2938SOL    HW2 9714   4.817   4.695   6.050
 2939SOL     OW 9715   0.550   0.006   4.562
 2939SOL    HW1 9716   0.524   6.934   4.542
 2939SOL    HW2 9717   0.572   0.053   4.476
 2940SOL     OW 9718   5.753   0.028   6.486
 2940SOL    HW1 9719   5.844   0.043   6.523
 2940SOL    HW2 9720   5.711   6.972   6.531
 2941SOL     OW 9721   2.218   2.284   5.112
 2941SOL    HW1 9722   2.266   2.290   5.025
 2941SOL    HW2 9723   2.191   2.376   5.141
 2942SOL     OW 9724   2.261   1.234   1.832
 2942SOL    HW1 9725   2.229   1.231   1.927
 2942SOL    HW2 9726   2.199   1.292   1.778
 2943SOL     OW 9727   5.767   3.713   2.763
 2943SOL    HW1 9728   5.815   3.633   2.726
 2943SOL    HW2 9729   5.668   3.696   2.762
 2944SOL     OW 9730   2.632   5.490   5.241
 2944SOL    HW1 9731   2.556   5.526   5.296
 2944SOL    HW2 9732   2.599   5.411   5.188
 2945SOL     OW 9733   4.054   3.159   3.701
 2945SOL    HW1 9734   3.994   3.238   3.711
 2945SOL    HW2 9735   4.084   3.128   3.791
 2946SOL     OW 9736   0.292   5.318   6.865
 2946SOL    HW1 9737   0.388   5.346   6.875
 2946SOL    HW2 9738   0.280   5.272   6.778
 2947SOL     OW 9739   0.888   4.538   0.342
 2947SOL    HW1 9740   0.824   4.528   0.417
 2947SOL    HW2 9741   0.840   4.525   0.255
 2948SOL     OW 9742   6.798   3.923   5.682
 2948SOL    HW1 9743   6.879   3.949   5.631
 2948SOL    HW2 9744   6.748   4.005   5.709
 2949SOL     OW 9745   1.905   6.255   0.999
 2949SOL    HW1 9746   1.962   6.263   1.081
 2949SOL    HW2 9747   1.964   6.244   0.919
 2950SOL     OW 9748   4.929   3.689   4.478
 2950SOL    HW1 9749   4.935   3.771   4.422
 2950SOL    HW2 9750   4.887   3.711   4.566
 2951SOL     OW 9751   6.596   2.402   0.779
 2951SOL    HW1 9752   6.611   2.477   0.715
 2951SOL    HW2 9753   6.636   2.318   0.742
 2952SOL     OW 9754   0.980   6.032   4.817
 2952SOL    HW1 9755   1.012   6.092   4.744
 2952SOL    HW2 9756   1.019   6.063   4.904
 2953SOL     OW 9757   4.739   2.814   2.674
 2953SOL    HW1 9758   4.768   2.890   2.617
 2953SOL    HW2 9759   4.687   2.849   2.752
 2954SOL     OW 9760   0.837   5.283   1.636
 2954SOL    HW1 9761   0.812   5.193   1.600
 2954SOL    HW2 9762   0.890   5.271   1.720
 2955SOL     OW 9763   0.975   3.742   0.451
 2955SOL    HW1 9764   1.025   3.715   0.533
 2955SOL    HW2 9765   0.878   3.754   0.474
 2956SOL     OW 9766   6.114   6.044   3.226
 2956SOL    HW1 9767   6.200   6.009   3.264
 2956SOL    HW2 9768   6.106   6.014   3.131
 2957SOL     OW 9769   6.760   3.399   1.605
 2957SOL    HW1 9770   6.672   3.413   1.559
 2957SOL    HW2 9771   6.832   3.386   1.537
 2958SOL     OW 9772   2.718   4.813   4.782
 2958SOL    HW1 9773   2.632   4.841   4.825
 2958SOL    HW2 9774   2.766   4.750   4.842
 2959SOL     OW 9775   4.499   4.156   0.222
 2959SOL    HW1 9776   4.545   4.102   0.292
 2959SOL    HW2 9777   4.544   4.245   0.214
 2960SOL     OW 9778   3.146   0.461   6.603
 2960SOL    HW1 9779   3.121   0.391   6.669
 2960SOL    HW2 9780   3.137   0.551   6.645
 2961SOL     OW 9781   5.321   2.730   4.427
 2961SOL    HW1 9782   5.336   2.802   4.495
 2961SOL    HW2 9783   5.409   2.699   4.391
 2962SOL     OW 9784   4.175   1.229   3.946
 2962SOL    HW1 9785   4.145   1.193   4.035
 2962SOL    HW2 9786   4.212   1.321   3.958
 2963SOL     OW 9787   1.711   1.537   5.947
 2963SOL    HW1 9788   1.786   1.474   5.967
 2963SOL    HW2 9789   1.744   1.612   5.889
 2964SOL     OW 9790   0.781   6.865   1.848
 2964SOL    HW1 9791   0.859   6.812   1.812
 2964SOL    HW2 9792   0.811   6.919   1.927
 2965SOL     OW 9793   6.972   0.903   4.981
 2965SOL    HW1 9794   6.894   0.965   4.990
 2965SOL    HW2 9795   6.947   0.813   5.014
 2966SOL     OW 9796   6.038   4.545   4.098
 2966SOL    HW1 9797   6.055   4.611   4.024
 2966SOL    HW2 9798   6.113   4.478   4.100
 2967SOL     OW 9799   5.958   2.323   4.225
 2967SOL    HW1 9800   5.904   2.397   4.184
 2967SOL    HW2 9801   6.048   2.358   4.252
 2968SOL     OW 9802   1.429   4.248   5.530
 2968SOL    HW1 9803   1.441   4.190   5.449
 2968SOL    HW2 9804   1.334   4.244   5.559
 2969SOL     OW 9805   6.277   1.244   4.241
 2969SOL    HW1 9806   6.360   1.188   4.238
 2969SOL    HW2 9807   6.237   1.249   4.149
 2970SOL     OW 9808   0.716   4.058   6.653
 2970SOL    HW1 9809   0.719   4.032   6.556
 2970SOL    HW2 9810   0.779   4.134   6.668
 2971SOL     OW 9811   5.200   2.964   5.636
 2971SOL    HW1 9812   5.103   2.955   5.614
 2971SOL    HW2 9813   5.240   2.873   5.647
 2972SOL     OW 9814   6.496   4.770   6.116
 2972SOL    HW1 9815   6.507   4.868   6.097
 2972SOL    HW2 9816   6.548   4.717   6.049
 2973SOL     OW 9817   5.426   1.296   3.984
 2973SOL    HW1 9818   5.504   1.310   3.923
 2973SOL    HW2 9819   5.430   1.363   4.059
 2974SOL     OW 9820   0.778   3.658   2.918
 2974SOL    HW1 9821   0.876   3.672   2.902
 2974SOL    HW2 9822   0.744   3.588   2.855
 2975SOL     OW 9823   0.704   2.358   5.270
 2975SOL    HW1 9824   0.749   2.338   5.183
 2975SOL    HW2 9825   0.674   2.272   5.313
 2976SOL     OW 9826   4.232   1.287   2.309
 2976SOL    HW1 9827   4.314   1.305   2.363
 2976SOL    HW2 9828   4.256   1.236   2.227
 2977SOL     OW 9829   1.716   0.092   4.114
 2977SOL    HW1 9830   1.631   0.135   4.143
 2977SOL    HW2 9831   1.741   0.021   4.180
 2978SOL     OW 9832   3.980   4.600   6.734
 2978SOL    HW1 9833   3.942   4.619   6.825
 2978SOL    HW2 9834   4.079   4.615   6.736
 2979SOL     OW 9835   4.613   7.003   4.272
 2979SOL    HW1 9836   4.645   0.074   4.252
 2979SOL    HW2 9837   4.651   6.940   4.204
 2980SOL     OW 9838   1.626   6.019   3.801
 2980SOL    HW1 9839   1.665   6.105   3.833
 2980SOL    HW2 9840   1.556   5.988   3.865
 2981SOL     OW 9841   0.594   0.526   5.870
 2981SOL    HW1 9842   0.654   0.446   5.873
 2981SOL    HW2 9843   0.534   0.526   5.950
 2982SOL     OW 9844   4.956   6.200   3.403
 2982SOL    HW1 9845   4.972   6.233   3.310
 2982SOL    HW2 9846   4.948   6.100   3.402
 2983SOL     OW 9847   0.858   1.470   4.123
 2983SOL    HW1 9848   0.787   1.504   4.062
 2983SOL    HW2 9849   0.944   1.461   4.072
 2984SOL     OW 9850   4.949   5.875   1.584
 2984SOL    HW1 9851   5.016   5.884   1.658
 2984SOL    HW2 9852   4.862   5.843   1.623
 2985SOL     OW 9853   0.750   2.615   5.209
 2985SOL    HW1 9854   0.726   2.522   5.235
 2985SOL    HW2 9855   0.751   2.623   5.109
 2986SOL     OW 9856   1.960   3.798   6.546
 2986SOL    HW1 9857   2.051   3.759   6.564
 2986SOL    HW2 9858   1.890   3.742   6.591
 2987SOL     OW 9859   5.000   0.729   3.396
 2987SOL    HW1 9860   4.979   0.819   3.435
 2987SOL    HW2 9861   5.100   0.718   3.391
 2988SOL     OW 9862   0.309   0.019   3.015
 2988SOL    HW1 9863   0.397   0.065   3.026
 2988SOL    HW2 9864   0.259   0.021   3.101
 2989SOL     OW 9865   6.573   6.006   0.411
 2989SOL    HW1 9866   6.480   5.975   0.389
 2989SOL    HW2 9867   6.639   5.950   0.361
 2990SOL     OW 9868   4.268   1.372   3.314
 2990SOL    HW1 9869   4.216   1.287   3.298
 2990SOL    HW2 9870   4.308   1.402   3.228
 2991SOL     OW 9871   6.616   3.962   0.165
 2991SOL    HW1 9872   6.640   3.888   0.228
 2991SOL    HW2 9873   6.537   4.011   0.202
 2992SOL     OW 9874   2.460   5.358   5.598
 2992SOL    HW1 9875   2.398   5.301   5.653
 2992SOL    HW2 9876   2.554   5.326   5.610
 2993SOL     OW 9877   0.975   4.892   1.870
 2993SOL    HW1 9878   1.036   4.894   1.791
 2993SOL    HW2 9879   0.911   4.968   1.865
 2994SOL     OW 9880   4.237   0.436   0.939
 2994SOL    HW1 9881   4.150   0.432   0.987
 2994SOL    HW2 9882   4.311   0.415   1.003
 2995SOL     OW 9883   0.996   3.214   6.843
 2995SOL    HW1 9884   0.975   3.293   6.785
 2995SOL    HW2 9885   1.027   3.138   6.785
 2996SOL     OW 9886   2.519   5.741   3.768
 2996SOL    HW1 9887   2.540   5.824   3.716
 2996SOL    HW2 9888   2.425   5.744   3.801
 2997SOL     OW 9889   4.852   6.896   2.078
 2997SOL    HW1 9890   4.944   6.865   2.104
 2997SOL    HW2 9891   4.811   6.828   2.017
 2998SOL     OW 9892   5.309   6.689   4.957
 2998SOL    HW1 9893   5.299   6.787   4.940
 2998SOL    HW2 9894   5.398   6.672   5.001
 2999SOL     OW 9895   3.503   5.580   3.714
 2999SOL    HW1 9896   3.410   5.603   3.685
 2999SOL    HW2 9897   3.563   5.660   3.701
 3000SOL     OW 9898   1.514   3.985   6.909
 3000SOL    HW1 9899   1.517   3.905   6.969
 3000SOL    HW2 9900   1.482   4.064   6.961
 3001SOL     OW 9901   5.132   6.961   6.507
 3001SOL    HW1 9902   5.201   6.890   6.518
 3001SOL    HW2 9903   5.080   6.971   6.593
 3002SOL     OW 9904   4.338   0.102   5.410
 3002SOL    HW1 9905   4.318   0.105   5.312
 3002SOL    HW2 9906   4.412   0.167   5.430
 3003SOL     OW 9907   2.251   6.833   6.571
 3003SOL    HW1 9908   2.235   6.825   6.473
 3003SOL    HW2 9909   2.347   6.814   6.591
 3004SOL     OW 9910   0.753   5.480   3.636
 3004SOL    HW1 9911   0.688   5.480   3.712
 3004SOL    HW2 9912   0.843   5.451   3.669
 3005SOL     OW 9913   3.504   2.679   0.287
 3005SOL    HW1 9914   3.473   2.605   0.226
 3005SOL    HW2 9915   3.596   2.657   0.321
 3006SOL     OW 9916   6.242   2.175   6.830
 3006SOL    HW1 9917   6.292   2.108   6.776
 3006SOL    HW2 9918   6.155   2.136   6.859
 3007SOL     OW 9919   6.258   5.004   2.188
 3007SOL    HW1 9920   6.320   4.952   2.129
 3007SOL    HW2 9921   6.184   4.944   2.219
 3008SOL     OW 9922   3.414   0.465   6.224
 3008SOL    HW1 9923   3.422   0.368   6.248
 3008SOL    HW2 9924   3.361   0.512   6.294
 3009SOL     OW 9925   0.503   6.449   3.001
 3009SOL    HW1 9926   0.562   6.529   3.009
 3009SOL    HW2 9927   0.460   6.431   3.089
 3010SOL     OW 9928   3.789   6.215   3.020
 3010SOL    HW1 9929   3.696   6.237   2.989
 3010SOL    HW2 9930   3.848   6.294   3.009
 3011SOL     OW 9931   6.007   1.273   0.277
 3011SOL    HW1 9932   6.036   1.336   0.349
 3011SOL    HW2 9933   5.916   1.299   0.245
 3012SOL     OW 9934   1.329   3.832   5.255
 3012SOL    HW1 9935   1.265   3.770   5.210
 3012SOL    HW2 9936   1.422   3.813   5.222
 3013SOL     OW 9937   5.521   5.429   4.341
 3013SOL    HW1 9938   5.436   5.457   4.297
 3013SOL    HW2 9939   5.597   5.442   4.278
 3014SOL     OW 9940   5.227   2.975   4.120
 3014SOL    HW1 9941   5.297   3.015   4.180
 3014SOL    HW2 9942   5.139   3.018   4.140
 3015SOL     OW 9943   3.222   2.109   0.548
 3015SOL    HW1 9944   3.298   2.130   0.487
 3015SOL    HW2 9945   3.177   2.025   0.517
 3016SOL     OW 9946   2.581   6.280   3.651
 3016SOL    HW1 9947   2.632   6.201   3.683
 3016SOL    HW2 9948   2.541   6.262   3.561
 3017SOL     OW 9949   0.467   5.091   1.832
 3017SOL    HW1 9950   0.387   5.032   1.840
 3017SOL    HW2 9951   0.457   5.149   1.751
 3018SOL     OW 9952   2.977   6.907   5.205
 3018SOL    HW1 9953   2.980   6.896   5.106
 3018SOL    HW2 9954   2.929   6.829   5.246
 3019SOL     OW 9955   1.900   6.785   0.600
 3019SOL    HW1 9956   1.832   6.858   0.607
 3019SOL    HW2 9957   1.984   6.822   0.560
 3020SOL     OW 9958   3.726   4.299   1.722
 3020SOL    HW1 9959   3.768   4.387   1.702
 3020SOL    HW2 9960   3.697   4.255   1.636
 3021SOL     OW 9961   2.721   1.225   6.733
 3021SOL    HW1 9962   2.621   1.232   6.736
 3021SOL    HW2 9963   2.755   1.268   6.650
 3022SOL     OW 9964   3.825   5.917   3.074
 3022SOL    HW1 9965   3.824   5.878   2.982
 3022SOL    HW2 9966   3.795   6.012   3.069
 3023SOL     OW 9967   4.385   6.874   2.715
 3023SOL    HW1 9968   4.377   6.972   2.734
 3023SOL    HW2 9969   4.423   6.862   2.623
 3024SOL     OW 9970   4.234   0.068   6.030
 3024SOL    HW1 9971   4.283   0.147   5.993
 3024SOL    HW2 9972   4.149   0.055   5.980
 3025SOL     OW 9973   3.276   2.107   0.116
 3025SOL    HW1 9974   3.321   2.103   0.027
 3025SOL    HW2 9975   3.202   2.174   0.114
 3026SOL     OW 9976   2.160   2.061   0.219
 3026SOL    HW1 9977   2.116   2.065   0.309
 3026SOL    HW2 9978   2.105   2.112   0.153
 3027SOL     OW 9979   4.436   0.768   1.800
 3027SOL    HW1 9980   4.473   0.679   1.826
 3027SOL    HW2 9981   4.464   0.790   1.707
 3028SOL     OW 9982   1.405   3.774   6.251
 3028SOL    HW1 9983   1.471   3.850   6.249
 3028SOL    HW2 9984   1.455   3.687   6.251
 3029SOL     OW 9985   0.403   4.943   5.098
 3029SOL    HW1 9986   0.451   4.920   5.013
 3029SOL    HW2 9987   0.305   4.939   5.083
 3030SOL     OW 9988   0.625   2.383   6.038
 3030SOL    HW1 9989   0.674   2.465   6.006
 3030SOL    HW2 9990   0.627   2.313   5.967
 3031SOL     OW 9991   0.144   3.436   0.503
 3031SOL    HW1 9992   0.063   3.416   0.449
 3031SOL    HW2 9993   0.139   3.530   0.537
 3032SOL     OW 9994   4.307   6.779   0.704
 3032SOL    HW1 9995   4.295   6.729   0.619
 3032SOL    HW2 9996   4.383   6.843   0.695
 3033SOL     OW 9997   1.193   2.516   1.251
 3033SOL    HW1 9998   1.178   2.453   1.174
 3033SOL    HW2 9999   1.169   2.470   1.337
 3034SOL     OW10000   1.853   5.585   3.552
 3034SOL    HW110001   1.807   5.664   3.592
 3034SOL    HW210002   1.847   5.590   3.452
 3035SOL     OW10003   6.552   2.900   0.235
 3035SOL    HW110004   6.648   2.877   0.222
 3035SOL    HW210005   6.542   2.963   0.312
 3036SOL     OW10006   1.340   3.135   6.644
 3036SOL    HW110007   1.272   3.162   6.575
 3036SOL    HW210008   1.337   3.036   6.656
 3037SOL     OW10009   6.487   5.652   4.231
 3037SOL    HW110010   6.447   5.739   4.204
 3037SOL    HW210011   6.507   5.598   4.149
 3038SOL     OW10012   5.912   6.739   6.360
 3038SOL    HW110013   5.841   6.729   6.429
 3038SOL    HW210014   5.874   6.783   6.278
 3039SOL     OW10015   6.907   3.589   2.498
 3039SOL    HW110016   6.956   3.509   2.464
 3039SOL    HW210017   6.895   3.654   2.423
 3040SOL     OW10018   5.208   3.394   6.153
 3040SOL    HW110019   5.185   3.391   6.056
 3040SOL    HW210020   5.163   3.319   6.201
 3041SOL     OW10021   2.156   2.598   5.452
 3041SOL    HW110022   2.229   2.648   5.405
 3041SOL    HW210023   2.188   2.569   5.542
 3042SOL     OW10024   5.554   6.937   1.746
 3042SOL    HW110025   5.649   6.906   1.746
 3042SOL    HW210026   5.498   6.870   1.796
 3043SOL     OW10027   0.558   5.102   1.236
 3043SOL    HW110028   0.588   5.105   1.141
 3043SOL    HW210029   0.584   5.014   1.277
 3044SOL     OW10030   3.073   5.054   6.125
 3044SOL    HW110031   3.065   5.088   6.032
 3044SOL    HW210032   3.065   4.954   6.125
 3045SOL     OW10033   4.707   0.502   3.074
 3045SOL    HW110034   4.781   0.561   3.105
 3045SOL    HW210035   4.657   0.547   2.999
 3046SOL     OW10036   2.935   2.061   6.138
 3046SOL    HW110037   2.960   2.018   6.052
 3046SOL    HW210038   2.927   1.992   6.210
 3047SOL     OW10039   5.411   6.495   2.573
 3047SOL    HW110040   5.446   6.465   2.662
 3047SOL    HW210041   5.321   6.538   2.586
 3048SOL     OW10042   3.967   2.970   1.436
 3048SOL    HW110043   3.920   2.883   1.446
 3048SOL    HW210044   3.943   3.012   1.349
 3049SOL     OW10045   1.572   5.922   1.513
 3049SOL    HW110046   1.643   5.865   1.554
 3049SOL    HW210047   1.602   5.953   1.422
 3050SOL     OW10048   3.172   1.082   3.438
 3050SOL    HW110049   3.242   1.084   3.366
 3050SOL    HW210050   3.088   1.124   3.404
 3051SOL     OW10051   2.290   3.743   0.031
 3051SOL    HW110052   2.195   3.729   0.060
 3051SOL    HW210053   2.321   3.662   7.003
 3052SOL     OW10054   3.958   0.567   2.231
 3052SOL    HW110055   3.884   0.510   2.195
 3052SOL    HW210056   4.046   0.529   2.202
 3053SOL     OW10057   6.959   0.546   6.789
 3053SOL    HW110058   0.018   0.605   6.784
 3053SOL    HW210059   6.964   0.476   6.718
 3054SOL     OW10060   0.714   2.820   0.907
 3054SOL    HW110061   0.688   2.797   1.001
 3054SOL    HW210062   0.747   2.914   0.904
 3055SOL     OW10063   4.416   6.942   3.854
 3055SOL    HW110064   4.509   6.958   3.821
 3055SOL    HW210065   4.384   0.000   3.903
 3056SOL     OW10066   6.829   0.807   6.312
 3056SOL    HW110067   6.896   0.828   6.241
 3056SOL    HW210068   6.876   0.782   6.397
 3057SOL     OW10069   4.071   5.735   2.833
 3057SOL    HW110070   4.100   5.666   2.899
 3057SOL    HW210071   4.151   5.766   2.781
 3058SOL     OW10072   0.004   5.556   1.369
 3058SOL    HW110073   0.080   5.549   1.304
 3058SOL    HW210074   6.956   5.616   1.330
 3059SOL     OW10075   2.137   2.131   5.320
 3059SOL    HW110076   2.175   2.207   5.266
 3059SOL    HW210077   2.160   2.044   5.276
 3060SOL     OW10078   0.569   6.277   0.517
 3060SOL    HW110079   0.583   6.178   0.522
 3060SOL    HW210080   0.651   6.321   0.482
 3061SOL     OW10081   6.350   0.987   5.061
 3061SOL    HW110082   6.390   1.009   4.971
 3061SOL    HW210083   6.343   1.071   5.115
 3062SOL     OW10084   1.436   6.885   6.815
 3062SOL    HW110085   1.352   6.864   6.766
 3062SOL    HW210086   1.505   6.918   6.750
 3063SOL     OW10087   3.147   5.382   1.660
 3063SOL    HW110088   3.134   5.286   1.686
 3063SOL    HW210089   3.065   5.415   1.614
 3064SOL     OW10090   5.742   3.558   3.670
 3064SOL    HW110091   5.769   3.481   3.728
 3064SOL    HW210092   5.807   3.566   3.594
 3065SOL     OW10093   1.995   1.124   6.989
 3065SOL    HW110094   2.088   1.131   0.003
 3065SOL    HW210095   1.974   1.028   6.971
 3066SOL     OW10096   5.436   4.672   0.777
 3066SOL    HW110097   5.385   4.608   0.835
 3066SOL    HW210098   5.520   4.700   0.824
 3067SOL     OW10099   3.552   2.064   4.205
 3067SOL    HW110100   3.607   1.990   4.167
 3067SOL    HW210101   3.588   2.091   4.294
 3068SOL     OW10102   5.433   5.892   0.680
 3068SOL    HW110103   5.460   5.909   0.586
 3068SOL    HW210104   5.411   5.979   0.725
 3069SOL     OW10105   6.726   6.068   2.044
 3069SOL    HW110106   6.690   6.060   1.950
 3069SOL    HW210107   6.814   6.115   2.042
 3070SOL     OW10108   1.596   1.150   2.443
 3070SOL    HW110109   1.660   1.073   2.443
 3070SOL    HW210110   1.625   1.218   2.375
 3071SOL     OW10111   5.551   6.300   3.349
 3071SOL    HW110112   5.509   6.365   3.286
 3071SOL    HW210113   5.636   6.339   3.384
 3072SOL     OW10114   0.903   6.221   0.675
 3072SOL    HW110115   0.849   6.258   0.599
 3072SOL    HW210116   0.970   6.289   0.704
 3073SOL     OW10117   0.950   3.273   5.295
 3073SOL    HW110118   0.868   3.327   5.279
 3073SOL    HW210119   1.018   3.330   5.343
 3074SOL     OW10120   5.924   2.633   1.044
 3074SOL    HW110121   5.945   2.537   1.066
 3074SOL    HW210122   6.001   2.672   0.993
 3075SOL     OW10123   2.060   6.911   1.366
 3075SOL    HW110124   2.095   6.918   1.272
 3075SOL    HW210125   1.971   6.865   1.364
 3076SOL     OW10126   6.750   1.519   4.679
 3076SOL    HW110127   6.752   1.523   4.579
 3076SOL    HW210128   6.822   1.579   4.716
 3077SOL     OW10129   4.992   5.275   2.584
 3077SOL    HW110130   5.004   5.177   2.599
 3077SOL    HW210131   5.080   5.316   2.560
 3078SOL     OW10132   1.914   3.351   1.111
 3078SOL    HW110133   1.821   3.318   1.130
 3078SOL    HW210134   1.909   3.444   1.074
 3079SOL     OW10135   2.270   2.365   4.372
 3079SOL    HW110136   2.287   2.282   4.424
 3079SOL    HW210137   2.354   2.419   4.365
 3080SOL     OW10138   5.396   4.610   3.085
 3080SOL    HW110139   5.331   4.570   3.020
 3080SOL    HW210140   5.363   4.699   3.116
 3081SOL     OW10141   0.189   3.671   6.081
 3081SOL    HW110142   0.095   3.640   6.071
 3081SOL    HW210143   0.192   3.770   6.077
 3082SOL     OW10144   3.607   6.326   3.362
 3082SOL    HW110145   3.580   6.377   3.280
 3082SOL    HW210146   3.631   6.391   3.434
 3083SOL     OW10147   3.902   6.508   3.498
 3083SOL    HW110148   3.960   6.535   3.575
 3083SOL    HW210149   3.807   6.499   3.529
 3084SOL     OW10150   4.950   4.641   4.582
 3084SOL    HW110151   4.938   4.565   4.518
 3084SOL    HW210152   4.862   4.662   4.625
 3085SOL     OW10153   0.609   4.786   2.289
 3085SOL    HW110154   0.546   4.840   2.232
 3085SOL    HW210155   0.614   4.826   2.380
 3086SOL     OW10156   4.434   1.706   1.775
 3086SOL    HW110157   4.498   1.768   1.821
 3086SOL    HW210158   4.362   1.679   1.839
 3087SOL     OW10159   0.895   5.316   4.040
 3087SOL    HW110160   0.987   5.323   4.002
 3087SOL    HW210161   0.881   5.390   4.106
 3088SOL     OW10162   2.584   4.950   5.685
 3088SOL    HW110163   2.672   4.908   5.666
 3088SOL    HW210164   2.513   4.880   5.685
 3089SOL     OW10165   0.735   2.584   0.785
 3089SOL    HW110166   0.676   2.569   0.705
 3089SOL    HW210167   0.724   2.678   0.817
 3090SOL     OW10168   2.015   1.991   1.834
 3090SOL    HW110169   2.033   2.088   1.825
 3090SOL    HW210170   1.950   1.976   1.909
 3091SOL     OW10171   2.349   6.349   0.280
 3091SOL    HW110172   2.282   6.423   0.269
 3091SOL    HW210173   2.301   6.262   0.290
 3092SOL     OW10174   4.714   6.938   6.898
 3092SOL    HW110175   4.716   6.845   6.862
 3092SOL    HW210176   4.637   6.948   6.961
 3093SOL     OW10177   5.180   5.028   5.873
 3093SOL    HW110178   5.138   5.046   5.784
 3093SOL    HW210179   5.264   4.976   5.860
 3094SOL     OW10180   3.466   6.426   4.499
 3094SOL    HW110181   3.404   6.466   4.432
 3094SOL    HW210182   3.555   6.471   4.494
 3095SOL     OW10183   2.776   5.089   4.084
 3095SOL    HW110184   2.876   5.079   4.083
 3095SOL    HW210185   2.740   5.049   4.169
 3096SOL     OW10186   0.486   0.232   4.755
 3096SOL    HW110187   0.496   0.171   4.676
 3096SOL    HW210188   0.416   0.195   4.816
 3097SOL     OW10189   0.551   2.397   0.944
 3097SOL    HW110190   0.539   2.341   1.026
 3097SOL    HW210191   0.628   2.361   0.891
 3098SOL     OW10192   2.609   3.526   1.109
 3098SOL    HW110193   2.677   3.581   1.157
 3098SOL    HW210194   2.593   3.441   1.160
 3099SOL     OW10195   7.006   5.336   4.989
 3099SOL    HW110196   6.967   5.261   4.935
 3099SOL    HW210197   0.033   5.399   4.928
 3100SOL     OW10198   6.692   6.969   4.361
 3100SOL    HW110199   6.649   6.984   4.450
 3100SOL    HW210200   6.624   6.982   4.289
 3101SOL     OW10201   4.757   5.793   5.623
 3101SOL    HW110202   4.743   5.871   5.562
 3101SOL    HW210203   4.820   5.819   5.697
 3102SOL     OW10204   0.496   5.146   3.030
 3102SOL    HW110205   0.540   5.059   3.012
 3102SOL    HW210206   0.559   5.206   3.079
 3103SOL     OW10207   3.284   1.549   1.404
 3103SOL    HW110208   3.310   1.629   1.350
 3103SOL    HW210209   3.310   1.466   1.355
 3104SOL     OW10210   6.095   6.690   4.829
 3104SOL    HW110211   6.106   6.616   4.895
 3104SOL    HW210212   6.158   6.764   4.852
 3105SOL     OW10213   6.813   4.681   2.651
 3105SOL    HW110214   6.766   4.728   2.576
 3105SOL    HW210215   6.761   4.693   2.735
 3106SOL     OW10216   6.937   1.347   3.257
 3106SOL    HW110217   6.995   1.343   3.176
 3106SOL    HW210218   6.931   1.256   3.298
 3107SOL     OW10219   3.952   0.775   3.808
 3107SOL    HW110220   3.855   0.790   3.829
 3107SOL    HW210221   4.008   0.812   3.882
 3108SOL     OW10222   1.655   0.454   4.340
 3108SOL    HW110223   1.624   0.392   4.268
 3108SOL    HW210224   1.698   0.534   4.299
 3109SOL     OW10225   5.354   5.690   3.018
 3109SOL    HW110226   5.267   5.673   3.065
 3109SOL    HW210227   5.418   5.733   3.082
 3110SOL     OW10228   0.856   1.981   3.624
 3110SOL    HW110229   0.812   2.059   3.668
 3110SOL    HW210230   0.925   2.015   3.559
 3111SOL     OW10231   6.345   5.881   4.154
 3111SOL    HW110232   6.280   5.827   4.101
 3111SOL    HW210233   6.367   5.965   4.104
 3112SOL     OW10234   5.283   2.853   6.268
 3112SOL    HW110235   5.231   2.845   6.353
 3112SOL    HW210236   5.324   2.943   6.262
 3113SOL     OW10237   1.863   0.087   4.460
 3113SOL    HW110238   1.954   0.055   4.434
 3113SOL    HW210239   1.866   0.186   4.478
 3114SOL     OW10240   4.612   3.062   6.977
 3114SOL    HW110241   4.556   2.985   7.011
 3114SOL    HW210242   4.663   3.032   6.896
 3115SOL     OW10243   4.579   3.380   0.078
 3115SOL    HW110244   4.643   3.384   0.154
 3115SOL    HW210245   4.573   3.286   0.044
 3116SOL     OW10246   6.884   3.796   0.037
 3116SOL    HW110247   6.789   3.782   0.067
 3116SOL    HW210248   6.898   3.894   0.018
 3117SOL     OW10249   4.555   3.403   5.329
 3117SOL    HW110250   4.621   3.359   5.390
 3117SOL    HW210251   4.581   3.498   5.314
 3118SOL     OW10252   0.248   4.653   0.207
 3118SOL    HW110253   0.316   4.662   0.280
 3118SOL    HW210254   0.177   4.589   0.235
 3119SOL     OW10255   1.718   3.660   5.878
 3119SOL    HW110256   1.622   3.682   5.894
 3119SOL    HW210257   1.730   3.625   5.785
 3120SOL     OW10258   2.319   6.738   4.350
 3120SOL    HW110259   2.259   6.798   4.402
 3120SOL    HW210260   2.296   6.643   4.368
 3121SOL     OW10261   0.669   1.854   2.466
 3121SOL    HW110262   0.643   1.949   2.445
 3121SOL    HW210263   0.744   1.826   2.407
 3122SOL     OW10264   2.911   5.860   6.043
 3122SOL    HW110265   2.896   5.846   5.945
 3122SOL    HW210266   3.001   5.899   6.058
 3123SOL     OW10267   3.421   6.821   3.731
 3123SOL    HW110268   3.376   6.910   3.736
 3123SOL    HW210269   3.385   6.770   3.653
 3124SOL     OW10270   3.943   6.865   4.685
 3124SOL    HW110271   3.851   6.898   4.667
 3124SOL    HW210272   4.007   6.909   4.622
 3125SOL     OW10273   6.169   2.109   5.981
 3125SOL    HW110274   6.097   2.168   6.016
 3125SOL    HW210275   6.244   2.106   6.047
 3126SOL     OW10276   4.987   4.611   6.849
 3126SOL    HW110277   5.009   4.542   6.918
 3126SOL    HW210278   4.898   4.652   6.870
 3127SOL     OW10279   1.114   2.408   3.267
 3127SOL    HW110280   1.066   2.471   3.206
 3127SOL    HW210281   1.093   2.314   3.242
 3128SOL     OW10282   2.292   6.962   6.817
 3128SOL    HW110283   2.322   0.030   6.785
 3128SOL    HW210284   2.273   6.903   6.739
 3129SOL     OW10285   1.586   4.355   6.454
 3129SOL    HW110286   1.611   4.287   6.522
 3129SOL    HW210287   1.666   4.410   6.430
 3130SOL     OW10288   2.202   4.058   2.219
 3130SOL    HW110289   2.253   4.126   2.271
 3130SOL    HW210290   2.108   4.052   2.253
 3131SOL     OW10291   0.753   2.788   1.166
 3131SOL    HW110292   0.723   2.819   1.257
 3131SOL    HW210293   0.847   2.756   1.172
 3132SOL     OW10294   5.010   5.464   5.812
 3132SOL    HW110295   4.992   5.366   5.811
 3132SOL    HW210296   5.088   5.484   5.752
 3133SOL     OW10297   2.824   2.280   3.671
 3133SOL    HW110298   2.815   2.228   3.756
 3133SOL    HW210299   2.889   2.233   3.610
 3134SOL     OW10300   5.378   4.494   1.614
 3134SOL    HW110301   5.381   4.593   1.631
 3134SOL    HW210302   5.291   4.470   1.572
 3135SOL     OW10303   4.631   1.816   5.027
 3135SOL    HW110304   4.655   1.901   4.979
 3135SOL    HW210305   4.640   1.739   4.964
 3136SOL     OW10306   6.266   0.055   6.216
 3136SOL    HW110307   6.262   0.006   6.304
 3136SOL    HW210308   6.192   0.122   6.213
 3137SOL     OW10309   5.630   0.376   3.565
 3137SOL    HW110310   5.638   0.335   3.656
 3137SOL    HW210311   5.645   0.475   3.572
 3138SOL     OW10312   6.524   2.071   4.118
 3138SOL    HW110313   6.484   2.034   4.034
 3138SOL    HW210314   6.613   2.028   4.135
 3139SOL     OW10315   4.558   0.098   6.391
 3139SOL    HW110316   4.641   0.099   6.447
 3139SOL    HW210317   4.491   0.161   6.430
 3140SOL     OW10318   6.110   6.684   6.150
 3140SOL    HW110319   6.152   6.736   6.224
 3140SOL    HW210320   6.062   6.746   6.088
 3141SOL     OW10321   0.700   6.972   6.208
 3141SOL    HW110322   0.658   6.975   6.118
 3141SOL    HW210323   0.630   6.949   6.277
 3142SOL     OW10324   4.806   5.853   1.065
 3142SOL    HW110325   4.815   5.767   1.116
 3142SOL    HW210326   4.761   5.836   0.978
 3143SOL     OW10327   0.143   2.511   6.970
 3143SOL    HW110328   0.205   2.451   7.022
 3143SOL    HW210329   0.061   2.529   0.002
 3144SOL     OW10330   2.775   3.736   0.958
 3144SOL    HW110331   2.720   3.671   0.905
 3144SOL    HW210332   2.784   3.703   1.052
 3145SOL     OW10333   2.203   5.260   2.842
 3145SOL    HW110334   2.266   5.184   2.861
 3145SOL    HW210335   2.255   5.337   2.804
 3146SOL     OW10336   1.492   0.059   3.290
 3146SOL    HW110337   1.409   0.073   3.235
 3146SOL    HW210338   1.467   0.037   3.384
 3147SOL     OW10339   4.305   5.437   6.443
 3147SOL    HW110340   4.302   5.377   6.363
 3147SOL    HW210341   4.363   5.516   6.424
 3148SOL     OW10342   4.450   5.384   4.458
 3148SOL    HW110343   4.504   5.302   4.474
 3148SOL    HW210344   4.444   5.438   4.542
 3149SOL     OW10345   3.369   0.361   5.486
 3149SOL    HW110346   3.337   0.369   5.391
 3149SOL    HW210347   3.370   0.452   5.528
 3150SOL     OW10348   5.274   5.201   3.900
 3150SOL    HW110349   5.229   5.281   3.860
 3150SOL    HW210350   5.277   5.127   3.832
 3151SOL     OW10351   4.379   1.068   6.991
 3151SOL    HW110352   4.354   1.027   0.056
 3151SOL    HW210353   4.439   1.146   7.006
 3152SOL     OW10354   1.420   5.263   1.674
 3152SOL    HW110355   1.423   5.165   1.696
 3152SOL    HW210356   1.438   5.316   1.757
 3153SOL     OW10357   6.527   3.840   1.997
 3153SOL    HW110358   6.610   3.874   1.952
 3153SOL    HW210359   6.550   3.763   2.055
 3154SOL     OW10360   6.039   1.725   0.434
 3154SOL    HW110361   5.996   1.637   0.413
 3154SOL    HW210362   6.006   1.758   0.523
 3155SOL     OW10363   6.996   5.467   1.615
 3155SOL    HW110364   6.987   5.505   1.524
 3155SOL    HW210365   6.911   5.479   1.666
 3156SOL     OW10366   3.794   3.162   3.889
 3156SOL    HW110367   3.747   3.111   3.961
 3156SOL    HW210368   3.889   3.177   3.916
 3157SOL     OW10369   2.000   2.955   4.785
 3157SOL    HW110370   2.011   3.030   4.850
 3157SOL    HW210371   2.089   2.916   4.764
 3158SOL     OW10372   4.527   0.573   1.259
 3158SOL    HW110373   4.577   0.565   1.345
 3158SOL    HW210374   4.457   0.644   1.267
 3159SOL     OW10375   5.087   0.195   6.795
 3159SOL    HW110376   5.058   0.104   6.766
 3159SOL    HW210377   5.090   0.257   6.717
 3160SOL     OW10378   6.209   5.683   5.890
 3160SOL    HW110379   6.159   5.655   5.808
 3160SOL    HW210380   6.281   5.618   5.910
 3161SOL     OW10381   1.286   1.636   2.107
 3161SOL    HW110382   1.304   1.644   2.009
 3161SOL    HW210383   1.322   1.548   2.140
 3162SOL     OW10384   0.333   5.369   0.177
 3162SOL    HW110385   0.310   5.284   0.130
 3162SOL    HW210386   0.389   5.426   0.117
 3163SOL     OW10387   3.568   2.422   6.723
 3163SOL    HW110388   3.494   2.458   6.780
 3163SOL    HW210389   3.638   2.492   6.711
 3164SOL     OW10390   4.522   3.852   1.730
 3164SOL    HW110391   4.549   3.875   1.637
 3164SOL    HW210392   4.423   3.835   1.733
 3165SOL     OW10393   1.273   6.418   1.593
 3165SOL    HW110394   1.187   6.379   1.625
 3165SOL    HW210395   1.338   6.345   1.572
 3166SOL     OW10396   4.654   2.532   6.427
 3166SOL    HW110397   4.740   2.491   6.455
 3166SOL    HW210398   4.658   2.555   6.329
 3167SOL     OW10399   6.763   5.043   2.013
 3167SOL    HW110400   6.750   4.944   2.011
 3167SOL    HW210401   6.680   5.087   2.048
 3168SOL     OW10402   4.781   2.584   0.410
 3168SOL    HW110403   4.699   2.561   0.462
 3168SOL    HW210404   4.755   2.611   0.317
 3169SOL     OW10405   0.384   3.567   5.927
 3169SOL    HW110406   0.472   3.587   5.970
 3169SOL    HW210407   0.310   3.609   5.980
 3170SOL     OW10408   4.149   0.307   6.989
 3170SOL    HW110409   4.069   0.248   6.979
 3170SOL    HW210410   4.164   0.327   0.063
 3171SOL     OW10411   6.850   6.591   1.136
 3171SOL    HW110412   6.854   6.632   1.227
 3171SOL    HW210413   6.931   6.535   1.121
 3172SOL     OW10414   0.632   5.926   4.930
 3172SOL    HW110415   0.691   5.864   4.983
 3172SOL    HW210416   0.537   5.913   4.957
 3173SOL     OW10417   2.869   1.244   1.677
 3173SOL    HW110418   2.886   1.152   1.642
 3173SOL    HW210419   2.955   1.284   1.708
 3174SOL     OW10420   2.500   2.913   6.757
 3174SOL    HW110421   2.425   2.945   6.814
 3174SOL    HW210422   2.574   2.980   6.759
 3175SOL     OW10423   0.350   6.502   6.588
 3175SOL    HW110424   0.339   6.473   6.493
 3175SOL    HW210425   0.263   6.494   6.636
 3176SOL     OW10426   1.983   4.922   5.159
 3176SOL    HW110427   1.979   5.014   5.119
 3176SOL    HW210428   1.928   4.920   5.243
 3177SOL     OW10429   5.435   5.670   5.347
 3177SOL    HW110430   5.373   5.632   5.416
 3177SOL    HW210431   5.519   5.617   5.345
 3178SOL     OW10432   6.946   3.386   1.416
 3178SOL    HW110433   6.958   3.345   1.326
 3178SOL    HW210434   0.012   3.416   1.451
 3179SOL     OW10435   2.335   2.187   1.872
 3179SOL    HW110436   2.371   2.182   1.779
 3179SOL    HW210437   2.410   2.184   1.937
 3180SOL     OW10438   3.975   0.702   6.383
 3180SOL    HW110439   3.881   0.676   6.360
 3180SOL    HW210440   4.005   0.776   6.322
 3181SOL     OW10441   0.382   0.442   3.492
 3181SOL    HW110442   0.482   0.453   3.493
 3181SOL    HW210443   0.339   0.527   3.463
 3182SOL     OW10444   0.694   0.661   5.416
 3182SOL    HW110445   0.745   0.581   5.384
 3182SOL    HW210446   0.697   0.664   5.516
 3183SOL     OW10447   4.364   4.007   1.387
 3183SOL    HW110448   4.298   3.940   1.355
 3183SOL    HW210449   4.364   4.010   1.487
 3184SOL     OW10450   2.901   1.912   2.251
 3184SOL    HW110451   2.988   1.863   2.244
 3184SOL    HW210452   2.888   1.945   2.344
 3185SOL     OW10453   6.191   0.392   6.074
 3185SOL    HW110454   6.127   0.347   6.136
 3185SOL    HW210455   6.221   0.327   6.003
 3186SOL     OW10456   2.860   1.423   3.195
 3186SOL    HW110457   2.880   1.333   3.234
 3186SOL    HW210458   2.788   1.467   3.248
 3187SOL     OW10459   3.744   4.299   6.905
 3187SOL    HW110460   3.692   4.216   6.885
 3187SOL    HW210461   3.744   4.359   6.825
 3188SOL     OW10462   3.800   6.120   3.322
 3188SOL    HW110463   3.736   6.197   3.321
 3188SOL    HW210464   3.865   6.130   3.246
 3189SOL     OW10465   2.435   1.237   3.184
 3189SOL    HW110466   2.421   1.336   3.184
 3189SOL    HW210467   2.381   1.196   3.258
 3190SOL     OW10468   1.261   6.635   1.288
 3190SOL    HW110469   1.272   6.547   1.335
 3190SOL    HW210470   1.257   6.619   1.189
 3191SOL     OW10471   3.448   0.426   1.048
 3191SOL    HW110472   3.351   0.447   1.053
 3191SOL    HW210473   3.499   0.490   1.106
 3192SOL     OW10474   0.563   2.155   1.111
 3192SOL    HW110475   0.484   2.093   1.109
 3192SOL    HW210476   0.632   2.123   1.046
 3193SOL     OW10477   4.552   2.844   6.205
 3193SOL    HW110478   4.457   2.821   6.184
 3193SOL    HW210479   4.612   2.769   6.178
 3194SOL     OW10480   1.194   2.805   6.677
 3194SOL    HW110481   1.279   2.799   6.625
 3194SOL    HW210482   1.209   2.773   6.770
 3195SOL     OW10483   1.611   2.614   3.314
 3195SOL    HW110484   1.618   2.687   3.382
 3195SOL    HW210485   1.518   2.578   3.313
 3196SOL     OW10486   6.583   0.357   5.264
 3196SOL    HW110487   6.519   0.419   5.310
 3196SOL    HW210488   6.619   0.401   5.182
 3197SOL     OW10489   1.343   5.777   2.897
 3197SOL    HW110490   1.419   5.830   2.933
 3197SOL    HW210491   1.258   5.828   2.909
 3198SOL     OW10492   6.531   2.110   6.661
 3198SOL    HW110493   6.630   2.105   6.675
 3198SOL    HW210494   6.508   2.071   6.572
 3199SOL     OW10495   4.533   2.622   1.515
 3199SOL    HW110496   4.532   2.680   1.597
 3199SOL    HW210497   4.509   2.677   1.435
 3200SOL     OW10498   0.228   2.603   0.991
 3200SOL    HW110499   0.150   2.664   1.001
 3200SOL    HW210500   0.310   2.648   1.025
 3201SOL     OW10501   5.208   3.610   3.757
 3201SOL    HW110502   5.127   3.664   3.734
 3201SOL    HW210503   5.244   3.567   3.673
 3202SOL     OW10504   1.663   4.409   2.357
 3202SOL    HW110505   1.612   4.324   2.344
 3202SOL    HW210506   1.685   4.421   2.454
 3203SOL     OW10507   5.757   0.859   0.660
 3203SOL    HW110508   5.659   0.841   0.659
 3203SOL    HW210509   5.806   0.772   0.664
 3204SOL     OW10510   5.645   5.841   1.612
 3204SOL    HW110511   5.671   5.877   1.522
 3204SOL    HW210512   5.711   5.872   1.680
 3205SOL     OW10513   6.911   4.549   6.858
 3205SOL    HW110514   6.886   4.479   6.925
 3205SOL    HW210515   6.994   4.522   6.810
 3206SOL     OW10516   0.318   0.075   5.881
 3206SOL    HW110517   0.319   0.175   5.889
 3206SOL    HW210518   0.278   0.049   5.793
 3207SOL     OW10519   0.195   1.267   5.600
 3207SOL    HW110520   0.114   1.246   5.544
 3207SOL    HW210521   0.204   1.366   5.609
 3208SOL     OW10522   4.289   6.054   4.968
 3208SOL    HW110523   4.306   6.078   5.064
 3208SOL    HW210524   4.377   6.048   4.920
 3209SOL     OW10525   3.192   6.954   3.710
 3209SOL    HW110526   3.124   6.884   3.686
 3209SOL    HW210527   3.145   0.010   3.752
 3210SOL     OW10528   0.409   3.302   2.570
 3210SOL    HW110529   0.378   3.209   2.552
 3210SOL    HW210530   0.477   3.301   2.643
 3211SOL     OW10531   2.125   4.482   0.656
 3211SOL    HW110532   2.064   4.448   0.728
 3211SOL    HW210533   2.177   4.560   0.691
 3212SOL     OW10534   4.446   1.747   6.545
 3212SOL    HW110535   4.373   1.760   6.477
 3212SOL    HW210536   4.406   1.744   6.636
 3213SOL     OW10537   6.161   5.048   2.784
 3213SOL    HW110538   6.120   5.053   2.875
 3213SOL    HW210539   6.093   5.018   2.718
 3214SOL     OW10540   4.663   5.961   0.132
 3214SOL    HW110541   4.602   6.037   0.108
 3214SOL    HW210542   4.717   5.985   0.212
 3215SOL     OW10543   6.420   2.997   0.955
 3215SOL    HW110544   6.403   3.086   0.997
 3215SOL    HW210545   6.480   2.943   1.014
 3216SOL     OW10546   5.732   5.975   2.928
 3216SOL    HW110547   5.791   5.964   2.848
 3216SOL    HW210548   5.693   5.886   2.954
 3217SOL     OW10549   1.164   4.360   3.720
 3217SOL    HW110550   1.228   4.285   3.735
 3217SOL    HW210551   1.130   4.356   3.626
 3218SOL     OW10552   4.126   0.064   3.598
 3218SOL    HW110553   4.195   0.134   3.617
 3218SOL    HW210554   4.169   7.006   3.558
 3219SOL     OW10555   6.879   0.764   3.576
 3219SOL    HW110556   6.911   0.854   3.605
 3219SOL    HW210557   6.906   0.749   3.480
 3220SOL     OW10558   7.016   4.635   5.296
 3220SOL    HW110559   6.991   4.551   5.248
 3220SOL    HW210560   6.934   4.676   5.337
 3221SOL     OW10561   2.571   6.050   2.556
 3221SOL    HW110562   2.659   6.040   2.601
 3221SOL    HW210563   2.551   6.147   2.541
 3222SOL     OW10564   5.081   2.139   3.063
 3222SOL    HW110565   5.120   2.121   3.153
 3222SOL    HW210566   5.015   2.213   3.069
 3223SOL     OW10567   2.926   5.058   6.805
 3223SOL    HW110568   2.970   4.971   6.780
 3223SOL    HW210569   2.963   5.132   6.749
 3224SOL     OW10570   4.669   5.220   6.277
 3224SOL    HW110571   4.612   5.288   6.232
 3224SOL    HW210572   4.613   5.164   6.338
 3225SOL     OW10573   4.789   3.200   6.403
 3225SOL    HW110574   4.787   3.121   6.342
 3225SOL    HW210575   4.862   3.187   6.471
 3226SOL     OW10576   2.104   0.871   4.383
 3226SOL    HW110577   2.141   0.863   4.290
 3226SOL    HW210578   2.179   0.882   4.448
 3227SOL     OW10579   3.271   2.095   6.542
 3227SOL    HW110580   3.257   2.134   6.452
 3227SOL    HW210581   3.242   2.160   6.612
 3228SOL     OW10582   5.671   3.318   3.863
 3228SOL    HW110583   5.659   3.221   3.885
 3228SOL    HW210584   5.583   3.356   3.835
 3229SOL     OW10585   3.258   1.866   5.744
 3229SOL    HW110586   3.297   1.953   5.774
 3229SOL    HW210587   3.196   1.882   5.667
 3230SOL     OW10588   0.511   1.640   3.227
 3230SOL    HW110589   0.499   1.587   3.144
 3230SOL    HW210590   0.533   1.579   3.303
 3231SOL     OW10591   4.696   6.104   1.542
 3231SOL    HW110592   4.680   6.029   1.606
 3231SOL    HW210593   4.691   6.069   1.448
 3232SOL     OW10594   4.251   5.020   5.202
 3232SOL    HW110595   4.250   5.024   5.302
 3232SOL    HW210596   4.157   5.010   5.168
 3233SOL     OW10597   1.053   4.223   1.106
 3233SOL    HW110598   1.148   4.252   1.103
 3233SOL    HW210599   1.029   4.177   1.020
 3234SOL     OW10600   7.002   2.221   0.418
 3234SOL    HW110601   0.032   2.301   0.388
 3234SOL    HW210602   6.943   2.190   0.343
 3235SOL     OW10603   6.230   6.344   2.918
 3235SOL    HW110604   6.137   6.308   2.902
 3235SOL    HW210605   6.290   6.268   2.944
 3236SOL     OW10606   1.853   3.122   2.009
 3236SOL    HW110607   1.945   3.160   2.025
 3236SOL    HW210608   1.784   3.187   2.040
 3237SOL     OW10609   4.576   6.829   4.493
 3237SOL    HW110610   4.588   6.865   4.586
 3237SOL    HW210611   4.588   6.903   4.427
 3238SOL     OW10612   0.687   5.866   6.726
 3238SOL    HW110613   0.604   5.834   6.771
 3238SOL    HW210614   0.766   5.844   6.782
 3239SOL     OW10615   6.034   0.941   6.943
 3239SOL    HW110616   6.003   1.036   6.939
 3239SOL    HW210617   6.018   0.897   6.855
 3240SOL     OW10618   0.230   6.681   4.688
 3240SOL    HW110619   0.146   6.655   4.736
 3240SOL    HW210620   0.207   6.729   4.604
 3241SOL     OW10621   4.684   1.274   4.319
 3241SOL    HW110622   4.726   1.333   4.388
 3241SOL    HW210623   4.755   1.241   4.256
 3242SOL     OW10624   3.609   5.175   0.419
 3242SOL    HW110625   3.570   5.182   0.327
 3242SOL    HW210626   3.601   5.263   0.466
 3243SOL     OW10627   5.141   5.006   6.870
 3243SOL    HW110628   5.069   5.024   6.802
 3243SOL    HW210629   5.190   4.923   6.845
 3244SOL     OW10630   4.971   5.921   5.780
 3244SOL    HW110631   5.057   5.878   5.808
 3244SOL    HW210632   4.944   5.988   5.850
 3245SOL     OW10633   4.247   2.778   6.256
 3245SOL    HW110634   4.206   2.866   6.280
 3245SOL    HW210635   4.239   2.715   6.333
 3246SOL     OW10636   5.271   0.216   2.645
 3246SOL    HW110637   5.272   0.221   2.744
 3246SOL    HW210638   5.189   0.262   2.610
 3247SOL     OW10639   0.147   4.006   2.961
 3247SOL    HW110640   0.233   3.981   2.917
 3247SOL    HW210641   0.096   3.924   2.986
 3248SOL     OW10642   6.072   3.839   2.125
 3248SOL    HW110643   6.018   3.876   2.049
 3248SOL    HW210644   6.014   3.832   2.206
 3249SOL     OW10645   3.757   4.690   5.477
 3249SOL    HW110646   3.788   4.595   5.471
 3249SOL    HW210647   3.762   4.733   5.387
 3250SOL     OW10648   5.484   6.997   2.743
 3250SOL    HW110649   5.387   6.973   2.734
 3250SOL    HW210650   5.499   0.018   2.832
 3251SOL     OW10651   3.788   1.609   3.123
 3251SOL    HW110652   3.824   1.550   3.195
 3251SOL    HW210653   3.862   1.667   3.088
 3252SOL     OW10654   3.589   1.163   2.833
 3252SOL    HW110655   3.594   1.259   2.858
 3252SOL    HW210656   3.661   1.112   2.880
 3253SOL     OW10657   4.724   2.894   1.474
 3253SOL    HW110658   4.672   2.871   1.392
 3253SOL    HW210659   4.661   2.903   1.552
 3254SOL     OW10660   3.751   4.861   4.066
 3254SOL    HW110661   3.750   4.956   4.035
 3254SOL    HW210662   3.754   4.800   3.987
 3255SOL     OW10663   4.885   5.212   0.369
 3255SOL    HW110664   4.894   5.190   0.466
 3255SOL    HW210665   4.968   5.257   0.337
 3256SOL     OW10666   5.574   6.675   5.919
 3256SOL    HW110667   5.626   6.744   5.969
 3256SOL    HW210668   5.625   6.589   5.918
 3257SOL     OW10669   1.650   1.863   0.443
 3257SOL    HW110670   1.714   1.895   0.513
 3257SOL    HW210671   1.694   1.791   0.389
 3258SOL     OW10672   4.935   6.657   1.589
 3258SOL    HW110673   5.012   6.662   1.653
 3258SOL    HW210674   4.952   6.719   1.512
 3259SOL     OW10675   4.264   6.035   4.401
 3259SOL    HW110676   4.358   6.052   4.431
 3259SOL    HW210677   4.265   5.974   4.322
 3260SOL     OW10678   1.927   1.212   0.692
 3260SOL    HW110679   1.831   1.239   0.685
 3260SOL    HW210680   1.983   1.271   0.635
 3261SOL     OW10681   3.954   0.080   0.630
 3261SOL    HW110682   3.910   0.120   0.710
 3261SOL    HW210683   3.908   7.016   0.606
 3262SOL     OW10684   3.580   1.585   3.411
 3262SOL    HW110685   3.570   1.617   3.317
 3262SOL    HW210686   3.528   1.645   3.472
 3263SOL     OW10687   4.647   6.760   3.338
 3263SOL    HW110688   4.595   6.829   3.287
 3263SOL    HW210689   4.696   6.701   3.273
 3264SOL     OW10690   0.041   5.361   7.005
 3264SOL    HW110691   0.046   5.376   0.081
 3264SOL    HW210692   0.124   5.314   6.975
 3265SOL     OW10693   3.939   2.157   6.366
 3265SOL    HW110694   3.866   2.125   6.306
 3265SOL    HW210695   3.909   2.152   6.461
 3266SOL     OW10696   6.935   2.487   0.106
 3266SOL    HW110697   6.890   2.403   0.139
 3266SOL    HW210698   6.928   2.558   0.176
 3267SOL     OW10699   3.558   2.272   1.384
 3267SOL    HW110700   3.623   2.232   1.319
 3267SOL    HW210701   3.465   2.258   1.351
 3268SOL     OW10702   1.160   4.296   0.101
 3268SOL    HW110703   1.152   4.393   0.081
 3268SOL    HW210704   1.098   4.271   0.175
 3269SOL     OW10705   4.927   4.964   1.402
 3269SOL    HW110706   4.935   4.894   1.473
 3269SOL    HW210707   4.969   4.931   1.318
 3270SOL     OW10708   0.499   5.367   3.858
 3270SOL    HW110709   0.452   5.445   3.819
 3270SOL    HW210710   0.591   5.395   3.887
 3271SOL     OW10711   5.466   2.156   2.290
 3271SOL    HW110712   5.450   2.190   2.198
 3271SOL    HW210713   5.387   2.177   2.348
 3272SOL     OW10714   3.967   0.143   6.975
 3272SOL    HW110715   3.997   0.047   6.974
 3272SOL    HW210716   3.899   0.156   0.025
 3273SOL     OW10717   1.195   6.091   2.016
 3273SOL    HW110718   1.264   6.032   2.059
 3273SOL    HW210719   1.104   6.058   2.038
 3274SOL     OW10720   3.196   1.746   6.000
 3274SOL    HW110721   3.108   1.699   6.008
 3274SOL    HW210722   3.241   1.717   5.916
 3275SOL     OW10723   2.157   0.505   6.962
 3275SOL    HW110724   2.179   0.417   7.003
 3275SOL    HW210725   2.063   0.529   6.984
 3276SOL     OW10726   3.504   5.131   6.765
 3276SOL    HW110727   3.540   5.109   6.675
 3276SOL    HW210728   3.406   5.147   6.760
 3277SOL     OW10729   6.656   6.724   5.955
 3277SOL    HW110730   6.667   6.651   5.888
 3277SOL    HW210731   6.723   6.797   5.936
 3278SOL     OW10732   0.780   1.078   5.235
 3278SOL    HW110733   0.755   0.986   5.264
 3278SOL    HW210734   0.787   1.137   5.315
 3279SOL     OW10735   0.031   0.031   0.940
 3279SOL    HW110736   0.029   6.957   0.970
 3279SOL    HW210737   0.094   0.082   0.998
 3280SOL     OW10738   2.644   5.037   6.645
 3280SOL    HW110739   2.688   4.952   6.616
 3280SOL    HW210740   2.701   5.114   6.617
 3281SOL     OW10741   1.705   5.424   0.719
 3281SOL    HW110742   1.772   5.474   0.774
 3281SOL    HW210743   1.689   5.334   0.759
 3282SOL     OW10744   2.749   6.223   4.563
 3282SOL    HW110745   2.847   6.240   4.556
 3282SOL    HW210746   2.718   6.171   4.483
 3283SOL     OW10747   3.244   2.004   3.370
 3283SOL    HW110748   3.267   1.907   3.372
 3283SOL    HW210749   3.161   2.018   3.316
 3284SOL     OW10750   0.122   6.199   6.278
 3284SOL    HW110751   0.217   6.171   6.294
 3284SOL    HW210752   0.117   6.261   6.200
 3285SOL     OW10753   0.375   3.097   2.892
 3285SOL    HW110754   0.281   3.129   2.903
 3285SOL    HW210755   0.384   3.007   2.936
 3286SOL     OW10756   3.733   3.486   3.955
 3286SOL    HW110757   3.652   3.491   4.014
 3286SOL    HW210758   3.747   3.392   3.925
 3287SOL     OW10759   1.774   6.050   6.958
 3287SOL    HW110760   1.700   6.061   6.891
 3287SOL    HW210761   1.746   6.093   0.022
 3288SOL     OW10762   0.531   6.263   6.565
 3288SOL    HW110763   0.527   6.235   6.662
 3288SOL    HW210764   0.486   6.351   6.554
 3289SOL     OW10765   1.029   6.044   5.321
 3289SOL    HW110766   1.024   6.022   5.419
 3289SOL    HW210767   1.064   5.965   5.271
 3290SOL     OW10768   0.022   6.183   1.793
 3290SOL    HW110769   0.119   6.164   1.781
 3290SOL    HW210770   7.014   6.247   1.722
 3291SOL     OW10771   2.191   6.487   6.710
 3291SOL    HW110772   2.193   6.524   6.617
 3291SOL    HW210773   2.104   6.511   6.753
 3292SOL     OW10774   0.588   0.650   6.595
 3292SOL    HW110775   0.666   0.690   6.547
 3292SOL    HW210776   0.593   0.550   6.591
 3293SOL     OW10777   0.210   1.655   3.267
 3293SOL    HW110778   0.148   1.602   3.325
 3293SOL    HW210779   0.287   1.597   3.238
 3294SOL     OW10780   6.625   0.910   6.669
 3294SOL    HW110781   6.642   0.858   6.752
 3294SOL    HW210782   6.712   0.931   6.624
 3295SOL     OW10783   2.494   1.941   0.873
 3295SOL    HW110784   2.588   1.916   0.898
 3295SOL    HW210785   2.492   1.972   0.778
 3296SOL     OW10786   2.268   6.832   2.096
 3296SOL    HW110787   2.334   6.898   2.060
 3296SOL    HW210788   2.209   6.799   2.022
 3297SOL     OW10789   3.446   2.178   5.197
 3297SOL    HW110790   3.396   2.264   5.208
 3297SOL    HW210791   3.396   2.119   5.134
 3298SOL     OW10792   6.454   3.192   3.084
 3298SOL    HW110793   6.459   3.241   3.171
 3298SOL    HW210794   6.448   3.094   3.102
 3299SOL     OW10795   1.414   0.150   4.239
 3299SOL    HW110796   1.335   0.122   4.184
 3299SOL    HW210797   1.399   0.124   4.334
 3300SOL     OW10798   6.548   6.871   5.234
 3300SOL    HW110799   6.575   6.938   5.164
 3300SOL    HW210800   6.450   6.878   5.250
 3301SOL     OW10801   0.817   4.045   3.824
 3301SOL    HW110802   0.719   4.031   3.811
 3301SOL    HW210803   0.832   4.121   3.886
 3302SOL     OW10804   1.234   5.411   4.247
 3302SOL    HW110805   1.333   5.396   4.247
 3302SOL    HW210806   1.198   5.392   4.338
 3303SOL     OW10807   3.232   3.028   2.759
 3303SOL    HW110808   3.235   2.948   2.820
 3303SOL    HW210809   3.137   3.049   2.736
 3304SOL     OW10810   1.091   5.747   3.537
 3304SOL    HW110811   0.992   5.760   3.547
 3304SOL    HW210812   1.113   5.732   3.440
 3305SOL     OW10813   1.456   1.093   2.016
 3305SOL    HW110814   1.437   1.055   2.107
 3305SOL    HW210815   1.386   1.063   1.952
 3306SOL     OW10816   2.138   4.017   3.282
 3306SOL    HW110817   2.214   4.080   3.300
 3306SOL    HW210818   2.154   3.930   3.329
 3307SOL     OW10819   0.024   5.974   0.323
 3307SOL    HW110820   0.117   6.012   0.324
 3307SOL    HW210821   0.009   5.921   0.407
 3308SOL     OW10822   4.338   5.958   0.358
 3308SOL    HW110823   4.337   6.033   0.292
 3308SOL    HW210824   4.432   5.933   0.378
 3309SOL     OW10825   0.970   4.813   3.071
 3309SOL    HW110826   1.060   4.816   3.028
 3309SOL    HW210827   0.940   4.907   3.092
 3310SOL     OW10828   0.418   4.064   3.296
 3310SOL    HW110829   0.492   4.001   3.318
 3310SOL    HW210830   0.456   4.148   3.257
 3311SOL     OW10831   3.501   6.320   1.341
 3311SOL    HW110832   3.431   6.383   1.310
 3311SOL    HW210833   3.463   6.228   1.347
 3312SOL     OW10834   2.937   4.251   6.209
 3312SOL    HW110835   2.989   4.264   6.293
 3312SOL    HW210836   3.000   4.248   6.131
 3313SOL     OW10837   1.256   5.311   3.659
 3313SOL    HW110838   1.295   5.287   3.748
 3313SOL    HW210839   1.217   5.229   3.617
 3314SOL     OW10840   1.733   3.145   5.038
 3314SOL    HW110841   1.779   3.101   5.115
 3314SOL    HW210842   1.638   3.165   5.063
 3315SOL     OW10843   6.815   2.703   3.959
 3315SOL    HW110844   6.740   2.750   4.004
 3315SOL    HW210845   6.800   2.703   3.860
 3316SOL     OW10846   4.457   2.258   6.107
 3316SOL    HW110847   4.456   2.270   6.008
 3316SOL    HW210848   4.521   2.185   6.132
 3317SOL     OW10849   4.613   2.794   1.740
 3317SOL    HW110850   4.588   2.880   1.784
 3317SOL    HW210851   4.711   2.792   1.724
 3318SOL     OW10852   2.760   6.156   6.249
 3318SOL    HW110853   2.783   6.082   6.186
 3318SOL    HW210854   2.681   6.207   6.215
 3319SOL     OW10855   0.396   6.275   4.511
 3319SOL    HW110856   0.337   6.258   4.590
 3319SOL    HW210857   0.379   6.368   4.476
 3320SOL     OW10858   5.783   1.408   5.455
 3320SOL    HW110859   5.812   1.486   5.399
 3320SOL    HW210860   5.857   1.341   5.461
 3321SOL     OW10861   3.366   3.186   2.420
 3321SOL    HW110862   3.323   3.109   2.467
 3321SOL    HW210863   3.295   3.239   2.373
 3322SOL     OW10864   4.066   1.748   0.709
 3322SOL    HW110865   4.140   1.685   0.689
 3322SOL    HW210866   4.088   1.800   0.792
 3323SOL     OW10867   2.224   4.224   6.381
 3323SOL    HW110868   2.172   4.240   6.297
 3323SOL    HW210869   2.248   4.127   6.386
 3324SOL     OW10870   1.198   3.963   0.348
 3324SOL    HW110871   1.204   3.864   0.360
 3324SOL    HW210872   1.270   3.994   0.286
 3325SOL     OW10873   1.628   3.193   0.135
 3325SOL    HW110874   1.602   3.281   0.174
 3325SOL    HW210875   1.724   3.197   0.106
 3326SOL     OW10876   6.036   2.073   1.872
 3326SOL    HW110877   6.039   1.988   1.925
 3326SOL    HW210878   6.117   2.127   1.891
 3327SOL     OW10879   2.506   6.451   2.143
 3327SOL    HW110880   2.514   6.388   2.221
 3327SOL    HW210881   2.421   6.503   2.151
 3328SOL     OW10882   4.826   0.484   1.872
 3328SOL    HW110883   4.767   0.454   1.797
 3328SOL    HW210884   4.771   0.527   1.943
 3329SOL     OW10885   3.999   0.743   5.073
 3329SOL    HW110886   3.956   0.653   5.088
 3329SOL    HW210887   4.023   0.752   4.977
 3330SOL     OW10888   5.824   6.804   2.458
 3330SOL    HW110889   5.820   6.856   2.373
 3330SOL    HW210890   5.836   6.867   2.535
 3331SOL     OW10891   1.645   3.406   3.085
 3331SOL    HW110892   1.731   3.416   3.135
 3331SOL    HW210893   1.662   3.356   3.000
 3332SOL     OW10894   5.385   4.680   0.146
 3332SOL    HW110895   5.351   4.648   0.058
 3332SOL    HW210896   5.445   4.759   0.133
 3333SOL     OW10897   3.290   3.566   1.201
 3333SOL    HW110898   3.350   3.502   1.249
 3333SOL    HW210899   3.320   3.575   1.106
 3334SOL     OW10900   1.990   2.545   2.512
 3334SOL    HW110901   2.015   2.451   2.489
 3334SOL    HW210902   1.920   2.545   2.584
 3335SOL     OW10903   3.472   4.199   5.747
 3335SOL    HW110904   3.418   4.281   5.767
 3335SOL    HW210905   3.425   4.118   5.782
 3336SOL     OW10906   2.942   6.846   3.941
 3336SOL    HW110907   3.012   6.793   3.986
 3336SOL    HW210908   2.975   6.939   3.926
 3337SOL     OW10909   3.686   3.742   2.625
 3337SOL    HW110910   3.726   3.788   2.705
 3337SOL    HW210911   3.725   3.650   2.618
 3338SOL     OW10912   1.143   1.732   1.542
 3338SOL    HW110913   1.235   1.750   1.508
 3338SOL    HW210914   1.080   1.801   1.505
 3339SOL     OW10915   2.121   0.128   5.327
 3339SOL    HW110916   2.081   0.220   5.335
 3339SOL    HW210917   2.217   0.136   5.299
 3340SOL     OW10918   4.733   1.042   3.731
 3340SOL    HW110919   4.763   1.105   3.659
 3340SOL    HW210920   4.747   1.085   3.820
 3341SOL     OW10921   2.598   4.632   2.347
 3341SOL    HW110922   2.684   4.643   2.298
 3341SOL    HW210923   2.533   4.702   2.315
 3342SOL     OW10924   5.775   0.548   3.002
 3342SOL    HW110925   5.852   0.520   3.059
 3342SOL    HW210926   5.796   0.636   2.959
 3343SOL     OW10927   5.400   5.499   6.710
 3343SOL    HW110928   5.309   5.483   6.673
 3343SOL    HW210929   5.441   5.411   6.737
 3344SOL     OW10930   6.559   2.452   2.101
 3344SOL    HW110931   6.592   2.421   2.012
 3344SOL    HW210932   6.543   2.551   2.098
 3345SOL     OW10933   0.747   4.118   0.850
 3345SOL    HW110934   0.833   4.153   0.811
 3345SOL    HW210935   0.689   4.194   0.876
 3346SOL     OW10936   2.854   0.488   6.851
 3346SOL    HW110937   2.888   0.490   6.945
 3346SOL    HW210938   2.834   0.581   6.822
 3347SOL     OW10939   0.809   3.297   6.204
 3347SOL    HW110940   0.786   3.253   6.290
 3347SOL    HW210941   0.901   3.336   6.210
 3348SOL     OW10942   3.470   4.032   6.198
 3348SOL    HW110943   3.502   4.122   6.228
 3348SOL    HW210944   3.479   3.966   6.273
 3349SOL     OW10945   2.131   4.545   4.127
 3349SOL    HW110946   2.132   4.499   4.216
 3349SOL    HW210947   2.104   4.479   4.057
 3350SOL     OW10948   0.511   4.096   5.528
 3350SOL    HW110949   0.504   4.132   5.435
 3350SOL    HW210950   0.529   4.171   5.591
 3351SOL     OW10951   5.458   0.580   0.952
 3351SOL    HW110952   5.486   0.576   0.856
 3351SOL    HW210953   5.537   0.561   1.011
 3352SOL     OW10954   5.318   2.197   0.573
 3352SOL    HW110955   5.397   2.136   0.574
 3352SOL    HW210956   5.278   2.202   0.665
 3353SOL     OW10957   1.977   0.604   1.624
 3353SOL    HW110958   2.028   0.533   1.576
 3353SOL    HW210959   2.025   0.691   1.616
 3354SOL     OW10960   4.135   3.410   5.907
 3354SOL    HW110961   4.167   3.467   5.982
 3354SOL    HW210962   4.036   3.403   5.910
 3355SOL     OW10963   2.376   1.306   5.146
 3355SOL    HW110964   2.395   1.405   5.148
 3355SOL    HW210965   2.458   1.258   5.116
 3356SOL     OW10966   1.180   6.475   6.019
 3356SOL    HW110967   1.233   6.551   5.982
 3356SOL    HW210968   1.241   6.400   6.042
 3357SOL     OW10969   2.846   3.445   2.177
 3357SOL    HW110970   2.754   3.405   2.179
 3357SOL    HW210971   2.876   3.455   2.082
 3358SOL     OW10972   5.595   1.459   2.943
 3358SOL    HW110973   5.657   1.382   2.956
 3358SOL    HW210974   5.580   1.505   3.031
 3359SOL     OW10975   6.921   5.405   3.787
 3359SOL    HW110976   6.852   5.477   3.780
 3359SOL    HW210977   6.888   5.334   3.849
 3360SOL     OW10978   0.541   2.701   5.793
 3360SOL    HW110979   0.579   2.778   5.743
 3360SOL    HW210980   0.614   2.639   5.821
 3361SOL     OW10981   0.699   0.282   4.332
 3361SOL    HW110982   0.753   0.277   4.415
 3361SOL    HW210983   0.739   0.350   4.270
 3362SOL     OW10984   4.013   1.720   4.159
 3362SOL    HW110985   3.927   1.692   4.200
 3362SOL    HW210986   4.048   1.801   4.208
 3363SOL     OW10987   6.779   3.050   1.008
 3363SOL    HW110988   6.877   3.070   0.999
 3363SOL    HW210989   6.762   3.009   1.098
 3364SOL     OW10990   1.932   4.224   2.939
 3364SOL    HW110991   1.945   4.211   3.038
 3364SOL    HW210992   1.995   4.295   2.907
 3365SOL     OW10993   2.177   3.183   4.934
 3365SOL    HW110994   2.184   3.267   4.988
 3365SOL    HW210995   2.260   3.128   4.947
 3366SOL     OW10996   0.088   3.503   4.637
 3366SOL    HW110997   0.180   3.532   4.612
 3366SOL    HW210998   0.066   3.418   4.590
 3367SOL     OW10999   3.643   3.373   4.549
 3367SOL    HW111000   3.697   3.327   4.620
 3367SOL    HW211001   3.689   3.458   4.522
 3368SOL     OW11002   1.771   6.382   6.638
 3368SOL    HW111003   1.808   6.289   6.646
 3368SOL    HW211004   1.723   6.391   6.550
 3369SOL     OW11005   4.328   1.636   1.551
 3369SOL    HW111006   4.350   1.539   1.545
 3369SOL    HW211007   4.368   1.675   1.634
 3370SOL     OW11008   6.533   5.695   1.582
 3370SOL    HW111009   6.606   5.753   1.547
 3370SOL    HW211010   6.475   5.666   1.506
 3371SOL     OW11011   2.124   3.299   2.666
 3371SOL    HW111012   2.175   3.222   2.628
 3371SOL    HW211013   2.114   3.369   2.596
 3372SOL     OW11014   0.008   2.858   1.186
 3372SOL    HW111015   0.100   2.896   1.191
 3372SOL    HW211016   6.971   2.902   1.254
 3373SOL     OW11017   6.734   1.352   1.689
 3373SOL    HW111018   6.684   1.438   1.696
 3373SOL    HW211019   6.709   1.293   1.766
 3374SOL     OW11020   0.766   6.626   3.579
 3374SOL    HW111021   0.722   6.560   3.518
 3374SOL    HW211022   0.865   6.614   3.575
 3375SOL     OW11023   6.736   5.096   6.673
 3375SOL    HW111024   6.724   5.172   6.609
 3375SOL    HW211025   6.809   5.118   6.737
 3376SOL     OW11026   2.326   3.371   5.544
 3376SOL    HW111027   2.378   3.454   5.524
 3376SOL    HW211028   2.386   3.292   5.536
 3377SOL     OW11029   6.202   5.321   4.012
 3377SOL    HW111030   6.229   5.306   3.917
 3377SOL    HW211031   6.283   5.320   4.071
 3378SOL     OW11032   1.085   6.612   6.610
 3378SOL    HW111033   1.113   6.559   6.690
 3378SOL    HW211034   1.067   6.550   6.533
 3379SOL     OW11035   1.078   3.290   4.395
 3379SOL    HW111036   1.001   3.333   4.348
 3379SOL    HW211037   1.138   3.360   4.434
 3380SOL     OW11038   4.021   4.558   5.768
 3380SOL    HW111039   3.974   4.473   5.749
 3380SOL    HW211040   4.075   4.549   5.852
 3381SOL     OW11041   1.184   2.994   1.323
 3381SOL    HW111042   1.137   3.065   1.375
 3381SOL    HW211043   1.117   2.926   1.293
 3382SOL     OW11044   6.999   2.148   1.013
 3382SOL    HW111045   0.009   2.054   0.999
 3382SOL    HW211046   6.930   2.149   1.086
 3383SOL     OW11047   3.528   4.732   0.508
 3383SOL    HW111048   3.575   4.812   0.546
 3383SOL    HW211049   3.432   4.734   0.535
 3384SOL     OW11050   3.034   4.283   0.391
 3384SOL    HW111051   2.984   4.200   0.367
 3384SOL    HW211052   2.986   4.363   0.355
 3385SOL     OW11053   6.710   2.025   3.719
 3385SOL    HW111054   6.763   1.956   3.670
 3385SOL    HW211055   6.730   2.115   3.681
 3386SOL     OW11056   6.572   4.780   6.619
 3386SOL    HW111057   6.594   4.782   6.521
 3386SOL    HW211058   6.529   4.693   6.642
 3387SOL     OW11059   5.624   1.104   3.152
 3387SOL    HW111060   5.621   1.127   3.055
 3387SOL    HW211061   5.635   1.005   3.163
 3388SOL     OW11062   5.043   4.122   1.411
 3388SOL    HW111063   5.138   4.100   1.391
 3388SOL    HW211064   5.015   4.202   1.357
 3389SOL     OW11065   6.065   6.398   0.211
 3389SOL    HW111066   5.999   6.369   0.280
 3389SOL    HW211067   6.088   6.494   0.224
 3390SOL     OW11068   3.975   6.705   5.683
 3390SOL    HW111069   3.909   6.677   5.753
 3390SOL    HW211070   3.929   6.761   5.614
 3391SOL     OW11071   5.650   2.963   3.553
 3391SOL    HW111072   5.604   2.950   3.465
 3391SOL    HW211073   5.712   2.886   3.569
 3392SOL     OW11074   4.055   6.990   4.927
 3392SOL    HW111075   4.150   7.014   4.907
 3392SOL    HW211076   4.014   6.944   4.849
 3393SOL     OW11077   4.882   6.929   0.684
 3393SOL    HW111078   4.951   6.857   0.689
 3393SOL    HW211079   4.832   6.921   0.598
 3394SOL     OW11080   3.459   5.230   1.036
 3394SOL    HW111081   3.548   5.249   1.078
 3394SOL    HW211082   3.391   5.212   1.107
 3395SOL     OW11083   3.975   0.482   3.224
 3395SOL    HW111084   3.929   0.456   3.309
 3395SOL    HW211085   4.040   0.556   3.241
 3396SOL     OW11086   5.503   1.065   3.704
 3396SOL    HW111087   5.442   1.137   3.670
 3396SOL    HW211088   5.488   1.052   3.802
 3397SOL     OW11089   2.334   5.573   6.092
 3397SOL    HW111090   2.326   5.673   6.082
 3397SOL    HW211091   2.427   5.545   6.070
 3398SOL     OW11092   0.311   1.937   5.479
 3398SOL    HW111093   0.334   1.935   5.576
 3398SOL    HW211094   0.228   1.883   5.463
 3399SOL     OW11095   0.631   4.596   2.801
 3399SOL    HW111096   0.650   4.529   2.873
 3399SOL    HW211097   0.603   4.683   2.843
 3400SOL     OW11098   5.617   2.992   5.334
 3400SOL    HW111099   5.546   2.993   5.264
 3400SOL    HW211100   5.582   2.947   5.416
 3401SOL     OW11101   6.643   3.803   6.281
 3401SOL    HW111102   6.579   3.845   6.345
 3401SOL    HW211103   6.627   3.704   6.278
 3402SOL     OW11104   6.420   5.036   1.138
 3402SOL    HW111105   6.442   5.126   1.175
 3402SOL    HW211106   6.463   5.023   1.049
 3403SOL     OW11107   4.500   6.449   6.000
 3403SOL    HW111108   4.562   6.461   5.922
 3403SOL    HW211109   4.406   6.468   5.971
 3404SOL     OW11110   5.140   3.417   5.880
 3404SOL    HW111111   5.130   3.349   5.808
 3404SOL    HW211112   5.202   3.489   5.850
 3405SOL     OW11113   4.873   6.412   5.633
 3405SOL    HW111114   4.798   6.465   5.671
 3405SOL    HW211115   4.931   6.471   5.578
 3406SOL     OW11116   2.159   3.731   2.345
 3406SOL    HW111117   2.081   3.710   2.286
 3406SOL    HW211118   2.216   3.800   2.301
 3407SOL     OW11119   2.049   3.811   0.828
 3407SOL    HW111120   2.084   3.888   0.882
 3407SOL    HW211121   2.103   3.804   0.744
 3408SOL     OW11122   4.424   2.503   3.703
 3408SOL    HW111123   4.370   2.422   3.685
 3408SOL    HW211124   4.363   2.582   3.713
 3409SOL     OW11125   4.261   0.090   0.507
 3409SOL    HW111126   4.261   0.027   0.584
 3409SOL    HW211127   4.279   0.183   0.539
 3410SOL     OW11128   5.702   6.614   2.656
 3410SOL    HW111129   5.731   6.678   2.585
 3410SOL    HW211130   5.614   6.643   2.694
 3411SOL     OW11131   6.746   1.655   1.195
 3411SOL    HW111132   6.724   1.737   1.248
 3411SOL    HW211133   6.665   1.597   1.187
 3412SOL     OW11134   5.351   3.686   1.837
 3412SOL    HW111135   5.298   3.693   1.753
 3412SOL    HW211136   5.304   3.736   1.910
 3413SOL     OW11137   6.847   1.924   6.544
 3413SOL    HW111138   6.829   1.829   6.571
 3413SOL    HW211139   6.808   1.985   6.613
 3414SOL     OW11140   4.270   2.871   0.317
 3414SOL    HW111141   4.229   2.851   0.228
 3414SOL    HW211142   4.311   2.789   0.354
 3415SOL     OW11143   2.478   2.563   4.395
 3415SOL    HW111144   2.464   2.661   4.406
 3415SOL    HW211145   2.558   2.535   4.450
 3416SOL     OW11146   6.368   0.346   0.189
 3416SOL    HW111147   6.272   0.321   0.185
 3416SOL    HW211148   6.377   0.444   0.204
 3417SOL     OW11149   0.317   0.740   3.345
 3417SOL    HW111150   0.415   0.748   3.324
 3417SOL    HW211151   0.277   0.669   3.286
 3418SOL     OW11152   4.284   5.343   2.381
 3418SOL    HW111153   4.269   5.256   2.332
 3418SOL    HW211154   4.381   5.351   2.405
 3419SOL     OW11155   3.693   5.594   6.208
 3419SOL    HW111156   3.702   5.501   6.173
 3419SOL    HW211157   3.656   5.653   6.137
 3420SOL     OW11158   4.615   2.666   3.840
 3420SOL    HW111159   4.568   2.602   3.778
 3420SOL    HW211160   4.649   2.744   3.787
 3421SOL     OW11161   5.453   1.729   3.531
 3421SOL    HW111162   5.384   1.719   3.459
 3421SOL    HW211163   5.518   1.801   3.506
 3422SOL     OW11164   2.179   0.181   0.660
 3422SOL    HW111165   2.164   0.089   0.697
 3422SOL    HW211166   2.276   0.203   0.662
 3423SOL     OW11167   1.092   4.368   5.360
 3423SOL    HW111168   1.032   4.425   5.304
 3423SOL    HW211169   1.051   4.277   5.371
 3424SOL     OW11170   4.553   6.726   1.352
 3424SOL    HW111171   4.633   6.689   1.304
 3424SOL    HW211172   4.488   6.764   1.286
 3425SOL     OW11173   5.748   4.131   1.523
 3425SOL    HW111174   5.807   4.188   1.579
 3425SOL    HW211175   5.660   4.177   1.510
 3426SOL     OW11176   5.589   3.431   0.693
 3426SOL    HW111177   5.555   3.347   0.650
 3426SOL    HW211178   5.642   3.484   0.626
 3427SOL     OW11179   1.219   2.335   1.040
 3427SOL    HW111180   1.308   2.374   1.018
 3427SOL    HW211181   1.231   2.254   1.097
 3428SOL     OW11182   4.719   5.543   5.851
 3428SOL    HW111183   4.808   5.530   5.807
 3428SOL    HW211184   4.710   5.637   5.882
 3429SOL     OW11185   0.118   0.839   1.010
 3429SOL    HW111186   0.054   0.840   0.933
 3429SOL    HW211187   0.178   0.918   1.005
 3430SOL     OW11188   2.341   4.806   5.600
 3430SOL    HW111189   2.273   4.747   5.643
 3430SOL    HW211190   2.380   4.759   5.521
 3431SOL     OW11191   2.395   6.302   2.919
 3431SOL    HW111192   2.478   6.246   2.927
 3431SOL    HW211193   2.418   6.398   2.933
 3432SOL     OW11194   2.200   4.726   0.130
 3432SOL    HW111195   2.126   4.777   0.085
 3432SOL    HW211196   2.222   4.645   0.075
 3433SOL     OW11197   2.523   1.007   6.503
 3433SOL    HW111198   2.597   1.050   6.452
 3433SOL    HW211199   2.555   0.921   6.543
 3434SOL     OW11200   3.059   2.003   1.864
 3434SOL    HW111201   3.126   2.058   1.913
 3434SOL    HW211202   2.971   2.006   1.913
 3435SOL     OW11203   2.070   0.570   0.272
 3435SOL    HW111204   2.032   0.638   0.335
 3435SOL    HW211205   2.169   0.562   0.287
 3436SOL     OW11206   4.300   4.974   0.345
 3436SOL    HW111207   4.377   4.909   0.343
 3436SOL    HW211208   4.214   4.924   0.333
 3437SOL     OW11209   1.361   6.258   6.062
 3437SOL    HW111210   1.417   6.239   6.142
 3437SOL    HW211211   1.374   6.186   5.994
 3438SOL     OW11212   1.307   4.034   0.955
 3438SOL    HW111213   1.281   4.107   1.018
 3438SOL    HW211214   1.233   4.020   0.889
 3439SOL     OW11215   2.345   5.872   2.789
 3439SOL    HW111216   2.339   5.968   2.762
 3439SOL    HW211217   2.430   5.833   2.754
 3440SOL     OW11218   3.833   2.945   4.706
 3440SOL    HW111219   3.915   2.890   4.687
 3440SOL    HW211220   3.795   2.918   4.794
 3441SOL     OW11221   5.528   5.639   5.735
 3441SOL    HW111222   5.545   5.731   5.768
 3441SOL    HW211223   5.431   5.618   5.741
 3442SOL     OW11224   2.986   3.536   1.576
 3442SOL    HW111225   2.904   3.482   1.596
 3442SOL    HW211226   2.999   3.603   1.649
 3443SOL     OW11227   3.028   5.892   2.724
 3443SOL    HW111228   3.117   5.935   2.711
 3443SOL    HW211229   3.010   5.830   2.647
 3444SOL     OW11230   5.836   4.456   1.465
 3444SOL    HW111231   5.784   4.537   1.438
 3444SOL    HW211232   5.775   4.388   1.505
 3445SOL     OW11233   6.235   5.005   3.928
 3445SOL    HW111234   6.298   4.995   3.851
 3445SOL    HW211235   6.141   4.997   3.895
 3446SOL     OW11236   5.425   0.038   1.522
 3446SOL    HW111237   5.465   0.119   1.480
 3446SOL    HW211238   5.483   0.009   1.599
 3447SOL     OW11239   5.153   0.298   0.174
 3447SOL    HW111240   5.131   0.211   0.130
 3447SOL    HW211241   5.113   0.373   0.121
 3448SOL     OW11242   1.243   6.446   5.436
 3448SOL    HW111243   1.243   6.546   5.431
 3448SOL    HW211244   1.184   6.409   5.364
 3449SOL     OW11245   6.186   5.159   5.065
 3449SOL    HW111246   6.185   5.148   4.965
 3449SOL    HW211247   6.263   5.217   5.091
 3450SOL     OW11248   1.562   0.169   6.575
 3450SOL    HW111249   1.643   0.123   6.610
 3450SOL    HW211250   1.561   0.164   6.475
 3451SOL     OW11251   1.647   6.101   0.651
 3451SOL    HW111252   1.567   6.064   0.604
 3451SOL    HW211253   1.664   6.048   0.734
 3452SOL     OW11254   5.670   1.012   5.213
 3452SOL    HW111255   5.599   1.028   5.143
 3452SOL    HW211256   5.628   1.012   5.303
 3453SOL     OW11257   5.260   6.273   5.684
 3453SOL    HW111258   5.233   6.360   5.726
 3453SOL    HW211259   5.178   6.222   5.657
 3454SOL     OW11260   1.722   2.680   3.065
 3454SOL    HW111261   1.817   2.653   3.047
 3454SOL    HW211262   1.706   2.679   3.164
 3455SOL     OW11263   1.801   3.236   5.461
 3455SOL    HW111264   1.854   3.301   5.515
 3455SOL    HW211265   1.724   3.282   5.418
 3456SOL     OW11266   4.447   4.499   2.175
 3456SOL    HW111267   4.425   4.572   2.111
 3456SOL    HW211268   4.487   4.422   2.125
 3457SOL     OW11269   3.692   5.415   4.988
 3457SOL    HW111270   3.664   5.449   4.898
 3457SOL    HW211271   3.749   5.483   5.033
 3458SOL     OW11272   4.622   1.766   2.266
 3458SOL    HW111273   4.687   1.813   2.206
 3458SOL    HW211274   4.617   1.813   2.353
 3459SOL     OW11275   4.027   1.169   2.486
 3459SOL    HW111276   4.029   1.215   2.575
 3459SOL    HW211277   4.092   1.212   2.424
 3460SOL     OW11278   3.761   1.641   5.872
 3460SOL    HW111279   3.729   1.655   5.965
 3460SOL    HW211280   3.688   1.663   5.807
 3461SOL     OW11281   5.694   4.919   6.874
 3461SOL    HW111282   5.722   4.831   6.835
 3461SOL    HW211283   5.615   4.954   6.824
 3462SOL     OW11284   2.412   3.200   6.756
 3462SOL    HW111285   2.417   3.271   6.686
 3462SOL    HW211286   2.479   3.220   6.828
 3463SOL     OW11287   0.229   3.906   1.490
 3463SOL    HW111288   0.310   3.853   1.513
 3463SOL    HW211289   0.248   3.964   1.411
 3464SOL     OW11290   0.397   4.463   6.472
 3464SOL    HW111291   0.443   4.492   6.388
 3464SOL    HW211292   0.299   4.455   6.455
 3465SOL     OW11293   1.938   1.212   1.665
 3465SOL    HW111294   1.851   1.190   1.710
 3465SOL    HW211295   1.934   1.303   1.626
 3466SOL     OW11296   0.085   4.415   5.690
 3466SOL    HW111297   0.127   4.397   5.779
 3466SOL    HW211298   7.009   4.399   5.697
 3467SOL     OW11299   2.377   2.287   6.531
 3467SOL    HW111300   2.304   2.345   6.496
 3467SOL    HW211301   2.341   2.224   6.599
 3468SOL     OW11302   2.883   6.316   3.438
 3468SOL    HW111303   2.943   6.296   3.360
 3468SOL    HW211304   2.794   6.272   3.423
 3469SOL     OW11305   6.743   2.304   3.637
 3469SOL    HW111306   6.831   2.351   3.628
 3469SOL    HW211307   6.707   2.283   3.546
 3470SOL     OW11308   0.550   5.666   1.392
 3470SOL    HW111309   0.560   5.609   1.310
 3470SOL    HW211310   0.580   5.614   1.472
 3471SOL     OW11311   4.175   5.670   4.950
 3471SOL    HW111312   4.090   5.691   4.998
 3471SOL    HW211313   4.166   5.581   4.905
 3472SOL     OW11314   2.383   0.593   4.686
 3472SOL    HW111315   2.286   0.568   4.685
 3472SOL    HW211316   2.425   0.568   4.599
 3473SOL     OW11317   6.013   1.527   5.865
 3473SOL    HW111318   6.019   1.427   5.861
 3473SOL    HW211319   5.917   1.555   5.865
 3474SOL     OW11320   3.719   4.993   2.032
 3474SOL    HW111321   3.749   4.974   2.126
 3474SOL    HW211322   3.697   4.907   1.986
 3475SOL     OW11323   1.190   6.611   4.010
 3475SOL    HW111324   1.223   6.575   3.922
 3475SOL    HW211325   1.093   6.633   4.002
 3476SOL     OW11326   4.946   0.827   4.544
 3476SOL    HW111327   4.994   0.891   4.485
 3476SOL    HW211328   4.848   0.837   4.533
 3477SOL     OW11329   4.380   6.002   1.026
 3477SOL    HW111330   4.388   5.904   1.044
 3477SOL    HW211331   4.295   6.020   0.975
 3478SOL     OW11332   3.535   5.758   6.036
 3478SOL    HW111333   3.437   5.778   6.045
 3478SOL    HW211334   3.587   5.821   6.093
 3479SOL     OW11335   0.398   0.550   1.932
 3479SOL    HW111336   0.430   0.602   2.011
 3479SOL    HW211337   0.298   0.547   1.932
 3480SOL     OW11338   7.009   1.067   3.320
 3480SOL    HW111339   6.981   1.032   3.409
 3480SOL    HW211340   0.063   1.012   3.285
 3481SOL     OW11341   3.179   6.643   6.498
 3481SOL    HW111342   3.184   6.554   6.454
 3481SOL    HW211343   3.272   6.677   6.516
 3482SOL     OW11344   6.360   2.148   1.455
 3482SOL    HW111345   6.284   2.145   1.390
 3482SOL    HW211346   6.370   2.059   1.499
 3483SOL     OW11347   2.200   0.839   1.554
 3483SOL    HW111348   2.276   0.902   1.572
 3483SOL    HW211349   2.138   0.880   1.488
 3484SOL     OW11350   3.320   2.883   3.438
 3484SOL    HW111351   3.240   2.939   3.457
 3484SOL    HW211352   3.378   2.878   3.520
 3485SOL     OW11353   1.874   2.681   5.206
 3485SOL    HW111354   1.794   2.626   5.229
 3485SOL    HW211355   1.879   2.759   5.269
 3486SOL     OW11356   4.743   1.591   1.485
 3486SOL    HW111357   4.664   1.647   1.460
 3486SOL    HW211358   4.714   1.496   1.494
 3487SOL     OW11359   6.073   1.839   6.035
 3487SOL    HW111360   6.117   1.921   5.998
 3487SOL    HW211361   6.000   1.867   6.098
 3488SOL     OW11362   6.131   3.858   4.166
 3488SOL    HW111363   6.101   3.828   4.256
 3488SOL    HW211364   6.184   3.786   4.122
 3489SOL     OW11365   3.868   6.926   1.412
 3489SOL    HW111366   3.876   6.827   1.407
 3489SOL    HW211367   3.772   6.952   1.416
 3490SOL     OW11368   5.485   3.721   0.343
 3490SOL    HW111369   5.519   3.709   0.249
 3490SOL    HW211370   5.462   3.817   0.358
 3491SOL     OW11371   6.902   3.071   5.748
 3491SOL    HW111372   6.879   2.981   5.787
 3491SOL    HW211373   6.920   3.135   5.822
 3492SOL     OW11374   0.460   5.706   6.810
 3492SOL    HW111375   0.366   5.740   6.816
 3492SOL    HW211376   0.476   5.639   6.883
 3493SOL     OW11377   5.707   5.190   1.450
 3493SOL    HW111378   5.801   5.164   1.469
 3493SOL    HW211379   5.677   5.148   1.364
 3494SOL     OW11380   3.221   0.431   1.830
 3494SOL    HW111381   3.301   0.390   1.874
 3494SOL    HW211382   3.248   0.514   1.782
 3495SOL     OW11383   4.539   5.230   1.818
 3495SOL    HW111384   4.496   5.141   1.799
 3495SOL    HW211385   4.477   5.284   1.876
 3496SOL     OW11386   1.353   2.939   0.613
 3496SOL    HW111387   1.259   2.971   0.600
 3496SOL    HW211388   1.401   2.939   0.525
 3497SOL     OW11389   4.090   1.401   3.081
 3497SOL    HW111390   4.095   1.305   3.052
 3497SOL    HW211391   4.029   1.409   3.159
 3498SOL     OW11392   2.698   1.273   0.826
 3498SOL    HW111393   2.730   1.186   0.863
 3498SOL    HW211394   2.604   1.262   0.793
 3499SOL     OW11395   0.193   3.575   4.136
 3499SOL    HW111396   0.250   3.544   4.060
 3499SOL    HW211397   0.121   3.507   4.153
 3500SOL     OW11398   6.219   4.039   6.301
 3500SOL    HW111399   6.189   4.046   6.396
 3500SOL    HW211400   6.146   4.001   6.246
 3501SOL     OW11401   1.644   4.671   5.055
 3501SOL    HW111402   1.658   4.760   5.011
 3501SOL    HW211403   1.597   4.683   5.142
 3502SOL     OW11404   0.304   1.815   1.407
 3502SOL    HW111405   0.332   1.728   1.367
 3502SOL    HW211406   0.385   1.871   1.425
 3503SOL     OW11407   4.669   5.574   5.370
 3503SOL    HW111408   4.726   5.638   5.422
 3503SOL    HW211409   4.702   5.569   5.276
 3504SOL     OW11410   2.554   3.279   1.254
 3504SOL    HW111411   2.482   3.255   1.319
 3504SOL    HW211412   2.613   3.200   1.239
 3505SOL     OW11413   5.553   6.176   5.111
 3505SOL    HW111414   5.612   6.144   5.185
 3505SOL    HW211415   5.601   6.167   5.023
 3506SOL     OW11416   3.979   5.130   3.901
 3506SOL    HW111417   3.888   5.103   3.931
 3506SOL    HW211418   4.018   5.196   3.966
 3507SOL     OW11419   1.145   0.590   6.486
 3507SOL    HW111420   1.053   0.559   6.513
 3507SOL    HW211421   1.213   0.526   6.521
 3508SOL     OW11422   5.465   2.858   0.470
 3508SOL    HW111423   5.536   2.892   0.531
 3508SOL    HW211424   5.408   2.935   0.439
 3509SOL     OW11425   6.169   6.097   6.690
 3509SOL    HW111426   6.138   6.179   6.640
 3509SOL    HW211427   6.174   6.118   6.788
 3510SOL     OW11428   2.166   2.158   1.515
 3510SOL    HW111429   2.125   2.189   1.430
 3510SOL    HW211430   2.239   2.221   1.542
 3511SOL     OW11431   0.235   2.526   6.721
 3511SOL    HW111432   0.217   2.537   6.819
 3511SOL    HW211433   0.244   2.429   6.699
 3512SOL     OW11434   2.232   3.592   0.419
 3512SOL    HW111435   2.202   3.687   0.429
 3512SOL    HW211436   2.152   3.533   0.409
 3513SOL     OW11437   6.524   4.319   1.058
 3513SOL    HW111438   6.603   4.376   1.034
 3513SOL    HW211439   6.506   4.329   1.156
 3514SOL     OW11440   0.697   6.274   1.442
 3514SOL    HW111441   0.644   6.358   1.427
 3514SOL    HW211442   0.706   6.225   1.356
 3515SOL     OW11443   2.621   6.150   2.862
 3515SOL    HW111444   2.663   6.174   2.949
 3515SOL    HW211445   2.692   6.128   2.795
 3516SOL     OW11446   3.265   1.202   0.357
 3516SOL    HW111447   3.285   1.184   0.261
 3516SOL    HW211448   3.321   1.278   0.389
 3517SOL     OW11449   0.889   1.212   6.853
 3517SOL    HW111450   0.920   1.199   6.947
 3517SOL    HW211451   0.934   1.292   6.814
 3518SOL     OW11452   4.656   3.535   6.652
 3518SOL    HW111453   4.698   3.501   6.736
 3518SOL    HW211454   4.593   3.609   6.673
 3519SOL     OW11455   1.567   6.683   6.547
 3519SOL    HW111456   1.526   6.592   6.543
 3519SOL    HW211457   1.594   6.704   6.640
 3520SOL     OW11458   4.061   4.538   1.002
 3520SOL    HW111459   4.065   4.472   1.077
 3520SOL    HW211460   3.980   4.521   0.946
 3521SOL     OW11461   5.734   2.472   2.119
 3521SOL    HW111462   5.674   2.482   2.198
 3521SOL    HW211463   5.697   2.404   2.057
 3522SOL     OW11464   3.345   5.093   1.838
 3522SOL    HW111465   3.369   5.167   1.901
 3522SOL    HW211466   3.365   5.005   1.882
 3523SOL     OW11467   3.094   4.860   4.770
 3523SOL    HW111468   3.008   4.901   4.740
 3523SOL    HW211469   3.075   4.779   4.826
 3524SOL     OW11470   2.369   0.349   0.876
 3524SOL    HW111471   2.385   0.252   0.860
 3524SOL    HW211472   2.352   0.395   0.788
 3525SOL     OW11473   0.742   2.928   1.889
 3525SOL    HW111474   0.710   2.991   1.961
 3525SOL    HW211475   0.749   2.836   1.927
 3526SOL     OW11476   0.715   0.637   2.900
 3526SOL    HW111477   0.691   0.638   2.997
 3526SOL    HW211478   0.753   0.726   2.874
 3527SOL     OW11479   5.577   2.851   6.438
 3527SOL    HW111480   5.487   2.881   6.469
 3527SOL    HW211481   5.629   2.816   6.516
 3528SOL     OW11482   0.454   6.348   3.237
 3528SOL    HW111483   0.505   6.388   3.313
 3528SOL    HW211484   0.493   6.260   3.213
 3529SOL     OW11485   4.529   6.953   5.249
 3529SOL    HW111486   4.470   6.919   5.176
 3529SOL    HW211487   4.521   0.030   5.255
 3530SOL     OW11488   3.019   5.498   2.385
 3530SOL    HW111489   2.991   5.491   2.289
 3530SOL    HW211490   3.023   5.406   2.425
 3531SOL     OW11491   5.894   4.931   0.820
 3531SOL    HW111492   5.977   4.876   0.836
 3531SOL    HW211493   5.901   5.017   0.869
 3532SOL     OW11494   2.601   0.362   6.799
 3532SOL    HW111495   2.584   0.349   6.701
 3532SOL    HW211496   2.691   0.401   6.812
 3533SOL     OW11497   1.196   1.816   3.643
 3533SOL    HW111498   1.137   1.805   3.563
 3533SOL    HW211499   1.200   1.913   3.668
 3534SOL     OW11500   5.595   1.811   5.310
 3534SOL    HW111501   5.589   1.871   5.230
 3534SOL    HW211502   5.515   1.825   5.368
 3535SOL     OW11503   5.622   5.200   6.055
 3535SOL    HW111504   5.522   5.194   6.051
 3535SOL    HW211505   5.649   5.260   6.131
 3536SOL     OW11506   2.112   3.370   2.930
 3536SOL    HW111507   2.119   3.469   2.922
 3536SOL    HW211508   2.119   3.329   2.839
 3537SOL     OW11509   2.380   5.796   0.553
 3537SOL    HW111510   2.293   5.772   0.595
 3537SOL    HW211511   2.411   5.721   0.495
 3538SOL     OW11512   2.828   0.125   3.212
 3538SOL    HW111513   2.751   0.169   3.260
 3538SOL    HW211514   2.860   0.047   3.266
 3539SOL     OW11515   5.487   4.988   6.710
 3539SOL    HW111516   5.512   4.915   6.646
 3539SOL    HW211517   5.431   5.056   6.663
 3540SOL     OW11518   2.735   3.220   6.525
 3540SOL    HW111519   2.743   3.193   6.620
 3540SOL    HW211520   2.822   3.261   6.494
 3541SOL     OW11521   2.721   2.491   1.268
 3541SOL    HW111522   2.645   2.481   1.332
 3541SOL    HW211523   2.800   2.530   1.315
 3542SOL     OW11524   5.169   2.434   7.012
 3542SOL    HW111525   5.214   2.406   6.927
 3542SOL    HW211526   5.238   2.461   0.057
 3543SOL     OW11527   2.334   2.791   3.269
 3543SOL    HW111528   2.252   2.742   3.300
 3543SOL    HW211529   2.307   2.881   3.234
 3544SOL     OW11530   2.829   4.510   6.191
 3544SOL    HW111531   2.847   4.412   6.181
 3544SOL    HW211532   2.850   4.558   6.106
 3545SOL     OW11533   3.930   6.800   1.015
 3545SOL    HW111534   4.012   6.748   1.039
 3545SOL    HW211535   3.929   6.886   1.067
 3546SOL     OW11536   6.605   3.713   3.353
 3546SOL    HW111537   6.606   3.671   3.444
 3546SOL    HW211538   6.567   3.648   3.286
 3547SOL     OW11539   0.077   3.732   5.325
 3547SOL    HW111540   0.136   3.807   5.356
 3547SOL    HW211541   0.087   3.654   5.386
 3548SOL     OW11542   5.084   1.671   5.884
 3548SOL    HW111543   5.040   1.713   5.805
 3548SOL    HW211544   5.062   1.723   5.967
 3549SOL     OW11545   3.000   5.376   0.237
 3549SOL    HW111546   3.060   5.309   0.280
 3549SOL    HW211547   3.054   5.449   0.195
 3550SOL     OW11548   5.126   2.075   5.276
 3550SOL    HW111549   5.089   1.986   5.249
 3550SOL    HW211550   5.186   2.109   5.204
 3551SOL     OW11551   3.792   2.247   5.425
 3551SOL    HW111552   3.883   2.286   5.407
 3551SOL    HW211553   3.730   2.319   5.454
 3552SOL     OW11554   6.758   6.027   2.385
 3552SOL    HW111555   6.687   5.961   2.363
 3552SOL    HW211556   6.759   6.099   2.315
 3553SOL     OW11557   3.960   5.723   6.244
 3553SOL    HW111558   3.882   5.697   6.188
 3553SOL    HW211559   3.932   5.728   6.340
 3554SOL     OW11560   4.271   3.560   1.703
 3554SOL    HW111561   4.228   3.583   1.790
 3554SOL    HW211562   4.240   3.470   1.674
 3555SOL     OW11563   1.678   2.219   3.946
 3555SOL    HW111564   1.650   2.130   3.910
 3555SOL    HW211565   1.611   2.250   4.014
 3556SOL     OW11566   4.325   0.820   5.197
 3556SOL    HW111567   4.410   0.863   5.166
 3556SOL    HW211568   4.320   0.822   5.297
 3557SOL     OW11569   6.978   0.955   2.421
 3557SOL    HW111570   0.025   0.885   2.405
 3557SOL    HW211571   6.887   0.915   2.411
 3558SOL     OW11572   3.378   6.686   0.892
 3558SOL    HW111573   3.303   6.697   0.827
 3558SOL    HW211574   3.463   6.718   0.850
 3559SOL     OW11575   3.836   6.428   4.796
 3559SOL    HW111576   3.893   6.359   4.751
 3559SOL    HW211577   3.740   6.412   4.773
 3560SOL     OW11578   1.314   5.421   5.043
 3560SOL    HW111579   1.338   5.472   4.960
 3560SOL    HW211580   1.221   5.443   5.071
 3561SOL     OW11581   5.070   4.677   5.377
 3561SOL    HW111582   4.971   4.689   5.379
 3561SOL    HW211583   5.097   4.612   5.448
 3562SOL     OW11584   2.665   1.146   4.807
 3562SOL    HW111585   2.680   1.197   4.722
 3562SOL    HW211586   2.752   1.113   4.841
 3563SOL     OW11587   5.773   1.926   5.697
 3563SOL    HW111588   5.733   1.976   5.620
 3563SOL    HW211589   5.759   1.828   5.684
 3564SOL     OW11590   0.261   4.571   2.909
 3564SOL    HW111591   0.306   4.484   2.887
 3564SOL    HW211592   0.330   4.642   2.922
 3565SOL     OW11593   3.283   5.737   3.535
 3565SOL    HW111594   3.281   5.778   3.626
 3565SOL    HW211595   3.377   5.725   3.505
 3566SOL     OW11596   6.331   0.882   5.598
 3566SOL    HW111597   6.346   0.864   5.500
 3566SOL    HW211598   6.251   0.830   5.629
 3567SOL     OW11599   0.366   4.340   0.081
 3567SOL    HW111600   0.457   4.300   0.071
 3567SOL    HW211601   0.329   4.363   7.013
 3568SOL     OW11602   6.371   3.631   6.122
 3568SOL    HW111603   6.304   3.619   6.195
 3568SOL    HW211604   6.450   3.572   6.139
 3569SOL     OW11605   3.134   1.907   5.515
 3569SOL    HW111606   3.087   1.820   5.525
 3569SOL    HW211607   3.116   1.945   5.424
 3570SOL     OW11608   5.924   0.969   4.198
 3570SOL    HW111609   5.982   0.926   4.129
 3570SOL    HW211610   5.903   1.063   4.171
 3571SOL     OW11611   6.701   5.764   6.270
 3571SOL    HW111612   6.644   5.792   6.192
 3571SOL    HW211613   6.698   5.836   6.340
 3572SOL     OW11614   5.473   3.527   3.767
 3572SOL    HW111615   5.558   3.544   3.717
 3572SOL    HW211616   5.414   3.607   3.762
 3573SOL     OW11617   1.226   4.543   4.016
 3573SOL    HW111618   1.184   4.553   3.926
 3573SOL    HW211619   1.290   4.619   4.032
 3574SOL     OW11620   0.017   5.003   0.550
 3574SOL    HW111621   6.995   4.994   0.639
 3574SOL    HW211622   0.058   4.916   0.524
 3575SOL     OW11623   6.178   5.444   3.029
 3575SOL    HW111624   6.244   5.406   2.964
 3575SOL    HW211625   6.089   5.452   2.985
 3576SOL     OW11626   0.539   1.340   6.254
 3576SOL    HW111627   0.566   1.245   6.237
 3576SOL    HW211628   0.461   1.364   6.196
 3577SOL     OW11629   0.649   2.465   6.509
 3577SOL    HW111630   0.647   2.426   6.601
 3577SOL    HW211631   0.617   2.397   6.443
 3578SOL     OW11632   3.271   4.248   6.648
 3578SOL    HW111633   3.335   4.295   6.708
 3578SOL    HW211634   3.230   4.171   6.697
 3579SOL     OW11635   6.568   3.601   4.971
 3579SOL    HW111636   6.487   3.544   4.967
 3579SOL    HW211637   6.617   3.583   5.057
 3580SOL     OW11638   5.546   1.836   1.774
 3580SOL    HW111639   5.567   1.818   1.870
 3580SOL    HW211640   5.489   1.918   1.767
 3581SOL     OW11641   6.561   6.920   2.673
 3581SOL    HW111642   6.543   6.843   2.611
 3581SOL    HW211643   6.651   6.958   2.654
 3582SOL     OW11644   0.999   0.963   5.869
 3582SOL    HW111645   0.965   0.966   5.775
 3582SOL    HW211646   1.097   0.982   5.869
 3583SOL     OW11647   1.171   4.576   0.046
 3583SOL    HW111648   1.267   4.598   0.027
 3583SOL    HW211649   1.136   4.638   0.116
 3584SOL     OW11650   6.113   6.234   6.163
 3584SOL    HW111651   6.125   6.136   6.177
 3584SOL    HW211652   6.173   6.284   6.226
 3585SOL     OW11653   3.414   5.203   4.779
 3585SOL    HW111654   3.362   5.288   4.769
 3585SOL    HW211655   3.471   5.189   4.698
 3586SOL     OW11656   6.336   2.796   5.209
 3586SOL    HW111657   6.373   2.734   5.278
 3586SOL    HW211658   6.241   2.817   5.232
 3587SOL     OW11659   2.695   6.812   1.202
 3587SOL    HW111660   2.714   6.715   1.186
 3587SOL    HW211661   2.748   6.844   1.280
 3588SOL     OW11662   1.933   2.166   5.686
 3588SOL    HW111663   1.923   2.200   5.593
 3588SOL    HW211664   1.886   2.227   5.750
 3589SOL     OW11665   3.821   0.663   4.346
 3589SOL    HW111666   3.807   0.746   4.292
 3589SOL    HW211667   3.735   0.613   4.353
 3590SOL     OW11668   1.308   4.656   6.356
 3590SOL    HW111669   1.396   4.646   6.402
 3590SOL    HW211670   1.266   4.566   6.345
 3591SOL     OW11671   5.643   3.025   5.993
 3591SOL    HW111672   5.665   2.947   5.935
 3591SOL    HW211673   5.544   3.033   6.004
 3592SOL     OW11674   5.134   3.084   2.695
 3592SOL    HW111675   5.192   3.164   2.680
 3592SOL    HW211676   5.064   3.106   2.763
 3593SOL     OW11677   2.428   6.431   4.196
 3593SOL    HW111678   2.342   6.463   4.155
 3593SOL    HW211679   2.410   6.399   4.289
 3594SOL     OW11680   2.381   1.004   3.387
 3594SOL    HW111681   2.469   0.957   3.392
 3594SOL    HW211682   2.307   0.937   3.398
 3595SOL     OW11683   2.284   6.662   5.255
 3595SOL    HW111684   2.213   6.596   5.232
 3595SOL    HW211685   2.261   6.707   5.341
 3596SOL     OW11686   6.430   1.168   2.889
 3596SOL    HW111687   6.425   1.160   2.789
 3596SOL    HW211688   6.518   1.209   2.915
 3597SOL     OW11689   3.809   6.188   4.258
 3597SOL    HW111690   3.806   6.269   4.316
 3597SOL    HW211691   3.735   6.126   4.282
 3598SOL     OW11692   0.909   0.091   5.750
 3598SOL    HW111693   0.991   0.085   5.694
 3598SOL    HW211694   0.918   0.028   5.828
 3599SOL     OW11695   0.390   1.962   5.730
 3599SOL    HW111696   0.488   1.940   5.735
 3599SOL    HW211697   0.366   2.025   5.803
 3600SOL     OW11698   6.796   3.338   0.918
 3600SOL    HW111699   6.772   3.423   0.966
 3600SOL    HW211700   6.734   3.265   0.947
 3601SOL     OW11701   0.172   4.109   0.899
 3601SOL    HW111702   0.197   4.206   0.889
 3601SOL    HW211703   0.234   4.053   0.844
 3602SOL     OW11704   1.760   0.812   0.360
 3602SOL    HW111705   1.695   0.886   0.341
 3602SOL    HW211706   1.799   0.779   0.274
 3603SOL     OW11707   3.811   5.510   4.368
 3603SOL    HW111708   3.762   5.565   4.300
 3603SOL    HW211709   3.802   5.413   4.345
 3604SOL     OW11710   0.054   2.915   3.102
 3604SOL    HW111711   0.057   2.832   3.046
 3604SOL    HW211712   0.080   2.994   3.047
 3605SOL     OW11713   6.155   4.369   6.211
 3605SOL    HW111714   6.067   4.321   6.213
 3605SOL    HW211715   6.142   4.462   6.178
 3606SOL     OW11716   6.973   4.837   6.045
 3606SOL    HW111717   7.006   4.756   5.997
 3606SOL    HW211718   6.970   4.819   6.143
 3607SOL     OW11719   5.271   0.371   0.419
 3607SOL    HW111720   5.197   0.375   0.486
 3607SOL    HW211721   5.235   0.341   0.331
 3608SOL     OW11722   6.946   1.681   1.887
 3608SOL    HW111723   6.973   1.598   1.837
 3608SOL    HW211724   6.944   1.758   1.824
 3609SOL     OW11725   6.938   1.095   4.531
 3609SOL    HW111726   7.019   1.146   4.560
 3609SOL    HW211727   6.888   1.148   4.463
 3610SOL     OW11728   0.674   6.692   4.630
 3610SOL    HW111729   0.728   6.753   4.689
 3610SOL    HW211730   0.708   6.598   4.639
 3611SOL     OW11731   3.608   5.028   5.284
 3611SOL    HW111732   3.674   4.958   5.256
 3611SOL    HW211733   3.589   5.088   5.206
 3612SOL     OW11734   0.741   6.339   6.208
 3612SOL    HW111735   0.668   6.304   6.150
 3612SOL    HW211736   0.803   6.395   6.153
 3613SOL     OW11737   5.139   4.918   0.801
 3613SOL    HW111738   5.224   4.950   0.759
 3613SOL    HW211739   5.071   4.992   0.797
 3614SOL     OW11740   3.718   3.429   2.922
 3614SOL    HW111741   3.764   3.399   3.005
 3614SOL    HW211742   3.782   3.425   2.845
 3615SOL     OW11743   5.708   5.509   5.947
 3615SOL    HW111744   5.788   5.557   5.911
 3615SOL    HW211745   5.631   5.522   5.884
 3616SOL     OW11746   6.574   2.293   0.024
 3616SOL    HW111747   6.589   2.305   6.948
 3616SOL    HW211748   6.563   2.383   0.067
 3617SOL     OW11749   5.191   1.770   6.482
 3617SOL    HW111750   5.177   1.746   6.578
 3617SOL    HW211751   5.112   1.741   6.428
 3618SOL     OW11752   1.494   1.634   5.641
 3618SOL    HW111753   1.462   1.697   5.570
 3618SOL    HW211754   1.560   1.682   5.700
 3619SOL     OW11755   5.805   2.485   4.054
 3619SOL    HW111756   5.874   2.529   3.997
 3619SOL    HW211757   5.737   2.553   4.082
 3620SOL     OW11758   5.136   6.738   5.451
 3620SOL    HW111759   5.151   6.657   5.394
 3620SOL    HW211760   5.042   6.739   5.482
 3621SOL     OW11761   3.051   2.834   5.960
 3621SOL    HW111762   2.993   2.774   6.015
 3621SOL    HW211763   3.079   2.913   6.015
 3622SOL     OW11764   0.770   1.890   3.062
 3622SOL    HW111765   0.772   1.790   3.065
 3622SOL    HW211766   0.794   1.927   3.151
 3623SOL     OW11767   6.432   5.354   4.194
 3623SOL    HW111768   6.503   5.412   4.233
 3623SOL    HW211769   6.406   5.283   4.260
 3624SOL     OW11770   1.932   6.008   2.801
 3624SOL    HW111771   2.012   6.022   2.743
 3624SOL    HW211772   1.935   6.071   2.879
 3625SOL     OW11773   6.158   2.996   6.319
 3625SOL    HW111774   6.168   2.901   6.288
 3625SOL    HW211775   6.225   3.014   6.391
 3626SOL     OW11776   2.400   3.635   5.480
 3626SOL    HW111777   2.370   3.718   5.433
 3626SOL    HW211778   2.498   3.623   5.468
 3627SOL     OW11779   4.064   3.482   3.382
 3627SOL    HW111780   4.006   3.546   3.431
 3627SOL    HW211781   4.118   3.531   3.314
 3628SOL     OW11782   2.092   6.609   1.927
 3628SOL    HW111783   2.059   6.528   1.879
 3628SOL    HW211784   2.021   6.680   1.925
 3629SOL     OW11785   6.506   1.848   5.208
 3629SOL    HW111786   6.539   1.942   5.213
 3629SOL    HW211787   6.536   1.807   5.122
 3630SOL     OW11788   5.822   2.830   4.297
 3630SOL    HW111789   5.831   2.874   4.387
 3630SOL    HW211790   5.909   2.787   4.272
 3631SOL     OW11791   2.603   0.233   4.502
 3631SOL    HW111792   2.617   0.157   4.566
 3631SOL    HW211793   2.675   0.301   4.515
 3632SOL     OW11794   5.029   0.795   0.800
 3632SOL    HW111795   5.030   0.891   0.826
 3632SOL    HW211796   5.058   0.785   0.705
 3633SOL     OW11797   3.145   2.439   5.870
 3633SOL    HW111798   3.233   2.423   5.914
 3633SOL    HW211799   3.149   2.523   5.817
 3634SOL     OW11800   0.553   6.106   4.145
 3634SOL    HW111801   0.493   6.043   4.194
 3634SOL    HW211802   0.536   6.200   4.177
 3635SOL     OW11803   3.605   0.709   5.627
 3635SOL    HW111804   3.666   0.635   5.657
 3635SOL    HW211805   3.654   0.769   5.564
 3636SOL     OW11806   0.276   5.849   5.651
 3636SOL    HW111807   0.351   5.784   5.664
 3636SOL    HW211808   0.203   5.829   5.716
 3637SOL     OW11809   6.179   1.782   1.177
 3637SOL    HW111810   6.130   1.798   1.263
 3637SOL    HW211811   6.191   1.868   1.128
 3638SOL     OW11812   6.239   4.832   4.330
 3638SOL    HW111813   6.230   4.778   4.413
 3638SOL    HW211814   6.154   4.883   4.314
 3639SOL     OW11815   3.863   3.654   0.990
 3639SOL    HW111816   3.897   3.721   1.055
 3639SOL    HW211817   3.821   3.701   0.912
 3640SOL     OW11818   3.667   6.415   6.678
 3640SOL    HW111819   3.597   6.345   6.663
 3640SOL    HW211820   3.745   6.375   6.726
 3641SOL     OW11821   4.082   2.236   4.723
 3641SOL    HW111822   4.142   2.252   4.801
 3641SOL    HW211823   4.133   2.251   4.638
 3642SOL     OW11824   4.772   1.567   5.847
 3642SOL    HW111825   4.804   1.508   5.773
 3642SOL    HW211826   4.834   1.558   5.925
 3643SOL     OW11827   2.888   5.618   4.688
 3643SOL    HW111828   2.985   5.633   4.706
 3643SOL    HW211829   2.839   5.705   4.695
 3644SOL     OW11830   6.588   0.831   1.441
 3644SOL    HW111831   6.547   0.852   1.530
 3644SOL    HW211832   6.686   0.851   1.444
 3645SOL     OW11833   5.641   1.531   4.067
 3645SOL    HW111834   5.666   1.449   4.015
 3645SOL    HW211835   5.722   1.569   4.112
 3646SOL     OW11836   0.475   4.854   6.102
 3646SOL    HW111837   0.535   4.871   6.024
 3646SOL    HW211838   0.505   4.909   6.180
 3647SOL     OW11839   1.367   3.704   0.452
 3647SOL    HW111840   1.335   3.690   0.358
 3647SOL    HW211841   1.459   3.744   0.450
 3648SOL     OW11842   3.475   5.317   2.884
 3648SOL    HW111843   3.532   5.399   2.891
 3648SOL    HW211844   3.528   5.237   2.911
 3649SOL     OW11845   4.228   2.831   1.108
 3649SOL    HW111846   4.192   2.746   1.146
 3649SOL    HW211847   4.214   2.905   1.174
 3650SOL     OW11848   6.700   5.521   0.640
 3650SOL    HW111849   6.756   5.534   0.722
 3650SOL    HW211850   6.639   5.599   0.629
 3651SOL     OW11851   1.101   5.905   2.959
 3651SOL    HW111852   1.129   5.982   3.016
 3651SOL    HW211853   1.002   5.892   2.967
 3652SOL     OW11854   5.000   6.353   3.825
 3652SOL    HW111855   4.990   6.339   3.726
 3652SOL    HW211856   5.066   6.286   3.861
 3653SOL     OW11857   6.497   0.784   3.138
 3653SOL    HW111858   6.434   0.714   3.105
 3653SOL    HW211859   6.520   0.766   3.233
 3654SOL     OW11860   2.055   6.429   0.027
 3654SOL    HW111861   2.017   6.452   6.959
 3654SOL    HW211862   2.149   6.396   0.015
 3655SOL     OW11863   0.937   0.128   3.924
 3655SOL    HW111864   1.019   0.186   3.922
 3655SOL    HW211865   0.869   0.165   3.860
 3656SOL     OW11866   1.392   2.775   1.416
 3656SOL    HW111867   1.464   2.822   1.365
 3656SOL    HW211868   1.302   2.801   1.380
 3657SOL     OW11869   4.737   6.083   5.883
 3657SOL    HW111870   4.805   6.148   5.915
 3657SOL    HW211871   4.701   6.113   5.795
 3658SOL     OW11872   1.324   5.870   4.464
 3658SOL    HW111873   1.416   5.862   4.425
 3658SOL    HW211874   1.259   5.824   4.404
 3659SOL     OW11875   2.949   3.738   6.010
 3659SOL    HW111876   2.991   3.649   5.991
 3659SOL    HW211877   2.856   3.726   6.043
 3660SOL     OW11878   5.253   5.969   2.064
 3660SOL    HW111879   5.185   5.904   2.096
 3660SOL    HW211880   5.320   5.922   2.005
 3661SOL     OW11881   4.440   2.368   6.368
 3661SOL    HW111882   4.505   2.441   6.387
 3661SOL    HW211883   4.443   2.345   6.271
 3662SOL     OW11884   3.376   0.624   4.142
 3662SOL    HW111885   3.389   0.722   4.129
 3662SOL    HW211886   3.289   0.596   4.100
 3663SOL     OW11887   1.370   1.319   0.842
 3663SOL    HW111888   1.357   1.394   0.777
 3663SOL    HW211889   1.460   1.277   0.826
 3664SOL     OW11890   5.145   1.705   1.213
 3664SOL    HW111891   5.132   1.721   1.311
 3664SOL    HW211892   5.132   1.791   1.164
 3665SOL     OW11893   0.708   6.108   5.626
 3665SOL    HW111894   0.717   6.108   5.726
 3665SOL    HW211895   0.617   6.075   5.601
 3666SOL     OW11896   2.062   4.187   3.650
 3666SOL    HW111897   1.996   4.251   3.688
 3666SOL    HW211898   2.046   4.096   3.688
 3667SOL     OW11899   6.029   6.809   0.585
 3667SOL    HW111900   5.962   6.749   0.629
 3667SOL    HW211901   6.061   6.877   0.651
 3668SOL     OW11902   1.577   0.323   1.658
 3668SOL    HW111903   1.657   0.338   1.715
 3668SOL    HW211904   1.592   0.243   1.599
 3669SOL     OW11905   5.909   1.420   4.338
 3669SOL    HW111906   5.868   1.401   4.427
 3669SOL    HW211907   5.857   1.492   4.292
 3670SOL     OW11908   2.142   5.248   0.842
 3670SOL    HW111909   2.172   5.296   0.924
 3670SOL    HW211910   2.082   5.172   0.867
 3671SOL     OW11911   5.983   0.480   3.152
 3671SOL    HW111912   6.047   0.547   3.191
 3671SOL    HW211913   5.926   0.441   3.225
 3672SOL     OW11914   5.743   1.585   1.212
 3672SOL    HW111915   5.722   1.675   1.251
 3672SOL    HW211916   5.714   1.514   1.275
 3673SOL     OW11917   3.493   0.565   5.977
 3673SOL    HW111918   3.470   0.514   6.060
 3673SOL    HW211919   3.572   0.523   5.933
 3674SOL     OW11920   0.409   0.553   5.666
 3674SOL    HW111921   0.321   0.533   5.710
 3674SOL    HW211922   0.479   0.563   5.736
 3675SOL     OW11923   2.022   3.015   5.089
 3675SOL    HW111924   2.038   3.101   5.041
 3675SOL    HW211925   2.103   2.957   5.081
 3676SOL     OW11926   4.318   4.960   4.512
 3676SOL    HW111927   4.293   5.041   4.459
 3676SOL    HW211928   4.371   4.988   4.592
 3677SOL     OW11929   1.037   6.056   2.711
 3677SOL    HW111930   1.011   6.150   2.735
 3677SOL    HW211931   1.058   6.005   2.794
 3678SOL     OW11932   0.864   3.265   4.049
 3678SOL    HW111933   0.852   3.359   4.018
 3678SOL    HW211934   0.961   3.242   4.050
 3679SOL     OW11935   1.142   1.162   2.851
 3679SOL    HW111936   1.237   1.171   2.881
 3679SOL    HW211937   1.128   1.071   2.811
 3680SOL     OW11938   6.246   2.966   3.784
 3680SOL    HW111939   6.168   2.963   3.721
 3680SOL    HW211940   6.261   2.875   3.823
 3681SOL     OW11941   0.432   0.465   6.105
 3681SOL    HW111942   0.442   0.543   6.168
 3681SOL    HW211943   0.512   0.406   6.112
 3682SOL     OW11944   6.229   2.479   6.031
 3682SOL    HW111945   6.282   2.500   6.114
 3682SOL    HW211946   6.212   2.563   5.980
 3683SOL     OW11947   6.843   0.485   4.755
 3683SOL    HW111948   6.868   0.389   4.767
 3683SOL    HW211949   6.910   0.530   4.697
 3684SOL     OW11950   1.203   3.421   0.476
 3684SOL    HW111951   1.121   3.430   0.419
 3684SOL    HW211952   1.214   3.504   0.531
 3685SOL     OW11953   6.024   6.324   5.715
 3685SOL    HW111954   6.035   6.373   5.801
 3685SOL    HW211955   5.940   6.354   5.669
 3686SOL     OW11956   6.277   5.283   3.364
 3686SOL    HW111957   6.287   5.270   3.266
 3686SOL    HW211958   6.259   5.379   3.384
 3687SOL     OW11959   3.076   6.128   5.815
 3687SOL    HW111960   2.993   6.074   5.803
 3687SOL    HW211961   3.055   6.211   5.867
 3688SOL     OW11962   1.114   4.057   7.006
 3688SOL    HW111963   1.141   4.149   0.012
 3688SOL    HW211964   1.193   4.009   6.969
 3689SOL     OW11965   0.889   0.501   5.706
 3689SOL    HW111966   0.822   0.575   5.698
 3689SOL    HW211967   0.910   0.465   5.615
 3690SOL     OW11968   3.860   0.339   6.262
 3690SOL    HW111969   3.950   0.350   6.304
 3690SOL    HW211970   3.823   0.428   6.237
 3691SOL     OW11971   2.215   3.048   6.833
 3691SOL    HW111972   2.275   3.116   6.792
 3691SOL    HW211973   2.144   3.023   6.767
 3692SOL     OW11974   1.172   6.047   5.027
 3692SOL    HW111975   1.267   6.066   5.003
 3692SOL    HW211976   1.168   5.966   5.086
 3693SOL     OW11977   1.647   3.289   2.841
 3693SOL    HW111978   1.735   3.279   2.796
 3693SOL    HW211979   1.581   3.225   2.801
 3694SOL     OW11980   1.020   4.722   2.552
 3694SOL    HW111981   0.973   4.785   2.614
 3694SOL    HW211982   1.005   4.752   2.458
 3695SOL     OW11983   0.634   2.573   2.719
 3695SOL    HW111984   0.569   2.526   2.780
 3695SOL    HW211985   0.627   2.671   2.732
 3696SOL     OW11986   4.099   5.431   5.190
 3696SOL    HW111987   4.131   5.518   5.227
 3696SOL    HW211988   4.177   5.372   5.171
 3697SOL     OW11989   6.940   5.751   3.519
 3697SOL    HW111990   0.011   5.786   3.531
 3697SOL    HW211991   6.943   5.672   3.457
 3698SOL     OW11992   3.556   6.324   4.838
 3698SOL    HW111993   3.470   6.355   4.797
 3698SOL    HW211994   3.550   6.226   4.857
 3699SOL     OW11995   6.781   3.588   3.050
 3699SOL    HW111996   6.861   3.648   3.047
 3699SOL    HW211997   6.705   3.636   3.092
 3700SOL     OW11998   5.786   0.546   3.789
 3700SOL    HW111999   5.886   0.552   3.787
 3700SOL    HW212000   5.747   0.616   3.730
 3701SOL     OW12001   0.684   1.068   3.275
 3701SOL    HW112002   0.622   1.102   3.205
 3701SOL    HW212003   0.660   1.108   3.364
 3702SOL     OW12004   4.294   0.322   2.307
 3702SOL    HW112005   4.216   0.315   2.245
 3702SOL    HW212006   4.379   0.308   2.255
 3703SOL     OW12007   4.166   3.502   6.199
 3703SOL    HW112008   4.121   3.575   6.250
 3703SOL    HW212009   4.247   3.471   6.249
 3704SOL     OW12010   2.667   0.753   1.643
 3704SOL    HW112011   2.766   0.741   1.651
 3704SOL    HW212012   2.648   0.817   1.568
 3705SOL     OW12013   4.945   6.652   4.220
 3705SOL    HW112014   5.002   6.695   4.290
 3705SOL    HW212015   4.856   6.698   4.216
 3706SOL     OW12016   0.685   2.946   4.810
 3706SOL    HW112017   0.664   2.874   4.744
 3706SOL    HW212018   0.770   2.992   4.784
 3707SOL     OW12019   5.202   3.476   5.090
 3707SOL    HW112020   5.173   3.479   5.186
 3707SOL    HW212021   5.281   3.537   5.078
 3708SOL     OW12022   6.157   0.887   6.482
 3708SOL    HW112023   6.254   0.876   6.504
 3708SOL    HW212024   6.102   0.850   6.557
 3709SOL     OW12025   3.767   0.838   7.005
 3709SOL    HW112026   3.785   0.873   0.075
 3709SOL    HW212027   3.743   0.741   7.010
 3710SOL     OW12028   6.728   5.668   6.990
 3710SOL    HW112029   6.735   5.609   0.048
 3710SOL    HW212030   6.659   5.631   6.928
 3711SOL     OW12031   0.103   5.976   2.214
 3711SOL    HW112032   0.199   6.003   2.225
 3711SOL    HW212033   0.047   6.056   2.194
 3712SOL     OW12034   7.013   5.698   6.628
 3712SOL    HW112035   0.056   5.764   6.589
 3712SOL    HW212036   7.013   5.705   6.727
 3713SOL     OW12037   1.516   6.258   4.889
 3713SOL    HW112038   1.444   6.306   4.939
 3713SOL    HW212039   1.572   6.325   4.840
 3714SOL     OW12040   5.161   6.007   5.027
 3714SOL    HW112041   5.203   5.969   4.945
 3714SOL    HW212042   5.081   6.061   5.002
 3715SOL     OW12043   5.715   3.849   4.719
 3715SOL    HW112044   5.622   3.846   4.682
 3715SOL    HW212045   5.711   3.856   4.818
 3716SOL     OW12046   0.016   6.473   4.236
 3716SOL    HW112047   0.051   6.539   4.169
 3716SOL    HW212048   0.029   6.510   4.328
 3717SOL     OW12049   6.356   5.463   0.011
 3717SOL    HW112050   6.448   5.423   0.003
 3717SOL    HW212051   6.338   5.483   0.107
 3718SOL     OW12052   2.601   6.360   6.066
 3718SOL    HW112053   2.618   6.458   6.079
 3718SOL    HW212054   2.505   6.340   6.085
 3719SOL     OW12055   4.980   4.172   0.757
 3719SOL    HW112056   4.972   4.131   0.847
 3719SOL    HW212057   4.890   4.173   0.712
 3720SOL     OW12058   5.662   2.147   6.245
 3720SOL    HW112059   5.672   2.133   6.344
 3720SOL    HW212060   5.712   2.075   6.196
 3721SOL     OW12061   5.408   4.668   0.515
 3721SOL    HW112062   5.405   4.665   0.615
 3721SOL    HW212063   5.413   4.574   0.479
 3722SOL     OW12064   0.258   6.750   2.612
 3722SOL    HW112065   0.254   6.839   2.658
 3722SOL    HW212066   0.352   6.716   2.613
 3723SOL     OW12067   6.462   6.357   1.968
 3723SOL    HW112068   6.477   6.294   2.044
 3723SOL    HW212069   6.403   6.432   1.998
 3724SOL     OW12070   2.497   5.186   6.848
 3724SOL    HW112071   2.546   5.271   6.868
 3724SOL    HW212072   2.540   5.139   6.771
 3725SOL     OW12073   5.286   6.209   6.417
 3725SOL    HW112074   5.218   6.136   6.407
 3725SOL    HW212075   5.378   6.169   6.414
 3726SOL     OW12076   6.423   4.712   1.615
 3726SOL    HW112077   6.513   4.755   1.608
 3726SOL    HW212078   6.374   4.723   1.528
 3727SOL     OW12079   0.212   2.972   6.148
 3727SOL    HW112080   0.269   2.913   6.205
 3727SOL    HW212081   0.120   2.933   6.140
 3728SOL     OW12082   1.256   3.650   0.194
 3728SOL    HW112083   1.176   3.706   0.174
 3728SOL    HW212084   1.237   3.555   0.167
 3729SOL     OW12085   0.934   2.449   3.923
 3729SOL    HW112086   1.005   2.410   3.982
 3729SOL    HW212087   0.864   2.494   3.980
 3730SOL     OW12088   2.963   5.987   6.903
 3730SOL    HW112089   2.939   6.001   6.999
 3730SOL    HW212090   2.881   5.998   6.847
 3731SOL     OW12091   4.796   0.382   0.502
 3731SOL    HW112092   4.734   0.356   0.576
 3731SOL    HW212093   4.742   0.408   0.422
 3732SOL     OW12094   1.637   2.661   6.219
 3732SOL    HW112095   1.615   2.598   6.293
 3732SOL    HW212096   1.576   2.645   6.142
 3733SOL     OW12097   1.947   4.040   1.332
 3733SOL    HW112098   2.047   4.035   1.332
 3733SOL    HW212099   1.917   4.107   1.400
 3734SOL     OW12100   4.200   1.641   1.917
 3734SOL    HW112101   4.198   1.612   2.012
 3734SOL    HW212102   4.122   1.702   1.899
 3735SOL     OW12103   1.578   1.832   3.540
 3735SOL    HW112104   1.669   1.810   3.505
 3735SOL    HW212105   1.562   1.930   3.530
 3736SOL     OW12106   0.444   3.053   0.719
 3736SOL    HW112107   0.435   3.005   0.632
 3736SOL    HW212108   0.377   3.016   0.784
 3737SOL     OW12109   4.970   6.837   3.171
 3737SOL    HW112110   5.004   6.820   3.264
 3737SOL    HW212111   4.883   6.886   3.175
 3738SOL     OW12112   6.390   6.686   3.414
 3738SOL    HW112113   6.348   6.649   3.332
 3738SOL    HW212114   6.365   6.630   3.493
 3739SOL     OW12115   1.455   4.076   2.545
 3739SOL    HW112116   1.531   4.078   2.610
 3739SOL    HW212117   1.492   4.080   2.452
 3740SOL     OW12118   4.680   0.773   6.740
 3740SOL    HW112119   4.656   0.722   6.822
 3740SOL    HW212120   4.678   0.871   6.760
 3741SOL     OW12121   4.856   3.290   1.819
 3741SOL    HW112122   4.814   3.213   1.867
 3741SOL    HW212123   4.798   3.317   1.741
 3742SOL     OW12124   2.867   2.321   5.534
 3742SOL    HW112125   2.897   2.364   5.449
 3742SOL    HW212126   2.775   2.351   5.556
 3743SOL     OW12127   5.673   4.759   0.896
 3743SOL    HW112128   5.748   4.815   0.862
 3743SOL    HW212129   5.704   4.665   0.909
 3744SOL     OW12130   0.348   5.812   3.149
 3744SOL    HW112131   0.388   5.751   3.081
 3744SOL    HW212132   0.258   5.843   3.118
 3745SOL     OW12133   3.167   5.525   2.756
 3745SOL    HW112134   3.124   5.586   2.823
 3745SOL    HW212135   3.157   5.430   2.786
 3746SOL     OW12136   4.583   1.493   1.898
 3746SOL    HW112137   4.558   1.511   1.993
 3746SOL    HW212138   4.549   1.567   1.840
 3747SOL     OW12139   3.081   6.842   5.910
 3747SOL    HW112140   2.990   6.833   5.867
 3747SOL    HW212141   3.116   6.752   5.933
 3748SOL     OW12142   5.596   0.382   1.835
 3748SOL    HW112143   5.636   0.451   1.775
 3748SOL    HW212144   5.509   0.351   1.796
 3749SOL     OW12145   1.718   6.547   3.943
 3749SOL    HW112146   1.794   6.559   3.879
 3749SOL    HW212147   1.649   6.617   3.926
 3750SOL     OW12148   1.810   4.236   0.357
 3750SOL    HW112149   1.774   4.259   0.267
 3750SOL    HW212150   1.875   4.306   0.386
 3751SOL     OW12151   7.021   3.753   3.052
 3751SOL    HW112152   6.955   3.821   3.019
 3751SOL    HW212153   7.021   3.752   3.152
 3752SOL     OW12154   4.962   1.286   5.160
 3752SOL    HW112155   4.892   1.357   5.146
 3752SOL    HW212156   5.048   1.330   5.185
 3753SOL     OW12157   6.285   0.322   4.858
 3753SOL    HW112158   6.246   0.402   4.814
 3753SOL    HW212159   6.326   0.262   4.789
 3754SOL     OW12160   2.005   0.936   1.816
 3754SOL    HW112161   2.090   0.937   1.867
 3754SOL    HW212162   1.989   1.026   1.774
 3755SOL     OW12163   3.318   5.481   4.662
 3755SOL    HW112164   3.364   5.562   4.626
 3755SOL    HW212165   3.280   5.503   4.752
 3756SOL     OW12166   3.363   5.692   0.038
 3756SOL    HW112167   3.441   5.664   7.004
 3756SOL    HW212168   3.340   5.787   0.018
 3757SOL     OW12169   0.004   5.099   1.926
 3757SOL    HW112170   0.044   5.159   1.996
 3757SOL    HW212171   6.932   5.076   1.951
 3758SOL     OW12172   1.923   1.248   4.634
 3758SOL    HW112173   1.910   1.189   4.714
 3758SOL    HW212174   2.021   1.262   4.618
 3759SOL     OW12175   4.712   0.772   4.892
 3759SOL    HW112176   4.772   0.725   4.828
 3759SOL    HW212177   4.695   0.713   4.971
 3760SOL     OW12178   0.147   0.262   3.504
 3760SOL    HW112179   0.145   0.307   3.593
 3760SOL    HW212180   0.232   0.286   3.457
 3761SOL     OW12181   6.557   1.246   4.626
 3761SOL    HW112182   6.641   1.277   4.581
 3761SOL    HW212183   6.507   1.326   4.661
 3762SOL     OW12184   1.475   3.852   2.301
 3762SOL    HW112185   1.456   3.820   2.393
 3762SOL    HW212186   1.438   3.787   2.234
 3763SOL     OW12187   6.463   3.897   0.654
 3763SOL    HW112188   6.507   3.917   0.742
 3763SOL    HW212189   6.532   3.869   0.588
 3764SOL     OW12190   2.253   0.621   2.799
 3764SOL    HW112191   2.228   0.578   2.885
 3764SOL    HW212192   2.253   0.552   2.726
 3765SOL     OW12193   5.825   2.034   1.669
 3765SOL    HW112194   5.824   1.942   1.630
 3765SOL    HW212195   5.881   2.035   1.751
 3766SOL     OW12196   2.001   2.454   4.322
 3766SOL    HW112197   1.971   2.518   4.393
 3766SOL    HW212198   2.096   2.428   4.339
 3767SOL     OW12199   3.523   4.336   6.291
 3767SOL    HW112200   3.604   4.328   6.233
 3767SOL    HW212201   3.546   4.309   6.384
 3768SOL     OW12202   1.301   0.313   4.638
 3768SOL    HW112203   1.231   0.369   4.683
 3768SOL    HW212204   1.372   0.372   4.601
 3769SOL     OW12205   5.342   5.193   4.930
 3769SOL    HW112206   5.371   5.163   4.840
 3769SOL    HW212207   5.265   5.138   4.962
 3770SOL     OW12208   1.189   1.121   0.152
 3770SOL    HW112209   1.239   1.202   0.121
 3770SOL    HW212210   1.223   1.094   0.242
 3771SOL     OW12211   6.257   4.770   0.633
 3771SOL    HW112212   6.289   4.712   0.558
 3771SOL    HW212213   6.169   4.736   0.667
 3772SOL     OW12214   1.447   6.357   0.466
 3772SOL    HW112215   1.423   6.398   0.378
 3772SOL    HW212216   1.546   6.342   0.469
 3773SOL     OW12217   5.479   4.306   5.701
 3773SOL    HW112218   5.514   4.231   5.645
 3773SOL    HW212219   5.471   4.389   5.645
 3774SOL     OW12220   5.859   4.934   1.997
 3774SOL    HW112221   5.781   4.915   1.938
 3774SOL    HW212222   5.880   4.852   2.052
 3775SOL     OW12223   3.864   4.897   3.774
 3775SOL    HW112224   3.906   4.842   3.702
 3775SOL    HW212225   3.933   4.920   3.843
 3776SOL     OW12226   3.770   2.743   6.863
 3776SOL    HW112227   3.780   2.710   6.769
 3776SOL    HW212228   3.827   2.824   6.876
 3777SOL     OW12229   2.617   5.800   3.246
 3777SOL    HW112230   2.614   5.811   3.146
 3777SOL    HW212231   2.694   5.741   3.270
 3778SOL     OW12232   1.740   6.681   4.501
 3778SOL    HW112233   1.731   6.730   4.588
 3778SOL    HW212234   1.653   6.638   4.478
 3779SOL     OW12235   0.506   5.281   0.371
 3779SOL    HW112236   0.437   5.294   0.299
 3779SOL    HW212237   0.462   5.250   0.455
 3780SOL     OW12238   0.107   2.777   2.872
 3780SOL    HW112239   0.204   2.761   2.850
 3780SOL    HW212240   0.052   2.702   2.836
 3781SOL     OW12241   0.788   6.636   4.913
 3781SOL    HW112242   0.768   6.558   4.854
 3781SOL    HW212243   0.707   6.659   4.966
 3782SOL     OW12244   3.950   6.118   2.230
 3782SOL    HW112245   3.985   6.116   2.137
 3782SOL    HW212246   3.851   6.110   2.230
 3783SOL     OW12247   5.495   4.891   4.948
 3783SOL    HW112248   5.402   4.915   4.920
 3783SOL    HW212249   5.556   4.895   4.869
 3784SOL     OW12250   5.218   2.625   1.969
 3784SOL    HW112251   5.199   2.694   2.040
 3784SOL    HW212252   5.210   2.668   1.879
 3785SOL     OW12253   0.672   3.384   5.321
 3785SOL    HW112254   0.620   3.464   5.294
 3785SOL    HW212255   0.648   3.307   5.262
 3786SOL     OW12256   2.106   2.358   3.230
 3786SOL    HW112257   2.014   2.322   3.212
 3786SOL    HW212258   2.153   2.372   3.143
 3787SOL     OW12259   4.507   0.509   3.391
 3787SOL    HW112260   4.410   0.483   3.397
 3787SOL    HW212261   4.538   0.500   3.297
 3788SOL     OW12262   6.631   4.248   4.699
 3788SOL    HW112263   6.559   4.281   4.761
 3788SOL    HW212264   6.663   4.159   4.730
 3789SOL     OW12265   0.537   3.284   2.814
 3789SOL    HW112266   0.485   3.206   2.848
 3789SOL    HW212267   0.622   3.293   2.865
 3790SOL     OW12268   1.034   5.830   6.512
 3790SOL    HW112269   1.061   5.801   6.604
 3790SOL    HW212270   1.007   5.927   6.515
 3791SOL     OW12271   4.977   1.666   6.376
 3791SOL    HW112272   4.891   1.624   6.403
 3791SOL    HW212273   4.977   1.682   6.277
 3792SOL     OW12274   1.188   1.323   4.162
 3792SOL    HW112275   1.185   1.386   4.240
 3792SOL    HW212276   1.137   1.240   4.185
 3793SOL     OW12277   5.380   6.467   1.180
 3793SOL    HW112278   5.452   6.437   1.117
 3793SOL    HW212279   5.362   6.394   1.246
 3794SOL     OW12280   2.300   2.967   1.309
 3794SOL    HW112281   2.255   2.935   1.226
 3794SOL    HW212282   2.376   2.906   1.331
 3795SOL     OW12283   3.088   5.624   1.067
 3795SOL    HW112284   3.005   5.595   1.114
 3795SOL    HW212285   3.158   5.646   1.135
 3796SOL     OW12286   4.078   1.898   1.297
 3796SOL    HW112287   4.017   1.912   1.375
 3796SOL    HW212288   4.097   1.801   1.285
 3797SOL     OW12289   1.059   3.542   2.890
 3797SOL    HW112290   1.141   3.598   2.878
 3797SOL    HW212291   1.066   3.460   2.834
 3798SOL     OW12292   2.957   6.847   2.642
 3798SOL    HW112293   2.868   6.804   2.632
 3798SOL    HW212294   3.020   6.784   2.688
 3799SOL     OW12295   6.788   2.592   3.419
 3799SOL    HW112296   6.781   2.547   3.330
 3799SOL    HW212297   6.832   2.530   3.484
 3800SOL     OW12298   4.702   1.854   3.047
 3800SOL    HW112299   4.752   1.887   3.126
 3800SOL    HW212300   4.649   1.929   3.007
 3801SOL     OW12301   5.149   6.958   1.993
 3801SOL    HW112302   5.105   0.021   1.967
 3801SOL    HW212303   5.242   6.955   1.955
 3802SOL     OW12304   0.599   1.988   2.735
 3802SOL    HW112305   0.698   1.976   2.725
 3802SOL    HW212306   0.552   1.915   2.685
 3803SOL     OW12307   3.327   3.551   3.869
 3803SOL    HW112308   3.388   3.603   3.929
 3803SOL    HW212309   3.381   3.498   3.804
 3804SOL     OW12310   2.964   1.396   4.169
 3804SOL    HW112311   2.880   1.446   4.191
 3804SOL    HW212312   2.949   1.338   4.088
 3805SOL     OW12313   1.968   2.494   1.415
 3805SOL    HW112314   1.872   2.500   1.388
 3805SOL    HW212315   1.974   2.462   1.510
 3806SOL     OW12316   3.775   3.753   6.369
 3806SOL    HW112317   3.824   3.769   6.283
 3806SOL    HW212318   3.816   3.808   6.441
 3807SOL     OW12319   1.322   4.713   4.383
 3807SOL    HW112320   1.274   4.665   4.457
 3807SOL    HW212321   1.400   4.763   4.420
 3808SOL     OW12322   4.631   0.196   5.772
 3808SOL    HW112323   4.725   0.218   5.795
 3808SOL    HW212324   4.625   0.173   5.675
 3809SOL     OW12325   6.279   2.160   1.944
 3809SOL    HW112326   6.355   2.157   2.009
 3809SOL    HW212327   6.311   2.196   1.857
 3810SOL     OW12328   6.752   2.909   3.253
 3810SOL    HW112329   6.727   2.942   3.344
 3810SOL    HW212330   6.852   2.898   3.247
 3811SOL     OW12331   6.921   6.087   4.541
 3811SOL    HW112332   6.958   6.048   4.457
 3811SOL    HW212333   6.881   6.177   4.521
 3812SOL     OW12334   3.316   5.179   6.167
 3812SOL    HW112335   3.233   5.126   6.184
 3812SOL    HW212336   3.291   5.271   6.135
 3813SOL     OW12337   6.085   3.826   0.919
 3813SOL    HW112338   6.001   3.861   0.960
 3813SOL    HW212339   6.099   3.867   0.829
 3814SOL     OW12340   0.129   0.075   3.722
 3814SOL    HW112341   0.139   0.108   3.629
 3814SOL    HW212342   0.060   0.130   3.770
 3815SOL     OW12343   5.323   2.819   0.823
 3815SOL    HW112344   5.385   2.843   0.898
 3815SOL    HW212345   5.252   2.890   0.815
 3816SOL     OW12346   0.755   6.090   5.155
 3816SOL    HW112347   0.842   6.138   5.156
 3816SOL    HW212348   0.721   6.085   5.061
 3817SOL     OW12349   5.033   3.529   2.351
 3817SOL    HW112350   4.969   3.509   2.425
 3817SOL    HW212351   5.100   3.455   2.345
 3818SOL     OW12352   0.103   0.482   1.155
 3818SOL    HW112353   0.111   0.567   1.103
 3818SOL    HW212354   0.193   0.439   1.162
 3819SOL     OW12355   6.487   4.403   2.795
 3819SOL    HW112356   6.450   4.314   2.822
 3819SOL    HW212357   6.506   4.404   2.697
 3820SOL     OW12358   5.406   6.589   3.856
 3820SOL    HW112359   5.318   6.592   3.903
 3820SOL    HW212360   5.450   6.501   3.874
 3821SOL     OW12361   0.883   0.593   0.847
 3821SOL    HW112362   0.792   0.600   0.806
 3821SOL    HW212363   0.877   0.611   0.945
 3822SOL     OW12364   2.694   6.894   6.683
 3822SOL    HW112365   2.779   6.841   6.688
 3822SOL    HW212366   2.631   6.849   6.620
 3823SOL     OW12367   4.738   4.590   6.648
 3823SOL    HW112368   4.812   4.655   6.662
 3823SOL    HW212369   4.762   4.502   6.689
 3824SOL     OW12370   1.074   2.177   0.842
 3824SOL    HW112371   1.118   2.204   0.756
 3824SOL    HW212372   1.109   2.234   0.917
 3825SOL     OW12373   1.305   4.283   1.083
 3825SOL    HW112374   1.348   4.277   0.993
 3825SOL    HW212375   1.367   4.246   1.152
 3826SOL     OW12376   0.039   3.701   1.849
 3826SOL    HW112377   0.060   3.616   1.897
 3826SOL    HW212378   0.058   3.779   1.908
 3827SOL     OW12379   0.427   0.598   1.657
 3827SOL    HW112380   0.469   0.569   1.743
 3827SOL    HW212381   0.375   0.682   1.672
 3828SOL     OW12382   3.526   4.091   4.498
 3828SOL    HW112383   3.478   4.056   4.579
 3828SOL    HW212384   3.620   4.115   4.524
 3829SOL     OW12385   0.427   4.749   1.988
 3829SOL    HW112386   0.358   4.800   1.937
 3829SOL    HW212387   0.515   4.795   1.982
 3830SOL     OW12388   0.388   0.953   5.330
 3830SOL    HW112389   0.296   0.929   5.361
 3830SOL    HW212390   0.384   1.034   5.272
 3831SOL     OW12391   4.366   1.979   2.871
 3831SOL    HW112392   4.402   2.003   2.961
 3831SOL    HW212393   4.330   2.061   2.827
 3832SOL     OW12394   6.599   0.742   2.559
 3832SOL    HW112395   6.683   0.695   2.531
 3832SOL    HW212396   6.522   0.705   2.508
 3833SOL     OW12397   1.934   6.755   6.620
 3833SOL    HW112398   2.033   6.763   6.604
 3833SOL    HW212399   1.896   6.682   6.564
 3834SOL     OW12400   4.161   4.153   0.889
 3834SOL    HW112401   4.223   4.118   0.818
 3834SOL    HW212402   4.067   4.129   0.865
 3835SOL     OW12403   3.992   5.796   5.107
 3835SOL    HW112404   4.076   5.835   5.146
 3835SOL    HW212405   3.913   5.839   5.150
 3836SOL     OW12406   0.753   4.767   5.447
 3836SOL    HW112407   0.724   4.685   5.397
 3836SOL    HW212408   0.816   4.740   5.520
 3837SOL     OW12409   4.489   5.312   5.340
 3837SOL    HW112410   4.413   5.265   5.295
 3837SOL    HW212411   4.477   5.411   5.330
 3838SOL     OW12412   1.647   2.186   3.291
 3838SOL    HW112413   1.576   2.232   3.344
 3838SOL    HW212414   1.605   2.127   3.222
 3839SOL     OW12415   4.373   1.007   2.779
 3839SOL    HW112416   4.389   1.032   2.874
 3839SOL    HW212417   4.274   1.004   2.762
 3840SOL     OW12418   2.731   1.745   6.199
 3840SOL    HW112419   2.781   1.817   6.248
 3840SOL    HW212420   2.782   1.718   6.118
 3841SOL     OW12421   1.270   3.986   4.651
 3841SOL    HW112422   1.332   4.053   4.610
 3841SOL    HW212423   1.300   3.964   4.743
 3842SOL     OW12424   2.446   2.681   4.049
 3842SOL    HW112425   2.437   2.699   4.147
 3842SOL    HW212426   2.479   2.588   4.035
 3843SOL     OW12427   5.427   3.532   0.875
 3843SOL    HW112428   5.418   3.468   0.951
 3843SOL    HW212429   5.493   3.497   0.809
 3844SOL     OW12430   1.429   3.919   6.660
 3844SOL    HW112431   1.454   3.963   6.747
 3844SOL    HW212432   1.495   3.847   6.639
 3845SOL     OW12433   2.895   5.748   6.394
 3845SOL    HW112434   2.842   5.744   6.310
 3845SOL    HW212435   2.834   5.740   6.473
 3846SOL     OW12436   0.895   4.250   4.253
 3846SOL    HW112437   0.910   4.156   4.223
 3846SOL    HW212438   0.891   4.253   4.353
 3847SOL     OW12439   4.938   2.631   4.763
 3847SOL    HW112440   4.986   2.680   4.835
 3847SOL    HW212441   4.854   2.679   4.740
 3848SOL     OW12442   4.896   3.910   2.268
 3848SOL    HW112443   4.944   3.845   2.209
 3848SOL    HW212444   4.925   4.003   2.246
 3849SOL     OW12445   0.741   0.667   6.142
 3849SOL    HW112446   0.650   0.679   6.180
 3849SOL    HW212447   0.761   0.570   6.132
 3850SOL     OW12448   3.367   2.899   1.505
 3850SOL    HW112449   3.366   2.817   1.563
 3850SOL    HW212450   3.304   2.967   1.542
 3851SOL     OW12451   7.015   4.785   3.216
 3851SOL    HW112452   6.942   4.851   3.232
 3851SOL    HW212453   7.020   4.764   3.118
 3852SOL     OW12454   3.312   6.140   4.270
 3852SOL    HW112455   3.390   6.162   4.211
 3852SOL    HW212456   3.233   6.196   4.243
 3853SOL     OW12457   1.104   2.944   3.147
 3853SOL    HW112458   1.123   3.042   3.156
 3853SOL    HW212459   1.181   2.892   3.185
 3854SOL     OW12460   1.022   2.370   2.694
 3854SOL    HW112461   1.083   2.437   2.735
 3854SOL    HW212462   0.944   2.353   2.754
 3855SOL     OW12463   4.127   6.143   6.716
 3855SOL    HW112464   4.224   6.129   6.738
 3855SOL    HW212465   4.075   6.152   6.801
 3856SOL     OW12466   0.297   1.322   6.106
 3856SOL    HW112467   0.268   1.228   6.087
 3856SOL    HW212468   0.318   1.369   6.021
 3857SOL     OW12469   1.497   6.390   6.495
 3857SOL    HW112470   1.567   6.330   6.457
 3857SOL    HW212471   1.432   6.416   6.424
 3858SOL     OW12472   3.424   1.153   6.194
 3858SOL    HW112473   3.418   1.145   6.094
 3858SOL    HW212474   3.367   1.082   6.236
 3859SOL     OW12475   6.272   0.660   1.989
 3859SOL    HW112476   6.323   0.744   1.971
 3859SOL    HW212477   6.334   0.591   2.026
 3860SOL     OW12478   1.495   1.275   4.501
 3860SOL    HW112479   1.500   1.370   4.468
 3860SOL    HW212480   1.399   1.246   4.503
 3861SOL     OW12481   4.748   5.948   3.012
 3861SOL    HW112482   4.655   5.973   3.038
 3861SOL    HW212483   4.797   6.030   2.980
 3862SOL     OW12484   0.238   0.422   4.898
 3862SOL    HW112485   0.290   0.491   4.849
 3862SOL    HW212486   0.297   0.344   4.919
 3863SOL     OW12487   6.138   1.678   6.967
 3863SOL    HW112488   6.112   1.605   0.009
 3863SOL    HW212489   6.111   1.766   7.005
 3864SOL     OW12490   2.417   0.614   5.095
 3864SOL    HW112491   2.381   0.535   5.144
 3864SOL    HW212492   2.502   0.589   5.048
 3865SOL     OW12493   4.245   1.204   1.366
 3865SOL    HW112494   4.259   1.140   1.442
 3865SOL    HW212495   4.259   1.297   1.399
 3866SOL     OW12496   4.029   0.829   0.199
 3866SOL    HW112497   3.988   0.744   0.233
 3866SOL    HW212498   3.957   0.897   0.183
 3867SOL     OW12499   0.820   4.552   3.412
 3867SOL    HW112500   0.890   4.561   3.482
 3867SOL    HW212501   0.862   4.553   3.322
 3868SOL     OW12502   3.551   0.039   0.034
 3868SOL    HW112503   3.458   0.025   0.067
 3868SOL    HW212504   3.616   0.006   0.102
 3869SOL     OW12505   6.601   2.910   3.934
 3869SOL    HW112506   6.663   2.977   3.893
 3869SOL    HW212507   6.541   2.956   4.000
 3870SOL     OW12508   7.010   6.376   0.771
 3870SOL    HW112509   0.007   6.283   0.802
 3870SOL    HW212510   6.995   6.375   0.672
 3871SOL     OW12511   3.509   0.758   3.067
 3871SOL    HW112512   3.455   0.841   3.078
 3871SOL    HW212513   3.468   0.700   2.997
 3872SOL     OW12514   3.110   3.467   4.019
 3872SOL    HW112515   3.039   3.446   3.952
 3872SOL    HW212516   3.192   3.499   3.971
 3873SOL     OW12517   5.895   4.207   0.973
 3873SOL    HW112518   5.797   4.216   0.954
 3873SOL    HW212519   5.913   4.232   1.068
 3874SOL     OW12520   4.399   0.220   6.968
 3874SOL    HW112521   4.404   0.132   6.920
 3874SOL    HW212522   4.307   0.257   6.960
 3875SOL     OW12523   2.113   3.254   3.182
 3875SOL    HW112524   2.094   3.299   3.095
 3875SOL    HW212525   2.181   3.307   3.233
 3876SOL     OW12526   3.842   5.527   1.163
 3876SOL    HW112527   3.861   5.489   1.073
 3876SOL    HW212528   3.818   5.453   1.226
 3877SOL     OW12529   5.536   2.379   1.388
 3877SOL    HW112530   5.508   2.451   1.450
 3877SOL    HW212531   5.519   2.290   1.430
 3878SOL     OW12532   4.415   6.246   4.557
 3878SOL    HW112533   4.433   6.251   4.459
 3878SOL    HW212534   4.410   6.338   4.595
 3879SOL     OW12535   6.354   5.747   0.838
 3879SOL    HW112536   6.332   5.758   0.935
 3879SOL    HW212537   6.434   5.803   0.815
 3880SOL     OW12538   5.226   3.913   4.589
 3880SOL    HW112539   5.209   3.840   4.522
 3880SOL    HW212540   5.268   3.991   4.544
 3881SOL     OW12541   1.571   3.620   1.247
 3881SOL    HW112542   1.472   3.621   1.235
 3881SOL    HW212543   1.597   3.535   1.294
 3882SOL     OW12544   0.762   1.417   5.888
 3882SOL    HW112545   0.679   1.468   5.909
 3882SOL    HW212546   0.744   1.319   5.896
 3883SOL     OW12547   3.751   1.528   2.339
 3883SOL    HW112548   3.681   1.569   2.397
 3883SOL    HW212549   3.823   1.488   2.396
 3884SOL     OW12550   0.945   6.013   2.091
 3884SOL    HW112551   0.957   5.918   2.120
 3884SOL    HW212552   0.904   6.066   2.165
 3885SOL     OW12553   6.324   5.575   2.598
 3885SOL    HW112554   6.353   5.564   2.503
 3885SOL    HW212555   6.360   5.661   2.634
 3886SOL     OW12556   4.814   5.964   5.048
 3886SOL    HW112557   4.765   5.911   4.979
 3886SOL    HW212558   4.843   6.051   5.008
 3887SOL     OW12559   1.396   0.166   6.780
 3887SOL    HW112560   1.445   0.191   6.864
 3887SOL    HW212561   1.458   0.169   6.702
 3888SOL     OW12562   6.366   0.142   5.586
 3888SOL    HW112563   6.345   0.175   5.494
 3888SOL    HW212564   6.446   0.191   5.622
 3889SOL     OW12565   6.702   3.848   0.415
 3889SOL    HW112566   6.744   3.766   0.455
 3889SOL    HW212567   6.762   3.926   0.429
 3890SOL     OW12568   6.556   4.529   3.188
 3890SOL    HW112569   6.456   4.521   3.189
 3890SOL    HW212570   6.588   4.563   3.276
 3891SOL     OW12571   5.515   3.860   4.272
 3891SOL    HW112572   5.512   3.760   4.263
 3891SOL    HW212573   5.609   3.888   4.293
 3892SOL     OW12574   6.984   1.996   1.519
 3892SOL    HW112575   7.011   2.090   1.543
 3892SOL    HW212576   0.024   1.932   1.564
 3893SOL     OW12577   4.343   3.463   6.899
 3893SOL    HW112578   4.377   3.375   6.931
 3893SOL    HW212579   4.275   3.498   6.963
 3894SOL     OW12580   4.500   0.716   0.430
 3894SOL    HW112581   4.591   0.685   0.455
 3894SOL    HW212582   4.456   0.759   0.509
 3895SOL     OW12583   1.127   0.646   5.807
 3895SOL    HW112584   1.112   0.711   5.881
 3895SOL    HW212585   1.041   0.599   5.787
 3896SOL     OW12586   6.989   1.156   5.478
 3896SOL    HW112587   0.029   1.082   5.454
 3896SOL    HW212588   6.900   1.118   5.505
 3897SOL     OW12589   3.793   5.704   2.563
 3897SOL    HW112590   3.836   5.661   2.484
 3897SOL    HW212591   3.694   5.703   2.552
 3898SOL     OW12592   2.682   2.954   5.845
 3898SOL    HW112593   2.586   2.964   5.819
 3898SOL    HW212594   2.689   2.947   5.944
 3899SOL     OW12595   4.430   6.712   5.287
 3899SOL    HW112596   4.479   6.798   5.301
 3899SOL    HW212597   4.332   6.731   5.283
 3900SOL     OW12598   4.831   3.125   3.664
 3900SOL    HW112599   4.740   3.168   3.662
 3900SOL    HW212600   4.887   3.162   3.590
 3901SOL     OW12601   2.809   0.635   5.661
 3901SOL    HW112602   2.760   0.555   5.627
 3901SOL    HW212603   2.906   0.627   5.640
 3902SOL     OW12604   6.162   2.972   1.917
 3902SOL    HW112605   6.194   3.030   1.842
 3902SOL    HW212606   6.148   2.879   1.884
 3903SOL     OW12607   3.935   5.552   6.795
 3903SOL    HW112608   3.856   5.521   6.743
 3903SOL    HW212609   4.017   5.543   6.739
 3904SOL     OW12610   2.661   1.306   5.732
 3904SOL    HW112611   2.602   1.290   5.811
 3904SOL    HW212612   2.644   1.397   5.695
 3905SOL     OW12613   0.332   0.121   6.837
 3905SOL    HW112614   0.358   0.093   6.929
 3905SOL    HW212615   0.244   0.169   6.841
 3906SOL     OW12616   5.700   6.055   5.342
 3906SOL    HW112617   5.642   5.976   5.362
 3906SOL    HW212618   5.790   6.042   5.384
 3907SOL     OW12619   5.760   1.111   3.627
 3907SOL    HW112620   5.811   1.141   3.708
 3907SOL    HW212621   5.665   1.093   3.652
 3908SOL     OW12622   1.225   2.201   0.335
 3908SOL    HW112623   1.236   2.106   0.366
 3908SOL    HW212624   1.306   2.230   0.286
 3909SOL     OW12625   6.916   5.919   5.556
 3909SOL    HW112626   6.819   5.942   5.547
 3909SOL    HW212627   6.948   5.874   5.473
 3910SOL     OW12628   3.852   3.518   2.615
 3910SOL    HW112629   3.850   3.421   2.590
 3910SOL    HW212630   3.937   3.537   2.664
 3911SOL     OW12631   4.499   1.608   5.932
 3911SOL    HW112632   4.488   1.705   5.913
 3911SOL    HW212633   4.585   1.576   5.893
 3912SOL     OW12634   4.832   1.070   5.294
 3912SOL    HW112635   4.886   1.154   5.296
 3912SOL    HW212636   4.807   1.049   5.199
 3913SOL     OW12637   2.435   6.612   6.733
 3913SOL    HW112638   2.465   6.620   6.828
 3913SOL    HW212639   2.344   6.570   6.730
 3914SOL     OW12640   3.276   0.831   0.905
 3914SOL    HW112641   3.344   0.896   0.939
 3914SOL    HW212642   3.235   0.867   0.821
 3915SOL     OW12643   4.790   5.101   1.761
 3915SOL    HW112644   4.733   5.171   1.805
 3915SOL    HW212645   4.776   5.104   1.662
 3916SOL     OW12646   1.293   0.081   4.008
 3916SOL    HW112647   1.255   7.015   4.033
 3916SOL    HW212648   1.244   0.118   3.929
 3917SOL     OW12649   6.136   5.952   0.168
 3917SOL    HW112650   6.049   5.941   0.120
 3917SOL    HW212651   6.210   5.965   0.101
 3918SOL     OW12652   5.013   6.103   1.372
 3918SOL    HW112653   5.066   6.183   1.402
 3918SOL    HW212654   4.985   6.050   1.451
 3919SOL     OW12655   3.367   6.482   6.925
 3919SOL    HW112656   3.275   6.454   6.953
 3919SOL    HW212657   3.390   6.569   6.967
 3920SOL     OW12658   3.529   3.183   0.782
 3920SOL    HW112659   3.464   3.120   0.825
 3920SOL    HW212660   3.621   3.143   0.787
 3921SOL     OW12661   0.666   3.600   1.154
 3921SOL    HW112662   0.582   3.558   1.188
 3921SOL    HW212663   0.729   3.530   1.123
 3922SOL     OW12664   6.600   3.488   1.922
 3922SOL    HW112665   6.691   3.457   1.896
 3922SOL    HW212666   6.607   3.556   1.995
 3923SOL     OW12667   6.340   1.495   6.824
 3923SOL    HW112668   6.310   1.520   6.733
 3923SOL    HW212669   6.299   1.556   6.891
 3924SOL     OW12670   0.381   5.056   3.447
 3924SOL    HW112671   0.384   4.963   3.484
 3924SOL    HW212672   0.393   5.122   3.522
 3925SOL     OW12673   3.254   5.008   1.215
 3925SOL    HW112674   3.169   4.957   1.218
 3925SOL    HW212675   3.238   5.102   1.244
 3926SOL     OW12676   0.100   6.012   3.189
 3926SOL    HW112677   0.078   6.021   3.092
 3926SOL    HW212678   0.106   5.915   3.213
 3927SOL     OW12679   6.569   2.752   3.489
 3927SOL    HW112680   6.495   2.788   3.433
 3927SOL    HW212681   6.639   2.711   3.431
 3928SOL     OW12682   3.440   6.248   5.691
 3928SOL    HW112683   3.366   6.186   5.662
 3928SOL    HW212684   3.424   6.339   5.652
 3929SOL     OW12685   0.156   0.755   5.187
 3929SOL    HW112686   0.171   0.665   5.228
 3929SOL    HW212687   0.134   0.744   5.090
 3930SOL     OW12688   2.368   1.704   4.020
 3930SOL    HW112689   2.455   1.751   4.037
 3930SOL    HW212690   2.382   1.605   4.024
 3931SOL     OW12691   1.711   1.210   1.841
 3931SOL    HW112692   1.708   1.197   1.940
 3931SOL    HW212693   1.625   1.250   1.810
 3932SOL     OW12694   1.659   4.594   3.454
 3932SOL    HW112695   1.676   4.511   3.507
 3932SOL    HW212696   1.704   4.672   3.498
 3933SOL     OW12697   2.430   6.166   6.911
 3933SOL    HW112698   2.460   6.082   6.958
 3933SOL    HW212699   2.488   6.182   6.831
 3934SOL     OW12700   6.978   1.224   0.496
 3934SOL    HW112701   0.004   1.297   0.543
 3934SOL    HW212702   6.943   1.257   0.408
 3935SOL     OW12703   2.780   6.765   0.174
 3935SOL    HW112704   2.792   6.670   0.201
 3935SOL    HW212705   2.865   6.815   0.190
 3936SOL     OW12706   0.617   5.002   5.540
 3936SOL    HW112707   0.562   4.967   5.616
 3936SOL    HW212708   0.694   4.939   5.524
 3937SOL     OW12709   6.866   1.509   3.580
 3937SOL    HW112710   6.873   1.591   3.636
 3937SOL    HW212711   6.812   1.440   3.628
 3938SOL     OW12712   0.335   2.066   3.815
 3938SOL    HW112713   0.430   2.098   3.807
 3938SOL    HW212714   0.323   2.018   3.902
 3939SOL     OW12715   2.342   1.843   2.786
 3939SOL    HW112716   2.425   1.889   2.753
 3939SOL    HW212717   2.262   1.880   2.737
 3940SOL     OW12718   4.847   5.416   1.153
 3940SOL    HW112719   4.813   5.412   1.247
 3940SOL    HW212720   4.910   5.339   1.137
 3941SOL     OW12721   4.427   3.013   6.403
 3941SOL    HW112722   4.477   2.943   6.352
 3941SOL    HW212723   4.487   3.051   6.474
 3942SOL     OW12724   0.326   6.872   6.774
 3942SOL    HW112725   0.313   6.970   6.785
 3942SOL    HW212726   0.362   6.833   6.859
 3943SOL     OW12727   6.938   3.573   3.366
 3943SOL    HW112728   0.000   3.627   3.364
 3943SOL    HW212729   6.866   3.628   3.409
 3944SOL     OW12730   4.776   2.840   4.960
 3944SOL    HW112731   4.751   2.811   5.052
 3944SOL    HW212732   4.874   2.862   4.958
 3945SOL     OW12733   0.065   1.547   0.968
 3945SOL    HW112734   0.088   1.508   1.057
 3945SOL    HW212735   7.015   1.615   0.978
 3946SOL     OW12736   5.298   5.839   5.627
 3946SOL    HW112737   5.347   5.885   5.553
 3946SOL    HW212738   5.277   5.745   5.599
 3947SOL     OW12739   5.675   5.939   0.835
 3947SOL    HW112740   5.622   5.881   0.774
 3947SOL    HW212741   5.767   5.901   0.846
 3948SOL     OW12742   1.319   6.007   1.696
 3948SOL    HW112743   1.366   6.058   1.769
 3948SOL    HW212744   1.387   5.968   1.634
 3949SOL     OW12745   4.833   0.307   3.335
 3949SOL    HW112746   4.849   0.380   3.401
 3949SOL    HW212747   4.887   0.227   3.360
 3950SOL     OW12748   1.902   4.272   1.491
 3950SOL    HW112749   1.832   4.273   1.563
 3950SOL    HW212750   1.911   4.363   1.451
 3951SOL     OW12751   5.919   6.460   0.662
 3951SOL    HW112752   6.012   6.433   0.685
 3951SOL    HW212753   5.911   6.470   0.562
 3952SOL     OW12754   6.331   3.248   2.868
 3952SOL    HW112755   6.388   3.247   2.951
 3952SOL    HW212756   6.317   3.154   2.837
 3953SOL     OW12757   3.891   4.505   1.615
 3953SOL    HW112758   3.925   4.442   1.544
 3953SOL    HW212759   3.969   4.548   1.660
 3954SOL     OW12760   4.621   4.947   5.238
 3954SOL    HW112761   4.528   4.914   5.251
 3954SOL    HW212762   4.620   5.029   5.181
 3955SOL     OW12763   3.087   5.789   6.744
 3955SOL    HW112764   3.048   5.871   6.785
 3955SOL    HW212765   3.046   5.707   6.785
 3956SOL     OW12766   7.020   0.989   3.625
 3956SOL    HW112767   0.002   1.066   3.689
 3956SOL    HW212768   0.091   0.955   3.608
 3957SOL     OW12769   4.565   6.581   4.027
 3957SOL    HW112770   4.622   6.586   3.944
 3957SOL    HW212771   4.508   6.499   4.023
 3958SOL     OW12772   6.051   1.064   4.963
 3958SOL    HW112773   5.984   1.020   4.902
 3958SOL    HW212774   6.084   1.148   4.920
 3959SOL     OW12775   4.262   6.638   0.476
 3959SOL    HW112776   4.235   6.553   0.520
 3959SOL    HW212777   4.196   6.661   0.405
 3960SOL     OW12778   4.657   1.736   6.754
 3960SOL    HW112779   4.606   1.771   6.676
 3960SOL    HW212780   4.602   1.669   6.803
 3961SOL     OW12781   5.161   1.980   2.417
 3961SOL    HW112782   5.194   2.067   2.381
 3961SOL    HW212783   5.141   1.918   2.341
 3962SOL     OW12784   2.550   3.989   0.319
 3962SOL    HW112785   2.612   3.914   0.343
 3962SOL    HW212786   2.487   4.007   0.395
 3963SOL     OW12787   4.662   4.765   4.088
 3963SOL    HW112788   4.651   4.852   4.041
 3963SOL    HW212789   4.600   4.697   4.049
 3964SOL     OW12790   4.600   4.783   3.730
 3964SOL    HW112791   4.622   4.868   3.682
 3964SOL    HW212792   4.533   4.731   3.677
 3965SOL     OW12793   4.865   3.081   5.762
 3965SOL    HW112794   4.802   3.043   5.829
 3965SOL    HW212795   4.895   3.172   5.792
 3966SOL     OW12796   5.216   6.144   0.016
 3966SOL    HW112797   5.120   6.158   7.010
 3966SOL    HW212798   5.248   6.225   0.064
 3967SOL     OW12799   2.163   3.276   2.307
 3967SOL    HW112800   2.170   3.189   2.357
 3967SOL    HW212801   2.128   3.347   2.368
 3968SOL     OW12802   5.241   0.552   1.386
 3968SOL    HW112803   5.198   0.474   1.342
 3968SOL    HW212804   5.238   0.541   1.485
 3969SOL     OW12805   1.577   4.101   2.264
 3969SOL    HW112806   1.667   4.098   2.220
 3969SOL    HW212807   1.538   4.009   2.268
 3970SOL     OW12808   6.199   6.281   4.042
 3970SOL    HW112809   6.243   6.205   3.993
 3970SOL    HW212810   6.269   6.341   4.080
 3971SOL     OW12811   2.997   5.224   2.390
 3971SOL    HW112812   2.989   5.170   2.474
 3971SOL    HW212813   3.079   5.196   2.341
 3972SOL     OW12814   1.442   4.565   0.957
 3972SOL    HW112815   1.434   4.488   0.894
 3972SOL    HW212816   1.478   4.534   1.045
 3973SOL     OW12817   1.782   5.392   0.003
 3973SOL    HW112818   1.877   5.367   7.006
 3973SOL    HW212819   1.722   5.317   6.997
 3974SOL     OW12820   1.956   0.655   4.488
 3974SOL    HW112821   2.016   0.732   4.469
 3974SOL    HW212822   1.867   0.690   4.519
 3975SOL     OW12823   5.436   1.107   5.086
 3975SOL    HW112824   5.363   1.077   5.147
 3975SOL    HW212825   5.427   1.060   4.998
 3976SOL     OW12826   1.883   6.135   1.595
 3976SOL    HW112827   1.983   6.134   1.601
 3976SOL    HW212828   1.854   6.210   1.536
 3977SOL     OW12829   2.632   3.932   5.561
 3977SOL    HW112830   2.617   3.888   5.650
 3977SOL    HW212831   2.558   3.997   5.543
 3978SOL     OW12832   5.922   4.921   4.269
 3978SOL    HW112833   5.834   4.954   4.235
 3978SOL    HW212834   5.906   4.841   4.327
 3979SOL     OW12835   2.738   6.896   0.929
 3979SOL    HW112836   2.711   6.911   1.025
 3979SOL    HW212837   2.837   6.901   0.921
 3980SOL     OW12838   5.774   5.856   0.305
 3980SOL    HW112839   5.808   5.940   0.263
 3980SOL    HW212840   5.814   5.847   0.397
 3981SOL     OW12841   2.459   0.850   0.355
 3981SOL    HW112842   2.544   0.817   0.315
 3981SOL    HW212843   2.385   0.785   0.336
 3982SOL     OW12844   2.402   7.009   3.618
 3982SOL    HW112845   2.479   6.966   3.665
 3982SOL    HW212846   2.383   0.077   3.658
 3983SOL     OW12847   5.196   4.811   3.957
 3983SOL    HW112848   5.131   4.884   3.937
 3983SOL    HW212849   5.286   4.836   3.922
 3984SOL     OW12850   6.545   1.356   3.408
 3984SOL    HW112851   6.623   1.405   3.368
 3984SOL    HW212852   6.506   1.294   3.339
 3985SOL     OW12853   2.907   4.364   6.714
 3985SOL    HW112854   2.935   4.422   6.638
 3985SOL    HW212855   2.807   4.358   6.716
 3986SOL     OW12856   5.302   2.393   3.230
 3986SOL    HW112857   5.259   2.429   3.148
 3986SOL    HW212858   5.246   2.320   3.268
 3987SOL     OW12859   3.644   5.356   3.746
 3987SOL    HW112860   3.615   5.284   3.683
 3987SOL    HW212861   3.582   5.434   3.739
 3988SOL     OW12862   3.530   4.143   6.798
 3988SOL    HW112863   3.474   4.142   6.881
 3988SOL    HW212864   3.555   4.049   6.774
 3989SOL     OW12865   6.522   2.533   0.143
 3989SOL    HW112866   6.461   2.566   0.216
 3989SOL    HW212867   6.551   2.609   0.086
 3990SOL     OW12868   4.784   2.074   2.529
 3990SOL    HW112869   4.857   2.142   2.525
 3990SOL    HW212870   4.707   2.105   2.474
 3991SOL     OW12871   5.573   1.073   2.880
 3991SOL    HW112872   5.548   1.152   2.824
 3991SOL    HW212873   5.648   1.023   2.836
 3992SOL     OW12874   3.538   1.972   0.139
 3992SOL    HW112875   3.460   2.016   0.183
 3992SOL    HW212876   3.610   2.039   0.122
 3993SOL     OW12877   1.467   2.013   3.090
 3993SOL    HW112878   1.375   2.012   3.130
 3993SOL    HW212879   1.501   1.920   3.082
 3994SOL     OW12880   2.033   0.407   5.396
 3994SOL    HW112881   1.961   0.395   5.466
 3994SOL    HW212882   2.057   0.503   5.389
 3995SOL     OW12883   2.651   3.341   6.281
 3995SOL    HW112884   2.553   3.342   6.265
 3995SOL    HW212885   2.669   3.305   6.372
 3996SOL     OW12886   1.109   0.310   4.357
 3996SOL    HW112887   1.206   0.292   4.375
 3996SOL    HW212888   1.098   0.336   4.261
 3997SOL     OW12889   5.231   1.856   3.909
 3997SOL    HW112890   5.159   1.859   3.840
 3997SOL    HW212891   5.241   1.762   3.943
 3998SOL     OW12892   4.272   1.493   3.924
 3998SOL    HW112893   4.295   1.492   3.827
 3998SOL    HW212894   4.327   1.562   3.971
 3999SOL     OW12895   5.764   3.727   4.209
 3999SOL    HW112896   5.812   3.780   4.139
 3999SOL    HW212897   5.820   3.721   4.291
 4000SOL     OW12898   3.032   6.246   3.207
 4000SOL    HW112899   2.948   6.258   3.154
 4000SOL    HW212900   3.072   6.157   3.184
 4001SOL     OW12901   2.374   2.182   3.713
 4001SOL    HW112902   2.359   2.120   3.636
 4001SOL    HW212903   2.287   2.210   3.751
 4002SOL     OW12904   3.181   3.886   0.473
 4002SOL    HW112905   3.221   3.829   0.402
 4002SOL    HW212906   3.154   3.828   0.550
 4003SOL     OW12907   3.360   6.578   4.249
 4003SOL    HW112908   3.455   6.591   4.220
 4003SOL    HW212909   3.306   6.657   4.220
 4004SOL     OW12910   5.198   1.976   4.703
 4004SOL    HW112911   5.101   1.979   4.681
 4004SOL    HW212912   5.218   1.895   4.758
 4005SOL     OW12913   5.323   4.630   6.903
 4005SOL    HW112914   5.408   4.649   6.852
 4005SOL    HW212915   5.246   4.671   6.855
 4006SOL     OW12916   4.555   5.380   2.381
 4006SOL    HW112917   4.645   5.402   2.417
 4006SOL    HW212918   4.564   5.348   2.286
 4007SOL     OW12919   0.156   2.172   0.681
 4007SOL    HW112920   0.100   2.254   0.692
 4007SOL    HW212921   0.246   2.187   0.724
 4008SOL     OW12922   2.983   2.088   3.815
 4008SOL    HW112923   2.985   2.088   3.715
 4008SOL    HW212924   3.073   2.114   3.851
 4009SOL     OW12925   4.074   3.498   1.496
 4009SOL    HW112926   3.989   3.545   1.522
 4009SOL    HW212927   4.063   3.400   1.512
 4010SOL     OW12928   2.643   2.830   1.168
 4010SOL    HW112929   2.736   2.804   1.144
 4010SOL    HW212930   2.602   2.882   1.092
 4011SOL     OW12931   0.618   1.084   1.904
 4011SOL    HW112932   0.595   1.019   1.831
 4011SOL    HW212933   0.716   1.105   1.900
 4012SOL     OW12934   5.385   4.865   2.039
 4012SOL    HW112935   5.330   4.927   2.096
 4012SOL    HW212936   5.436   4.919   1.971
 4013SOL     OW12937   3.001   1.665   5.561
 4013SOL    HW112938   2.953   1.625   5.483
 4013SOL    HW212939   3.048   1.593   5.611
 4014SOL     OW12940   5.027   6.660   2.269
 4014SOL    HW112941   5.069   6.583   2.317
 4014SOL    HW212942   5.094   6.734   2.260
 4015SOL     OW12943   5.298   4.759   6.304
 4015SOL    HW112944   5.207   4.772   6.344
 4015SOL    HW212945   5.296   4.785   6.208
 4016SOL     OW12946   2.715   5.689   6.163
 4016SOL    HW112947   2.715   5.623   6.088
 4016SOL    HW212948   2.756   5.775   6.131
 4017SOL     OW12949   0.397   5.774   0.427
 4017SOL    HW112950   0.335   5.848   0.452
 4017SOL    HW212951   0.369   5.690   0.473
 4018SOL     OW12952   4.345   6.369   2.901
 4018SOL    HW112953   4.326   6.371   2.999
 4018SOL    HW212954   4.363   6.274   2.873
 4019SOL     OW12955   5.746   3.453   2.541
 4019SOL    HW112956   5.674   3.520   2.524
 4019SOL    HW212957   5.733   3.375   2.479
 4020SOL     OW12958   4.503   1.671   5.523
 4020SOL    HW112959   4.508   1.577   5.556
 4020SOL    HW212960   4.546   1.732   5.590
 4021SOL     OW12961   4.081   4.853   6.259
 4021SOL    HW112962   3.989   4.888   6.274
 4021SOL    HW212963   4.110   4.802   6.340
 4022SOL     OW12964   4.623   0.730   6.477
 4022SOL    HW112965   4.584   0.641   6.456
 4022SOL    HW212966   4.653   0.731   6.573
 4023SOL     OW12967   6.137   1.628   4.487
 4023SOL    HW112968   6.123   1.613   4.585
 4023SOL    HW212969   6.050   1.619   4.439
 4024SOL     OW12970   3.571   6.700   3.388
 4024SOL    HW112971   3.655   6.747   3.360
 4024SOL    HW212972   3.585   6.658   3.478
 4025SOL     OW12973   0.642   5.370   3.387
 4025SOL    HW112974   0.647   5.446   3.452
 4025SOL    HW212975   0.675   5.287   3.431
 4026SOL     OW12976   5.162   5.681   4.287
 4026SOL    HW112977   5.206   5.624   4.218
 4026SOL    HW212978   5.097   5.743   4.243
 4027SOL     OW12979   3.796   4.553   1.302
 4027SOL    HW112980   3.842   4.639   1.279
 4027SOL    HW212981   3.712   4.572   1.353
 4028SOL     OW12982   1.519   2.443   4.199
 4028SOL    HW112983   1.556   2.476   4.112
 4028SOL    HW212984   1.594   2.411   4.257
 4029SOL     OW12985   2.852   4.062   5.869
 4029SOL    HW112986   2.936   4.033   5.914
 4029SOL    HW212987   2.866   4.151   5.825
 4030SOL     OW12988   0.804   1.792   5.802
 4030SOL    HW112989   0.792   1.801   5.703
 4030SOL    HW212990   0.887   1.740   5.822
 4031SOL     OW12991   4.713   5.567   3.638
 4031SOL    HW112992   4.655   5.633   3.589
 4031SOL    HW212993   4.673   5.476   3.631
 4032SOL     OW12994   6.314   6.462   3.611
 4032SOL    HW112995   6.349   6.449   3.704
 4032SOL    HW212996   6.214   6.466   3.613
 4033SOL     OW12997   3.367   2.898   3.878
 4033SOL    HW112998   3.292   2.849   3.833
 4033SOL    HW212999   3.340   2.922   3.971
 4034SOL     OW13000   5.806   1.337   4.598
 4034SOL    HW113001   5.798   1.415   4.660
 4034SOL    HW213002   5.729   1.275   4.612
 4035SOL     OW13003   0.272   4.168   0.382
 4035SOL    HW113004   0.272   4.253   0.329
 4035SOL    HW213005   0.329   4.100   0.335
 4036SOL     OW13006   6.016   6.425   2.552
 4036SOL    HW113007   5.933   6.426   2.606
 4036SOL    HW213008   6.066   6.511   2.565
 4037SOL     OW13009   1.343   2.913   6.352
 4037SOL    HW113010   1.353   2.831   6.297
 4037SOL    HW213011   1.383   2.898   6.443
 4038SOL     OW13012   4.909   4.784   2.756
 4038SOL    HW113013   4.902   4.884   2.755
 4038SOL    HW213014   4.827   4.744   2.715
 4039SOL     OW13015   5.263   5.465   0.111
 4039SOL    HW113016   5.255   5.391   0.044
 4039SOL    HW213017   5.340   5.447   0.172
 4040SOL     OW13018   2.883   0.162   0.666
 4040SOL    HW113019   2.858   0.137   0.573
 4040SOL    HW213020   2.849   0.092   0.730
 4041SOL     OW13021   0.789   6.219   2.260
 4041SOL    HW113022   0.701   6.262   2.240
 4041SOL    HW213023   0.775   6.139   2.318
 4042SOL     OW13024   5.958   5.524   2.408
 4042SOL    HW113025   5.998   5.613   2.389
 4042SOL    HW213026   6.008   5.480   2.483
 4043SOL     OW13027   5.507   1.903   3.152
 4043SOL    HW113028   5.497   1.956   3.068
 4043SOL    HW213029   5.604   1.893   3.174
 4044SOL     OW13030   5.450   0.195   3.515
 4044SOL    HW113031   5.447   0.150   3.605
 4044SOL    HW213032   5.522   0.264   3.515
 4045SOL     OW13033   2.920   3.912   6.329
 4045SOL    HW113034   3.001   3.946   6.282
 4045SOL    HW213035   2.838   3.948   6.285
 4046SOL     OW13036   0.971   1.993   1.870
 4046SOL    HW113037   1.066   1.972   1.893
 4046SOL    HW213038   0.920   2.017   1.953
 4047SOL     OW13039   2.786   3.849   1.389
 4047SOL    HW113040   2.869   3.888   1.428
 4047SOL    HW213041   2.750   3.779   1.451
 4048SOL     OW13042   5.707   0.538   1.108
 4048SOL    HW113043   5.773   0.532   1.182
 4048SOL    HW213044   5.706   0.632   1.073
 4049SOL     OW13045   6.492   6.085   6.271
 4049SOL    HW113046   6.432   6.161   6.298
 4049SOL    HW213047   6.525   6.039   6.353
 4050SOL     OW13048   1.701   6.342   6.979
 4050SOL    HW113049   1.758   6.303   0.030
 4050SOL    HW213050   1.693   6.276   6.904
 4051SOL     OW13051   2.829   4.182   0.773
 4051SOL    HW113052   2.733   4.175   0.744
 4051SOL    HW213053   2.852   4.103   0.830
 4052SOL     OW13054   0.625   0.561   0.663
 4052SOL    HW113055   0.544   0.618   0.677
 4052SOL    HW213056   0.643   0.552   0.565
 4053SOL     OW13057   3.008   4.839   3.841
 4053SOL    HW113058   2.941   4.830   3.914
 4053SOL    HW213059   3.091   4.882   3.877
 4054SOL     OW13060   2.601   2.661   0.486
 4054SOL    HW113061   2.525   2.682   0.548
 4054SOL    HW213062   2.593   2.567   0.455
 4055SOL     OW13063   2.590   2.432   6.214
 4055SOL    HW113064   2.610   2.527   6.239
 4055SOL    HW213065   2.522   2.394   6.277
 4056SOL     OW13066   4.094   3.531   0.029
 4056SOL    HW113067   4.106   3.536   0.128
 4056SOL    HW213068   4.061   3.618   7.016
 4057SOL     OW13069   5.002   3.081   0.264
 4057SOL    HW113070   4.996   2.998   0.210
 4057SOL    HW213071   5.021   3.159   0.204
 4058SOL     OW13072   2.272   1.456   4.835
 4058SOL    HW113073   2.283   1.356   4.832
 4058SOL    HW213074   2.350   1.498   4.787
 4059SOL     OW13075   1.908   2.327   3.904
 4059SOL    HW113076   1.815   2.294   3.891
 4059SOL    HW213077   1.946   2.288   3.988
 4060SOL     OW13078   3.782   5.233   4.341
 4060SOL    HW113079   3.871   5.208   4.378
 4060SOL    HW213080   3.721   5.154   4.344
 4061SOL     OW13081   3.400   4.440   1.682
 4061SOL    HW113082   3.390   4.362   1.745
 4061SOL    HW213083   3.439   4.517   1.732
 4062SOL     OW13084   3.563   1.569   2.523
 4062SOL    HW113085   3.478   1.517   2.509
 4062SOL    HW213086   3.626   1.515   2.579
 4063SOL     OW13087   3.318   6.493   5.607
 4063SOL    HW113088   3.260   6.438   5.546
 4063SOL    HW213089   3.346   6.576   5.560
 4064SOL     OW13090   1.332   0.747   2.591
 4064SOL    HW113091   1.267   0.697   2.535
 4064SOL    HW213092   1.422   0.745   2.548
 4065SOL     OW13093   0.477   6.696   1.187
 4065SOL    HW113094   0.546   6.653   1.129
 4065SOL    HW213095   0.522   6.752   1.256
 4066SOL     OW13096   5.457   4.441   1.883
 4066SOL    HW113097   5.447   4.468   1.787
 4066SOL    HW213098   5.538   4.485   1.921
 4067SOL     OW13099   5.315   1.786   3.301
 4067SOL    HW113100   5.223   1.770   3.264
 4067SOL    HW213101   5.369   1.837   3.235
 4068SOL     OW13102   4.765   0.990   5.034
 4068SOL    HW113103   4.796   1.064   4.974
 4068SOL    HW213104   4.772   0.903   4.986
 4069SOL     OW13105   5.293   4.651   1.152
 4069SOL    HW113106   5.373   4.706   1.128
 4069SOL    HW213107   5.213   4.711   1.163
 4070SOL     OW13108   1.899   3.821   2.927
 4070SOL    HW113109   1.959   3.897   2.951
 4070SOL    HW213110   1.948   3.757   2.869
 4071SOL     OW13111   1.046   0.653   5.055
 4071SOL    HW113112   1.086   0.737   5.093
 4071SOL    HW213113   0.962   0.676   5.005
 4072SOL     OW13114   1.776   6.880   4.293
 4072SOL    HW113115   1.779   6.789   4.335
 4072SOL    HW213116   1.781   6.950   4.365
 4073SOL     OW13117   2.558   5.904   6.164
 4073SOL    HW113118   2.576   5.895   6.066
 4073SOL    HW213119   2.585   5.819   6.210
 4074SOL     OW13120   0.467   2.221   1.654
 4074SOL    HW113121   0.499   2.126   1.647
 4074SOL    HW213122   0.466   2.263   1.563
 4075SOL     OW13123   4.025   1.745   2.545
 4075SOL    HW113124   4.009   1.805   2.466
 4075SOL    HW213125   3.938   1.726   2.590
 4076SOL     OW13126   2.223   3.668   5.220
 4076SOL    HW113127   2.230   3.647   5.318
 4076SOL    HW213128   2.159   3.743   5.207
 4077SOL     OW13129   3.073   0.355   0.684
 4077SOL    HW113130   3.123   0.346   0.770
 4077SOL    HW213131   3.023   0.271   0.665
 4078SOL     OW13132   6.451   4.440   1.537
 4078SOL    HW113133   6.409   4.513   1.483
 4078SOL    HW213134   6.381   4.374   1.564
 4079SOL     OW13135   1.090   1.473   3.489
 4079SOL    HW113136   1.188   1.491   3.487
 4079SOL    HW213137   1.050   1.496   3.400
 4080SOL     OW13138   3.318   3.562   0.933
 4080SOL    HW113139   3.226   3.594   0.957
 4080SOL    HW213140   3.323   3.545   0.835
 4081SOL     OW13141   2.405   1.608   5.229
 4081SOL    HW113142   2.389   1.653   5.317
 4081SOL    HW213143   2.344   1.648   5.160
 4082SOL     OW13144   0.936   2.675   5.677
 4082SOL    HW113145   0.867   2.677   5.605
 4082SOL    HW213146   1.004   2.604   5.658
 4083SOL     OW13147   5.956   4.306   3.557
 4083SOL    HW113148   5.891   4.357   3.500
 4083SOL    HW213149   6.045   4.303   3.510
 4084SOL     OW13150   4.675   2.288   2.960
 4084SOL    HW113151   4.582   2.322   2.948
 4084SOL    HW213152   4.688   2.206   2.904
 4085SOL     OW13153   3.509   5.508   1.647
 4085SOL    HW113154   3.538   5.475   1.737
 4085SOL    HW213155   3.480   5.603   1.653
 4086SOL     OW13156   6.582   5.349   6.257
 4086SOL    HW113157   6.511   5.343   6.186
 4086SOL    HW213158   6.664   5.389   6.218
 4087SOL     OW13159   2.523   7.007   2.263
 4087SOL    HW113160   2.474   6.995   2.176
 4087SOL    HW213161   2.481   6.948   2.332
 4088SOL     OW13162   6.731   1.028   5.561
 4088SOL    HW113163   6.667   1.086   5.611
 4088SOL    HW213164   6.683   0.985   5.485
 4089SOL     OW13165   7.005   6.200   4.208
 4089SOL    HW113166   7.009   6.296   4.235
 4089SOL    HW213167   7.008   6.193   4.109
 4090SOL     OW13168   1.967   6.684   4.730
 4090SOL    HW113169   1.979   6.646   4.638
 4090SOL    HW213170   1.887   6.743   4.731
 4091SOL     OW13171   1.439   5.195   1.287
 4091SOL    HW113172   1.394   5.241   1.364
 4091SOL    HW213173   1.399   5.227   1.201
 4092SOL     OW13174   4.923   3.163   4.861
 4092SOL    HW113175   4.952   3.259   4.864
 4092SOL    HW213176   4.823   3.160   4.855
 4093SOL     OW13177   5.761   5.301   2.921
 4093SOL    HW113178   5.800   5.212   2.899
 4093SOL    HW213179   5.743   5.307   3.020
 4094SOL     OW13180   0.281   4.974   6.875
 4094SOL    HW113181   0.352   4.956   6.807
 4094SOL    HW213182   0.273   4.896   6.936
 4095SOL     OW13183   0.192   4.488   0.496
 4095SOL    HW113184   0.238   4.416   0.547
 4095SOL    HW213185   0.178   4.458   0.402
 4096SOL     OW13186   1.851   1.598   6.608
 4096SOL    HW113187   1.808   1.558   6.527
 4096SOL    HW213188   1.947   1.570   6.612
 4097SOL     OW13189   0.143   4.136   5.121
 4097SOL    HW113190   0.233   4.093   5.131
 4097SOL    HW213191   0.092   4.089   5.049
 4098SOL     OW13192   2.238   4.784   2.720
 4098SOL    HW113193   2.319   4.786   2.661
 4098SOL    HW213194   2.184   4.867   2.704
 4099SOL     OW13195   4.192   3.976   6.498
 4099SOL    HW113196   4.271   4.005   6.445
 4099SOL    HW213197   4.182   4.034   6.579
 4100SOL     OW13198   1.282   0.837   3.550
 4100SOL    HW113199   1.360   0.890   3.582
 4100SOL    HW213200   1.308   0.742   3.539
 4101SOL     OW13201   6.363   0.650   6.762
 4101SOL    HW113202   6.381   0.689   6.672
 4101SOL    HW213203   6.379   0.552   6.760
 4102SOL     OW13204   1.724   0.474   6.900
 4102SOL    HW113205   1.692   0.550   6.958
 4102SOL    HW213206   1.747   0.396   6.958
 4103SOL     OW13207   0.929   6.871   2.252
 4103SOL    HW113208   0.918   6.918   2.165
 4103SOL    HW213209   0.987   6.790   2.240
 4104SOL     OW13210   0.017   6.267   2.760
 4104SOL    HW113211   6.983   6.247   2.679
 4104SOL    HW213212   0.063   6.355   2.747
 4105SOL     OW13213   4.704   1.272   1.282
 4105SOL    HW113214   4.626   1.215   1.256
 4105SOL    HW213215   4.713   1.271   1.382
 4106SOL     OW13216   0.253   1.414   3.600
 4106SOL    HW113217   0.200   1.464   3.532
 4106SOL    HW213218   0.199   1.405   3.684
 4107SOL     OW13219   0.725   5.704   6.262
 4107SOL    HW113220   0.681   5.768   6.325
 4107SOL    HW213221   0.789   5.754   6.203
 4108SOL     OW13222   0.395   5.205   4.061
 4108SOL    HW113223   0.452   5.177   4.137
 4108SOL    HW213224   0.451   5.249   3.991
 4109SOL     OW13225   6.499   5.724   3.038
 4109SOL    HW113226   6.598   5.738   3.044
 4109SOL    HW213227   6.479   5.646   2.979
 4110SOL     OW13228   4.542   3.240   0.370
 4110SOL    HW113229   4.475   3.188   0.424
 4110SOL    HW213230   4.596   3.177   0.314
 4111SOL     OW13231   6.472   4.365   5.480
 4111SOL    HW113232   6.442   4.454   5.512
 4111SOL    HW213233   6.453   4.296   5.550
 4112SOL     OW13234   4.647   6.920   4.744
 4112SOL    HW113235   4.654   7.019   4.756
 4112SOL    HW213236   4.734   6.877   4.768
 4113SOL     OW13237   4.534   4.463   4.795
 4113SOL    HW113238   4.475   4.462   4.876
 4113SOL    HW213239   4.489   4.514   4.722
 4114SOL     OW13240   6.193   1.941   3.504
 4114SOL    HW113241   6.188   2.018   3.568
 4114SOL    HW213242   6.229   1.861   3.551
 4115SOL     OW13243   2.897   5.450   3.595
 4115SOL    HW113244   2.940   5.368   3.633
 4115SOL    HW213245   2.808   5.426   3.556
 4116SOL     OW13246   5.449   2.637   3.350
 4116SOL    HW113247   5.439   2.597   3.441
 4116SOL    HW213248   5.414   2.573   3.282
 4117SOL     OW13249   1.709   2.601   2.621
 4117SOL    HW113250   1.684   2.585   2.526
 4117SOL    HW213251   1.752   2.519   2.659
 4118SOL     OW13252   6.737   5.985   6.423
 4118SOL    HW113253   6.704   5.992   6.517
 4118SOL    HW213254   6.807   6.054   6.407
 4119SOL     OW13255   2.583   0.660   3.519
 4119SOL    HW113256   2.560   0.735   3.456
 4119SOL    HW213257   2.682   0.659   3.534
 4120SOL     OW13258   2.458   1.345   6.777
 4120SOL    HW113259   2.489   1.380   6.865
 4120SOL    HW213260   2.433   1.421   6.717
 4121SOL     OW13261   0.193   6.987   2.749
 4121SOL    HW113262   0.168   0.055   2.713
 4121SOL    HW213263   0.210   6.994   2.848
 4122SOL     OW13264   6.899   5.440   4.577
 4122SOL    HW113265   6.838   5.493   4.518
 4122SOL    HW213266   6.956   5.503   4.630
 4123SOL     OW13267   4.214   5.027   3.343
 4123SOL    HW113268   4.245   5.079   3.264
 4123SOL    HW213269   4.186   5.089   3.416
 4124SOL     OW13270   6.485   6.247   0.474
 4124SOL    HW113271   6.557   6.314   0.457
 4124SOL    HW213272   6.509   6.160   0.430
 4125SOL     OW13273   5.192   2.245   2.351
 4125SOL    HW113274   5.248   2.324   2.374
 4125SOL    HW213275   5.108   2.246   2.407
 4126SOL     OW13276   1.188   2.829   2.271
 4126SOL    HW113277   1.108   2.769   2.269
 4126SOL    HW213278   1.253   2.800   2.200
 4127SOL     OW13279   3.695   2.164   3.957
 4127SOL    HW113280   3.676   2.262   3.949
 4127SOL    HW213281   3.665   2.132   4.046
 4128SOL     OW13282   0.764   3.157   1.381
 4128SOL    HW113283   0.797   3.184   1.291
 4128SOL    HW213284   0.689   3.217   1.409
 4129SOL     OW13285   3.565   2.930   0.606
 4129SOL    HW113286   3.557   2.965   0.513
 4129SOL    HW213287   3.485   2.874   0.627
 4130SOL     OW13288   6.146   2.831   1.409
 4130SOL    HW113289   6.077   2.768   1.445
 4130SOL    HW213290   6.101   2.909   1.365
 4131SOL     OW13291   5.398   0.522   2.036
 4131SOL    HW113292   5.439   0.610   2.061
 4131SOL    HW213293   5.464   0.466   1.988
 4132SOL     OW13294   6.644   4.456   4.185
 4132SOL    HW113295   6.599   4.371   4.157
 4132SOL    HW213296   6.741   4.438   4.202
 4133SOL     OW13297   5.534   6.527   1.454
 4133SOL    HW113298   5.634   6.538   1.460
 4133SOL    HW213299   5.496   6.601   1.399
 4134SOL     OW13300   2.754   3.025   1.321
 4134SOL    HW113301   2.724   2.938   1.283
 4134SOL    HW213302   2.854   3.030   1.318
 4135SOL     OW13303   0.169   1.989   2.901
 4135SOL    HW113304   0.152   2.000   2.803
 4135SOL    HW213305   0.186   1.893   2.921
 4136SOL     OW13306   0.581   4.059   1.572
 4136SOL    HW113307   0.655   4.080   1.636
 4136SOL    HW213308   0.500   4.110   1.598
 4137SOL     OW13309   1.654   2.923   0.650
 4137SOL    HW113310   1.560   2.903   0.678
 4137SOL    HW213311   1.653   2.977   0.566
 4138SOL     OW13312   4.673   5.857   0.743
 4138SOL    HW113313   4.769   5.858   0.714
 4138SOL    HW213314   4.648   5.947   0.779
 4139SOL     OW13315   1.784   1.752   2.801
 4139SOL    HW113316   1.744   1.725   2.889
 4139SOL    HW213317   1.875   1.711   2.792
 4140SOL     OW13318   2.715   2.440   4.530
 4140SOL    HW113319   2.805   2.407   4.503
 4140SOL    HW213320   2.672   2.375   4.593
 4141SOL     OW13321   3.957   6.337   6.589
 4141SOL    HW113322   4.008   6.254   6.611
 4141SOL    HW213323   3.976   6.407   6.657
 4142SOL     OW13324   6.721   3.913   2.512
 4142SOL    HW113325   6.798   3.973   2.535
 4142SOL    HW213326   6.658   3.909   2.589
 4143SOL     OW13327   5.697   3.384   0.950
 4143SOL    HW113328   5.702   3.407   0.853
 4143SOL    HW213329   5.745   3.453   1.004
 4144SOL     OW13330   5.692   1.669   0.674
 4144SOL    HW113331   5.600   1.704   0.691
 4144SOL    HW213332   5.726   1.622   0.756
 4145SOL     OW13333   0.812   6.358   0.453
 4145SOL    HW113334   0.804   6.361   0.353
 4145SOL    HW213335   0.839   6.448   0.487
 4146SOL     OW13336   5.491   6.535   3.252
 4146SOL    HW113337   5.507   6.572   3.344
 4146SOL    HW213338   5.570   6.556   3.194
 4147SOL     OW13339   5.163   4.586   5.877
 4147SOL    HW113340   5.072   4.595   5.916
 4147SOL    HW213341   5.231   4.623   5.941
 4148SOL     OW13342   2.773   0.530   4.921
 4148SOL    HW113343   2.795   0.462   4.851
 4148SOL    HW213344   2.704   0.593   4.885
 4149SOL     OW13345   1.671   3.208   1.097
 4149SOL    HW113346   1.609   3.251   1.031
 4149SOL    HW213347   1.658   3.109   1.094
 4150SOL     OW13348   6.313   3.131   6.503
 4150SOL    HW113349   6.393   3.085   6.542
 4150SOL    HW213350   6.235   3.119   6.565
 4151SOL     OW13351   2.028   0.014   4.758
 4151SOL    HW113352   1.978   0.100   4.763
 4151SOL    HW213353   2.077   7.021   4.844
 4152SOL     OW13354   3.673   5.142   1.804
 4152SOL    HW113355   3.708   5.095   1.885
 4152SOL    HW213356   3.636   5.231   1.831
 4153SOL     OW13357   6.671   4.874   1.572
 4153SOL    HW113358   6.749   4.819   1.602
 4153SOL    HW213359   6.703   4.965   1.546
 4154SOL     OW13360   6.796   5.654   3.743
 4154SOL    HW113361   6.740   5.728   3.779
 4154SOL    HW213362   6.834   5.680   3.654
 4155SOL     OW13363   0.433   2.350   1.403
 4155SOL    HW113364   0.413   2.447   1.385
 4155SOL    HW213365   0.380   2.293   1.340
 4156SOL     OW13366   6.551   4.658   4.993
 4156SOL    HW113367   6.509   4.672   4.903
 4156SOL    HW213368   6.545   4.742   5.046
 4157SOL     OW13369   6.840   6.639   2.312
 4157SOL    HW113370   6.792   6.724   2.290
 4157SOL    HW213371   6.939   6.655   2.310
 4158SOL     OW13372   1.976   2.452   1.694
 4158SOL    HW113373   2.006   2.476   1.786
 4158SOL    HW213374   1.904   2.384   1.699
 4159SOL     OW13375   2.837   1.923   2.990
 4159SOL    HW113376   2.754   1.880   3.026
 4159SOL    HW213377   2.815   2.016   2.960
 4160SOL     OW13378   6.556   6.851   6.649
 4160SOL    HW113379   6.560   6.951   6.646
 4160SOL    HW213380   6.646   6.815   6.675
 4161SOL     OW13381   2.059   1.843   0.931
 4161SOL    HW113382   2.151   1.818   0.961
 4161SOL    HW213383   2.043   1.807   0.840
 4162SOL     OW13384   6.456   6.044   0.676
 4162SOL    HW113385   6.554   6.028   0.688
 4162SOL    HW213386   6.441   6.102   0.596
 4163SOL     OW13387   4.770   0.081   1.937
 4163SOL    HW113388   4.705   0.022   1.889
 4163SOL    HW213389   4.815   0.029   2.010
 4164SOL     OW13390   6.999   6.248   5.343
 4164SOL    HW113391   6.933   6.177   5.320
 4164SOL    HW213392   6.985   6.327   5.284
 4165SOL     OW13393   4.019   0.808   5.655
 4165SOL    HW113394   4.000   0.756   5.571
 4165SOL    HW213395   4.055   0.898   5.631
 4166SOL     OW13396   5.582   0.778   2.677
 4166SOL    HW113397   5.519   0.701   2.668
 4166SOL    HW213398   5.532   0.863   2.664
 4167SOL     OW13399   2.888   4.910   5.558
 4167SOL    HW113400   2.878   4.813   5.536
 4167SOL    HW213401   2.964   4.922   5.621
 4168SOL     OW13402   6.942   4.675   0.191
 4168SOL    HW113403   6.919   4.712   0.282
 4168SOL    HW213404   6.970   4.750   0.131
 4169SOL     OW13405   5.303   4.388   5.221
 4169SOL    HW113406   5.208   4.361   5.210
 4169SOL    HW213407   5.363   4.316   5.186
 4170SOL     OW13408   5.042   3.087   4.625
 4170SOL    HW113409   4.992   3.160   4.577
 4170SOL    HW213410   5.025   3.094   4.723
 4171SOL     OW13411   1.214   4.423   1.389
 4171SOL    HW113412   1.165   4.496   1.341
 4171SOL    HW213413   1.297   4.400   1.338
 4172SOL     OW13414   3.822   3.368   0.940
 4172SOL    HW113415   3.843   3.466   0.940
 4172SOL    HW213416   3.858   3.326   0.856
 4173SOL     OW13417   4.061   2.845   5.535
 4173SOL    HW113418   4.136   2.900   5.498
 4173SOL    HW213419   4.024   2.786   5.463
 4174SOL     OW13420   4.325   0.639   3.736
 4174SOL    HW113421   4.253   0.632   3.805
 4174SOL    HW213422   4.334   0.734   3.707
 4175SOL     OW13423   2.041   4.277   6.081
 4175SOL    HW113424   2.009   4.371   6.094
 4175SOL    HW213425   2.074   4.266   5.987
 4176SOL     OW13426   4.855   6.294   0.078
 4176SOL    HW113427   4.867   6.296   0.177
 4176SOL    HW213428   4.856   6.388   0.043
 4177SOL     OW13429   5.254   4.779   5.010
 4177SOL    HW113430   5.311   4.700   4.988
 4177SOL    HW213431   5.215   4.816   4.925
 4178SOL     OW13432   4.433   6.609   2.900
 4178SOL    HW113433   4.416   6.511   2.885
 4178SOL    HW213434   4.379   6.662   2.834
 4179SOL     OW13435   5.528   3.842   3.703
 4179SOL    HW113436   5.573   3.754   3.688
 4179SOL    HW213437   5.435   3.838   3.667
 4180SOL     OW13438   5.910   3.169   0.761
 4180SOL    HW113439   5.812   3.163   0.742
 4180SOL    HW213440   5.928   3.131   0.852
 4181SOL     OW13441   5.373   0.252   5.941
 4181SOL    HW113442   5.418   0.277   5.856
 4181SOL    HW213443   5.442   0.239   6.013
 4182SOL     OW13444   0.405   5.745   3.888
 4182SOL    HW113445   0.368   5.692   3.812
 4182SOL    HW213446   0.330   5.781   3.944
 4183SOL     OW13447   1.760   1.248   1.053
 4183SOL    HW113448   1.788   1.180   1.122
 4183SOL    HW213449   1.724   1.201   0.973
 4184SOL     OW13450   3.702   0.664   2.043
 4184SOL    HW113451   3.767   0.722   2.091
 4184SOL    HW213452   3.633   0.630   2.107
 4185SOL     OW13453   0.502   4.311   3.190
 4185SOL    HW113454   0.409   4.341   3.169
 4185SOL    HW213455   0.533   4.356   3.273
 4186SOL     OW13456   2.650   5.723   6.642
 4186SOL    HW113457   2.552   5.725   6.665
 4186SOL    HW213458   2.674   5.632   6.606
 4187SOL     OW13459   1.992   3.711   6.818
 4187SOL    HW113460   2.057   3.635   6.809
 4187SOL    HW213461   2.033   3.794   6.779
 4188SOL     OW13462   5.588   0.540   5.012
 4188SOL    HW113463   5.652   0.481   4.963
 4188SOL    HW213464   5.496   0.526   4.977
 4189SOL     OW13465   4.046   5.083   3.624
 4189SOL    HW113466   4.030   5.089   3.722
 4189SOL    HW213467   3.983   5.017   3.583
 4190SOL     OW13468   0.663   6.580   1.031
 4190SOL    HW113469   0.666   6.590   0.931
 4190SOL    HW213470   0.757   6.577   1.066
 4191SOL     OW13471   5.156   4.052   6.406
 4191SOL    HW113472   5.177   3.955   6.399
 4191SOL    HW213473   5.169   4.082   6.501
 4192SOL     OW13474   0.681   1.778   2.111
 4192SOL    HW113475   0.595   1.762   2.160
 4192SOL    HW213476   0.678   1.730   2.023
 4193SOL     OW13477   5.464   0.339   0.086
 4193SOL    HW113478   5.369   0.309   0.097
 4193SOL    HW213479   5.521   0.260   0.063
 4194SOL     OW13480   4.494   0.420   4.907
 4194SOL    HW113481   4.434   0.477   4.963
 4194SOL    HW213482   4.445   0.392   4.824
 4195SOL     OW13483   4.422   6.603   0.890
 4195SOL    HW113484   4.472   6.654   0.959
 4195SOL    HW213485   4.386   6.665   0.820
 4196SOL     OW13486   0.097   2.808   3.746
 4196SOL    HW113487   0.146   2.721   3.738
 4196SOL    HW213488   0.003   2.796   3.715
 4197SOL     OW13489   4.169   5.673   5.349
 4197SOL    HW113490   4.160   5.771   5.334
 4197SOL    HW213491   4.165   5.654   5.447
 4198SOL     OW13492   6.393   1.072   2.611
 4198SOL    HW113493   6.479   1.029   2.585
 4198SOL    HW213494   6.397   1.170   2.594
 4199SOL     OW13495   0.991   3.173   5.952
 4199SOL    HW113496   1.044   3.155   6.034
 4199SOL    HW213497   0.992   3.092   5.893
 4200SOL     OW13498   3.057   0.503   5.655
 4200SOL    HW113499   3.126   0.544   5.596
 4200SOL    HW213500   3.096   0.483   5.744
 4201SOL     OW13501   6.117   6.792   3.179
 4201SOL    HW113502   6.178   6.719   3.209
 4201SOL    HW213503   6.167   6.857   3.122
 4202SOL     OW13504   3.725   5.480   6.652
 4202SOL    HW113505   3.720   5.545   6.576
 4202SOL    HW213506   3.763   5.394   6.620
 4203SOL     OW13507   5.140   4.752   0.539
 4203SOL    HW113508   5.236   4.733   0.556
 4203SOL    HW213509   5.102   4.806   0.614
 4204SOL     OW13510   3.818   3.358   5.448
 4204SOL    HW113511   3.795   3.408   5.365
 4204SOL    HW213512   3.864   3.419   5.513
 4205SOL     OW13513   3.587   5.147   4.992
 4205SOL    HW113514   3.642   5.217   4.946
 4205SOL    HW213515   3.506   5.126   4.937
 4206SOL     OW13516   0.178   1.736   5.153
 4206SOL    HW113517   0.093   1.689   5.175
 4206SOL    HW213518   0.229   1.682   5.085
 4207SOL     OW13519   2.545   2.476   1.472
 4207SOL    HW113520   2.459   2.491   1.521
 4207SOL    HW213521   2.621   2.481   1.537
 4208SOL     OW13522   1.014   3.847   5.890
 4208SOL    HW113523   0.950   3.794   5.945
 4208SOL    HW213524   1.015   3.942   5.922
 4209SOL     OW13525   6.814   6.037   2.748
 4209SOL    HW113526   6.855   6.031   2.838
 4209SOL    HW213527   6.750   6.114   2.745
 4210SOL     OW13528   3.824   3.151   3.029
 4210SOL    HW113529   3.726   3.161   3.045
 4210SOL    HW213530   3.875   3.186   3.108
 4211SOL     OW13531   3.875   1.907   5.236
 4211SOL    HW113532   3.896   1.859   5.320
 4211SOL    HW213533   3.777   1.925   5.231
 4212SOL     OW13534   6.487   1.639   3.968
 4212SOL    HW113535   6.506   1.723   3.918
 4212SOL    HW213536   6.469   1.660   4.064
 4213SOL     OW13537   2.597   0.422   3.175
 4213SOL    HW113538   2.520   0.485   3.188
 4213SOL    HW213539   2.572   0.353   3.107
 4214SOL     OW13540   0.372   5.727   4.882
 4214SOL    HW113541   0.359   5.785   4.962
 4214SOL    HW213542   0.392   5.633   4.911
 4215SOL     OW13543   5.293   0.108   5.540
 4215SOL    HW113544   5.360   0.182   5.553
 4215SOL    HW213545   5.334   0.021   5.567
 4216SOL     OW13546   1.648   0.556   2.218
 4216SOL    HW113547   1.600   0.621   2.159
 4216SOL    HW213548   1.588   0.527   2.292
 4217SOL     OW13549   1.114   0.596   1.946
 4217SOL    HW113550   1.138   0.502   1.972
 4217SOL    HW213551   1.057   0.594   1.864
 4218SOL     OW13552   3.224   0.653   1.150
 4218SOL    HW113553   3.241   0.697   1.062
 4218SOL    HW213554   3.141   0.598   1.145
 4219SOL     OW13555   4.417   6.370   4.308
 4219SOL    HW113556   4.446   6.320   4.226
 4219SOL    HW213557   4.487   6.438   4.332
 4220SOL     OW13558   6.009   3.148   2.044
 4220SOL    HW113559   6.072   3.084   1.999
 4220SOL    HW213560   5.935   3.172   1.981
 4221SOL     OW13561   6.528   4.505   6.534
 4221SOL    HW113562   6.625   4.512   6.511
 4221SOL    HW213563   6.473   4.525   6.454
 4222SOL     OW13564   6.280   1.487   3.648
 4222SOL    HW113565   6.329   1.556   3.595
 4222SOL    HW213566   6.343   1.448   3.716
 4223SOL     OW13567   4.020   3.458   1.204
 4223SOL    HW113568   3.954   3.421   1.269
 4223SOL    HW213569   3.972   3.514   1.136
 4224SOL     OW13570   5.371   4.522   4.972
 4224SOL    HW113571   5.306   4.447   4.957
 4224SOL    HW213572   5.412   4.513   5.063
 4225SOL     OW13573   1.692   2.019   5.762
 4225SOL    HW113574   1.638   2.034   5.845
 4225SOL    HW213575   1.779   2.068   5.770
 4226SOL     OW13576   1.053   6.147   3.864
 4226SOL    HW113577   1.047   6.235   3.911
 4226SOL    HW213578   1.052   6.162   3.765
 4227SOL     OW13579   5.180   5.928   1.738
 4227SOL    HW113580   5.203   6.022   1.716
 4227SOL    HW213581   5.253   5.867   1.707
 4228SOL     OW13582   0.533   6.214   5.267
 4228SOL    HW113583   0.599   6.139   5.263
 4228SOL    HW213584   0.456   6.194   5.206
 4229SOL     OW13585   4.496   5.664   5.695
 4229SOL    HW113586   4.524   5.579   5.740
 4229SOL    HW213587   4.576   5.720   5.676
 4230SOL     OW13588   0.921   6.561   3.234
 4230SOL    HW113589   0.901   6.467   3.206
 4230SOL    HW213590   0.901   6.571   3.332
 4231SOL     OW13591   4.573   0.228   5.429
 4231SOL    HW113592   4.564   0.327   5.418
 4231SOL    HW213593   4.670   0.205   5.439
 4232SOL     OW13594   2.027   5.262   3.732
 4232SOL    HW113595   2.120   5.250   3.767
 4232SOL    HW213596   1.963   5.270   3.808
 4233SOL     OW13597   0.175   0.219   5.221
 4233SOL    HW113598   0.258   0.262   5.255
 4233SOL    HW213599   0.095   0.269   5.255
 4234SOL     OW13600   2.249   5.206   5.077
 4234SOL    HW113601   2.290   5.118   5.055
 4234SOL    HW213602   2.150   5.196   5.086
 4235SOL     OW13603   6.592   5.098   5.816
 4235SOL    HW113604   6.507   5.078   5.864
 4235SOL    HW213605   6.644   5.014   5.803
 4236SOL     OW13606   0.131   4.301   1.865
 4236SOL    HW113607   0.118   4.233   1.793
 4236SOL    HW213608   0.228   4.326   1.870
 4237SOL     OW13609   6.781   4.029   4.067
 4237SOL    HW113610   6.863   4.077   4.036
 4237SOL    HW213611   6.807   3.949   4.121
 4238SOL     OW13612   0.983   0.519   3.378
 4238SOL    HW113613   0.917   0.577   3.331
 4238SOL    HW213614   0.953   0.424   3.372
 4239SOL     OW13615   4.362   0.906   2.293
 4239SOL    HW113616   4.275   0.916   2.340
 4239SOL    HW213617   4.349   0.919   2.195
 4240SOL     OW13618   2.415   5.047   0.309
 4240SOL    HW113619   2.500   4.994   0.316
 4240SOL    HW213620   2.367   5.043   0.396
 4241SOL     OW13621   5.022   0.934   0.280
 4241SOL    HW113622   5.102   0.929   0.221
 4241SOL    HW213623   5.050   0.951   0.375
 4242SOL     OW13624   2.534   1.981   4.345
 4242SOL    HW113625   2.439   1.974   4.374
 4242SOL    HW213626   2.592   2.005   4.423
 4243SOL     OW13627   4.976   1.692   2.742
 4243SOL    HW113628   4.930   1.762   2.795
 4243SOL    HW213629   5.011   1.732   2.657
 4244SOL     OW13630   3.482   4.263   1.196
 4244SOL    HW113631   3.482   4.357   1.230
 4244SOL    HW213632   3.436   4.204   1.262
 4245SOL     OW13633   6.455   2.345   6.754
 4245SOL    HW113634   6.365   2.315   6.786
 4245SOL    HW213635   6.490   2.280   6.687
 4246SOL     OW13636   6.496   3.958   3.477
 4246SOL    HW113637   6.528   3.873   3.435
 4246SOL    HW213638   6.494   4.030   3.408
 4247SOL     OW13639   1.706   6.582   3.234
 4247SOL    HW113640   1.625   6.626   3.198
 4247SOL    HW213641   1.688   6.550   3.327
 4248SOL     OW13642   2.567   1.762   4.694
 4248SOL    HW113643   2.522   1.845   4.728
 4248SOL    HW213644   2.622   1.723   4.767
 4249SOL     OW13645   6.547   3.066   4.987
 4249SOL    HW113646   6.581   3.059   4.893
 4249SOL    HW213647   6.574   3.153   5.026
 4250SOL     OW13648   0.445   4.807   3.001
 4250SOL    HW113649   0.399   4.811   3.089
 4250SOL    HW213650   0.397   4.865   2.935
 4251SOL     OW13651   5.945   5.110   0.567
 4251SOL    HW113652   6.018   5.137   0.505
 4251SOL    HW213653   5.977   5.034   0.624
 4252SOL     OW13654   6.404   6.443   5.767
 4252SOL    HW113655   6.418   6.488   5.855
 4252SOL    HW213656   6.376   6.510   5.699
 4253SOL     OW13657   2.759   0.422   1.670
 4253SOL    HW113658   2.832   0.445   1.733
 4253SOL    HW213659   2.675   0.402   1.722
 4254SOL     OW13660   1.200   2.404   1.491
 4254SOL    HW113661   1.143   2.323   1.509
 4254SOL    HW213662   1.167   2.480   1.546
 4255SOL     OW13663   5.745   2.699   3.320
 4255SOL    HW113664   5.656   2.654   3.323
 4255SOL    HW213665   5.752   2.754   3.237
 4256SOL     OW13666   1.367   6.619   0.629
 4256SOL    HW113667   1.432   6.654   0.696
 4256SOL    HW213668   1.370   6.519   0.631
 4257SOL     OW13669   3.873   0.501   5.155
 4257SOL    HW113670   3.832   0.469   5.069
 4257SOL    HW213671   3.806   0.496   5.228
 4258SOL     OW13672   5.803   6.499   1.745
 4258SOL    HW113673   5.736   6.467   1.812
 4258SOL    HW213674   5.857   6.421   1.713
 4259SOL     OW13675   2.997   0.530   6.280
 4259SOL    HW113676   3.028   0.591   6.207
 4259SOL    HW213677   3.071   0.517   6.346
 4260SOL     OW13678   5.197   6.473   4.812
 4260SOL    HW113679   5.213   6.559   4.862
 4260SOL    HW213680   5.259   6.403   4.846
 4261SOL     OW13681   1.779   0.717   1.830
 4261SOL    HW113682   1.704   0.782   1.820
 4261SOL    HW213683   1.865   0.761   1.803
 4262SOL     OW13684   1.120   4.764   5.328
 4262SOL    HW113685   1.054   4.703   5.283
 4262SOL    HW213686   1.211   4.746   5.292
 4263SOL     OW13687   2.497   6.537   3.585
 4263SOL    HW113688   2.526   6.445   3.613
 4263SOL    HW213689   2.570   6.581   3.534
 4264SOL     OW13690   6.793   1.805   2.382
 4264SOL    HW113691   6.766   1.730   2.442
 4264SOL    HW213692   6.816   1.768   2.292
 4265SOL     OW13693   5.604   1.404   6.959
 4265SOL    HW113694   5.521   1.349   6.969
 4265SOL    HW213695   5.589   1.473   6.889
 4266SOL     OW13696   1.864   5.582   0.845
 4266SOL    HW113697   1.882   5.678   0.867
 4266SOL    HW213698   1.946   5.540   0.808
 4267SOL     OW13699   2.163   3.755   4.913
 4267SOL    HW113700   2.157   3.677   4.975
 4267SOL    HW213701   2.237   3.815   4.942
 4268SOL     OW13702   1.839   0.205   6.599
 4268SOL    HW113703   1.810   0.168   6.687
 4268SOL    HW213704   1.934   0.236   6.606
 4269SOL     OW13705   2.037   1.399   0.313
 4269SOL    HW113706   2.020   1.400   0.215
 4269SOL    HW213707   2.013   1.309   0.350
 4270SOL     OW13708   2.939   3.791   3.903
 4270SOL    HW113709   2.978   3.779   3.811
 4270SOL    HW213710   2.848   3.751   3.905
 4271SOL     OW13711   0.088   1.154   6.319
 4271SOL    HW113712   0.006   1.206   6.340
 4271SOL    HW213713   0.135   1.129   6.404
 4272SOL     OW13714   0.435   4.688   4.767
 4272SOL    HW113715   0.434   4.600   4.816
 4272SOL    HW213716   0.345   4.704   4.726
 4273SOL     OW13717   4.669   6.515   4.587
 4273SOL    HW113718   4.654   6.526   4.489
 4273SOL    HW213719   4.581   6.513   4.634
 4274SOL     OW13720   1.000   0.606   2.679
 4274SOL    HW113721   1.062   0.648   2.745
 4274SOL    HW213722   1.036   0.618   2.587
 4275SOL     OW13723   6.591   1.503   5.489
 4275SOL    HW113724   6.504   1.473   5.528
 4275SOL    HW213725   6.664   1.443   5.521
 4276SOL     OW13726   1.419   4.500   3.656
 4276SOL    HW113727   1.334   4.449   3.672
 4276SOL    HW213728   1.488   4.472   3.724
 4277SOL     OW13729   6.334   4.556   4.265
 4277SOL    HW113730   6.292   4.646   4.272
 4277SOL    HW213731   6.420   4.563   4.215
 4278SOL     OW13732   6.926   0.620   5.027
 4278SOL    HW113733   6.961   0.567   4.949
 4278SOL    HW213734   6.839   0.582   5.057
 4279SOL     OW13735   3.137   6.362   5.441
 4279SOL    HW113736   3.155   6.274   5.486
 4279SOL    HW213737   3.205   6.376   5.369
 4280SOL     OW13738   5.205   1.512   5.316
 4280SOL    HW113739   5.183   1.429   5.366
 4280SOL    HW213740   5.303   1.517   5.301
 4281SOL     OW13741   2.467   4.875   4.455
 4281SOL    HW113742   2.381   4.825   4.445
 4281SOL    HW213743   2.458   4.943   4.528
 4282SOL     OW13744   2.877   2.685   0.500
 4282SOL    HW113745   2.917   2.614   0.559
 4282SOL    HW213746   2.782   2.701   0.526
 4283SOL     OW13747   1.535   0.772   3.884
 4283SOL    HW113748   1.501   0.845   3.824
 4283SOL    HW213749   1.538   0.805   3.978
 4284SOL     OW13750   5.048   5.817   2.150
 4284SOL    HW113751   5.043   5.790   2.246
 4284SOL    HW213752   5.001   5.750   2.093
 4285SOL     OW13753   0.518   0.164   6.347
 4285SOL    HW113754   0.444   0.201   6.291
 4285SOL    HW213755   0.515   0.064   6.343
 4286SOL     OW13756   5.162   5.454   6.604
 4286SOL    HW113757   5.090   5.387   6.621
 4286SOL    HW213758   5.133   5.518   6.534
 4287SOL     OW13759   5.736   0.876   6.348
 4287SOL    HW113760   5.755   0.928   6.431
 4287SOL    HW213761   5.788   0.915   6.272
 4288SOL     OW13762   0.808   5.991   2.909
 4288SOL    HW113763   0.824   5.997   2.810
 4288SOL    HW213764   0.791   5.896   2.934
 4289SOL     OW13765   6.414   3.230   1.119
 4289SOL    HW113766   6.462   3.204   1.202
 4289SOL    HW213767   6.316   3.235   1.137
 4290SOL     OW13768   2.670   6.350   1.545
 4290SOL    HW113769   2.615   6.358   1.628
 4290SOL    HW213770   2.756   6.399   1.556
 4291SOL     OW13771   4.591   3.587   1.679
 4291SOL    HW113772   4.576   3.675   1.725
 4291SOL    HW213773   4.521   3.574   1.609
 4292SOL     OW13774   6.663   4.619   5.986
 4292SOL    HW113775   6.618   4.589   5.902
 4292SOL    HW213776   6.692   4.539   6.039
 4293SOL     OW13777   0.063   3.025   0.103
 4293SOL    HW113778   0.059   3.074   0.015
 4293SOL    HW213779   0.156   3.029   0.139
 4294SOL     OW13780   3.948   2.924   0.473
 4294SOL    HW113781   3.936   3.018   0.440
 4294SOL    HW213782   4.026   2.882   0.425
 4295SOL     OW13783   3.385   6.042   4.901
 4295SOL    HW113784   3.449   6.044   4.824
 4295SOL    HW213785   3.338   5.954   4.904
 4296SOL     OW13786   3.156   1.356   0.008
 4296SOL    HW113787   3.249   1.387   7.009
 4296SOL    HW213788   3.095   1.434   0.015
 4297SOL     OW13789   5.363   0.576   5.770
 4297SOL    HW113790   5.321   0.617   5.689
 4297SOL    HW213791   5.366   0.477   5.760
 4298SOL     OW13792   2.737   5.460   6.610
 4298SOL    HW113793   2.710   5.437   6.704
 4298SOL    HW213794   2.754   5.375   6.559
 4299SOL     OW13795   0.947   2.679   6.808
 4299SOL    HW113796   0.988   2.685   6.899
 4299SOL    HW213797   0.880   2.753   6.796
 4300SOL     OW13798   3.522   1.352   6.691
 4300SOL    HW113799   3.609   1.301   6.695
 4300SOL    HW213800   3.516   1.401   6.604
 4301SOL     OW13801   2.291   1.441   0.510
 4301SOL    HW113802   2.246   1.477   0.429
 4301SOL    HW213803   2.376   1.491   0.526
 4302SOL     OW13804   0.597   6.475   5.821
 4302SOL    HW113805   0.680   6.500   5.771
 4302SOL    HW213806   0.517   6.504   5.767
 4303SOL     OW13807   5.675   4.767   4.172
 4303SOL    HW113808   5.702   4.692   4.232
 4303SOL    HW213809   5.592   4.810   4.208
 4304SOL     OW13810   3.260   3.802   4.262
 4304SOL    HW113811   3.259   3.759   4.352
 4304SOL    HW213812   3.280   3.900   4.273
 4305SOL     OW13813   6.421   1.378   3.878
 4305SOL    HW113814   6.497   1.313   3.870
 4305SOL    HW213815   6.444   1.448   3.945
 4306SOL     OW13816   6.406   3.845   6.404
 4306SOL    HW113817   6.356   3.926   6.372
 4306SOL    HW213818   6.353   3.763   6.384
 4307SOL     OW13819   4.949   4.351   6.534
 4307SOL    HW113820   4.918   4.356   6.440
 4307SOL    HW213821   4.875   4.315   6.592
 4308SOL     OW13822   5.528   5.580   6.142
 4308SOL    HW113823   5.606   5.549   6.087
 4308SOL    HW213824   5.529   5.533   6.230
 4309SOL     OW13825   1.080   0.169   0.337
 4309SOL    HW113826   1.056   0.116   0.419
 4309SOL    HW213827   1.085   0.266   0.360
 4310SOL     OW13828   2.246   2.429   3.017
 4310SOL    HW113829   2.197   2.472   2.941
 4310SOL    HW213830   2.318   2.490   3.050
 4311SOL     OW13831   0.847   5.727   2.976
 4311SOL    HW113832   0.925   5.665   2.984
 4311SOL    HW213833   0.787   5.714   3.055
 4312SOL     OW13834   1.680   5.441   1.433
 4312SOL    HW113835   1.631   5.480   1.356
 4312SOL    HW213836   1.754   5.503   1.461
 4313SOL     OW13837   5.131   1.792   1.900
 4313SOL    HW113838   5.087   1.841   1.825
 4313SOL    HW213839   5.193   1.723   1.864
 4314SOL     OW13840   5.519   2.323   3.910
 4314SOL    HW113841   5.446   2.391   3.909
 4314SOL    HW213842   5.536   2.295   4.005
 4315SOL     OW13843   2.234   0.945   1.968
 4315SOL    HW113844   2.262   0.886   2.045
 4315SOL    HW213845   2.180   1.022   2.003
 4316SOL     OW13846   5.329   0.257   1.118
 4316SOL    HW113847   5.237   0.297   1.123
 4316SOL    HW213848   5.353   0.240   1.023
 4317SOL     OW13849   3.704   1.134   4.795
 4317SOL    HW113850   3.770   1.073   4.839
 4317SOL    HW213851   3.743   1.170   4.710
 4318SOL     OW13852   1.205   3.211   3.190
 4318SOL    HW113853   1.115   3.253   3.181
 4318SOL    HW213854   1.250   3.209   3.100
 4319SOL     OW13855   2.226   2.683   0.450
 4319SOL    HW113856   2.232   2.608   0.384
 4319SOL    HW213857   2.218   2.646   0.542
 4320SOL     OW13858   1.086   5.912   1.810
 4320SOL    HW113859   1.179   5.897   1.778
 4320SOL    HW213860   1.082   5.993   1.868
 4321SOL     OW13861   6.762   0.246   4.285
 4321SOL    HW113862   6.770   0.162   4.338
 4321SOL    HW213863   6.700   0.309   4.331
 4322SOL     OW13864   6.072   1.711   6.510
 4322SOL    HW113865   6.130   1.673   6.439
 4322SOL    HW213866   6.069   1.648   6.588
 4323SOL     OW13867   5.698   4.208   1.835
 4323SOL    HW113868   5.662   4.116   1.850
 4323SOL    HW213869   5.622   4.271   1.818
 4324SOL     OW13870   5.685   4.536   6.757
 4324SOL    HW113871   5.590   4.529   6.725
 4324SOL    HW213872   5.693   4.492   6.847
 4325SOL     OW13873   1.220   0.461   0.031
 4325SOL    HW113874   1.274   0.417   0.103
 4325SOL    HW213875   1.277   0.525   7.002
 4326SOL     OW13876   6.288   2.894   4.922
 4326SOL    HW113877   6.289   2.940   5.011
 4326SOL    HW213878   6.257   2.958   4.852
 4327SOL     OW13879   5.988   5.177   2.309
 4327SOL    HW113880   5.906   5.224   2.341
 4327SOL    HW213881   5.976   5.078   2.318
 4328SOL     OW13882   4.869   4.219   6.100
 4328SOL    HW113883   4.887   4.145   6.165
 4328SOL    HW213884   4.890   4.188   6.007
 4329SOL     OW13885   3.685   1.944   5.954
 4329SOL    HW113886   3.694   1.866   6.016
 4329SOL    HW213887   3.659   1.913   5.863
 4330SOL     OW13888   3.178   0.757   4.731
 4330SOL    HW113889   3.127   0.703   4.798
 4330SOL    HW213890   3.272   0.770   4.763
 4331SOL     OW13891   5.085   3.044   1.194
 4331SOL    HW113892   5.075   3.117   1.126
 4331SOL    HW213893   5.128   3.081   1.276
 4332SOL     OW13894   5.437   4.309   2.743
 4332SOL    HW113895   5.489   4.368   2.804
 4332SOL    HW213896   5.391   4.364   2.674
 4333SOL     OW13897   4.129   1.604   5.406
 4333SOL    HW113898   4.199   1.539   5.375
 4333SOL    HW213899   4.123   1.679   5.340
 4334SOL     OW13900   2.181   2.056   2.084
 4334SOL    HW113901   2.267   2.067   2.134
 4334SOL    HW213902   2.200   2.052   1.986
 4335SOL     OW13903   3.186   4.050   3.598
 4335SOL    HW113904   3.164   4.147   3.598
 4335SOL    HW213905   3.155   4.008   3.684
 4336SOL     OW13906   0.904   6.389   5.728
 4336SOL    HW113907   0.870   6.316   5.669
 4336SOL    HW213908   1.000   6.408   5.706
 4337SOL     OW13909   1.304   4.579   0.364
 4337SOL    HW113910   1.346   4.518   0.297
 4337SOL    HW213911   1.374   4.615   0.426
 4338SOL     OW13912   5.010   6.191   4.166
 4338SOL    HW113913   4.921   6.237   4.162
 4338SOL    HW213914   5.081   6.258   4.187
 4339SOL     OW13915   5.837   3.603   5.128
 4339SOL    HW113916   5.796   3.512   5.117
 4339SOL    HW213917   5.934   3.598   5.104
 4340SOL     OW13918   6.283   4.228   2.787
 4340SOL    HW113919   6.210   4.292   2.767
 4340SOL    HW213920   6.251   4.134   2.774
 4341SOL     OW13921   1.221   5.259   1.934
 4341SOL    HW113922   1.261   5.177   1.977
 4341SOL    HW213923   1.289   5.332   1.933
 4342SOL     OW13924   7.016   3.386   4.119
 4342SOL    HW113925   0.012   3.288   4.112
 4342SOL    HW213926   6.993   3.422   4.029
 4343SOL     OW13927   2.556   6.609   6.215
 4343SOL    HW113928   2.461   6.577   6.211
 4343SOL    HW213929   2.558   6.709   6.210
 4344SOL     OW13930   1.900   5.439   3.032
 4344SOL    HW113931   1.916   5.351   2.987
 4344SOL    HW213932   1.891   5.511   2.963
 4345SOL     OW13933   1.740   2.630   5.779
 4345SOL    HW113934   1.795   2.646   5.698
 4345SOL    HW213935   1.684   2.548   5.766
 4346SOL     OW13936   2.075   3.296   1.582
 4346SOL    HW113937   2.052   3.377   1.635
 4346SOL    HW213938   2.153   3.249   1.625
 4347SOL     OW13939   6.144   1.181   2.343
 4347SOL    HW113940   6.082   1.144   2.275
 4347SOL    HW213941   6.171   1.109   2.407
 4348SOL     OW13942   0.542   2.952   2.236
 4348SOL    HW113943   0.610   2.882   2.258
 4348SOL    HW213944   0.502   2.987   2.320
 4349SOL     OW13945   6.750   1.517   3.331
 4349SOL    HW113946   6.805   1.446   3.287
 4349SOL    HW213947   6.782   1.530   3.425
 4350SOL     OW13948   4.873   2.364   4.823
 4350SOL    HW113949   4.947   2.299   4.807
 4350SOL    HW213950   4.901   2.455   4.791
 4351SOL     OW13951   2.186   6.310   0.691
 4351SOL    HW113952   2.178   6.270   0.782
 4351SOL    HW213953   2.146   6.402   0.691
 4352SOL     OW13954   1.305   2.543   2.289
 4352SOL    HW113955   1.360   2.562   2.208
 4352SOL    HW213956   1.209   2.536   2.263
 4353SOL     OW13957   3.236   4.464   0.760
 4353SOL    HW113958   3.174   4.388   0.741
 4353SOL    HW213959   3.223   4.496   0.853
 4354SOL     OW13960   1.887   6.501   5.639
 4354SOL    HW113961   1.983   6.510   5.616
 4354SOL    HW213962   1.860   6.405   5.635
 4355SOL     OW13963   3.445   0.364   1.977
 4355SOL    HW113964   3.520   0.376   1.911
 4355SOL    HW213965   3.452   0.433   2.049
 4356SOL     OW13966   4.611   4.418   1.782
 4356SOL    HW113967   4.681   4.410   1.854
 4356SOL    HW213968   4.548   4.341   1.789
 4357SOL     OW13969   6.589   0.213   6.912
 4357SOL    HW113970   6.637   0.237   6.997
 4357SOL    HW213971   6.495   0.186   6.933
 4358SOL     OW13972   6.785   5.915   0.270
 4358SOL    HW113973   6.793   5.946   0.176
 4358SOL    HW213974   6.876   5.910   0.311
 4359SOL     OW13975   1.550   2.025   5.530
 4359SOL    HW113976   1.533   2.122   5.509
 4359SOL    HW213977   1.610   2.019   5.610
 4360SOL     OW13978   1.389   3.195   2.572
 4360SOL    HW113979   1.445   3.113   2.561
 4360SOL    HW213980   1.367   3.208   2.669
 4361SOL     OW13981   2.699   2.531   1.710
 4361SOL    HW113982   2.679   2.624   1.742
 4361SOL    HW213983   2.779   2.496   1.757
 4362SOL     OW13984   6.368   4.014   4.327
 4362SOL    HW113985   6.275   4.022   4.291
 4362SOL    HW213986   6.405   4.105   4.345
 4363SOL     OW13987   5.283   2.443   6.434
 4363SOL    HW113988   5.302   2.348   6.410
 4363SOL    HW213989   5.361   2.500   6.410
 4364SOL     OW13990   3.132   3.814   5.226
 4364SOL    HW113991   3.068   3.813   5.149
 4364SOL    HW213992   3.185   3.899   5.226
 4365SOL     OW13993   2.329   1.696   1.721
 4365SOL    HW113994   2.414   1.746   1.737
 4365SOL    HW213995   2.330   1.610   1.772
 4366SOL     OW13996   5.478   6.672   0.105
 4366SOL    HW113997   5.556   6.735   0.112
 4366SOL    HW213998   5.393   6.723   0.122
 4367SOL     OW13999   1.928   5.215   5.428
 4367SOL    HW114000   1.870   5.133   5.434
 4367SOL    HW214001   1.900   5.270   5.349
 4368SOL     OW14002   4.199   5.203   1.148
 4368SOL    HW114003   4.229   5.163   1.235
 4368SOL    HW214004   4.214   5.301   1.150
 4369SOL     OW14005   3.987   5.203   2.811
 4369SOL    HW114006   3.940   5.261   2.745
 4369SOL    HW214007   3.935   5.201   2.897
 4370SOL     OW14008   4.889   4.286   2.926
 4370SOL    HW114009   4.792   4.283   2.900
 4370SOL    HW214010   4.942   4.329   2.853
 4371SOL     OW14011   6.356   0.832   1.668
 4371SOL    HW114012   6.429   0.900   1.677
 4371SOL    HW214013   6.372   0.758   1.734
 4372SOL     OW14014   4.411   1.048   3.046
 4372SOL    HW114015   4.509   1.068   3.042
 4372SOL    HW214016   4.386   1.019   3.138
 4373SOL     OW14017   6.832   2.906   0.150
 4373SOL    HW114018   6.928   2.930   0.138
 4373SOL    HW214019   6.775   2.975   0.104
 4374SOL     OW14020   0.830   1.870   1.673
 4374SOL    HW114021   0.866   1.888   1.582
 4374SOL    HW214022   0.892   1.909   1.742
 4375SOL     OW14023   3.181   0.550   3.945
 4375SOL    HW114024   3.226   0.535   3.857
 4375SOL    HW214025   3.123   0.471   3.966
 4376SOL     OW14026   6.971   0.411   2.969
 4376SOL    HW114027   6.885   0.435   3.014
 4376SOL    HW214028   6.979   0.461   2.883
 4377SOL     OW14029   6.096   4.120   0.346
 4377SOL    HW114030   6.110   4.217   0.369
 4377SOL    HW214031   6.127   4.063   0.422
 4378SOL     OW14032   1.575   1.541   2.942
 4378SOL    HW114033   1.489   1.515   2.898
 4378SOL    HW214034   1.637   1.463   2.941
 4379SOL     OW14035   2.324   1.384   3.715
 4379SOL    HW114036   2.340   1.436   3.799
 4379SOL    HW214037   2.404   1.327   3.696
 4380SOL     OW14038   1.165   0.238   1.343
 4380SOL    HW114039   1.132   0.148   1.315
 4380SOL    HW214040   1.262   0.246   1.319
 4381SOL     OW14041   0.788   6.434   4.346
 4381SOL    HW114042   0.826   6.520   4.380
 4381SOL    HW214043   0.836   6.357   4.389
 4382SOL     OW14044   6.574   3.551   6.334
 4382SOL    HW114045   6.659   3.499   6.333
 4382SOL    HW214046   6.521   3.527   6.415
 4383SOL     OW14047   6.883   3.948   6.269
 4383SOL    HW114048   6.862   4.046   6.259
 4383SOL    HW214049   6.797   3.897   6.275
 4384SOL     OW14050   5.932   0.443   4.041
 4384SOL    HW114051   5.995   0.366   4.049
 4384SOL    HW214052   5.944   0.488   3.953
 4385SOL     OW14053   4.571   2.475   5.427
 4385SOL    HW114054   4.647   2.463   5.363
 4385SOL    HW214055   4.606   2.481   5.520
 4386SOL     OW14056   1.505   4.034   5.334
 4386SOL    HW114057   1.413   3.994   5.331
 4386SOL    HW214058   1.568   3.971   5.380
 4387SOL     OW14059   0.074   2.626   1.956
 4387SOL    HW114060   0.126   2.541   1.945
 4387SOL    HW214061   6.999   2.607   1.946
 4388SOL     OW14062   4.075   2.457   6.114
 4388SOL    HW114063   4.070   2.395   6.036
 4388SOL    HW214064   4.157   2.513   6.106
 4389SOL     OW14065   6.836   3.628   0.479
 4389SOL    HW114066   6.889   3.617   0.563
 4389SOL    HW214067   6.875   3.570   0.407
 4390SOL     OW14068   4.851   0.193   1.352
 4390SOL    HW114069   4.759   0.209   1.315
 4390SOL    HW214070   4.895   0.120   1.300
 4391SOL     OW14071   3.019   4.803   6.772
 4391SOL    HW114072   3.080   4.734   6.733
 4391SOL    HW214073   2.924   4.772   6.764
 4392SOL     OW14074   0.686   2.270   4.736
 4392SOL    HW114075   0.653   2.176   4.736
 4392SOL    HW214076   0.614   2.331   4.704
 4393SOL     OW14077   6.436   0.464   2.178
 4393SOL    HW114078   6.535   0.480   2.171
 4393SOL    HW214079   6.419   0.366   2.189
 4394SOL     OW14080   0.394   6.515   1.588
 4394SOL    HW114081   0.357   6.543   1.677
 4394SOL    HW214082   0.407   6.416   1.586
 4395SOL     OW14083   2.085   0.235   1.451
 4395SOL    HW114084   2.109   0.330   1.435
 4395SOL    HW214085   1.987   0.222   1.437
 4396SOL     OW14086   1.692   1.528   4.126
 4396SOL    HW114087   1.758   1.602   4.135
 4396SOL    HW214088   1.610   1.561   4.080
 4397SOL     OW14089   1.931   2.877   4.524
 4397SOL    HW114090   1.885   2.944   4.465
 4397SOL    HW214091   1.968   2.923   4.604
 4398SOL     OW14092   1.617   3.222   6.428
 4398SOL    HW114093   1.533   3.199   6.379
 4398SOL    HW214094   1.686   3.254   6.363
 4399SOL     OW14095   2.666   6.836   1.925
 4399SOL    HW114096   2.755   6.870   1.896
 4399SOL    HW214097   2.672   6.797   2.017
 4400SOL     OW14098   2.040   6.674   3.644
 4400SOL    HW114099   2.094   6.602   3.602
 4400SOL    HW214100   1.987   6.721   3.573
 4401SOL     OW14101   4.015   6.264   5.080
 4401SOL    HW114102   4.000   6.198   5.006
 4401SOL    HW214103   3.928   6.284   5.125
 4402SOL     OW14104   0.594   0.131   3.157
 4402SOL    HW114105   0.576   0.226   3.128
 4402SOL    HW214106   0.678   0.099   3.115
 4403SOL     OW14107   1.474   6.339   0.768
 4403SOL    HW114108   1.574   6.334   0.760
 4403SOL    HW214109   1.432   6.287   0.694
 4404SOL     OW14110   1.121   6.282   5.218
 4404SOL    HW114111   1.093   6.190   5.248
 4404SOL    HW214112   1.048   6.322   5.163
 4405SOL     OW14113   2.088   4.922   2.516
 4405SOL    HW114114   2.064   5.009   2.473
 4405SOL    HW214115   2.064   4.847   2.455
 4406SOL     OW14116   6.956   3.596   0.709
 4406SOL    HW114117   6.912   3.633   0.791
 4406SOL    HW214118   6.933   3.499   0.701
 4407SOL     OW14119   0.215   5.136   1.163
 4407SOL    HW114120   0.290   5.133   1.098
 4407SOL    HW214121   0.229   5.211   1.228
 4408SOL     OW14122   2.271   6.383   6.949
 4408SOL    HW114123   2.259   6.431   6.862
 4408SOL    HW214124   2.327   6.302   6.935
 4409SOL     OW14125   4.714   1.292   1.551
 4409SOL    HW114126   4.689   1.199   1.576
 4409SOL    HW214127   4.790   1.323   1.609
 4410SOL     OW14128   6.534   5.893   0.137
 4410SOL    HW114129   6.478   5.827   0.087
 4410SOL    HW214130   6.623   5.852   0.158
 4411SOL     OW14131   3.315   4.564   5.324
 4411SOL    HW114132   3.245   4.623   5.285
 4411SOL    HW214133   3.376   4.617   5.382
 4412SOL     OW14134   5.284   6.778   4.134
 4412SOL    HW114135   5.371   6.789   4.088
 4412SOL    HW214136   5.246   6.688   4.116
 4413SOL     OW14137   5.053   5.823   3.749
 4413SOL    HW114138   5.128   5.888   3.740
 4413SOL    HW214139   5.081   5.734   3.714
 4414SOL     OW14140   4.343   5.735   1.044
 4414SOL    HW114141   4.379   5.680   0.968
 4414SOL    HW214142   4.263   5.690   1.082
 4415SOL     OW14143   4.026   3.642   0.694
 4415SOL    HW114144   4.035   3.615   0.790
 4415SOL    HW214145   4.038   3.741   0.687
 4416SOL     OW14146   3.765   1.120   4.034
 4416SOL    HW114147   3.716   1.194   4.081
 4416SOL    HW214148   3.779   1.145   3.938
 4417SOL     OW14149   5.933   3.015   3.929
 4417SOL    HW114150   6.006   2.979   3.987
 4417SOL    HW214151   5.970   3.088   3.871
 4418SOL     OW14152   6.281   1.903   2.333
 4418SOL    HW114153   6.234   1.841   2.270
 4418SOL    HW214154   6.256   1.998   2.311
 4419SOL     OW14155   6.869   0.238   5.983
 4419SOL    HW114156   6.770   0.252   5.978
 4419SOL    HW214157   6.898   0.240   6.078
 4420SOL     OW14158   3.400   1.592   1.132
 4420SOL    HW114159   3.314   1.567   1.087
 4420SOL    HW214160   3.477   1.551   1.082
 4421SOL     OW14161   1.740   1.981   5.336
 4421SOL    HW114162   1.805   2.054   5.351
 4421SOL    HW214163   1.662   1.992   5.399
 4422SOL     OW14164   0.936   4.761   7.017
 4422SOL    HW114165   0.946   4.847   6.968
 4422SOL    HW214166   0.984   4.688   6.967
 4423SOL     OW14167   6.713   4.416   6.244
 4423SOL    HW114168   6.737   4.498   6.296
 4423SOL    HW214169   6.621   4.385   6.272
 4424SOL     OW14170   5.386   6.304   4.878
 4424SOL    HW114171   5.382   6.208   4.853
 4424SOL    HW214172   5.409   6.312   4.975
 4425SOL     OW14173   1.882   5.273   1.354
 4425SOL    HW114174   1.882   5.269   1.255
 4425SOL    HW214175   1.810   5.335   1.385
 4426SOL     OW14176   1.086   1.422   3.942
 4426SOL    HW114177   1.147   1.380   4.009
 4426SOL    HW214178   1.132   1.498   3.897
 4427SOL     OW14179   4.344   6.266   2.527
 4427SOL    HW114180   4.310   6.349   2.571
 4427SOL    HW214181   4.323   6.187   2.584
 4428SOL     OW14182   5.060   0.987   4.358
 4428SOL    HW114183   5.109   0.928   4.294
 4428SOL    HW214184   5.126   1.044   4.407
 4429SOL     OW14185   2.701   6.525   2.741
 4429SOL    HW114186   2.728   6.602   2.682
 4429SOL    HW214187   2.783   6.481   2.778
 4430SOL     OW14188   5.345   4.567   4.246
 4430SOL    HW114189   5.377   4.661   4.243
 4430SOL    HW214190   5.325   4.535   4.153
 4431SOL     OW14191   2.631   0.909   3.372
 4431SOL    HW114192   2.640   0.982   3.305
 4431SOL    HW214193   2.720   0.867   3.388
 4432SOL     OW14194   1.994   3.101   6.649
 4432SOL    HW114195   1.949   3.052   6.575
 4432SOL    HW214196   1.974   3.199   6.641
 4433SOL     OW14197   0.358   2.941   4.683
 4433SOL    HW114198   0.405   3.023   4.651
 4433SOL    HW214199   0.388   2.919   4.775
 4434SOL     OW14200   5.561   1.843   2.640
 4434SOL    HW114201   5.464   1.849   2.665
 4434SOL    HW214202   5.572   1.857   2.542
 4435SOL     OW14203   3.822   3.681   1.541
 4435SOL    HW114204   3.838   3.754   1.607
 4435SOL    HW214205   3.785   3.719   1.456
 4436SOL     OW14206   3.767   1.404   1.306
 4436SOL    HW114207   3.712   1.444   1.233
 4436SOL    HW214208   3.729   1.314   1.330
 4437SOL     OW14209   0.827   3.242   2.561
 4437SOL    HW114210   0.859   3.295   2.483
 4437SOL    HW214211   0.766   3.299   2.618
 4438SOL     OW14212   4.780   6.740   5.791
 4438SOL    HW114213   4.823   6.811   5.735
 4438SOL    HW214214   4.842   6.717   5.867
 4439SOL     OW14215   0.660   4.914   2.580
 4439SOL    HW114216   0.586   4.911   2.647
 4439SOL    HW214217   0.747   4.898   2.626
 4440SOL     OW14218   2.366   4.754   0.447
 4440SOL    HW114219   2.435   4.822   0.473
 4440SOL    HW214220   2.303   4.740   0.524
 4441SOL     OW14221   0.080   1.209   0.890
 4441SOL    HW114222   0.045   1.215   0.983
 4441SOL    HW214223   0.075   1.114   0.858
 4442SOL     OW14224   1.343   5.385   5.479
 4442SOL    HW114225   1.247   5.363   5.493
 4442SOL    HW214226   1.398   5.341   5.549
 4443SOL     OW14227   0.983   4.080   6.267
 4443SOL    HW114228   1.073   4.039   6.249
 4443SOL    HW214229   0.989   4.179   6.258
 4444SOL     OW14230   4.606   3.996   0.403
 4444SOL    HW114231   4.705   3.986   0.411
 4444SOL    HW214232   4.569   4.036   0.487
 4445SOL     OW14233   1.362   6.209   0.146
 4445SOL    HW114234   1.413   6.145   0.204
 4445SOL    HW214235   1.381   6.303   0.175
 4446SOL     OW14236   5.510   1.678   0.133
 4446SOL    HW114237   5.575   1.610   0.099
 4446SOL    HW214238   5.521   1.688   0.232
 4447SOL     OW14239   6.056   3.821   4.833
 4447SOL    HW114240   6.153   3.844   4.829
 4447SOL    HW214241   6.012   3.850   4.748
 4448SOL     OW14242   2.967   0.031   1.119
 4448SOL    HW114243   2.930   0.109   1.069
 4448SOL    HW214244   2.992   6.981   1.055
 4449SOL     OW14245   4.280   0.766   6.554
 4449SOL    HW114246   4.322   0.823   6.483
 4449SOL    HW214247   4.315   0.792   6.643
 4450SOL     OW14248   3.069   1.375   6.699
 4450SOL    HW114249   3.055   1.303   6.766
 4450SOL    HW214250   2.994   1.375   6.633
 4451SOL     OW14251   4.371   5.159   4.702
 4451SOL    HW114252   4.463   5.131   4.730
 4451SOL    HW214253   4.350   5.248   4.743
 4452SOL     OW14254   6.381   5.636   4.475
 4452SOL    HW114255   6.448   5.643   4.401
 4452SOL    HW214256   6.416   5.682   4.557
 4453SOL     OW14257   1.338   3.024   1.719
 4453SOL    HW114258   1.407   3.095   1.712
 4453SOL    HW214259   1.302   3.021   1.813
 4454SOL     OW14260   0.965   1.289   0.152
 4454SOL    HW114261   1.054   1.249   0.173
 4454SOL    HW214262   0.895   1.247   0.210
 4455SOL     OW14263   5.362   5.666   5.063
 4455SOL    HW114264   5.263   5.673   5.078
 4455SOL    HW214265   5.409   5.677   5.150
 4456SOL     OW14266   2.467   5.730   3.487
 4456SOL    HW114267   2.531   5.746   3.412
 4456SOL    HW214268   2.410   5.811   3.501
 4457SOL     OW14269   2.156   1.824   4.210
 4457SOL    HW114270   2.228   1.783   4.153
 4457SOL    HW214271   2.073   1.768   4.204
 4458SOL     OW14272   2.668   3.672   1.610
 4458SOL    HW114273   2.572   3.646   1.615
 4458SOL    HW214274   2.723   3.590   1.596
 4459SOL     OW14275   2.590   1.824   4.128
 4459SOL    HW114276   2.668   1.872   4.088
 4459SOL    HW214277   2.561   1.870   4.212
 4460SOL     OW14278   0.759   2.808   6.102
 4460SOL    HW114279   0.760   2.906   6.123
 4460SOL    HW214280   0.736   2.756   6.184
 4461SOL     OW14281   1.699   0.997   0.932
 4461SOL    HW114282   1.780   0.939   0.929
 4461SOL    HW214283   1.636   0.963   1.001
 4462SOL     OW14284   6.524   4.182   2.355
 4462SOL    HW114285   6.589   4.189   2.280
 4462SOL    HW214286   6.431   4.182   2.319
 4463SOL     OW14287   5.190   1.791   1.462
 4463SOL    HW114288   5.232   1.719   1.517
 4463SOL    HW214289   5.140   1.854   1.522
 4464SOL     OW14290   0.645   5.786   0.041
 4464SOL    HW114291   0.714   5.787   6.991
 4464SOL    HW214292   0.689   5.769   0.129
 4465SOL     OW14293   2.691   4.986   0.327
 4465SOL    HW114294   2.731   4.918   0.390
 4465SOL    HW214295   2.715   4.962   0.233
 4466SOL     OW14296   1.340   1.991   2.551
 4466SOL    HW114297   1.416   1.955   2.496
 4466SOL    HW214298   1.292   2.062   2.499
 4467SOL     OW14299   2.338   5.469   3.471
 4467SOL    HW114300   2.241   5.462   3.493
 4467SOL    HW214301   2.362   5.566   3.460
 4468SOL     OW14302   1.037   4.551   1.216
 4468SOL    HW114303   1.068   4.604   1.137
 4468SOL    HW214304   1.000   4.463   1.185
 4469SOL     OW14305   2.961   0.972   1.567
 4469SOL    HW114306   2.949   0.877   1.596
 4469SOL    HW214307   2.995   0.974   1.473
 4470SOL     OW14308   0.460   1.643   2.195
 4470SOL    HW114309   0.403   1.588   2.134
 4470SOL    HW214310   0.402   1.695   2.258
 4471SOL     OW14311   2.272   2.593   6.833
 4471SOL    HW114312   2.213   2.654   6.886
 4471SOL    HW214313   2.274   2.503   6.876
 4472SOL     OW14314   1.395   1.998   0.509
 4472SOL    HW114315   1.402   2.091   0.544
 4472SOL    HW214316   1.467   1.983   0.441
 4473SOL     OW14317   5.842   3.174   3.499
 4473SOL    HW114318   5.802   3.221   3.420
 4473SOL    HW214319   5.781   3.100   3.527
 4474SOL     OW14320   2.702   6.780   2.183
 4474SOL    HW114321   2.630   6.850   2.193
 4474SOL    HW214322   2.683   6.705   2.246
 4475SOL     OW14323   0.897   3.745   1.854
 4475SOL    HW114324   0.972   3.808   1.832
 4475SOL    HW214325   0.812   3.779   1.814
 4476SOL     OW14326   6.186   1.005   4.651
 4476SOL    HW114327   6.149   1.084   4.602
 4476SOL    HW214328   6.124   0.927   4.639
 4477SOL     OW14329   1.910   0.503   5.124
 4477SOL    HW114330   1.852   0.491   5.204
 4477SOL    HW214331   1.977   0.575   5.142
 4478SOL     OW14332   1.111   0.391   1.592
 4478SOL    HW114333   1.186   0.369   1.654
 4478SOL    HW214334   1.115   0.331   1.512
 4479SOL     OW14335   1.167   1.516   0.977
 4479SOL    HW114336   1.113   1.437   0.948
 4479SOL    HW214337   1.159   1.589   0.909
 4480SOL     OW14338   0.650   4.468   5.008
 4480SOL    HW114339   0.558   4.465   4.970
 4480SOL    HW214340   0.714   4.499   4.939
 4481SOL     OW14341   2.478   5.340   5.057
 4481SOL    HW114342   2.457   5.399   4.979
 4481SOL    HW214343   2.402   5.278   5.075
 4482SOL     OW14344   2.410   3.015   5.727
 4482SOL    HW114345   2.467   3.076   5.672
 4482SOL    HW214346   2.314   3.044   5.720
 4483SOL     OW14347   0.636   2.642   2.066
 4483SOL    HW114348   0.627   2.543   2.073
 4483SOL    HW214349   0.580   2.676   1.990
 4484SOL     OW14350   2.387   2.847   0.204
 4484SOL    HW114351   2.290   2.836   0.179
 4484SOL    HW214352   2.401   2.938   0.241
 4485SOL     OW14353   4.655   2.809   5.234
 4485SOL    HW114354   4.599   2.746   5.180
 4485SOL    HW214355   4.602   2.892   5.254
 4486SOL     OW14356   5.859   4.961   5.066
 4486SOL    HW114357   5.793   4.991   5.135
 4486SOL    HW214358   5.909   5.040   5.032
 4487SOL     OW14359   2.416   2.621   0.049
 4487SOL    HW114360   2.409   2.712   0.088
 4487SOL    HW214361   2.415   2.627   6.971
 4488SOL     OW14362   1.135   3.699   4.316
 4488SOL    HW114363   1.155   3.634   4.389
 4488SOL    HW214364   1.132   3.650   4.228
 4489SOL     OW14365   5.097   5.699   5.077
 4489SOL    HW114366   5.024   5.760   5.107
 4489SOL    HW214367   5.061   5.606   5.070
 4490SOL     OW14368   4.937   2.454   1.280
 4490SOL    HW114369   4.868   2.526   1.281
 4490SOL    HW214370   5.008   2.477   1.213
 4491SOL     OW14371   0.717   3.356   3.264
 4491SOL    HW114372   0.776   3.277   3.283
 4491SOL    HW214373   0.646   3.330   3.199
 4492SOL     OW14374   5.998   2.363   2.229
 4492SOL    HW114375   5.912   2.390   2.273
 4492SOL    HW214376   6.064   2.438   2.237
 4493SOL     OW14377   5.855   6.559   4.702
 4493SOL    HW114378   5.762   6.584   4.675
 4493SOL    HW214379   5.886   6.621   4.775
 4494SOL     OW14380   1.223   0.567   6.165
 4494SOL    HW114381   1.230   0.569   6.265
 4494SOL    HW214382   1.154   0.633   6.136
 4495SOL     OW14383   4.060   0.299   2.856
 4495SOL    HW114384   4.007   0.231   2.805
 4495SOL    HW214385   4.114   0.253   2.927
 4496SOL     OW14386   5.194   6.417   0.248
 4496SOL    HW114387   5.243   6.385   0.329
 4496SOL    HW214388   5.121   6.479   0.276
 4497SOL     OW14389   4.116   2.669   6.716
 4497SOL    HW114390   4.062   2.753   6.721
 4497SOL    HW214391   4.121   2.627   6.807
 4498SOL     OW14392   6.630   4.824   6.352
 4498SOL    HW114393   6.730   4.832   6.346
 4498SOL    HW214394   6.594   4.788   6.266
 4499SOL     OW14395   5.933   2.164   3.763
 4499SOL    HW114396   5.835   2.148   3.751
 4499SOL    HW214397   5.954   2.259   3.740
 4500SOL     OW14398   3.733   4.483   6.687
 4500SOL    HW114399   3.660   4.550   6.671
 4500SOL    HW214400   3.822   4.528   6.680
 4501SOL     OW14401   5.597   2.407   3.003
 4501SOL    HW114402   5.540   2.483   3.035
 4501SOL    HW214403   5.645   2.434   2.920
 4502SOL     OW14404   0.935   4.166   6.820
 4502SOL    HW114405   0.998   4.110   6.874
 4502SOL    HW214406   0.985   4.215   6.749
 4503SOL     OW14407   3.040   0.210   2.073
 4503SOL    HW114408   2.982   0.132   2.095
 4503SOL    HW214409   3.001   0.293   2.115
 4504SOL     OW14410   6.569   2.439   4.311
 4504SOL    HW114411   6.522   2.527   4.301
 4504SOL    HW214412   6.584   2.399   4.220
 4505SOL     OW14413   6.771   4.157   2.193
 4505SOL    HW114414   6.825   4.216   2.254
 4505SOL    HW214415   6.809   4.160   2.101
 4506SOL     OW14416   5.232   2.672   3.659
 4506SOL    HW114417   5.297   2.744   3.686
 4506SOL    HW214418   5.281   2.587   3.641
 4507SOL     OW14419   0.102   3.098   4.125
 4507SOL    HW114420   0.147   3.041   4.056
 4507SOL    HW214421   0.140   3.076   4.215
 4508SOL     OW14422   1.485   4.529   0.085
 4508SOL    HW114423   1.473   4.611   0.029
 4508SOL    HW214424   1.573   4.532   0.131
 4509SOL     OW14425   4.610   2.651   3.079
 4509SOL    HW114426   4.666   2.719   3.127
 4509SOL    HW214427   4.653   2.628   2.992
 4510SOL     OW14428   4.846   1.350   4.633
 4510SOL    HW114429   4.795   1.430   4.600
 4510SOL    HW214430   4.933   1.343   4.584
 4511SOL     OW14431   6.214   3.702   0.532
 4511SOL    HW114432   6.285   3.749   0.584
 4511SOL    HW214433   6.160   3.768   0.480
 4512SOL     OW14434   3.535   1.786   5.745
 4512SOL    HW114435   3.588   1.853   5.693
 4512SOL    HW214436   3.439   1.813   5.745
 4513SOL     OW14437   0.669   5.882   6.444
 4513SOL    HW114438   0.684   5.882   6.543
 4513SOL    HW214439   0.668   5.976   6.410
 4514SOL     OW14440   3.502   2.947   0.245
 4514SOL    HW114441   3.438   2.967   0.170
 4514SOL    HW214442   3.504   2.849   0.261
 4515SOL     OW14443   5.272   1.477   4.917
 4515SOL    HW114444   5.249   1.382   4.941
 4515SOL    HW214445   5.369   1.492   4.930
 4516SOL     OW14446   2.273   0.616   5.608
 4516SOL    HW114447   2.338   0.576   5.673
 4516SOL    HW214448   2.197   0.553   5.593
 4517SOL     OW14449   4.461   6.397   6.374
 4517SOL    HW114450   4.435   6.301   6.374
 4517SOL    HW214451   4.379   6.454   6.374
 4518SOL     OW14452   1.037   6.697   1.438
 4518SOL    HW114453   0.988   6.614   1.463
 4518SOL    HW214454   1.096   6.679   1.360
 4519SOL     OW14455   5.007   6.432   6.726
 4519SOL    HW114456   5.089   6.394   6.768
 4519SOL    HW214457   4.958   6.361   6.676
 4520SOL     OW14458   4.227   5.632   5.646
 4520SOL    HW114459   4.325   5.647   5.654
 4520SOL    HW214460   4.181   5.665   5.728
 4521SOL     OW14461   5.048   2.323   5.155
 4521SOL    HW114462   5.065   2.239   5.207
 4521SOL    HW214463   5.072   2.308   5.059
 4522SOL     OW14464   6.208   3.982   2.914
 4522SOL    HW114465   6.211   3.912   2.842
 4522SOL    HW214466   6.113   4.007   2.933
 4523SOL     OW14467   1.912   4.070   7.016
 4523SOL    HW114468   2.009   4.092   7.004
 4523SOL    HW214469   1.877   4.029   6.932
 4524SOL     OW14470   6.702   3.373   2.253
 4524SOL    HW114471   6.766   3.360   2.176
 4524SOL    HW214472   6.746   3.343   2.337
 4525SOL     OW14473   3.213   2.210   5.584
 4525SOL    HW114474   3.291   2.172   5.634
 4525SOL    HW214475   3.128   2.184   5.629
 4526SOL     OW14476   0.290   0.985   6.976
 4526SOL    HW114477   0.349   1.062   6.950
 4526SOL    HW214478   0.338   0.899   6.956
 4527SOL     OW14479   6.579   0.502   2.903
 4527SOL    HW114480   6.558   0.589   2.858
 4527SOL    HW214481   6.494   0.453   2.920
 4528SOL     OW14482   4.211   0.618   6.246
 4528SOL    HW114483   4.295   0.632   6.299
 4528SOL    HW214484   4.143   0.686   6.272
 4529SOL     OW14485   3.112   1.464   5.691
 4529SOL    HW114486   3.100   1.502   5.783
 4529SOL    HW214487   3.054   1.383   5.681
 4530SOL     OW14488   2.512   5.442   3.876
 4530SOL    HW114489   2.596   5.419   3.924
 4530SOL    HW214490   2.532   5.507   3.803
 4531SOL     OW14491   0.930   3.691   6.576
 4531SOL    HW114492   0.952   3.787   6.559
 4531SOL    HW214493   0.865   3.659   6.506
 4532SOL     OW14494   4.959   0.974   3.076
 4532SOL    HW114495   5.040   0.997   3.129
 4532SOL    HW214496   4.984   0.911   3.001
 4533SOL     OW14497   1.622   1.514   3.308
 4533SOL    HW114498   1.557   1.507   3.233
 4533SOL    HW214499   1.662   1.605   3.310
 4534SOL     OW14500   4.313   2.314   5.290
 4534SOL    HW114501   4.221   2.277   5.283
 4534SOL    HW214502   4.375   2.260   5.233
 4535SOL     OW14503   3.529   1.096   1.230
 4535SOL    HW114504   3.516   0.997   1.235
 4535SOL    HW214505   3.590   1.125   1.303
 4536SOL     OW14506   2.754   1.438   5.447
 4536SOL    HW114507   2.716   1.432   5.355
 4536SOL    HW214508   2.779   1.347   5.479
 4537SOL     OW14509   4.058   3.816   2.630
 4537SOL    HW114510   4.048   3.724   2.668
 4537SOL    HW214511   4.050   3.813   2.530
 4538SOL     OW14512   2.252   1.677   2.361
 4538SOL    HW114513   2.225   1.619   2.438
 4538SOL    HW214514   2.315   1.748   2.394
 4539SOL     OW14515   1.990   5.717   4.487
 4539SOL    HW114516   1.962   5.776   4.563
 4539SOL    HW214517   2.078   5.675   4.509
 4540SOL     OW14518   1.148   1.214   1.047
 4540SOL    HW114519   1.227   1.216   0.986
 4540SOL    HW214520   1.067   1.244   0.997
 4541SOL     OW14521   4.761   1.440   6.620
 4541SOL    HW114522   4.833   1.418   6.686
 4541SOL    HW214523   4.679   1.469   6.668
 4542SOL     OW14524   0.105   1.961   1.288
 4542SOL    HW114525   0.186   1.912   1.318
 4542SOL    HW214526   0.034   1.955   1.358
 4543SOL     OW14527   4.455   2.282   0.757
 4543SOL    HW114528   4.362   2.271   0.791
 4543SOL    HW214529   4.489   2.194   0.723
 4544SOL     OW14530   4.250   4.705   0.872
 4544SOL    HW114531   4.181   4.642   0.908
 4544SOL    HW214532   4.208   4.794   0.856
 4545SOL     OW14533   0.411   3.719   5.439
 4545SOL    HW114534   0.343   3.789   5.460
 4545SOL    HW214535   0.426   3.661   5.519
 4546SOL     OW14536   3.152   6.941   5.429
 4546SOL    HW114537   3.163   0.004   5.481
 4546SOL    HW214538   3.122   6.962   5.336
 4547SOL     OW14539   6.374   0.606   0.188
 4547SOL    HW114540   6.375   0.676   0.116
 4547SOL    HW214541   6.313   0.634   0.261
 4548SOL     OW14542   2.606   2.165   3.158
 4548SOL    HW114543   2.522   2.127   3.198
 4548SOL    HW214544   2.643   2.235   3.218
 4549SOL     OW14545   5.252   4.187   2.378
 4549SOL    HW114546   5.190   4.200   2.455
 4549SOL    HW214547   5.255   4.090   2.354
 4550SOL     OW14548   0.963   4.365   3.898
 4550SOL    HW114549   1.028   4.371   3.821
 4550SOL    HW214550   1.011   4.331   3.979
 4551SOL     OW14551   0.850   3.689   5.489
 4551SOL    HW114552   0.780   3.623   5.516
 4551SOL    HW214553   0.809   3.761   5.434
 4552SOL     OW14554   5.911   2.328   1.627
 4552SOL    HW114555   5.854   2.392   1.678
 4552SOL    HW214556   5.882   2.234   1.647
 4553SOL     OW14557   5.179   4.249   7.005
 4553SOL    HW114558   5.243   4.289   6.940
 4553SOL    HW214559   5.150   4.318   0.050
 4554SOL     OW14560   0.350   6.879   1.679
 4554SOL    HW114561   0.386   6.786   1.683
 4554SOL    HW214562   0.260   6.882   1.723
 4555SOL     OW14563   1.258   1.141   6.589
 4555SOL    HW114564   1.310   1.149   6.504
 4555SOL    HW214565   1.167   1.179   6.575
 4556SOL     OW14566   6.141   3.215   5.343
 4556SOL    HW114567   6.131   3.313   5.356
 4556SOL    HW214568   6.062   3.168   5.382
 4557SOL     OW14569   5.971   5.200   4.610
 4557SOL    HW114570   5.892   5.232   4.557
 4557SOL    HW214571   5.950   5.206   4.707
 4558SOL     OW14572   6.631   3.332   5.110
 4558SOL    HW114573   6.704   3.354   5.175
 4558SOL    HW214574   6.543   3.330   5.158
 4559SOL     OW14575   0.641   3.451   2.609
 4559SOL    HW114576   0.709   3.522   2.594
 4559SOL    HW214577   0.562   3.466   2.549
 4560SOL     OW14578   6.157   4.489   2.476
 4560SOL    HW114579   6.120   4.476   2.384
 4560SOL    HW214580   6.082   4.486   2.542
 4561SOL     OW14581   3.510   1.594   3.899
 4561SOL    HW114582   3.522   1.661   3.972
 4561SOL    HW214583   3.594   1.540   3.890
 4562SOL     OW14584   2.138   6.509   0.275
 4562SOL    HW114585   2.111   6.488   0.181
 4562SOL    HW214586   2.144   6.608   0.286
 4563SOL     OW14587   6.992   3.304   1.144
 4563SOL    HW114588   6.943   3.285   1.059
 4563SOL    HW214589   0.061   3.339   1.122
 4564SOL     OW14590   6.844   4.593   2.279
 4564SOL    HW114591   6.793   4.676   2.301
 4564SOL    HW214592   6.942   4.611   2.286
 4565SOL     OW14593   1.478   1.719   4.761
 4565SOL    HW114594   1.495   1.621   4.753
 4565SOL    HW214595   1.516   1.766   4.681
 4566SOL     OW14596   0.476   3.688   0.909
 4566SOL    HW114597   0.553   3.685   0.973
 4566SOL    HW214598   0.499   3.637   0.827
 4567SOL     OW14599   0.190   0.359   0.059
 4567SOL    HW114600   0.241   0.324   7.002
 4567SOL    HW214601   0.092   0.349   0.042
 4568SOL     OW14602   0.997   4.587   4.930
 4568SOL    HW114603   0.969   4.527   4.855
 4568SOL    HW214604   0.955   4.677   4.919
 4569SOL     OW14605   2.900   0.758   2.631
 4569SOL    HW114606   2.957   0.795   2.557
 4569SOL    HW214607   2.931   0.665   2.653
 4570SOL     OW14608   6.171   6.464   2.151
 4570SOL    HW114609   6.122   6.488   2.067
 4570SOL    HW214610   6.148   6.370   2.177
 4571SOL     OW14611   4.332   3.196   6.961
 4571SOL    HW114612   4.238   3.212   6.992
 4571SOL    HW214613   4.356   3.100   6.976
 4572SOL     OW14614   2.036   1.807   6.603
 4572SOL    HW114615   2.034   1.880   6.535
 4572SOL    HW214616   1.962   1.742   6.584
 4573SOL     OW14617   0.993   0.038   0.560
 4573SOL    HW114618   0.978   0.013   0.656
 4573SOL    HW214619   0.934   7.004   0.502
 4574SOL     OW14620   5.977   4.250   6.596
 4574SOL    HW114621   5.973   4.269   6.694
 4574SOL    HW214622   5.888   4.267   6.555
 4575SOL     OW14623   5.949   0.830   4.600
 4575SOL    HW114624   5.931   0.924   4.569
 4575SOL    HW214625   5.871   0.797   4.653
 4576SOL     OW14626   2.462   4.704   5.374
 4576SOL    HW114627   2.510   4.618   5.358
 4576SOL    HW214628   2.527   4.780   5.369
 4577SOL     OW14629   1.488   2.515   3.050
 4577SOL    HW114630   1.421   2.544   3.118
 4577SOL    HW214631   1.566   2.577   3.051
 4578SOL     OW14632   0.855   0.959   3.783
 4578SOL    HW114633   0.883   1.018   3.859
 4578SOL    HW214634   0.832   1.015   3.704
 4579SOL     OW14635   5.003   1.304   1.356
 4579SOL    HW114636   4.967   1.211   1.360
 4579SOL    HW214637   5.070   1.310   1.282
 4580SOL     OW14638   5.517   4.249   0.882
 4580SOL    HW114639   5.466   4.165   0.900
 4580SOL    HW214640   5.453   4.322   0.859
 4581SOL     OW14641   2.792   6.376   2.388
 4581SOL    HW114642   2.814   6.335   2.300
 4581SOL    HW214643   2.873   6.422   2.425
 4582SOL     OW14644   4.586   0.781   3.128
 4582SOL    HW114645   4.634   0.757   3.211
 4582SOL    HW214646   4.492   0.807   3.150
 4583SOL     OW14647   2.032   1.029   6.244
 4583SOL    HW114648   2.115   1.006   6.193
 4583SOL    HW214649   2.046   1.011   6.341
 4584SOL     OW14650   1.959   6.293   6.073
 4584SOL    HW114651   1.888   6.230   6.105
 4584SOL    HW214652   1.961   6.292   5.973
 4585SOL     OW14653   1.856   3.941   3.599
 4585SOL    HW114654   1.834   4.031   3.560
 4585SOL    HW214655   1.812   3.870   3.544
 4586SOL     OW14656   5.425   3.789   0.891
 4586SOL    HW114657   5.424   3.691   0.872
 4586SOL    HW214658   5.518   3.824   0.883
 4587SOL     OW14659   3.442   3.122   4.478
 4587SOL    HW114660   3.521   3.078   4.435
 4587SOL    HW214661   3.421   3.206   4.430
 4588SOL     OW14662   3.256   3.303   5.721
 4588SOL    HW114663   3.325   3.369   5.749
 4588SOL    HW214664   3.192   3.288   5.796
 4589SOL     OW14665   5.631   6.511   1.975
 4589SOL    HW114666   5.565   6.539   2.044
 4589SOL    HW214667   5.606   6.423   1.937
 4590SOL     OW14668   3.603   6.367   1.594
 4590SOL    HW114669   3.534   6.332   1.657
 4590SOL    HW214670   3.563   6.374   1.502
 4591SOL     OW14671   1.751   0.823   4.629
 4591SOL    HW114672   1.661   0.854   4.659
 4591SOL    HW214673   1.818   0.839   4.701
 4592SOL     OW14674   2.600   2.113   3.874
 4592SOL    HW114675   2.577   2.141   3.967
 4592SOL    HW214676   2.561   2.178   3.809
 4593SOL     OW14677   6.459   5.774   2.739
 4593SOL    HW114678   6.556   5.750   2.732
 4593SOL    HW214679   6.436   5.790   2.835
 4594SOL     OW14680   3.460   0.336   3.083
 4594SOL    HW114681   3.527   0.264   3.103
 4594SOL    HW214682   3.424   0.373   3.168
 4595SOL     OW14683   4.717   2.709   5.777
 4595SOL    HW114684   4.687   2.792   5.730
 4595SOL    HW214685   4.645   2.677   5.838
 4596SOL     OW14686   6.968   0.802   2.121
 4596SOL    HW114687   0.032   0.753   2.111
 4596SOL    HW214688   6.910   0.754   2.186
 4597SOL     OW14689   2.962   5.547   6.783
 4597SOL    HW114690   2.867   5.560   6.752
 4597SOL    HW214691   3.007   5.480   6.725
 4598SOL     OW14692   2.166   5.782   1.099
 4598SOL    HW114693   2.243   5.759   1.039
 4598SOL    HW214694   2.089   5.814   1.045
 4599SOL     OW14695   1.786   3.703   2.366
 4599SOL    HW114696   1.787   3.745   2.275
 4599SOL    HW214697   1.832   3.764   2.431
 4600SOL     OW14698   0.582   0.013   5.960
 4600SOL    HW114699   0.499   0.021   5.906
 4600SOL    HW214700   0.660   7.016   5.900
 4601SOL     OW14701   0.448   1.624   5.051
 4601SOL    HW114702   0.516   1.566   5.095
 4601SOL    HW214703   0.494   1.687   4.988
 4602SOL     OW14704   2.861   6.766   6.376
 4602SOL    HW114705   2.937   6.802   6.322
 4602SOL    HW214706   2.895   6.729   6.463
 4603SOL     OW14707   3.775   5.975   0.924
 4603SOL    HW114708   3.821   5.897   0.966
 4603SOL    HW214709   3.677   5.955   0.915
 4604SOL     OW14710   4.954   6.729   6.007
 4604SOL    HW114711   5.047   6.731   5.971
 4604SOL    HW214712   4.934   6.638   6.044
 4605SOL     OW14713   2.371   0.251   1.986
 4605SOL    HW114714   2.282   0.266   2.029
 4605SOL    HW214715   2.368   0.287   1.893
 4606SOL     OW14716   6.833   7.016   2.616
 4606SOL    HW114717   6.906   0.017   2.680
 4606SOL    HW214718   6.862   6.939   2.558
 4607SOL     OW14719   2.065   3.641   3.041
 4607SOL    HW114720   2.057   3.741   3.042
 4607SOL    HW214721   1.975   3.601   3.060
 4608SOL     OW14722   0.447   3.795   3.602
 4608SOL    HW114723   0.532   3.819   3.649
 4608SOL    HW214724   0.465   3.724   3.534
 4609SOL     OW14725   5.205   5.327   6.892
 4609SOL    HW114726   5.120   5.377   6.905
 4609SOL    HW214727   5.188   5.228   6.897
 4610SOL     OW14728   4.815   2.164   6.656
 4610SOL    HW114729   4.717   2.168   6.637
 4610SOL    HW214730   4.854   2.084   6.611
 4611SOL     OW14731   0.275   0.882   5.732
 4611SOL    HW114732   0.313   0.975   5.732
 4611SOL    HW214733   0.320   0.828   5.661
 4612SOL     OW14734   2.327   6.571   1.792
 4612SOL    HW114735   2.248   6.579   1.853
 4612SOL    HW214736   2.369   6.660   1.780
 4613SOL     OW14737   1.514   5.548   2.357
 4613SOL    HW114738   1.536   5.645   2.360
 4613SOL    HW214739   1.568   5.499   2.425
 4614SOL     OW14740   6.028   3.195   3.750
 4614SOL    HW114741   6.105   3.258   3.743
 4614SOL    HW214742   5.960   3.216   3.681
 4615SOL     OW14743   1.353   0.664   1.787
 4615SOL    HW114744   1.269   0.642   1.836
 4615SOL    HW214745   1.432   0.630   1.839
 4616SOL     OW14746   6.072   2.652   4.236
 4616SOL    HW114747   6.114   2.569   4.273
 4616SOL    HW214748   6.130   2.690   4.164
 4617SOL     OW14749   1.568   2.068   2.168
 4617SOL    HW114750   1.585   2.047   2.265
 4617SOL    HW214751   1.475   2.040   2.144
 4618SOL     OW14752   2.824   3.383   5.614
 4618SOL    HW114753   2.916   3.358   5.582
 4618SOL    HW214754   2.782   3.446   5.548
 4619SOL     OW14755   3.272   6.671   3.550
 4619SOL    HW114756   3.194   6.715   3.505
 4619SOL    HW214757   3.241   6.625   3.633
 4620SOL     OW14758   0.381   5.282   1.329
 4620SOL    HW114759   0.417   5.368   1.294
 4620SOL    HW214760   0.441   5.207   1.300
 4621SOL     OW14761   5.259   0.374   2.244
 4621SOL    HW114762   5.311   0.420   2.173
 4621SOL    HW214763   5.168   0.414   2.250
 4622SOL     OW14764   4.566   4.765   1.384
 4622SOL    HW114765   4.521   4.853   1.368
 4622SOL    HW214766   4.522   4.719   1.461
 4623SOL     OW14767   3.980   5.733   0.948
 4623SOL    HW114768   3.920   5.654   0.961
 4623SOL    HW214769   3.996   5.747   0.850
 4624SOL     OW14770   3.510   1.270   3.160
 4624SOL    HW114771   3.469   1.200   3.101
 4624SOL    HW214772   3.450   1.288   3.238
 4625SOL     OW14773   2.398   6.076   1.746
 4625SOL    HW114774   2.431   6.169   1.762
 4625SOL    HW214775   2.445   6.038   1.666
 4626SOL     OW14776   4.215   3.777   1.510
 4626SOL    HW114777   4.204   3.706   1.579
 4626SOL    HW214778   4.235   3.736   1.421
 4627SOL     OW14779   0.285   6.217   5.108
 4627SOL    HW114780   0.259   6.201   5.203
 4627SOL    HW214781   0.273   6.314   5.086
 4628SOL     OW14782   4.949   4.700   3.723
 4628SOL    HW114783   4.917   4.730   3.634
 4628SOL    HW214784   4.943   4.777   3.788
 4629SOL     OW14785   2.852   5.197   6.520
 4629SOL    HW114786   2.838   5.139   6.440
 4629SOL    HW214787   2.943   5.239   6.515
 4630SOL     OW14788   2.192   5.477   2.514
 4630SOL    HW114789   2.283   5.438   2.524
 4630SOL    HW214790   2.159   5.509   2.603
 4631SOL     OW14791   0.920   6.944   3.651
 4631SOL    HW114792   0.971   6.874   3.701
 4631SOL    HW214793   0.826   6.948   3.684
 4632SOL     OW14794   2.305   5.513   2.970
 4632SOL    HW114795   2.393   5.491   2.929
 4632SOL    HW214796   2.303   5.480   3.065
 4633SOL     OW14797   5.016   1.380   4.425
 4633SOL    HW114798   5.052   1.433   4.349
 4633SOL    HW214799   5.065   1.292   4.431
 4634SOL     OW14800   2.981   3.799   4.882
 4634SOL    HW114801   2.927   3.838   4.957
 4634SOL    HW214802   2.985   3.700   4.892
 4635SOL     OW14803   4.272   4.263   1.330
 4635SOL    HW114804   4.328   4.326   1.383
 4635SOL    HW214805   4.308   4.170   1.339
 4636SOL     OW14806   2.012   5.062   0.972
 4636SOL    HW114807   1.965   4.983   0.934
 4636SOL    HW214808   2.071   5.034   1.047
 4637SOL     OW14809   0.909   6.651   0.267
 4637SOL    HW114810   0.995   6.668   0.218
 4637SOL    HW214811   0.873   6.561   0.242
 4638SOL     OW14812   3.592   5.289   6.970
 4638SOL    HW114813   3.577   5.227   6.893
 4638SOL    HW214814   3.690   5.302   6.984
 4639SOL     OW14815   2.736   2.757   6.589
 4639SOL    HW114816   2.725   2.669   6.635
 4639SOL    HW214817   2.681   2.826   6.637
 4640SOL     OW14818   6.143   2.929   4.100
 4640SOL    HW114819   6.203   3.004   4.129
 4640SOL    HW214820   6.189   2.875   4.029
 4641SOL     OW14821   1.977   6.960   3.643
 4641SOL    HW114822   1.970   6.932   3.547
 4641SOL    HW214823   1.894   6.933   3.692
 4642SOL     OW14824   1.649   0.758   3.465
 4642SOL    HW114825   1.713   0.737   3.391
 4642SOL    HW214826   1.617   0.852   3.455
 4643SOL     OW14827   6.661   2.120   0.439
 4643SOL    HW114828   6.578   2.176   0.436
 4643SOL    HW214829   6.708   2.135   0.525
 4644SOL     OW14830   6.499   0.894   6.018
 4644SOL    HW114831   6.436   0.971   6.024
 4644SOL    HW214832   6.593   0.927   6.008
 4645SOL     OW14833   1.296   0.787   4.474
 4645SOL    HW114834   1.201   0.820   4.476
 4645SOL    HW214835   1.357   0.862   4.448
 4646SOL     OW14836   2.614   5.062   4.336
 4646SOL    HW114837   2.582   4.968   4.347
 4646SOL    HW214838   2.540   5.118   4.297
 4647SOL     OW14839   1.284   0.468   3.030
 4647SOL    HW114840   1.197   0.419   3.023
 4647SOL    HW214841   1.303   0.514   2.944
 4648SOL     OW14842   2.537   0.870   4.216
 4648SOL    HW114843   2.633   0.876   4.189
 4648SOL    HW214844   2.523   0.922   4.300
 4649SOL     OW14845   5.730   0.767   0.962
 4649SOL    HW114846   5.670   0.758   0.882
 4649SOL    HW214847   5.728   0.861   0.995
 4650SOL     OW14848   4.303   6.155   1.718
 4650SOL    HW114849   4.259   6.219   1.781
 4650SOL    HW214850   4.332   6.204   1.636
 4651SOL     OW14851   5.926   3.819   6.803
 4651SOL    HW114852   5.872   3.741   6.835
 4651SOL    HW214853   5.865   3.891   6.770
 4652SOL     OW14854   6.359   6.118   4.759
 4652SOL    HW114855   6.419   6.186   4.716
 4652SOL    HW214856   6.337   6.147   4.852
 4653SOL     OW14857   5.160   5.015   0.392
 4653SOL    HW114858   5.132   4.922   0.420
 4653SOL    HW214859   5.141   5.027   0.295
 4654SOL     OW14860   6.953   6.619   5.572
 4654SOL    HW114861   6.959   6.629   5.672
 4654SOL    HW214862   6.862   6.647   5.542
 4655SOL     OW14863   4.880   3.842   1.806
 4655SOL    HW114864   4.957   3.903   1.783
 4655SOL    HW214865   4.838   3.873   1.891
 4656SOL     OW14866   0.940   0.575   1.735
 4656SOL    HW114867   0.980   0.508   1.672
 4656SOL    HW214868   0.902   0.651   1.683
 4657SOL     OW14869   5.753   5.887   1.943
 4657SOL    HW114870   5.771   5.985   1.950
 4657SOL    HW214871   5.835   5.840   1.910
 4658SOL     OW14872   2.749   2.782   5.405
 4658SOL    HW114873   2.753   2.772   5.505
 4658SOL    HW214874   2.836   2.752   5.366
 4659SOL     OW14875   3.222   4.196   1.370
 4659SOL    HW114876   3.148   4.167   1.430
 4659SOL    HW214877   3.186   4.214   1.278
 4660SOL     OW14878   1.528   0.026   3.854
 4660SOL    HW114879   1.461   0.061   3.920
 4660SOL    HW214880   1.584   0.102   3.822
 4661SOL     OW14881   2.812   4.768   5.995
 4661SOL    HW114882   2.729   4.741   6.044
 4661SOL    HW214883   2.792   4.777   5.897
 4662SOL     OW14884   2.825   0.293   4.765
 4662SOL    HW114885   2.888   0.314   4.690
 4662SOL    HW214886   2.778   0.207   4.745
 4663SOL     OW14887   0.513   6.838   0.221
 4663SOL    HW114888   0.565   6.794   0.294
 4663SOL    HW214889   0.429   6.876   0.258
 4664SOL     OW14890   0.050   0.446   0.648
 4664SOL    HW114891   7.005   0.470   0.719
 4664SOL    HW214892   0.067   0.348   0.651
 4665SOL     OW14893   2.429   0.577   6.306
 4665SOL    HW114894   2.499   0.513   6.275
 4665SOL    HW214895   2.339   0.545   6.277
 4666SOL     OW14896   2.127   2.427   6.658
 4666SOL    HW114897   2.154   2.504   6.716
 4666SOL    HW214898   2.198   2.357   6.659
 4667SOL     OW14899   6.776   3.876   2.226
 4667SOL    HW114900   6.784   3.963   2.178
 4667SOL    HW214901   6.755   3.892   2.322
 4668SOL     OW14902   4.147   1.872   4.752
 4668SOL    HW114903   4.245   1.883   4.766
 4668SOL    HW214904   4.103   1.855   4.841
 4669SOL     OW14905   5.621   0.120   0.050
 4669SOL    HW114906   5.655   0.098   6.981
 4669SOL    HW214907   5.563   0.045   0.082
 4670SOL     OW14908   1.272   3.348   0.167
 4670SOL    HW114909   1.298   3.262   0.123
 4670SOL    HW214910   1.177   3.343   0.197
 4671SOL     OW14911   0.827   3.210   0.284
 4671SOL    HW114912   0.739   3.243   0.251
 4671SOL    HW214913   0.895   3.216   0.210
 4672SOL     OW14914   4.350   4.646   5.925
 4672SOL    HW114915   4.357   4.727   5.866
 4672SOL    HW214916   4.279   4.661   5.994
 4673SOL     OW14917   5.240   0.109   7.004
 4673SOL    HW114918   5.328   0.068   6.981
 4673SOL    HW214919   5.181   0.107   6.923
 4674SOL     OW14920   5.959   1.840   0.176
 4674SOL    HW114921   5.961   1.818   0.273
 4674SOL    HW214922   5.987   1.935   0.162
 4675SOL     OW14923   3.858   0.114   6.728
 4675SOL    HW114924   3.906   0.155   6.806
 4675SOL    HW214925   3.881   0.017   6.723
 4676SOL     OW14926   0.340   6.542   4.386
 4676SOL    HW114927   0.252   6.568   4.425
 4676SOL    HW214928   0.330   6.528   4.287
 4677SOL     OW14929   2.999   0.469   0.054
 4677SOL    HW114930   3.064   0.392   0.056
 4677SOL    HW214931   2.921   0.448   0.113
 4678SOL     OW14932   2.083   5.316   2.311
 4678SOL    HW114933   2.098   5.393   2.373
 4678SOL    HW214934   2.148   5.322   2.235
 4679SOL     OW14935   3.517   1.373   6.408
 4679SOL    HW114936   3.463   1.407   6.331
 4679SOL    HW214937   3.550   1.281   6.388
 4680SOL     OW14938   2.294   6.338   1.316
 4680SOL    HW114939   2.232   6.399   1.266
 4680SOL    HW214940   2.249   6.305   1.398
 4681SOL     OW14941   6.447   6.362   4.189
 4681SOL    HW114942   6.414   6.299   4.259
 4681SOL    HW214943   6.540   6.392   4.214
 4682SOL     OW14944   4.284   5.377   7.018
 4682SOL    HW114945   4.184   5.381   7.014
 4682SOL    HW214946   4.312   5.300   0.053
 4683SOL     OW14947   5.255   4.678   2.424
 4683SOL    HW114948   5.194   4.758   2.433
 4683SOL    HW214949   5.261   4.651   2.328
 4684SOL     OW14950   0.497   2.468   4.676
 4684SOL    HW114951   0.483   2.539   4.745
 4684SOL    HW214952   0.411   2.418   4.661
 4685SOL     OW14953   6.722   5.427   4.321
 4685SOL    HW114954   6.789   5.434   4.246
 4685SOL    HW214955   6.684   5.335   4.323
 4686SOL     OW14956   5.151   5.693   0.209
 4686SOL    HW114957   5.217   5.765   0.188
 4686SOL    HW214958   5.179   5.608   0.164
 4687SOL     OW14959   6.617   4.171   5.029
 4687SOL    HW114960   6.653   4.107   5.096
 4687SOL    HW214961   6.680   4.249   5.020
 4688SOL     OW14962   0.313   3.116   6.456
 4688SOL    HW114963   0.376   3.174   6.508
 4688SOL    HW214964   0.302   3.154   6.364
 4689SOL     OW14965   6.037   0.187   6.161
 4689SOL    HW114966   5.967   0.254   6.134
 4689SOL    HW214967   6.022   0.102   6.111
 4690SOL     OW14968   0.927   0.760   6.761
 4690SOL    HW114969   0.890   0.804   6.843
 4690SOL    HW214970   0.990   0.823   6.715
 4691SOL     OW14971   2.821   3.866   1.731
 4691SOL    HW114972   2.765   3.790   1.700
 4691SOL    HW214973   2.784   3.952   1.695
 4692SOL     OW14974   6.827   5.240   2.798
 4692SOL    HW114975   6.755   5.197   2.853
 4692SOL    HW214976   6.839   5.189   2.713
 4693SOL     OW14977   0.418   1.037   4.876
 4693SOL    HW114978   0.474   1.095   4.935
 4693SOL    HW214979   0.339   1.004   4.928
 4694SOL     OW14980   3.028   0.614   0.613
 4694SOL    HW114981   3.081   0.626   0.529
 4694SOL    HW214982   3.041   0.520   0.646
 4695SOL     OW14983   3.508   3.352   1.830
 4695SOL    HW114984   3.442   3.276   1.822
 4695SOL    HW214985   3.601   3.315   1.827
 4696SOL     OW14986   1.184   4.559   6.000
 4696SOL    HW114987   1.114   4.568   5.929
 4696SOL    HW214988   1.165   4.621   6.076
 4697SOL     OW14989   1.846   3.597   0.959
 4697SOL    HW114990   1.781   3.568   0.890
 4697SOL    HW214991   1.899   3.675   0.925
 4698SOL     OW14992   4.658   4.682   2.672
 4698SOL    HW114993   4.620   4.679   2.764
 4698SOL    HW214994   4.611   4.615   2.615
 4699SOL     OW14995   0.647   0.275   2.425
 4699SOL    HW114996   0.576   0.245   2.489
 4699SOL    HW214997   0.631   0.233   2.336
 4700SOL     OW14998   5.379   1.628   1.638
 4700SOL    HW114999   5.372   1.551   1.701
 4700SOL    HW215000   5.433   1.700   1.679
 4701SOL     OW15001   1.181   1.555   0.174
 4701SOL    HW115002   1.143   1.628   0.118
 4701SOL    HW215003   1.194   1.473   0.118
 4702SOL     OW15004   4.296   4.444   6.436
 4702SOL    HW115005   4.257   4.397   6.515
 4702SOL    HW215006   4.394   4.455   6.448
 4703SOL     OW15007   0.533   2.102   2.327
 4703SOL    HW115008   0.618   2.154   2.321
 4703SOL    HW215009   0.472   2.145   2.394
 4704SOL     OW15010   0.085   6.151   0.899
 4704SOL    HW115011   0.178   6.118   0.882
 4704SOL    HW215012   0.032   6.081   0.946
 4705SOL     OW15013   3.221   3.030   3.099
 4705SOL    HW115014   3.317   3.024   3.069
 4705SOL    HW215015   3.188   2.938   3.121
 4706SOL     OW15016   4.141   5.917   6.373
 4706SOL    HW115017   4.169   5.994   6.316
 4706SOL    HW215018   4.046   5.895   6.354
 4707SOL     OW15019   2.396   5.828   0.921
 4707SOL    HW115020   2.320   5.839   0.857
 4707SOL    HW215021   2.434   5.918   0.943
 4708SOL     OW15022   2.460   2.752   0.731
 4708SOL    HW115023   2.441   2.705   0.817
 4708SOL    HW215024   2.404   2.834   0.724
 4709SOL     OW15025   4.009   5.045   5.101
 4709SOL    HW115026   3.956   5.120   5.139
 4709SOL    HW215027   3.967   5.015   5.015
 4710SOL     OW15028   4.405   0.902   6.331
 4710SOL    HW115029   4.429   0.958   6.251
 4710SOL    HW215030   4.482   0.843   6.354
 4711SOL     OW15031   4.360   0.104   2.759
 4711SOL    HW115032   4.409   0.188   2.782
 4711SOL    HW215033   4.331   0.107   2.664
 4712SOL     OW15034   2.417   4.812   0.868
 4712SOL    HW115035   2.481   4.823   0.792
 4712SOL    HW215036   2.388   4.901   0.901
 4713SOL     OW15037   3.179   4.536   1.028
 4713SOL    HW115038   3.248   4.608   1.034
 4713SOL    HW215039   3.098   4.563   1.080
 4714SOL     OW15040   1.977   2.208   0.043
 4714SOL    HW115041   1.940   2.158   6.987
 4714SOL    HW215042   1.902   2.247   0.096
 4715SOL     OW15043   6.489   3.682   2.430
 4715SOL    HW115044   6.402   3.639   2.455
 4715SOL    HW215045   6.486   3.779   2.452
 4716SOL     OW15046   3.667   4.986   6.436
 4716SOL    HW115047   3.689   4.932   6.517
 4716SOL    HW215048   3.739   4.974   6.367
 4717SOL     OW15049   1.363   5.968   2.403
 4717SOL    HW115050   1.392   5.922   2.487
 4717SOL    HW215051   1.347   5.900   2.332
 4718SOL     OW15052   5.507   1.648   6.793
 4718SOL    HW115053   5.586   1.693   6.836
 4718SOL    HW215054   5.423   1.685   6.833
 4719SOL     OW15055   4.889   3.403   2.884
 4719SOL    HW115056   4.896   3.494   2.846
 4719SOL    HW215057   4.884   3.409   2.984
 4720SOL     OW15058   2.390   6.685   5.632
 4720SOL    HW115059   2.460   6.644   5.573
 4720SOL    HW215060   2.321   6.730   5.577
 4721SOL     OW15061   0.495   2.396   2.091
 4721SOL    HW115062   0.397   2.377   2.097
 4721SOL    HW215063   0.539   2.328   2.032
 4722SOL     OW15064   1.902   6.146   6.728
 4722SOL    HW115065   1.891   6.067   6.668
 4722SOL    HW215066   1.871   6.122   6.820
 4723SOL     OW15067   1.778   5.834   6.080
 4723SOL    HW115068   1.751   5.816   5.986
 4723SOL    HW215069   1.816   5.750   6.120
 4724SOL     OW15070   4.211   6.481   2.653
 4724SOL    HW115071   4.179   6.524   2.738
 4724SOL    HW215072   4.140   6.487   2.583
 4725SOL     OW15073   5.021   6.384   3.183
 4725SOL    HW115074   5.086   6.413   3.253
 4725SOL    HW215075   5.054   6.413   3.093
 4726SOL     OW15076   1.062   3.382   6.304
 4726SOL    HW115077   1.049   3.314   6.376
 4726SOL    HW215078   1.096   3.467   6.345
 4727SOL     OW15079   0.195   5.796   6.899
 4727SOL    HW115080   0.121   5.736   6.929
 4727SOL    HW215081   0.156   5.880   6.860
 4728SOL     OW15082   5.083   1.349   0.599
 4728SOL    HW115083   5.140   1.428   0.623
 4728SOL    HW215084   5.012   1.337   0.668
 4729SOL     OW15085   1.921   1.092   2.902
 4729SOL    HW115086   1.837   1.105   2.955
 4729SOL    HW215087   1.975   1.018   2.943
 4730SOL     OW15088   2.162   6.246   5.801
 4730SOL    HW115089   2.123   6.158   5.774
 4730SOL    HW215090   2.097   6.320   5.781
 4731SOL     OW15091   5.449   0.320   5.646
 4731SOL    HW115092   5.426   0.379   5.569
 4731SOL    HW215093   5.540   0.280   5.632
 4732SOL     OW15094   0.055   3.170   6.875
 4732SOL    HW115095   0.066   3.085   6.823
 4732SOL    HW215096   0.039   3.245   6.812
 4733SOL     OW15097   1.192   3.979   3.558
 4733SOL    HW115098   1.266   3.921   3.524
 4733SOL    HW215099   1.128   3.925   3.611
 4734SOL     OW15100   5.582   2.528   6.858
 4734SOL    HW115101   5.604   2.617   6.819
 4734SOL    HW215102   5.667   2.479   6.878
 4735SOL     OW15103   1.098   4.819   3.350
 4735SOL    HW115104   1.173   4.843   3.288
 4735SOL    HW215105   1.011   4.829   3.303
 4736SOL     OW15106   0.275   1.134   6.541
 4736SOL    HW115107   0.330   1.088   6.610
 4736SOL    HW215108   0.329   1.208   6.499
 4737SOL     OW15109   2.491   4.864   2.309
 4737SOL    HW115110   2.464   4.923   2.385
 4737SOL    HW215111   2.414   4.854   2.246
 4738SOL     OW15112   0.348   6.226   2.038
 4738SOL    HW115113   0.324   6.158   1.970
 4738SOL    HW215114   0.302   6.312   2.017
 4739SOL     OW15115   4.610   0.284   1.959
 4739SOL    HW115116   4.527   0.255   2.007
 4739SOL    HW215117   4.675   0.209   1.957
 4740SOL     OW15118   0.623   1.409   2.242
 4740SOL    HW115119   0.708   1.407   2.295
 4740SOL    HW215120   0.593   1.503   2.230
 4741SOL     OW15121   3.951   2.365   0.871
 4741SOL    HW115122   3.920   2.398   0.960
 4741SOL    HW215123   3.905   2.280   0.849
 4742SOL     OW15124   1.874   6.745   6.938
 4742SOL    HW115125   1.806   6.802   6.986
 4742SOL    HW215126   1.966   6.776   6.962
 4743SOL     OW15127   1.976   3.621   2.697
 4743SOL    HW115128   1.878   3.641   2.702
 4743SOL    HW215129   1.989   3.523   2.684
 4744SOL     OW15130   2.065   5.490   0.698
 4744SOL    HW115131   2.100   5.405   0.739
 4744SOL    HW215132   2.097   5.497   0.604
 4745SOL     OW15133   2.824   3.712   0.107
 4745SOL    HW115134   2.800   3.656   0.028
 4745SOL    HW215135   2.922   3.702   0.127
 4746SOL     OW15136   4.320   5.624   3.764
 4746SOL    HW115137   4.365   5.713   3.769
 4746SOL    HW215138   4.387   5.551   3.778
 4747SOL     OW15139   1.132   3.077   0.531
 4747SOL    HW115140   1.033   3.078   0.516
 4747SOL    HW215141   1.156   3.146   0.599
 4748SOL     OW15142   1.722   6.541   1.805
 4748SOL    HW115143   1.753   6.564   1.897
 4748SOL    HW215144   1.631   6.498   1.810
 4749SOL     OW15145   2.376   6.950   0.058
 4749SOL    HW115146   2.334   6.958   6.990
 4749SOL    HW215147   2.452   6.885   0.055
 4750SOL     OW15148   6.458   4.071   5.351
 4750SOL    HW115149   6.479   4.169   5.349
 4750SOL    HW215150   6.442   4.039   5.258
 4751SOL     OW15151   5.240   2.097   2.848
 4751SOL    HW115152   5.280   2.185   2.822
 4751SOL    HW215153   5.189   2.107   2.933
 4752SOL     OW15154   4.435   1.253   0.629
 4752SOL    HW115155   4.368   1.183   0.651
 4752SOL    HW215156   4.401   1.343   0.658
 4753SOL     OW15157   1.170   6.889   4.440
 4753SOL    HW115158   1.226   6.870   4.521
 4753SOL    HW215159   1.219   6.861   4.358
 4754SOL     OW15160   4.585   3.979   6.020
 4754SOL    HW115161   4.528   3.908   6.063
 4754SOL    HW215162   4.672   3.939   5.991
 4755SOL     OW15163   1.906   0.818   0.918
 4755SOL    HW115164   1.912   0.834   0.819
 4755SOL    HW215165   1.965   0.884   0.966
 4756SOL     OW15166   6.998   4.345   6.641
 4756SOL    HW115167   7.006   4.315   6.737
 4756SOL    HW215168   0.061   4.324   6.593
 4757SOL     OW15169   1.403   2.661   1.721
 4757SOL    HW115170   1.449   2.574   1.734
 4757SOL    HW215171   1.308   2.646   1.693
 4758SOL     OW15172   1.459   0.003   3.563
 4758SOL    HW115173   1.372   0.043   3.592
 4758SOL    HW215174   1.505   6.985   3.642
 4759SOL     OW15175   0.706   5.387   0.185
 4759SOL    HW115176   0.617   5.359   0.221
 4759SOL    HW215177   0.731   5.475   0.223
 4760SOL     OW15178   1.282   6.796   0.947
 4760SOL    HW115179   1.248   6.852   0.871
 4760SOL    HW215180   1.363   6.745   0.918
 4761SOL     OW15181   0.089   0.180   0.713
 4761SOL    HW115182   0.055   0.108   0.774
 4761SOL    HW215183   0.166   0.227   0.757
 4762SOL     OW15184   1.584   5.533   2.085
 4762SOL    HW115185   1.682   5.516   2.076
 4762SOL    HW215186   1.563   5.561   2.179
 4763SOL     OW15187   4.659   6.031   2.300
 4763SOL    HW115188   4.562   6.040   2.325
 4763SOL    HW215189   4.696   6.122   2.282
 4764SOL     OW15190   4.854   3.648   5.378
 4764SOL    HW115191   4.821   3.725   5.434
 4764SOL    HW215192   4.800   3.641   5.295
 4765SOL     OW15193   3.343   0.936   5.623
 4765SOL    HW115194   3.330   0.889   5.535
 4765SOL    HW215195   3.429   0.988   5.620
 4766SOL     OW15196   6.040   6.959   4.265
 4766SOL    HW115197   5.947   6.961   4.230
 4766SOL    HW215198   6.098   6.906   4.202
 4767SOL     OW15199   2.372   5.686   5.098
 4767SOL    HW115200   2.448   5.663   5.037
 4767SOL    HW215201   2.409   5.715   5.186
 4768SOL     OW15202   4.562   3.313   6.410
 4768SOL    HW115203   4.658   3.286   6.423
 4768SOL    HW215204   4.511   3.294   6.494
 4769SOL     OW15205   2.952   6.104   0.696
 4769SOL    HW115206   3.042   6.125   0.735
 4769SOL    HW215207   2.882   6.156   0.745
 4770SOL     OW15208   6.721   2.056   5.440
 4770SOL    HW115209   6.693   2.146   5.473
 4770SOL    HW215210   6.821   2.049   5.441
 4771SOL     OW15211   2.256   6.896   4.919
 4771SOL    HW115212   2.191   6.832   4.960
 4771SOL    HW215213   2.343   6.849   4.903
 4772SOL     OW15214   2.900   4.526   0.742
 4772SOL    HW115215   2.948   4.448   0.701
 4772SOL    HW215216   2.959   4.607   0.739
 4773SOL     OW15217   1.605   5.805   4.386
 4773SOL    HW115218   1.653   5.718   4.383
 4773SOL    HW215219   1.568   5.826   4.296
 4774SOL     OW15220   1.554   4.325   0.530
 4774SOL    HW115221   1.495   4.340   0.451
 4774SOL    HW215222   1.649   4.319   0.500
 4775SOL     OW15223   5.107   6.820   4.678
 4775SOL    HW115224   5.200   6.811   4.643
 4775SOL    HW215225   5.042   6.820   4.602
 4776SOL     OW15226   1.420   0.983   5.129
 4776SOL    HW115227   1.455   0.920   5.198
 4776SOL    HW215228   1.470   0.971   5.044
 4777SOL     OW15229   1.385   5.669   0.271
 4777SOL    HW115230   1.398   5.635   0.364
 4777SOL    HW215231   1.339   5.599   0.216
 4778SOL     OW15232   0.772   2.663   4.956
 4778SOL    HW115233   0.792   2.738   4.894
 4778SOL    HW215234   0.833   2.586   4.936
 4779SOL     OW15235   6.236   0.530   4.207
 4779SOL    HW115236   6.298   0.524   4.286
 4779SOL    HW215237   6.159   0.590   4.230
 4780SOL     OW15238   5.812   2.693   5.595
 4780SOL    HW115239   5.847   2.623   5.657
 4780SOL    HW215240   5.882   2.762   5.579
 4781SOL     OW15241   2.546   5.859   2.149
 4781SOL    HW115242   2.474   5.926   2.166
 4781SOL    HW215243   2.593   5.839   2.235
 4782SOL     OW15244   5.898   5.360   5.479
 4782SOL    HW115245   5.950   5.383   5.562
 4782SOL    HW215246   5.814   5.414   5.475
 4783SOL     OW15247   5.819   4.025   0.299
 4783SOL    HW115248   5.841   3.933   0.268
 4783SOL    HW215249   5.903   4.077   0.313
 4784SOL     OW15250   6.180   2.216   6.296
 4784SOL    HW115251   6.100   2.263   6.259
 4784SOL    HW215252   6.149   2.139   6.352
 4785SOL     OW15253   0.271   6.656   3.195
 4785SOL    HW115254   0.245   6.561   3.177
 4785SOL    HW215255   0.347   6.681   3.135
 4786SOL     OW15256   2.876   0.259   0.969
 4786SOL    HW115257   2.955   0.317   0.946
 4786SOL    HW215258   2.792   0.310   0.951
 4787SOL     OW15259   4.382   2.423   4.230
 4787SOL    HW115260   4.411   2.441   4.324
 4787SOL    HW215261   4.436   2.480   4.167
 4788SOL     OW15262   6.044   5.601   6.816
 4788SOL    HW115263   5.951   5.565   6.814
 4788SOL    HW215264   6.056   5.666   6.741
 4789SOL     OW15265   4.785   2.105   2.027
 4789SOL    HW115266   4.737   2.183   2.067
 4789SOL    HW215267   4.732   2.069   1.950
 4790SOL     OW15268   5.377   1.630   5.614
 4790SOL    HW115269   5.291   1.586   5.638
 4790SOL    HW215270   5.380   1.721   5.655
 4791SOL     OW15271   0.360   2.709   0.699
 4791SOL    HW115272   0.432   2.645   0.727
 4791SOL    HW215273   0.401   2.781   0.642
 4792SOL     OW15274   1.531   4.966   4.883
 4792SOL    HW115275   1.492   5.050   4.845
 4792SOL    HW215276   1.470   4.930   4.953
 4793SOL     OW15277   1.256   4.190   5.993
 4793SOL    HW115278   1.331   4.255   5.988
 4793SOL    HW215279   1.279   4.109   5.939
 4794SOL     OW15280   4.602   0.571   3.935
 4794SOL    HW115281   4.574   0.511   3.861
 4794SOL    HW215282   4.673   0.526   3.990
 4795SOL     OW15283   0.368   1.694   4.491
 4795SOL    HW115284   0.465   1.676   4.471
 4795SOL    HW215285   0.311   1.635   4.435
 4796SOL     OW15286   3.820   1.114   6.027
 4796SOL    HW115287   3.855   1.161   5.946
 4796SOL    HW215288   3.809   1.016   6.007
 4797SOL     OW15289   0.175   5.835   4.738
 4797SOL    HW115290   0.180   5.842   4.638
 4797SOL    HW215291   0.254   5.784   4.772
 4798SOL     OW15292   5.666   4.986   6.273
 4798SOL    HW115293   5.734   5.059   6.264
 4798SOL    HW215294   5.671   4.926   6.193
 4799SOL     OW15295   3.037   1.961   6.902
 4799SOL    HW115296   3.126   1.998   6.926
 4799SOL    HW215297   3.039   1.928   6.807
 4800SOL     OW15298   1.931   4.447   0.492
 4800SOL    HW115299   2.011   4.480   0.543
 4800SOL    HW215300   1.864   4.521   0.486
 4801SOL     OW15301   4.581   2.505   0.873
 4801SOL    HW115302   4.519   2.578   0.899
 4801SOL    HW215303   4.530   2.431   0.830
 4802SOL     OW15304   6.982   6.166   2.063
 4802SOL    HW115305   6.998   6.258   2.097
 4802SOL    HW215306   6.988   6.166   1.963
 4803SOL     OW15307   5.805   4.903   0.479
 4803SOL    HW115308   5.866   4.978   0.505
 4803SOL    HW215309   5.710   4.929   0.500
 4804SOL     OW15310   5.118   1.755   0.070
 4804SOL    HW115311   5.049   1.742   7.022
 4804SOL    HW215312   5.207   1.772   0.027
 4805SOL     OW15313   6.618   1.865   1.998
 4805SOL    HW115314   6.634   1.796   2.069
 4805SOL    HW215315   6.521   1.889   1.996
 4806SOL     OW15316   1.038   3.415   3.156
 4806SOL    HW115317   1.055   3.457   3.067
 4806SOL    HW215318   1.005   3.484   3.220
 4807SOL     OW15319   1.356   3.490   6.539
 4807SOL    HW115320   1.338   3.487   6.637
 4807SOL    HW215321   1.275   3.524   6.491
 4808SOL     OW15322   4.160   6.007   0.869
 4808SOL    HW115323   4.105   6.083   0.903
 4808SOL    HW215324   4.101   5.927   0.856
 4809SOL     OW15325   3.570   4.698   1.477
 4809SOL    HW115326   3.553   4.782   1.425
 4809SOL    HW215327   3.511   4.625   1.442
 4810SOL     OW15328   0.564   3.954   4.445
 4810SOL    HW115329   0.526   3.916   4.529
 4810SOL    HW215330   0.545   4.052   4.441
 4811SOL     OW15331   4.083   3.821   4.435
 4811SOL    HW115332   4.102   3.723   4.438
 4811SOL    HW215333   4.169   3.870   4.423
 4812SOL     OW15334   0.699   6.963   1.596
 4812SOL    HW115335   0.720   0.001   1.673
 4812SOL    HW215336   0.609   6.920   1.611
 4813SOL     OW15337   5.751   1.739   6.912
 4813SOL    HW115338   5.789   1.821   6.868
 4813SOL    HW215339   5.826   1.679   6.942
 4814SOL     OW15340   0.192   3.472   2.532
 4814SOL    HW115341   0.264   3.406   2.553
 4814SOL    HW215342   0.107   3.423   2.511
 4815SOL     OW15343   5.172   5.353   2.991
 4815SOL    HW115344   5.122   5.423   3.041
 4815SOL    HW215345   5.195   5.387   2.900
 4816SOL     OW15346   1.804   0.209   1.383
 4816SOL    HW115347   1.785   0.208   1.285
 4816SOL    HW215348   1.789   0.118   1.421
 4817SOL     OW15349   3.858   0.555   1.851
 4817SOL    HW115350   3.793   0.592   1.917
 4817SOL    HW215351   3.948   0.596   1.867
 4818SOL     OW15352   2.333   0.446   4.195
 4818SOL    HW115353   2.321   0.347   4.206
 4818SOL    HW215354   2.406   0.478   4.256
 4819SOL     OW15355   3.099   2.316   1.029
 4819SOL    HW115356   3.020   2.368   0.995
 4819SOL    HW215357   3.136   2.259   0.956
 4820SOL     OW15358   0.215   3.389   0.986
 4820SOL    HW115359   0.258   3.311   1.031
 4820SOL    HW215360   0.223   3.379   0.887
 4821SOL     OW15361   6.251   5.538   1.678
 4821SOL    HW115362   6.284   5.532   1.772
 4821SOL    HW215363   6.182   5.467   1.663
 4822SOL     OW15364   1.538   3.512   3.563
 4822SOL    HW115365   1.542   3.610   3.586
 4822SOL    HW215366   1.498   3.501   3.472
 4823SOL     OW15367   0.530   0.258   3.895
 4823SOL    HW115368   0.439   0.260   3.935
 4823SOL    HW215369   0.527   0.207   3.809
 4824SOL     OW15370   5.146   2.213   3.346
 4824SOL    HW115371   5.052   2.242   3.365
 4824SOL    HW215372   5.178   2.153   3.420
 4825SOL     OW15373   1.541   2.917   4.440
 4825SOL    HW115374   1.548   2.960   4.530
 4825SOL    HW215375   1.625   2.934   4.388
 4826SOL     OW15376   0.240   6.462   0.879
 4826SOL    HW115377   0.268   6.556   0.858
 4826SOL    HW215378   0.167   6.434   0.817
 4827SOL     OW15379   5.120   0.916   1.717
 4827SOL    HW115380   5.037   0.878   1.757
 4827SOL    HW215381   5.101   1.008   1.682
 4828SOL     OW15382   5.942   4.237   1.714
 4828SOL    HW115383   5.880   4.210   1.789
 4828SOL    HW215384   6.021   4.176   1.714
 4829SOL     OW15385   3.777   6.891   5.841
 4829SOL    HW115386   3.732   6.804   5.823
 4829SOL    HW215387   3.710   6.958   5.870
 4830SOL     OW15388   4.847   5.867   3.942
 4830SOL    HW115389   4.817   5.776   3.914
 4830SOL    HW215390   4.942   5.880   3.915
 4831SOL     OW15391   6.767   4.733   5.457
 4831SOL    HW115392   6.776   4.828   5.485
 4831SOL    HW215393   6.695   4.725   5.388
 4832SOL     OW15394   3.245   2.508   6.234
 4832SOL    HW115395   3.156   2.548   6.257
 4832SOL    HW215396   3.302   2.503   6.316
 4833SOL     OW15397   4.650   1.765   2.797
 4833SOL    HW115398   4.580   1.698   2.773
 4833SOL    HW215399   4.651   1.778   2.896
 4834SOL     OW15400   3.817   0.002   0.887
 4834SOL    HW115401   3.723   0.002   0.854
 4834SOL    HW215402   3.842   6.932   0.917
 4835SOL     OW15403   1.887   6.819   6.178
 4835SOL    HW115404   1.806   6.848   6.228
 4835SOL    HW215405   1.969   6.844   6.230
 4836SOL     OW15406   4.251   1.866   3.569
 4836SOL    HW115407   4.247   1.786   3.510
 4836SOL    HW215408   4.274   1.837   3.662
 4837SOL     OW15409   3.254   2.819   1.987
 4837SOL    HW115410   3.273   2.802   1.890
 4837SOL    HW215411   3.168   2.774   2.012
 4838SOL     OW15412   3.012   4.810   2.381
 4838SOL    HW115413   2.933   4.749   2.376
 4838SOL    HW215414   3.039   4.822   2.477
 4839SOL     OW15415   0.557   4.285   5.713
 4839SOL    HW115416   0.634   4.252   5.768
 4839SOL    HW215417   0.485   4.320   5.774
 4840SOL     OW15418   6.433   6.515   6.619
 4840SOL    HW115419   6.517   6.520   6.565
 4840SOL    HW215420   6.452   6.474   6.708
 4841SOL     OW15421   3.608   5.400   1.897
 4841SOL    HW115422   3.639   5.333   1.965
 4841SOL    HW215423   3.576   5.482   1.943
 4842SOL     OW15424   3.449   5.204   1.505
 4842SOL    HW115425   3.420   5.265   1.578
 4842SOL    HW215426   3.388   5.125   1.500
 4843SOL     OW15427   6.207   4.002   0.582
 4843SOL    HW115428   6.303   3.984   0.606
 4843SOL    HW215429   6.158   4.032   0.664
 4844SOL     OW15430   6.872   3.857   6.778
 4844SOL    HW115431   6.784   3.838   6.736
 4844SOL    HW215432   6.883   3.803   6.861
 4845SOL     OW15433   6.951   5.164   4.480
 4845SOL    HW115434   6.916   5.232   4.545
 4845SOL    HW215435   6.873   5.119   4.436
 4846SOL     OW15436   0.219   3.664   1.015
 4846SOL    HW115437   0.310   3.674   0.975
 4846SOL    HW215438   0.189   3.569   1.004
 4847SOL     OW15439   3.856   1.760   5.491
 4847SOL    HW115440   3.756   1.753   5.499
 4847SOL    HW215441   3.898   1.677   5.528
 4848SOL     OW15442   1.534   1.459   4.755
 4848SOL    HW115443   1.584   1.415   4.830
 4848SOL    HW215444   1.522   1.394   4.680
 4849SOL     OW15445   1.924   6.801   0.220
 4849SOL    HW115446   2.005   6.817   0.163
 4849SOL    HW215447   1.886   6.711   0.198
 4850SOL     OW15448   3.920   0.904   1.727
 4850SOL    HW115449   3.842   0.965   1.714
 4850SOL    HW215450   3.891   0.823   1.778
 4851SOL     OW15451   3.778   6.195   5.254
 4851SOL    HW115452   3.702   6.258   5.241
 4851SOL    HW215453   3.770   6.151   5.343
 4852SOL     OW15454   1.355   0.448   6.528
 4852SOL    HW115455   1.426   0.449   6.599
 4852SOL    HW215456   1.392   0.404   6.446
 4853SOL     OW15457   3.444   1.778   2.412
 4853SOL    HW115458   3.414   1.772   2.317
 4853SOL    HW215459   3.500   1.699   2.435
 4854SOL     OW15460   4.611   6.235   2.628
 4854SOL    HW115461   4.582   6.181   2.707
 4854SOL    HW215462   4.531   6.259   2.573
 4855SOL     OW15463   5.822   2.219   2.041
 4855SOL    HW115464   5.868   2.185   1.959
 4855SOL    HW215465   5.872   2.299   2.076
 4856SOL     OW15466   2.292   4.248   2.976
 4856SOL    HW115467   2.277   4.343   2.951
 4856SOL    HW215468   2.254   4.188   2.905
 4857SOL     OW15469   1.331   1.660   5.925
 4857SOL    HW115470   1.341   1.659   5.826
 4857SOL    HW215471   1.273   1.736   5.952
 4858SOL     OW15472   2.003   0.932   4.093
 4858SOL    HW115473   1.935   1.006   4.089
 4858SOL    HW215474   1.957   0.845   4.109
 4859SOL     OW15475   1.263   6.205   4.173
 4859SOL    HW115476   1.220   6.115   4.183
 4859SOL    HW215477   1.362   6.196   4.171
 4860SOL     OW15478   3.725   5.370   2.376
 4860SOL    HW115479   3.808   5.324   2.409
 4860SOL    HW215480   3.645   5.331   2.422
 4861SOL     OW15481   5.564   5.133   0.318
 4861SOL    HW115482   5.550   5.096   0.226
 4861SOL    HW215483   5.558   5.059   0.385
 4862SOL     OW15484   1.948   5.363   4.244
 4862SOL    HW115485   2.022   5.306   4.279
 4862SOL    HW215486   1.983   5.455   4.226
 4863SOL     OW15487   5.737   4.808   0.227
 4863SOL    HW115488   5.753   4.843   0.319
 4863SOL    HW215489   5.659   4.855   0.186
 4864SOL     OW15490   3.504   1.307   4.066
 4864SOL    HW115491   3.474   1.400   4.047
 4864SOL    HW215492   3.486   1.249   3.986
 4865SOL     OW15493   1.939   0.233   4.898
 4865SOL    HW115494   1.986   0.318   4.920
 4865SOL    HW215495   1.840   0.248   4.895
 4866SOL     OW15496   6.485   3.904   1.351
 4866SOL    HW115497   6.464   3.971   1.422
 4866SOL    HW215498   6.524   3.950   1.272
 4867SOL     OW15499   4.659   5.766   2.220
 4867SOL    HW115500   4.717   5.705   2.275
 4867SOL    HW215501   4.680   5.861   2.243
 4868SOL     OW15502   6.685   4.809   2.366
 4868SOL    HW115503   6.629   4.885   2.333
 4868SOL    HW215504   6.630   4.748   2.422
 4869SOL     OW15505   1.562   1.553   0.760
 4869SOL    HW115506   1.524   1.645   0.748
 4869SOL    HW215507   1.578   1.535   0.857
 4870SOL     OW15508   0.352   6.231   1.515
 4870SOL    HW115509   0.433   6.197   1.562
 4870SOL    HW215510   0.273   6.177   1.542
 4871SOL     OW15511   1.023   0.548   4.411
 4871SOL    HW115512   0.990   0.592   4.495
 4871SOL    HW215513   1.045   0.452   4.431
 4872SOL     OW15514   6.526   6.819   3.173
 4872SOL    HW115515   6.487   6.766   3.097
 4872SOL    HW215516   6.491   6.784   3.259
 4873SOL     OW15517   6.644   5.870   4.541
 4873SOL    HW115518   6.725   5.894   4.594
 4873SOL    HW215519   6.670   5.812   4.463
 4874SOL     OW15520   5.182   3.088   2.416
 4874SOL    HW115521   5.159   3.032   2.496
 4874SOL    HW215522   5.113   3.159   2.404
 4875SOL     OW15523   5.397   6.944   6.953
 4875SOL    HW115524   5.437   6.955   6.862
 4875SOL    HW215525   5.324   6.875   6.948
 4876SOL     OW15526   0.002   1.165   3.829
 4876SOL    HW115527   0.048   1.150   3.916
 4876SOL    HW215528   7.019   1.263   3.810
 4877SOL     OW15529   0.642   2.129   5.498
 4877SOL    HW115530   0.555   2.178   5.498
 4877SOL    HW215531   0.716   2.193   5.516
 4878SOL     OW15532   0.049   1.533   2.293
 4878SOL    HW115533   0.135   1.532   2.243
 4878SOL    HW215534   0.057   1.476   2.375
 4879SOL     OW15535   4.340   2.378   1.906
 4879SOL    HW115536   4.279   2.429   1.846
 4879SOL    HW215537   4.354   2.286   1.869
 4880SOL     OW15538   6.471   3.455   0.276
 4880SOL    HW115539   6.374   3.449   0.250
 4880SOL    HW215540   6.491   3.386   0.346
 4881SOL     OW15541   1.702   1.807   6.736
 4881SOL    HW115542   1.735   1.745   6.665
 4881SOL    HW215543   1.624   1.766   6.783
 4882SOL     OW15544   4.000   1.974   5.599
 4882SOL    HW115545   3.943   2.031   5.658
 4882SOL    HW215546   3.945   1.900   5.561
 4883SOL     OW15547   5.328   4.074   0.956
 4883SOL    HW115548   5.318   3.975   0.964
 4883SOL    HW215549   5.265   4.109   0.887
 4884SOL     OW15550   3.729   5.234   1.119
 4884SOL    HW115551   3.696   5.247   1.212
 4884SOL    HW215552   3.794   5.158   1.117
 4885SOL     OW15553   2.097   4.531   1.501
 4885SOL    HW115554   2.081   4.623   1.465
 4885SOL    HW215555   2.099   4.534   1.601
 4886SOL     OW15556   3.195   6.917   1.655
 4886SOL    HW115557   3.123   6.917   1.585
 4886SOL    HW215558   3.219   7.011   1.678
 4887SOL     OW15559   0.317   6.109   1.777
 4887SOL    HW115560   0.284   6.020   1.806
 4887SOL    HW215561   0.404   6.098   1.729
 4888SOL     OW15562   2.781   0.112   2.943
 4888SOL    HW115563   2.826   0.142   2.858
 4888SOL    HW215564   2.832   0.148   3.021
 4889SOL     OW15565   6.445   1.806   5.511
 4889SOL    HW115566   6.447   1.778   5.415
 4889SOL    HW215567   6.400   1.736   5.566
 4890SOL     OW15568   0.561   1.607   5.607
 4890SOL    HW115569   0.560   1.676   5.534
 4890SOL    HW215570   0.634   1.542   5.591
 4891SOL     OW15571   3.060   5.072   0.193
 4891SOL    HW115572   3.010   5.041   0.112
 4891SOL    HW215573   3.157   5.051   0.182
 4892SOL     OW15574   5.520   5.701   2.152
 4892SOL    HW115575   5.500   5.728   2.058
 4892SOL    HW215576   5.491   5.775   2.214
 4893SOL     OW15577   6.279   3.537   2.088
 4893SOL    HW115578   6.278   3.581   1.998
 4893SOL    HW215579   6.370   3.548   2.129
 4894SOL     OW15580   3.526   0.294   2.581
 4894SOL    HW115581   3.616   0.321   2.548
 4894SOL    HW215582   3.456   0.328   2.518
 4895SOL     OW15583   0.743   4.839   3.448
 4895SOL    HW115584   0.756   4.748   3.409
 4895SOL    HW215585   0.708   4.831   3.541
 4896SOL     OW15586   2.477   4.794   2.583
 4896SOL    HW115587   2.507   4.738   2.660
 4896SOL    HW215588   2.527   4.767   2.501
 4897SOL     OW15589   1.753   5.814   5.434
 4897SOL    HW115590   1.773   5.717   5.447
 4897SOL    HW215591   1.655   5.828   5.439
 4898SOL     OW15592   4.245   1.030   4.932
 4898SOL    HW115593   4.343   1.044   4.917
 4898SOL    HW215594   4.200   1.014   4.845
 4899SOL     OW15595   6.399   5.109   3.026
 4899SOL    HW115596   6.367   5.201   3.005
 4899SOL    HW215597   6.323   5.044   3.017
 4900SOL     OW15598   4.123   5.859   6.037
 4900SOL    HW115599   4.100   5.809   5.953
 4900SOL    HW215600   4.073   5.820   6.114
 4901SOL     OW15601   2.210   1.286   5.857
 4901SOL    HW115602   2.239   1.302   5.762
 4901SOL    HW215603   2.121   1.328   5.872
 4902SOL     OW15604   1.082   1.204   5.575
 4902SOL    HW115605   1.132   1.271   5.630
 4902SOL    HW215606   1.146   1.137   5.537
 4903SOL     OW15607   4.506   5.651   0.836
 4903SOL    HW115608   4.549   5.740   0.821
 4903SOL    HW215609   4.540   5.587   0.767
 4904SOL     OW15610   2.095   0.670   5.407
 4904SOL    HW115611   2.189   0.682   5.439
 4904SOL    HW215612   2.072   0.743   5.343
 4905SOL     OW15613   1.962   0.868   3.603
 4905SOL    HW115614   1.959   0.781   3.652
 4905SOL    HW215615   1.869   0.904   3.592
 4906SOL     OW15616   4.681   3.003   5.940
 4906SOL    HW115617   4.729   3.017   6.027
 4906SOL    HW215618   4.597   2.952   5.956
 4907SOL     OW15619   4.939   1.031   1.293
 4907SOL    HW115620   4.880   1.073   1.223
 4907SOL    HW215621   4.975   0.944   1.260
 4908SOL     OW15622   5.014   6.674   0.070
 4908SOL    HW115623   4.964   6.607   0.014
 4908SOL    HW215624   5.064   6.736   0.010
 4909SOL     OW15625   6.568   5.274   3.518
 4909SOL    HW115626   6.544   5.248   3.425
 4909SOL    HW215627   6.559   5.195   3.579
 4910SOL     OW15628   5.695   0.763   4.285
 4910SOL    HW115629   5.770   0.828   4.283
 4910SOL    HW215630   5.637   0.776   4.204
 4911SOL     OW15631   1.836   3.712   3.410
 4911SOL    HW115632   1.757   3.713   3.349
 4911SOL    HW215633   1.875   3.620   3.412
 4912SOL     OW15634   5.287   1.899   5.666
 4912SOL    HW115635   5.328   1.958   5.736
 4912SOL    HW215636   5.188   1.909   5.667
 4913SOL     OW15637   4.688   3.839   5.488
 4913SOL    HW115638   4.665   3.855   5.584
 4913SOL    HW215639   4.611   3.796   5.441
 4914SOL     OW15640   4.223   6.885   5.367
 4914SOL    HW115641   4.280   6.965   5.380
 4914SOL    HW215642   4.142   6.911   5.314
 4915SOL     OW15643   2.916   6.499   5.526
 4915SOL    HW115644   3.001   6.451   5.501
 4915SOL    HW215645   2.858   6.508   5.446
 4916SOL     OW15646   0.438   0.959   3.979
 4916SOL    HW115647   0.473   0.872   3.944
 4916SOL    HW215648   0.346   0.945   4.016
 4917SOL     OW15649   4.034   5.729   0.683
 4917SOL    HW115650   4.070   5.782   0.606
 4917SOL    HW215651   4.009   5.638   0.652
 4918SOL     OW15652   5.850   6.342   2.158
 4918SOL    HW115653   5.813   6.434   2.170
 4918SOL    HW215654   5.920   6.325   2.227
 4919SOL     OW15655   3.694   2.879   2.366
 4919SOL    HW115656   3.688   2.783   2.338
 4919SOL    HW215657   3.626   2.897   2.437
 4920SOL     OW15658   5.541   0.198   5.326
 4920SOL    HW115659   5.554   0.296   5.343
 4920SOL    HW215660   5.488   0.186   5.242
 4921SOL     OW15661   1.846   5.085   0.242
 4921SOL    HW115662   1.923   5.109   0.183
 4921SOL    HW215663   1.762   5.082   0.187
 4922SOL     OW15664   3.126   2.096   4.877
 4922SOL    HW115665   3.130   2.169   4.945
 4922SOL    HW215666   3.058   2.119   4.808
 4923SOL     OW15667   2.264   1.600   2.919
 4923SOL    HW115668   2.205   1.543   2.861
 4923SOL    HW215669   2.292   1.681   2.868
 4924SOL     OW15670   2.436   2.008   4.902
 4924SOL    HW115671   2.342   1.980   4.916
 4924SOL    HW215672   2.443   2.108   4.913
 4925SOL     OW15673   4.862   0.272   3.017
 4925SOL    HW115674   4.794   0.343   3.036
 4925SOL    HW215675   4.904   0.242   3.102
 4926SOL     OW15676   5.584   2.160   1.548
 4926SOL    HW115677   5.507   2.098   1.568
 4926SOL    HW215678   5.669   2.119   1.583
 4927SOL     OW15679   2.917   2.892   5.718
 4927SOL    HW115680   2.986   2.875   5.789
 4927SOL    HW215681   2.833   2.926   5.759
 4928SOL     OW15682   1.415   0.888   6.973
 4928SOL    HW115683   1.327   0.933   6.991
 4928SOL    HW215684   1.485   0.958   6.960
 4929SOL     OW15685   6.711   0.194   3.534
 4929SOL    HW115686   6.672   0.286   3.523
 4929SOL    HW215687   6.645   0.126   3.503
 4930SOL     OW15688   5.832   0.322   2.792
 4930SOL    HW115689   5.811   0.420   2.793
 4930SOL    HW215690   5.798   0.280   2.876
 4931SOL     OW15691   6.586   6.350   1.558
 4931SOL    HW115692   6.586   6.397   1.469
 4931SOL    HW215693   6.629   6.409   1.626
 4932SOL     OW15694   3.905   3.847   3.327
 4932SOL    HW115695   3.910   3.927   3.388
 4932SOL    HW215696   3.832   3.861   3.261
 4933SOL     OW15697   2.274   6.670   3.037
 4933SOL    HW115698   2.365   6.648   3.003
 4933SOL    HW215699   2.212   6.688   2.960
 4934SOL     OW15700   4.031   6.474   2.446
 4934SOL    HW115701   4.056   6.463   2.349
 4934SOL    HW215702   3.937   6.506   2.452
 4935SOL     OW15703   1.619   2.057   6.754
 4935SOL    HW115704   1.521   2.053   6.734
 4935SOL    HW215705   1.660   1.968   6.736
 4936SOL     OW15706   2.753   5.014   0.781
 4936SOL    HW115707   2.817   5.040   0.854
 4936SOL    HW215708   2.752   4.915   0.771
 4937SOL     OW15709   5.061   3.161   5.398
 4937SOL    HW115710   5.012   3.085   5.441
 4937SOL    HW215711   5.054   3.154   5.299
 4938SOL     OW15712   3.235   5.423   5.843
 4938SOL    HW115713   3.280   5.448   5.929
 4938SOL    HW215714   3.303   5.388   5.780
 4939SOL     OW15715   5.426   2.564   4.882
 4939SOL    HW115716   5.466   2.541   4.793
 4939SOL    HW215717   5.471   2.511   4.954
 4940SOL     OW15718   1.142   0.991   5.069
 4940SOL    HW115719   1.109   1.083   5.086
 4940SOL    HW215720   1.234   0.981   5.108
 4941SOL     OW15721   3.636   1.763   6.136
 4941SOL    HW115722   3.592   1.830   6.196
 4941SOL    HW215723   3.594   1.673   6.150
 4942SOL     OW15724   4.945   3.464   5.579
 4942SOL    HW115725   4.871   3.418   5.630
 4942SOL    HW215726   4.907   3.511   5.500
 4943SOL     OW15727   3.941   2.305   6.975
 4943SOL    HW115728   3.971   2.235   0.018
 4943SOL    HW215729   4.019   2.360   6.947
 4944SOL     OW15730   2.106   3.963   3.021
 4944SOL    HW115731   2.155   4.021   2.955
 4944SOL    HW215732   2.134   3.988   3.114
 4945SOL     OW15733   1.116   0.887   3.760
 4945SOL    HW115734   1.023   0.921   3.776
 4945SOL    HW215735   1.144   0.907   3.666
 4946SOL     OW15736   0.722   2.894   1.436
 4946SOL    HW115737   0.796   2.887   1.503
 4946SOL    HW215738   0.712   2.990   1.408
 4947SOL     OW15739   1.269   6.306   0.944
 4947SOL    HW115740   1.354   6.318   0.894
 4947SOL    HW215741   1.204   6.253   0.888
 4948SOL     OW15742   2.718   0.713   2.365
 4948SOL    HW115743   2.801   0.751   2.324
 4948SOL    HW215744   2.685   0.637   2.309
 4949SOL     OW15745   4.605   0.960   5.612
 4949SOL    HW115746   4.576   0.973   5.706
 4949SOL    HW215747   4.525   0.944   5.554
 4950SOL     OW15748   2.922   5.639   3.794
 4950SOL    HW115749   2.886   5.575   3.726
 4950SOL    HW215750   2.896   5.733   3.769
 4951SOL     OW15751   4.994   1.678   4.927
 4951SOL    HW115752   4.980   1.727   4.841
 4951SOL    HW215753   5.071   1.615   4.917
 4952SOL     OW15754   0.331   6.792   5.091
 4952SOL    HW115755   0.349   6.782   4.993
 4952SOL    HW215756   0.238   6.829   5.104
 4953SOL     OW15757   2.397   5.655   1.983
 4953SOL    HW115758   2.334   5.707   1.925
 4953SOL    HW215759   2.456   5.718   2.034
 4954SOL     OW15760   4.449   4.545   0.015
 4954SOL    HW115761   4.359   4.503   0.026
 4954SOL    HW215762   4.461   4.572   6.942
 4955SOL     OW15763   1.996   5.681   6.723
 4955SOL    HW115764   2.040   5.756   6.770
 4955SOL    HW215765   2.063   5.632   6.667
 4956SOL     OW15766   4.115   0.426   4.993
 4956SOL    HW115767   4.048   0.469   5.053
 4956SOL    HW215768   4.069   0.372   4.923
 4957SOL     OW15769   7.011   1.384   4.182
 4957SOL    HW115770   6.942   1.431   4.127
 4957SOL    HW215771   0.042   1.451   4.233
 4958SOL     OW15772   0.396   6.446   6.313
 4958SOL    HW115773   0.444   6.527   6.276
 4958SOL    HW215774   0.326   6.417   6.248
 4959SOL     OW15775   0.708   1.126   6.658
 4959SOL    HW115776   0.769   1.152   6.732
 4959SOL    HW215777   0.760   1.082   6.585
 4960SOL     OW15778   3.319   6.408   3.981
 4960SOL    HW115779   3.315   6.486   4.043
 4960SOL    HW215780   3.390   6.345   4.011
 4961SOL     OW15781   5.480   1.384   5.060
 4961SOL    HW115782   5.487   1.429   5.149
 4961SOL    HW215783   5.448   1.291   5.072
 4962SOL     OW15784   5.665   2.886   1.791
 4962SOL    HW115785   5.706   2.910   1.879
 4962SOL    HW215786   5.569   2.914   1.790
 4963SOL     OW15787   6.725   6.116   1.470
 4963SOL    HW115788   6.728   6.173   1.388
 4963SOL    HW215789   6.702   6.172   1.549
 4964SOL     OW15790   3.482   6.060   2.580
 4964SOL    HW115791   3.529   6.148   2.576
 4964SOL    HW215792   3.537   5.991   2.532
 4965SOL     OW15793   0.430   6.743   4.850
 4965SOL    HW115794   0.343   6.738   4.800
 4965SOL    HW215795   0.505   6.758   4.785
 4966SOL     OW15796   2.136   6.103   4.476
 4966SOL    HW115797   2.168   6.025   4.530
 4966SOL    HW215798   2.162   6.188   4.521
 4967SOL     OW15799   3.799   3.127   6.735
 4967SOL    HW115800   3.847   3.039   6.736
 4967SOL    HW215801   3.846   3.190   6.673
 4968SOL     OW15802   5.146   3.291   3.147
 4968SOL    HW115803   5.203   3.371   3.127
 4968SOL    HW215804   5.192   3.235   3.217
 4969SOL     OW15805   1.675   0.884   2.742
 4969SOL    HW115806   1.657   0.969   2.691
 4969SOL    HW215807   1.766   0.888   2.782
 4970SOL     OW15808   1.096   2.257   5.021
 4970SOL    HW115809   1.131   2.247   5.115
 4970SOL    HW215810   1.105   2.352   4.992
 4971SOL     OW15811   6.265   5.952   3.620
 4971SOL    HW115812   6.203   6.026   3.647
 4971SOL    HW215813   6.356   5.988   3.604
 4972SOL     OW15814   2.634   3.215   0.525
 4972SOL    HW115815   2.711   3.273   0.553
 4972SOL    HW215816   2.556   3.232   0.585
 4973SOL     OW15817   6.602   6.540   1.749
 4973SOL    HW115818   6.554   6.503   1.828
 4973SOL    HW215819   6.543   6.606   1.702
 4974SOL     OW15820   6.020   5.149   1.441
 4974SOL    HW115821   6.028   5.060   1.486
 4974SOL    HW215822   6.071   5.148   1.355
 4975SOL     OW15823   6.124   6.119   0.896
 4975SOL    HW115824   6.110   6.122   0.797
 4975SOL    HW215825   6.220   6.098   0.915
 4976SOL     OW15826   3.193   0.816   3.667
 4976SOL    HW115827   3.192   0.720   3.694
 4976SOL    HW215828   3.284   0.839   3.631
 4977SOL     OW15829   5.029   3.604   0.829
 4977SOL    HW115830   5.080   3.547   0.765
 4977SOL    HW215831   4.979   3.546   0.894
 4978SOL     OW15832   6.614   3.833   5.452
 4978SOL    HW115833   6.573   3.916   5.412
 4978SOL    HW215834   6.698   3.858   5.500
 4979SOL     OW15835   6.484   2.540   5.009
 4979SOL    HW115836   6.578   2.534   4.975
 4979SOL    HW215837   6.435   2.612   4.960
 4980SOL     OW15838   4.090   6.609   2.894
 4980SOL    HW115839   4.016   6.675   2.883
 4980SOL    HW215840   4.137   6.625   2.980
 4981SOL     OW15841   4.394   6.296   5.464
 4981SOL    HW115842   4.347   6.346   5.536
 4981SOL    HW215843   4.373   6.336   5.375
 4982SOL     OW15844   2.205   1.822   6.836
 4982SOL    HW115845   2.241   1.732   6.814
 4982SOL    HW215846   2.144   1.853   6.763
 4983SOL     OW15847   5.087   3.270   3.987
 4983SOL    HW115848   5.099   3.257   4.085
 4983SOL    HW215849   5.036   3.192   3.949
 4984SOL     OW15850   5.480   3.732   4.609
 4984SOL    HW115851   5.516   3.691   4.525
 4984SOL    HW215852   5.387   3.766   4.592
 4985SOL     OW15853   6.057   5.771   3.893
 4985SOL    HW115854   6.074   5.832   3.816
 4985SOL    HW215855   6.144   5.741   3.932
 4986SOL     OW15856   6.136   4.347   3.017
 4986SOL    HW115857   6.151   4.368   3.114
 4986SOL    HW215858   6.098   4.255   3.008
 4987SOL     OW15859   0.799   2.368   1.170
 4987SOL    HW115860   0.838   2.434   1.105
 4987SOL    HW215861   0.750   2.297   1.120
 4988SOL     OW15862   6.830   1.582   4.107
 4988SOL    HW115863   6.863   1.628   4.024
 4988SOL    HW215864   6.787   1.649   4.168
 4989SOL     OW15865   5.326   1.426   1.444
 4989SOL    HW115866   5.348   1.516   1.482
 4989SOL    HW215867   5.320   1.359   1.519
 4990SOL     OW15868   0.835   2.393   6.309
 4990SOL    HW115869   0.754   2.382   6.252
 4990SOL    HW215870   0.813   2.452   6.387
 4991SOL     OW15871   0.586   3.433   4.119
 4991SOL    HW115872   0.519   3.360   4.128
 4991SOL    HW215873   0.627   3.452   4.208
 4992SOL     OW15874   3.901   0.279   4.336
 4992SOL    HW115875   3.815   0.242   4.372
 4992SOL    HW215876   3.881   0.346   4.265
 4993SOL     OW15877   2.552   4.886   3.798
 4993SOL    HW115878   2.619   4.960   3.792
 4993SOL    HW215879   2.551   4.848   3.890
 4994SOL     OW15880   1.308   0.071   2.831
 4994SOL    HW115881   1.266   7.009   2.798
 4994SOL    HW215882   1.298   0.142   2.762
 4995SOL     OW15883   6.897   2.869   6.315
 4995SOL    HW115884   6.806   2.885   6.277
 4995SOL    HW215885   6.957   2.832   6.243
 4996SOL     OW15886   0.575   0.882   1.680
 4996SOL    HW115887   0.589   0.819   1.603
 4996SOL    HW215888   0.624   0.967   1.661
 4997SOL     OW15889   6.969   2.404   2.948
 4997SOL    HW115890   6.998   2.459   3.026
 4997SOL    HW215891   6.993   2.308   2.963
 4998SOL     OW15892   2.138   4.701   5.104
 4998SOL    HW115893   2.153   4.649   5.189
 4998SOL    HW215894   2.066   4.768   5.119
 4999SOL     OW15895   5.209   5.750   1.286
 4999SOL    HW115896   5.249   5.680   1.227
 4999SOL    HW215897   5.110   5.749   1.275
 5000SOL     OW15898   0.903   0.410   4.723
 5000SOL    HW115899   0.850   0.488   4.690
 5000SOL    HW215900   0.903   0.338   4.654
 5001SOL     OW15901   2.081   3.996   6.152
 5001SOL    HW115902   1.996   3.948   6.132
 5001SOL    HW215903   2.066   4.094   6.145
 5002SOL     OW15904   1.323   2.582   3.272
 5002SOL    HW115905   1.314   2.682   3.273
 5002SOL    HW215906   1.233   2.540   3.288
 5003SOL     OW15907   0.616   6.636   3.214
 5003SOL    HW115908   0.711   6.639   3.184
 5003SOL    HW215909   0.582   6.729   3.227
 5004SOL     OW15910   2.940   5.533   5.620
 5004SOL    HW115911   3.016   5.500   5.564
 5004SOL    HW215912   2.897   5.612   5.575
 5005SOL     OW15913   3.703   2.155   0.689
 5005SOL    HW115914   3.642   2.087   0.650
 5005SOL    HW215915   3.793   2.148   0.645
 5006SOL     OW15916   5.746   6.940   5.772
 5006SOL    HW115917   5.684   6.990   5.711
 5006SOL    HW215918   5.693   6.882   5.833
 5007SOL     OW15919   2.904   0.483   5.954
 5007SOL    HW115920   2.979   0.433   5.910
 5007SOL    HW215921   2.904   0.578   5.922
 5008SOL     OW15922   5.955   0.900   3.208
 5008SOL    HW115923   5.990   0.823   3.155
 5008SOL    HW215924   5.916   0.968   3.145
 5009SOL     OW15925   1.506   6.112   1.914
 5009SOL    HW115926   1.592   6.095   1.866
 5009SOL    HW215927   1.508   6.067   2.003
 5010SOL     OW15928   3.126   4.019   3.852
 5010SOL    HW115929   3.190   4.057   3.919
 5010SOL    HW215930   3.055   3.968   3.899
 5011SOL     OW15931   2.099   3.273   2.053
 5011SOL    HW115932   2.123   3.254   2.148
 5011SOL    HW215933   2.145   3.356   2.022
 5012SOL     OW15934   6.439   2.871   6.060
 5012SOL    HW115935   6.460   2.947   5.998
 5012SOL    HW215936   6.340   2.870   6.078
 5013SOL     OW15937   4.518   0.710   6.020
 5013SOL    HW115938   4.432   0.680   5.979
 5013SOL    HW215939   4.518   0.689   6.118
 5014SOL     OW15940   6.410   6.049   0.951
 5014SOL    HW115941   6.436   6.042   0.854
 5014SOL    HW215942   6.457   6.127   0.992
 5015SOL     OW15943   4.582   1.640   3.651
 5015SOL    HW115944   4.529   1.562   3.620
 5015SOL    HW215945   4.679   1.615   3.654
 5016SOL     OW15946   2.034   1.326   2.832
 5016SOL    HW115947   1.979   1.243   2.840
 5016SOL    HW215948   2.131   1.302   2.840
 5017SOL     OW15949   2.182   2.502   0.646
 5017SOL    HW115950   2.170   2.423   0.585
 5017SOL    HW215951   2.220   2.470   0.733
 5018SOL     OW15952   0.571   3.994   2.553
 5018SOL    HW115953   0.543   4.036   2.640
 5018SOL    HW215954   0.512   3.916   2.534
 5019SOL     OW15955   2.346   4.083   0.474
 5019SOL    HW115956   2.267   4.040   0.431
 5019SOL    HW215957   2.318   4.122   0.562
 5020SOL     OW15958   5.891   5.630   5.728
 5020SOL    HW115959   5.794   5.623   5.708
 5020SOL    HW215960   5.931   5.704   5.675
 5021SOL     OW15961   1.145   4.445   6.249
 5021SOL    HW115962   1.049   4.448   6.278
 5021SOL    HW215963   1.149   4.439   6.149
 5022SOL     OW15964   2.198   6.754   0.346
 5022SOL    HW115965   2.254   6.712   0.417
 5022SOL    HW215966   2.217   6.852   0.341
 5023SOL     OW15967   6.351   2.503   1.209
 5023SOL    HW115968   6.365   2.602   1.216
 5023SOL    HW215969   6.257   2.481   1.236
 5024SOL     OW15970   6.841   3.912   2.933
 5024SOL    HW115971   6.811   4.002   2.900
 5024SOL    HW215972   6.811   3.841   2.869
 5025SOL     OW15973   4.586   1.866   2.527
 5025SOL    HW115974   4.490   1.875   2.553
 5025SOL    HW215975   4.642   1.849   2.608
 5026SOL     OW15976   6.292   5.928   5.699
 5026SOL    HW115977   6.343   5.871   5.763
 5026SOL    HW215978   6.289   6.022   5.732
 5027SOL     OW15979   0.863   0.006   3.114
 5027SOL    HW115980   0.902   6.975   3.189
 5027SOL    HW215981   0.782   6.981   3.078
 5028SOL     OW15982   0.438   5.853   1.970
 5028SOL    HW115983   0.442   5.826   2.066
 5028SOL    HW215984   0.377   5.791   1.921
 5029SOL     OW15985   7.021   2.544   2.616
 5029SOL    HW115986   6.972   2.627   2.587
 5029SOL    HW215987   6.986   2.514   2.705
 5030SOL     OW15988   0.020   6.901   0.072
 5030SOL    HW115989   6.964   6.888   0.132
 5030SOL    HW215990   0.063   6.812   0.054
 5031SOL     OW15991   5.871   1.059   4.468
 5031SOL    HW115992   5.884   1.029   4.374
 5031SOL    HW215993   5.939   1.129   4.490
 5032SOL     OW15994   1.371   5.002   0.881
 5032SOL    HW115995   1.438   4.958   0.942
 5032SOL    HW215996   1.329   5.079   0.928
 5033SOL     OW15997   2.910   5.439   5.246
 5033SOL    HW115998   2.816   5.471   5.251
 5033SOL    HW215999   2.912   5.340   5.261
 5034SOL     OW16000   6.294   3.154   1.751
 5034SOL    HW116001   6.248   3.224   1.697
 5034SOL    HW216002   6.371   3.194   1.800
 5035SOL     OW16003   5.390   4.999   0.765
 5035SOL    HW116004   5.483   5.036   0.771
 5035SOL    HW216005   5.385   4.916   0.820
 5036SOL     OW16006   1.471   6.036   6.321
 5036SOL    HW116007   1.555   5.982   6.329
 5036SOL    HW216008   1.392   5.978   6.341
 5037SOL     OW16009   4.083   1.834   3.260
 5037SOL    HW116010   4.178   1.828   3.289
 5037SOL    HW216011   4.061   1.756   3.202
 5038SOL     OW16012   1.406   6.077   5.887
 5038SOL    HW116013   1.310   6.085   5.862
 5038SOL    HW216014   1.427   5.982   5.911
 5039SOL     OW16015   2.269   3.180   5.284
 5039SOL    HW116016   2.235   3.144   5.370
 5039SOL    HW216017   2.332   3.114   5.242
 5040SOL     OW16018   2.570   3.315   6.945
 5040SOL    HW116019   2.632   3.393   6.951
 5040SOL    HW216020   2.552   3.279   0.015
 5041SOL     OW16021   0.858   4.313   1.326
 5041SOL    HW116022   0.902   4.310   1.416
 5041SOL    HW216023   0.906   4.251   1.264
 5042SOL     OW16024   6.658   2.943   6.834
 5042SOL    HW116025   6.694   2.858   6.795
 5042SOL    HW216026   6.617   2.998   6.762
 5043SOL     OW16027   3.892   1.604   4.938
 5043SOL    HW116028   3.965   1.540   4.961
 5043SOL    HW216029   3.803   1.562   4.956
 5044SOL     OW16030   6.078   6.118   3.738
 5044SOL    HW116031   6.051   6.184   3.807
 5044SOL    HW216032   6.010   6.117   3.665
 5045SOL     OW16033   6.005   3.111   0.190
 5045SOL    HW116034   5.976   3.173   0.264
 5045SOL    HW216035   6.085   3.059   0.219
 5046SOL     OW16036   3.734   2.864   4.944
 5046SOL    HW116037   3.792   2.878   5.023
 5046SOL    HW216038   3.679   2.781   4.957
 5047SOL     OW16039   5.472   1.018   2.591
 5047SOL    HW116040   5.437   1.106   2.623
 5047SOL    HW216041   5.535   1.033   2.515
 5048SOL     OW16042   6.732   2.568   2.320
 5048SOL    HW116043   6.645   2.612   2.296
 5048SOL    HW216044   6.715   2.472   2.344
 5049SOL     OW16045   0.824   1.611   2.658
 5049SOL    HW116046   0.858   1.697   2.696
 5049SOL    HW216047   0.782   1.628   2.569
 5050SOL     OW16048   7.019   1.277   2.074
 5050SOL    HW116049   0.030   1.296   1.981
 5050SOL    HW216050   0.040   1.340   2.138
 5051SOL     OW16051   2.720   4.040   1.184
 5051SOL    HW116052   2.715   3.964   1.250
 5051SOL    HW216053   2.777   4.013   1.107
 5052SOL     OW16054   3.476   4.343   0.765
 5052SOL    HW116055   3.465   4.259   0.711
 5052SOL    HW216056   3.387   4.385   0.779
 5053SOL     OW16057   1.891   4.314   2.198
 5053SOL    HW116058   1.814   4.355   2.246
 5053SOL    HW216059   1.862   4.230   2.152
 5054SOL     OW16060   3.653   5.616   5.390
 5054SOL    HW116061   3.602   5.530   5.391
 5054SOL    HW216062   3.709   5.621   5.308
 5055SOL     OW16063   0.607   1.993   4.780
 5055SOL    HW116064   0.522   2.027   4.820
 5055SOL    HW216065   0.623   1.899   4.811
 5056SOL     OW16066   0.011   3.967   6.603
 5056SOL    HW116067   6.959   3.939   6.664
 5056SOL    HW216068   0.041   3.889   6.548
 5057SOL     OW16069   0.945   5.382   3.181
 5057SOL    HW116070   0.999   5.308   3.222
 5057SOL    HW216071   0.998   5.424   3.107
 5058SOL     OW16072   3.588   3.880   6.867
 5058SOL    HW116073   3.506   3.829   6.840
 5058SOL    HW216074   3.669   3.834   6.833
 5059SOL     OW16075   4.527   2.504   4.465
 5059SOL    HW116076   4.532   2.568   4.542
 5059SOL    HW216077   4.492   2.416   4.497
 5060SOL     OW16078   6.897   3.140   5.483
 5060SOL    HW116079   6.969   3.084   5.441
 5060SOL    HW216080   6.890   3.117   5.580
 5061SOL     OW16081   2.957   3.804   4.171
 5061SOL    HW116082   3.043   3.850   4.194
 5061SOL    HW216083   2.953   3.788   4.073
 5062SOL     OW16084   5.211   1.510   2.329
 5062SOL    HW116085   5.204   1.440   2.258
 5062SOL    HW216086   5.120   1.549   2.346
 5063SOL     OW16087   1.727   6.692   1.583
 5063SOL    HW116088   1.713   6.645   1.670
 5063SOL    HW216089   1.638   6.715   1.543
 5064SOL     OW16090   4.671   5.092   0.799
 5064SOL    HW116091   4.605   5.139   0.858
 5064SOL    HW216092   4.624   5.056   0.719
 5065SOL     OW16093   1.542   0.536   3.089
 5065SOL    HW116094   1.444   0.521   3.074
 5065SOL    HW216095   1.565   0.630   3.064
 5066SOL     OW16096   2.345   4.264   2.365
 5066SOL    HW116097   2.428   4.319   2.362
 5066SOL    HW216098   2.314   4.256   2.460
 5067SOL     OW16099   4.198   2.044   1.981
 5067SOL    HW116100   4.129   1.978   1.953
 5067SOL    HW216101   4.241   2.084   1.899
 5068SOL     OW16102   3.544   5.750   0.717
 5068SOL    HW116103   3.492   5.715   0.639
 5068SOL    HW216104   3.552   5.678   0.787
 5069SOL     OW16105   2.252   3.466   6.357
 5069SOL    HW116106   2.191   3.389   6.337
 5069SOL    HW216107   2.231   3.542   6.296
 5070SOL     OW16108   5.664   3.057   3.844
 5070SOL    HW116109   5.753   3.015   3.858
 5070SOL    HW216110   5.604   2.993   3.796
 5071SOL     OW16111   3.756   1.444   3.869
 5071SOL    HW116112   3.819   1.510   3.829
 5071SOL    HW216113   3.767   1.355   3.824
 5072SOL     OW16114   1.522   0.885   1.112
 5072SOL    HW116115   1.545   0.891   1.209
 5072SOL    HW216116   1.476   0.798   1.094
 5073SOL     OW16117   2.321   6.139   2.442
 5073SOL    HW116118   2.406   6.121   2.491
 5073SOL    HW216119   2.319   6.234   2.411
 5074SOL     OW16120   3.483   1.663   1.710
 5074SOL    HW116121   3.510   1.748   1.755
 5074SOL    HW216122   3.404   1.680   1.651
 5075SOL     OW16123   0.983   2.920   0.097
 5075SOL    HW116124   1.026   2.943   0.185
 5075SOL    HW216125   1.041   2.952   0.022
 5076SOL     OW16126   5.075   0.434   6.963
 5076SOL    HW116127   5.056   0.497   6.887
 5076SOL    HW216128   5.083   0.341   6.927
 5077SOL     OW16129   1.656   3.650   4.867
 5077SOL    HW116130   1.565   3.645   4.826
 5077SOL    HW216131   1.684   3.746   4.875
 5078SOL     OW16132   0.650   1.334   4.315
 5078SOL    HW116133   0.639   1.340   4.414
 5078SOL    HW216134   0.745   1.313   4.293
 5079SOL     OW16135   2.106   1.907   5.638
 5079SOL    HW116136   2.023   1.954   5.667
 5079SOL    HW216137   2.090   1.860   5.551
 5080SOL     OW16138   6.147   5.591   5.526
 5080SOL    HW116139   6.104   5.523   5.586
 5080SOL    HW216140   6.108   5.681   5.544
 5081SOL     OW16141   2.773   5.254   5.054
 5081SOL    HW116142   2.690   5.198   5.057
 5081SOL    HW216143   2.838   5.222   5.124
 5082SOL     OW16144   4.592   6.499   6.968
 5082SOL    HW116145   4.573   6.545   0.033
 5082SOL    HW216146   4.506   6.468   6.927
 5083SOL     OW16147   2.972   0.912   1.901
 5083SOL    HW116148   3.070   0.930   1.899
 5083SOL    HW216149   2.925   0.986   1.950
 5084SOL     OW16150   0.998   4.980   4.754
 5084SOL    HW116151   0.969   4.919   4.827
 5084SOL    HW216152   1.068   4.934   4.698
 5085SOL     OW16153   1.398   2.866   5.992
 5085SOL    HW116154   1.335   2.863   5.915
 5085SOL    HW216155   1.452   2.950   5.988
 5086SOL     OW16156   0.327   4.383   2.570
 5086SOL    HW116157   0.313   4.372   2.669
 5086SOL    HW216158   0.420   4.356   2.547
 5087SOL     OW16159   6.696   5.409   2.529
 5087SOL    HW116160   6.683   5.322   2.576
 5087SOL    HW216161   6.639   5.412   2.447
 5088SOL     OW16162   4.527   5.779   2.884
 5088SOL    HW116163   4.585   5.859   2.869
 5088SOL    HW216164   4.438   5.808   2.918
 5089SOL     OW16165   5.929   4.247   4.241
 5089SOL    HW116166   6.028   4.233   4.235
 5089SOL    HW216167   5.908   4.342   4.218
 5090SOL     OW16168   2.027   0.559   3.399
 5090SOL    HW116169   2.088   0.482   3.385
 5090SOL    HW216170   1.946   0.529   3.450
 5091SOL     OW16171   6.496   0.156   0.338
 5091SOL    HW116172   6.443   0.231   0.299
 5091SOL    HW216173   6.568   0.193   0.396
 5092SOL     OW16174   4.099   3.546   4.485
 5092SOL    HW116175   4.091   3.507   4.393
 5092SOL    HW216176   4.106   3.473   4.552
 5093SOL     OW16177   2.578   1.323   2.496
 5093SOL    HW116178   2.542   1.231   2.515
 5093SOL    HW216179   2.595   1.331   2.397
 5094SOL     OW16180   2.863   6.094   6.507
 5094SOL    HW116181   2.787   6.089   6.571
 5094SOL    HW216182   2.828   6.110   6.415
 5095SOL     OW16183   0.514   1.519   3.497
 5095SOL    HW116184   0.430   1.496   3.547
 5095SOL    HW216185   0.536   1.616   3.512
 5096SOL     OW16186   5.722   4.267   6.429
 5096SOL    HW116187   5.722   4.169   6.413
 5096SOL    HW216188   5.631   4.304   6.411
 5097SOL     OW16189   6.555   0.004   0.087
 5097SOL    HW116190   6.477   7.010   0.026
 5097SOL    HW216191   6.536   0.080   0.148
 5098SOL     OW16192   3.888   2.418   1.581
 5098SOL    HW116193   3.935   2.502   1.557
 5098SOL    HW216194   3.851   2.426   1.674
 5099SOL     OW16195   0.333   6.163   1.215
 5099SOL    HW116196   0.327   6.203   1.306
 5099SOL    HW216197   0.352   6.234   1.148
 5100SOL     OW16198   4.461   5.369   2.873
 5100SOL    HW116199   4.371   5.405   2.896
 5100SOL    HW216200   4.516   5.441   2.831
 5101SOL     OW16201   4.053   0.724   4.778
 5101SOL    HW116202   4.034   0.696   4.683
 5101SOL    HW216203   4.149   0.705   4.799
 5102SOL     OW16204   4.962   5.372   4.026
 5102SOL    HW116205   4.920   5.284   4.004
 5102SOL    HW216206   5.022   5.362   4.105
 5103SOL     OW16207   0.716   0.303   4.910
 5103SOL    HW116208   0.624   0.281   4.876
 5103SOL    HW216209   0.771   0.341   4.836
 5104SOL     OW16210   3.464   5.928   2.037
 5104SOL    HW116211   3.377   5.881   2.026
 5104SOL    HW216212   3.518   5.918   1.953
 5105SOL     OW16213   3.093   3.013   0.324
 5105SOL    HW116214   3.168   3.061   0.278
 5105SOL    HW216215   3.007   3.038   0.280
 5106SOL     OW16216   3.802   1.669   0.945
 5106SOL    HW116217   3.894   1.631   0.937
 5106SOL    HW216218   3.765   1.686   0.854
 5107SOL     OW16219   5.635   3.048   1.235
 5107SOL    HW116220   5.664   2.959   1.201
 5107SOL    HW216221   5.703   3.083   1.300
 5108SOL     OW16222   4.643   4.078   5.753
 5108SOL    HW116223   4.740   4.082   5.728
 5108SOL    HW216224   4.634   4.053   5.850
 5109SOL     OW16225   1.406   2.801   0.827
 5109SOL    HW116226   1.346   2.721   0.834
 5109SOL    HW216227   1.395   2.843   0.737
 5110SOL     OW16228   0.312   6.988   6.453
 5110SOL    HW116229   0.269   0.009   6.532
 5110SOL    HW216230   0.293   0.020   6.371
 5111SOL     OW16231   0.938   6.970   4.536
 5111SOL    HW116232   1.024   6.935   4.499
 5111SOL    HW216233   0.867   6.965   4.467
 5112SOL     OW16234   0.215   0.393   2.477
 5112SOL    HW116235   0.172   0.408   2.388
 5112SOL    HW216236   0.276   0.470   2.498
 5113SOL     OW16237   1.468   5.555   0.680
 5113SOL    HW116238   1.566   5.536   0.686
 5113SOL    HW216239   1.420   5.501   0.750
 5114SOL     OW16240   3.634   0.005   0.525
 5114SOL    HW116241   3.664   0.089   0.481
 5114SOL    HW216242   3.697   6.953   0.503
 5115SOL     OW16243   1.767   3.508   1.926
 5115SOL    HW116244   1.851   3.560   1.938
 5115SOL    HW216245   1.771   3.458   1.839
 5116SOL     OW16246   2.575   5.962   7.021
 5116SOL    HW116247   2.652   5.985   0.059
 5116SOL    HW216248   2.609   5.934   6.932
 5117SOL     OW16249   0.876   3.442   4.277
 5117SOL    HW116250   0.945   3.488   4.221
 5117SOL    HW216251   0.828   3.374   4.222
 5118SOL     OW16252   5.982   6.899   0.160
 5118SOL    HW116253   5.955   6.959   0.236
 5118SOL    HW216254   6.056   6.839   0.191
 5119SOL     OW16255   4.919   1.366   0.818
 5119SOL    HW116256   4.953   1.426   0.891
 5119SOL    HW216257   4.820   1.375   0.811
 5120SOL     OW16258   4.753   0.143   5.136
 5120SOL    HW116259   4.804   0.077   5.190
 5120SOL    HW216260   4.812   0.181   5.065
 5121SOL     OW16261   3.536   3.616   0.276
 5121SOL    HW116262   3.451   3.581   0.234
 5121SOL    HW216263   3.576   3.685   0.216
 5122SOL     OW16264   3.631   5.559   2.863
 5122SOL    HW116265   3.557   5.611   2.821
 5122SOL    HW216266   3.684   5.618   2.924
 5123SOL     OW16267   5.755   2.462   2.762
 5123SOL    HW116268   5.847   2.499   2.770
 5123SOL    HW216269   5.756   2.379   2.706
 5124SOL     OW16270   1.990   6.168   3.039
 5124SOL    HW116271   1.906   6.134   3.082
 5124SOL    HW216272   2.060   6.181   3.109
 5125SOL     OW16273   0.407   2.094   3.256
 5125SOL    HW116274   0.442   2.186   3.241
 5125SOL    HW216275   0.432   2.035   3.179
 5126SOL     OW16276   1.248   6.489   6.867
 5126SOL    HW116277   1.238   6.395   6.898
 5126SOL    HW216278   1.341   6.504   6.836
 5127SOL     OW16279   1.638   5.639   0.133
 5127SOL    HW116280   1.690   5.712   0.088
 5127SOL    HW216281   1.569   5.678   0.193
 5128SOL     OW16282   6.977   6.033   0.591
 5128SOL    HW116283   6.909   6.010   0.661
 5128SOL    HW216284   6.960   6.125   0.556
 5129SOL     OW16285   5.108   6.356   1.525
 5129SOL    HW116286   5.010   6.360   1.547
 5129SOL    HW216287   5.140   6.446   1.498
 5130SOL     OW16288   0.042   4.731   2.953
 5130SOL    HW116289   0.107   4.665   2.915
 5130SOL    HW216290   0.055   4.820   2.909
 5131SOL     OW16291   1.323   3.265   4.189
 5131SOL    HW116292   1.372   3.269   4.276
 5131SOL    HW216293   1.389   3.259   4.114
 5132SOL     OW16294   4.302   3.065   6.160
 5132SOL    HW116295   4.335   3.049   6.253
 5132SOL    HW216296   4.203   3.061   6.159
 5133SOL     OW16297   3.203   4.748   0.559
 5133SOL    HW116298   3.166   4.762   0.651
 5133SOL    HW216299   3.146   4.795   0.492
 5134SOL     OW16300   0.435   2.861   1.525
 5134SOL    HW116301   0.522   2.838   1.481
 5134SOL    HW216302   0.453   2.887   1.620
 5135SOL     OW16303   6.179   2.084   5.717
 5135SOL    HW116304   6.260   2.034   5.686
 5135SOL    HW216305   6.179   2.090   5.817
 5136SOL     OW16306   5.144   0.695   5.199
 5136SOL    HW116307   5.106   0.761   5.263
 5136SOL    HW216308   5.119   0.603   5.226
 5137SOL     OW16309   5.816   3.072   6.587
 5137SOL    HW116310   5.717   3.089   6.582
 5137SOL    HW216311   5.857   3.094   6.498
 5138SOL     OW16312   3.751   2.846   6.382
 5138SOL    HW116313   3.714   2.939   6.373
 5138SOL    HW216314   3.799   2.821   6.298
 5139SOL     OW16315   1.261   6.841   3.752
 5139SOL    HW116316   1.176   6.797   3.782
 5139SOL    HW216317   1.240   6.908   3.681
 5140SOL     OW16318   2.577   1.679   6.758
 5140SOL    HW116319   2.562   1.626   6.842
 5140SOL    HW216320   2.673   1.672   6.731
 5141SOL     OW16321   6.147   3.263   1.098
 5141SOL    HW116322   6.147   3.298   1.192
 5141SOL    HW216323   6.061   3.214   1.080
 5142SOL     OW16324   5.814   1.938   4.114
 5142SOL    HW116325   5.850   1.933   4.020
 5142SOL    HW216326   5.890   1.927   4.179
 5143SOL     OW16327   0.731   4.351   4.048
 5143SOL    HW116328   0.772   4.387   3.964
 5143SOL    HW216329   0.803   4.319   4.109
 5144SOL     OW16330   1.683   6.530   6.127
 5144SOL    HW116331   1.598   6.582   6.118
 5144SOL    HW216332   1.741   6.549   6.048
 5145SOL     OW16333   2.664   5.354   6.208
 5145SOL    HW116334   2.671   5.417   6.131
 5145SOL    HW216335   2.742   5.368   6.269
 5146SOL     OW16336   4.488   3.756   6.710
 5146SOL    HW116337   4.516   3.762   6.614
 5146SOL    HW216338   4.404   3.702   6.717
 5147SOL     OW16339   6.775   4.254   1.664
 5147SOL    HW116340   6.721   4.172   1.646
 5147SOL    HW216341   6.826   4.279   1.582
 5148SOL     OW16342   0.700   6.243   1.152
 5148SOL    HW116343   0.654   6.167   1.105
 5148SOL    HW216344   0.632   6.311   1.179
 5149SOL     OW16345   5.962   7.013   3.761
 5149SOL    HW116346   5.872   0.025   3.788
 5149SOL    HW216347   6.031   0.021   3.828
 5150SOL     OW16348   2.004   5.736   3.757
 5150SOL    HW116349   1.930   5.770   3.816
 5150SOL    HW216350   1.973   5.653   3.710
 5151SOL     OW16351   5.268   1.123   0.138
 5151SOL    HW116352   5.354   1.100   0.182
 5151SOL    HW216353   5.270   1.219   0.107
 5152SOL     OW16354   2.415   5.012   6.464
 5152SOL    HW116355   2.430   5.098   6.414
 5152SOL    HW216356   2.480   5.006   6.540
 5153SOL     OW16357   2.111   1.337   6.383
 5153SOL    HW116358   2.141   1.247   6.352
 5153SOL    HW216359   2.135   1.405   6.314
 5154SOL     OW16360   2.003   3.247   6.364
 5154SOL    HW116361   2.068   3.184   6.320
 5154SOL    HW216362   1.931   3.272   6.299
 5155SOL     OW16363   4.481   6.735   2.099
 5155SOL    HW116364   4.490   6.825   2.142
 5155SOL    HW216365   4.417   6.743   2.022
 5156SOL     OW16366   6.911   2.306   6.465
 5156SOL    HW116367   6.845   2.322   6.392
 5156SOL    HW216368   6.990   2.256   6.429
 5157SOL     OW16369   4.745   2.856   3.680
 5157SOL    HW116370   4.759   2.949   3.648
 5157SOL    HW216371   4.825   2.800   3.658
 5158SOL     OW16372   2.965   2.050   1.484
 5158SOL    HW116373   2.877   2.004   1.476
 5158SOL    HW216374   2.973   2.119   1.411
 5159SOL     OW16375   1.048   3.838   4.986
 5159SOL    HW116376   1.035   3.882   4.897
 5159SOL    HW216377   0.986   3.759   4.993
 5160SOL     OW16378   1.699   4.078   4.724
 5160SOL    HW116379   1.781   4.116   4.682
 5160SOL    HW216380   1.666   4.001   4.669
 5161SOL     OW16381   1.396   4.387   4.978
 5161SOL    HW116382   1.351   4.476   4.972
 5161SOL    HW216383   1.345   4.320   4.926
 5162SOL     OW16384   0.231   5.455   4.057
 5162SOL    HW116385   0.271   5.368   4.085
 5162SOL    HW216386   0.277   5.530   4.103
 5163SOL     OW16387   4.117   4.731   1.498
 5163SOL    HW116388   4.190   4.798   1.480
 5163SOL    HW216389   4.134   4.684   1.584
 5164SOL     OW16390   5.716   2.589   6.107
 5164SOL    HW116391   5.644   2.597   6.038
 5164SOL    HW216392   5.738   2.680   6.143
 5165SOL     OW16393   5.849   4.543   4.848
 5165SOL    HW116394   5.749   4.548   4.840
 5165SOL    HW216395   5.886   4.635   4.859
 5166SOL     OW16396   1.918   5.335   1.823
 5166SOL    HW116397   1.838   5.382   1.786
 5166SOL    HW216398   1.956   5.274   1.753
 5167SOL     OW16399   6.031   6.886   5.484
 5167SOL    HW116400   6.071   6.880   5.576
 5167SOL    HW216401   6.006   6.795   5.452
 5168SOL     OW16402   4.948   2.554   3.736
 5168SOL    HW116403   4.982   2.545   3.830
 5168SOL    HW216404   5.005   2.621   3.688
 5169SOL     OW16405   3.463   3.135   6.425
 5169SOL    HW116406   3.511   3.091   6.350
 5169SOL    HW216407   3.381   3.180   6.391
 5170SOL     OW16408   6.764   4.169   6.147
 5170SOL    HW116409   6.762   4.225   6.065
 5170SOL    HW216410   6.788   4.226   6.226
 5171SOL     OW16411   2.412   4.403   4.683
 5171SOL    HW116412   2.363   4.425   4.768
 5171SOL    HW216413   2.509   4.390   4.704
 5172SOL     OW16414   1.377   3.256   1.570
 5172SOL    HW116415   1.283   3.226   1.555
 5172SOL    HW216416   1.433   3.232   1.490
 5173SOL     OW16417   5.918   4.253   6.231
 5173SOL    HW116418   5.949   4.158   6.240
 5173SOL    HW216419   5.857   4.276   6.307
 5174SOL     OW16420   2.025   4.738   4.633
 5174SOL    HW116421   2.105   4.738   4.573
 5174SOL    HW216422   2.045   4.685   4.715
 5175SOL     OW16423   2.172   4.710   6.776
 5175SOL    HW116424   2.239   4.784   6.778
 5175SOL    HW216425   2.200   4.641   6.710
 5176SOL     OW16426   3.751   3.030   0.769
 5176SOL    HW116427   3.679   2.983   0.718
 5176SOL    HW216428   3.807   2.964   0.818
 5177SOL     OW16429   4.931   0.308   5.782
 5177SOL    HW116430   4.996   0.237   5.808
 5177SOL    HW216431   4.902   0.358   5.864
 5178SOL     OW16432   2.521   2.191   1.033
 5178SOL    HW116433   2.562   2.269   0.985
 5178SOL    HW216434   2.519   2.112   0.972
 5179SOL     OW16435   4.736   6.012   5.425
 5179SOL    HW116436   4.799   5.960   5.368
 5179SOL    HW216437   4.750   6.110   5.410
 5180SOL     OW16438   3.101   2.544   6.660
 5180SOL    HW116439   3.089   2.465   6.600
 5180SOL    HW216440   3.055   2.527   6.747
 5181SOL     OW16441   4.149   1.172   2.962
 5181SOL    HW116442   4.238   1.159   3.005
 5181SOL    HW216443   4.107   1.083   2.944
 5182SOL     OW16444   5.370   4.768   1.751
 5182SOL    HW116445   5.371   4.779   1.850
 5182SOL    HW216446   5.300   4.827   1.710
 5183SOL     OW16447   4.686   6.772   1.835
 5183SOL    HW116448   4.729   6.813   1.754
 5183SOL    HW216449   4.667   6.676   1.818
 5184SOL     OW16450   0.857   1.852   3.857
 5184SOL    HW116451   0.870   1.906   3.774
 5184SOL    HW216452   0.857   1.755   3.834
 5185SOL     OW16453   4.443   0.335   3.097
 5185SOL    HW116454   4.385   0.407   3.059
 5185SOL    HW216455   4.520   0.319   3.035
 5186SOL     OW16456   6.405   4.450   0.856
 5186SOL    HW116457   6.384   4.413   0.766
 5186SOL    HW216458   6.445   4.379   0.914
 5187SOL     OW16459   6.687   0.872   3.926
 5187SOL    HW116460   6.596   0.838   3.947
 5187SOL    HW216461   6.754   0.798   3.937
 5188SOL     OW16462   0.381   5.180   0.597
 5188SOL    HW116463   0.452   5.111   0.613
 5188SOL    HW216464   0.294   5.145   0.630
 5189SOL     OW16465   4.629   5.210   0.188
 5189SOL    HW116466   4.722   5.223   0.225
 5189SOL    HW216467   4.564   5.265   0.241
 5190SOL     OW16468   1.237   2.340   4.685
 5190SOL    HW116469   1.171   2.283   4.636
 5190SOL    HW216470   1.235   2.433   4.650
 5191SOL     OW16471   3.654   0.988   1.566
 5191SOL    HW116472   3.588   0.913   1.563
 5191SOL    HW216473   3.613   1.068   1.610
 5192SOL     OW16474   4.689   5.826   2.530
 5192SOL    HW116475   4.729   5.841   2.620
 5192SOL    HW216476   4.705   5.906   2.473
 5193SOL     OW16477   4.657   4.327   3.590
 5193SOL    HW116478   4.566   4.306   3.553
 5193SOL    HW216479   4.692   4.410   3.547
 5194SOL     OW16480   5.127   0.182   5.953
 5194SOL    HW116481   5.224   0.201   5.947
 5194SOL    HW216482   5.087   0.232   6.030
 5195SOL     OW16483   6.302   6.553   4.653
 5195SOL    HW116484   6.274   6.618   4.724
 5195SOL    HW216485   6.223   6.532   4.594
 5196SOL     OW16486   0.884   4.031   1.500
 5196SOL    HW116487   0.848   4.084   1.576
 5196SOL    HW216488   0.979   4.058   1.482
 5197SOL     OW16489   1.768   6.245   3.898
 5197SOL    HW116490   1.731   6.335   3.919
 5197SOL    HW216491   1.864   6.254   3.871
 5198SOL     OW16492   2.575   6.983   5.115
 5198SOL    HW116493   2.480   6.978   5.148
 5198SOL    HW216494   2.634   7.017   5.188
 5199SOL     OW16495   2.444   5.535   1.327
 5199SOL    HW116496   2.420   5.557   1.232
 5199SOL    HW216497   2.434   5.617   1.383
 5200SOL     OW16498   0.810   2.287   5.020
 5200SOL    HW116499   0.904   2.253   5.016
 5200SOL    HW216500   0.787   2.329   4.932
 5201SOL     OW16501   5.693   5.044   4.493
 5201SOL    HW116502   5.729   5.122   4.442
 5201SOL    HW216503   5.602   5.021   4.459
 5202SOL     OW16504   5.359   3.003   6.999
 5202SOL    HW116505   5.273   2.982   6.954
 5202SOL    HW216506   5.342   3.041   0.067
 5203SOL     OW16507   1.584   0.348   5.955
 5203SOL    HW116508   1.660   0.292   5.988
 5203SOL    HW216509   1.501   0.324   6.006
 5204SOL     OW16510   3.420   6.724   6.670
 5204SOL    HW116511   3.422   6.816   6.711
 5204SOL    HW216512   3.376   6.661   6.734
 5205SOL     OW16513   6.568   5.756   0.519
 5205SOL    HW116514   6.559   5.850   0.487
 5205SOL    HW216515   6.479   5.712   0.519
 5206SOL     OW16516   0.965   4.545   5.190
 5206SOL    HW116517   0.867   4.533   5.204
 5206SOL    HW216518   0.984   4.551   5.092
 5207SOL     OW16519   6.870   0.331   4.059
 5207SOL    HW116520   6.819   0.295   4.137
 5207SOL    HW216521   6.961   0.359   4.089
 5208SOL     OW16522   4.842   2.709   0.027
 5208SOL    HW116523   4.801   2.667   6.969
 5208SOL    HW216524   4.836   2.647   0.105
 5209SOL     OW16525   4.771   7.000   3.156
 5209SOL    HW116526   4.695   6.946   3.120
 5209SOL    HW216527   4.743   0.074   3.163
 5210SOL     OW16528   5.147   4.364   1.261
 5210SOL    HW116529   5.093   4.440   1.225
 5210SOL    HW216530   5.243   4.389   1.264
 5211SOL     OW16531   4.631   2.286   4.238
 5211SOL    HW116532   4.700   2.359   4.244
 5211SOL    HW216533   4.555   2.317   4.181
 5212SOL     OW16534   1.792   2.356   0.682
 5212SOL    HW116535   1.818   2.271   0.728
 5212SOL    HW216536   1.764   2.424   0.750
 5213SOL     OW16537   4.090   3.823   2.104
 5213SOL    HW116538   4.183   3.859   2.109
 5213SOL    HW216539   4.046   3.858   2.021
 5214SOL     OW16540   5.265   4.433   6.297
 5214SOL    HW116541   5.174   4.433   6.255
 5214SOL    HW216542   5.316   4.514   6.266
 5215SOL     OW16543   0.032   3.343   4.418
 5215SOL    HW116544   0.110   3.281   4.416
 5215SOL    HW216545   0.009   3.371   4.325
 5216SOL     OW16546   5.070   5.355   0.753
 5216SOL    HW116547   5.128   5.370   0.673
 5216SOL    HW216548   5.125   5.318   0.827
 5217SOL     OW16549   3.685   5.373   4.011
 5217SOL    HW116550   3.679   5.367   3.912
 5217SOL    HW216551   3.595   5.355   4.051
 5218SOL     OW16552   0.427   1.437   0.755
 5218SOL    HW116553   0.396   1.410   0.664
 5218SOL    HW216554   0.369   1.511   0.789
 5219SOL     OW16555   3.532   1.593   4.552
 5219SOL    HW116556   3.536   1.560   4.646
 5219SOL    HW216557   3.444   1.638   4.536
 5220SOL     OW16558   1.213   5.432   3.350
 5220SOL    HW116559   1.254   5.415   3.440
 5220SOL    HW216560   1.156   5.353   3.324
 5221SOL     OW16561   6.782   0.266   1.391
 5221SOL    HW116562   6.853   0.260   1.320
 5221SOL    HW216563   6.738   0.356   1.387
 5222SOL     OW16564   4.393   4.861   1.761
 5222SOL    HW116565   4.420   4.777   1.714
 5222SOL    HW216566   4.393   4.847   1.860
 5223SOL     OW16567   0.278   2.387   0.846
 5223SOL    HW116568   0.352   2.336   0.888
 5223SOL    HW216569   0.279   2.482   0.879
 5224SOL     OW16570   0.859   1.525   4.697
 5224SOL    HW116571   0.913   1.485   4.623
 5224SOL    HW216572   0.852   1.624   4.684
 5225SOL     OW16573   6.692   1.563   4.428
 5225SOL    HW116574   6.733   1.635   4.372
 5225SOL    HW216575   6.610   1.529   4.382
 5226SOL     OW16576   0.353   5.551   3.578
 5226SOL    HW116577   0.284   5.553   3.651
 5226SOL    HW216578   0.344   5.466   3.526
 5227SOL     OW16579   6.923   3.910   6.015
 5227SOL    HW116580   6.859   3.841   5.981
 5227SOL    HW216581   6.908   3.923   6.113
 5228SOL     OW16582   1.041   2.710   6.436
 5228SOL    HW116583   1.075   2.756   6.354
 5228SOL    HW216584   1.101   2.730   6.514
 5229SOL     OW16585   3.586   5.997   6.938
 5229SOL    HW116586   3.521   5.934   6.981
 5229SOL    HW216587   3.615   5.960   6.850
 5230SOL     OW16588   6.777   0.237   2.479
 5230SOL    HW116589   6.796   0.175   2.555
 5230SOL    HW216590   6.689   0.283   2.495
 5231SOL     OW16591   5.618   1.471   3.576
 5231SOL    HW116592   5.615   1.399   3.507
 5231SOL    HW216593   5.551   1.542   3.552
 5232SOL     OW16594   1.749   4.053   5.976
 5232SOL    HW116595   1.815   3.978   5.990
 5232SOL    HW216596   1.735   4.068   5.878
 5233SOL     OW16597   3.330   1.466   2.397
 5233SOL    HW116598   3.246   1.488   2.346
 5233SOL    HW216599   3.308   1.403   2.472
 5234SOL     OW16600   2.060   3.353   0.368
 5234SOL    HW116601   1.970   3.310   0.365
 5234SOL    HW216602   2.095   3.362   0.275
 5235SOL     OW16603   2.080   2.462   0.290
 5235SOL    HW116604   2.022   2.480   0.210
 5235SOL    HW216605   2.176   2.459   0.261
 5236SOL     OW16606   3.202   4.815   1.949
 5236SOL    HW116607   3.105   4.840   1.947
 5236SOL    HW216608   3.231   4.804   2.044
 5237SOL     OW16609   1.833   1.888   4.836
 5237SOL    HW116610   1.906   1.870   4.771
 5237SOL    HW216611   1.819   1.809   4.896
 5238SOL     OW16612   0.910   4.509   2.680
 5238SOL    HW116613   0.973   4.573   2.637
 5238SOL    HW216614   0.821   4.552   2.693
 5239SOL     OW16615   3.395   4.073   0.976
 5239SOL    HW116616   3.404   4.037   0.883
 5239SOL    HW216617   3.386   4.173   0.973
 5240SOL     OW16618   2.670   2.748   5.670
 5240SOL    HW116619   2.575   2.725   5.693
 5240SOL    HW216620   2.706   2.812   5.737
 5241SOL     OW16621   1.510   6.091   2.209
 5241SOL    HW116622   1.569   6.168   2.233
 5241SOL    HW216623   1.446   6.073   2.284
 5242SOL     OW16624   5.014   0.633   1.568
 5242SOL    HW116625   4.992   0.543   1.530
 5242SOL    HW216626   4.973   0.705   1.512
 5243SOL     OW16627   2.476   6.341   1.785
 5243SOL    HW116628   2.426   6.426   1.766
 5243SOL    HW216629   2.520   6.348   1.875
 5244SOL     OW16630   4.968   3.364   0.490
 5244SOL    HW116631   4.915   3.304   0.549
 5244SOL    HW216632   5.058   3.380   0.531
 5245SOL     OW16633   3.938   4.124   0.273
 5245SOL    HW116634   3.906   4.189   0.342
 5245SOL    HW216635   4.036   4.108   0.284
 5246SOL     OW16636   6.679   2.296   2.414
 5246SOL    HW116637   6.674   2.211   2.362
 5246SOL    HW216638   6.733   2.282   2.496
 5247SOL     OW16639   3.909   1.425   5.482
 5247SOL    HW116640   3.872   1.376   5.403
 5247SOL    HW216641   3.990   1.477   5.455
 5248SOL     OW16642   6.987   2.129   2.993
 5248SOL    HW116643   6.977   2.111   3.091
 5248SOL    HW216644   0.042   2.076   2.957
 5249SOL     OW16645   1.477   5.170   6.816
 5249SOL    HW116646   1.437   5.112   6.887
 5249SOL    HW216647   1.412   5.242   6.792
 5250SOL     OW16648   1.845   5.687   0.481
 5250SOL    HW116649   1.896   5.626   0.542
 5250SOL    HW216650   1.849   5.651   0.388
 5251SOL     OW16651   0.786   4.681   1.196
 5251SOL    HW116652   0.862   4.618   1.209
 5251SOL    HW216653   0.790   4.754   1.265
 5252SOL     OW16654   3.052   0.040   2.502
 5252SOL    HW116655   3.130   0.006   2.450
 5252SOL    HW216656   3.007   6.987   2.549
 5253SOL     OW16657   5.921   4.431   5.080
 5253SOL    HW116658   5.920   4.500   5.007
 5253SOL    HW216659   5.835   4.380   5.079
 5254SOL     OW16660   5.495   0.563   3.281
 5254SOL    HW116661   5.503   0.511   3.365
 5254SOL    HW216662   5.524   0.507   3.203
 5255SOL     OW16663   5.169   2.398   4.796
 5255SOL    HW116664   5.137   2.488   4.826
 5255SOL    HW216665   5.230   2.408   4.718
 5256SOL     OW16666   5.141   1.536   3.221
 5256SOL    HW116667   5.054   1.553   3.174
 5256SOL    HW216668   5.212   1.516   3.153
 5257SOL     OW16669   4.739   0.039   0.462
 5257SOL    HW116670   4.831   0.052   0.425
 5257SOL    HW216671   4.708   0.124   0.505
 5258SOL     OW16672   5.605   2.090   2.758
 5258SOL    HW116673   5.569   2.102   2.851
 5258SOL    HW216674   5.581   2.000   2.724
 5259SOL     OW16675   4.968   5.642   2.713
 5259SOL    HW116676   4.908   5.722   2.714
 5259SOL    HW216677   5.021   5.641   2.628
 5260SOL     OW16678   3.208   5.317   0.000
 5260SOL    HW116679   3.147   5.277   0.068
 5260SOL    HW216680   3.201   5.416   0.003
 5261SOL     OW16681   0.293   4.887   0.734
 5261SOL    HW116682   0.227   4.923   0.800
 5261SOL    HW216683   0.245   4.833   0.665
 5262SOL     OW16684   2.727   0.776   2.842
 5262SOL    HW116685   2.766   0.775   2.750
 5262SOL    HW216686   2.688   0.686   2.863
 5263SOL     OW16687   1.837   1.340   3.330
 5263SOL    HW116688   1.775   1.418   3.331
 5263SOL    HW216689   1.927   1.369   3.298
 5264SOL     OW16690   6.669   2.060   2.283
 5264SOL    HW116691   6.690   1.977   2.334
 5264SOL    HW216692   6.680   2.043   2.185
 5265SOL     OW16693   5.811   2.880   4.561
 5265SOL    HW116694   5.730   2.920   4.604
 5265SOL    HW216695   5.893   2.914   4.607
 5266SOL     OW16696   2.271   6.551   1.122
 5266SOL    HW116697   2.301   6.639   1.088
 5266SOL    HW216698   2.171   6.545   1.117
 5267SOL     OW16699   4.652   2.208   4.715
 5267SOL    HW116700   4.691   2.299   4.732
 5267SOL    HW216701   4.552   2.216   4.710
 5268SOL     OW16702   5.218   0.634   6.629
 5268SOL    HW116703   5.255   0.695   6.559
 5268SOL    HW216704   5.149   0.683   6.683
 5269SOL     OW16705   0.706   6.777   2.376
 5269SOL    HW116706   0.778   6.813   2.316
 5269SOL    HW216707   0.697   6.835   2.457
 5270SOL     OW16708   5.412   1.768   0.687
 5270SOL    HW116709   5.378   1.818   0.607
 5270SOL    HW216710   5.400   1.825   0.769
 5271SOL     OW16711   6.513   4.943   4.849
 5271SOL    HW116712   6.479   4.867   4.795
 5271SOL    HW216713   6.605   4.922   4.883
 5272SOL     OW16714   3.965   6.186   0.967
 5272SOL    HW116715   3.886   6.129   0.945
 5272SOL    HW216716   3.940   6.282   0.959
 5273SOL     OW16717   0.933   2.778   2.759
 5273SOL    HW116718   0.928   2.819   2.668
 5273SOL    HW216719   0.963   2.683   2.751
 5274SOL     OW16720   4.728   6.450   2.816
 5274SOL    HW116721   4.696   6.386   2.747
 5274SOL    HW216722   4.675   6.535   2.811
 5275SOL     OW16723   2.904   1.005   1.212
 5275SOL    HW116724   2.874   0.911   1.229
 5275SOL    HW216725   2.838   1.069   1.253
 5276SOL     OW16726   2.519   0.453   2.252
 5276SOL    HW116727   2.546   0.442   2.156
 5276SOL    HW216728   2.532   0.366   2.300
 5277SOL     OW16729   3.084   0.897   2.460
 5277SOL    HW116730   3.086   0.967   2.531
 5277SOL    HW216731   3.164   0.837   2.469
 5278SOL     OW16732   4.752   4.527   3.450
 5278SOL    HW116733   4.848   4.510   3.427
 5278SOL    HW216734   4.716   4.600   3.392
 5279SOL     OW16735   2.649   5.489   0.917
 5279SOL    HW116736   2.633   5.391   0.909
 5279SOL    HW216737   2.658   5.530   0.826
 5280SOL     OW16738   2.757   6.450   4.987
 5280SOL    HW116739   2.822   6.504   4.933
 5280SOL    HW216740   2.719   6.378   4.930
 5281SOL     OW16741   0.061   1.720   2.602
 5281SOL    HW116742   0.021   1.731   2.511
 5281SOL    HW216743   0.125   1.794   2.620
 5282SOL     OW16744   2.275   1.720   3.766
 5282SOL    HW116745   2.295   1.718   3.864
 5282SOL    HW216746   2.336   1.785   3.722
 5283SOL     OW16747   5.298   6.255   1.349
 5283SOL    HW116748   5.377   6.242   1.410
 5283SOL    HW216749   5.219   6.284   1.402
 5284SOL     OW16750   5.602   4.518   2.942
 5284SOL    HW116751   5.655   4.602   2.953
 5284SOL    HW216752   5.515   4.527   2.990
 5285SOL     OW16753   3.232   5.007   3.878
 5285SOL    HW116754   3.300   4.962   3.936
 5285SOL    HW216755   3.278   5.071   3.816
 5286SOL     OW16756   2.234   4.415   1.117
 5286SOL    HW116757   2.304   4.486   1.107
 5286SOL    HW216758   2.239   4.376   1.209
 5287SOL     OW16759   2.519   1.593   0.523
 5287SOL    HW116760   2.573   1.649   0.461
 5287SOL    HW216761   2.495   1.645   0.605
 5288SOL     OW16762   3.526   0.368   1.510
 5288SOL    HW116763   3.615   0.369   1.465
 5288SOL    HW216764   3.459   0.414   1.451
 5289SOL     OW16765   1.089   5.218   0.256
 5289SOL    HW116766   1.185   5.207   0.283
 5289SOL    HW216767   1.040   5.133   0.271
 5290SOL     OW16768   3.664   5.816   6.732
 5290SOL    HW116769   3.720   5.891   6.698
 5290SOL    HW216770   3.594   5.793   6.664
 5291SOL     OW16771   2.247   5.282   5.838
 5291SOL    HW116772   2.272   5.204   5.781
 5291SOL    HW216773   2.308   5.286   5.917
 5292SOL     OW16774   5.298   3.259   6.844
 5292SOL    HW116775   5.251   3.174   6.820
 5292SOL    HW216776   5.369   3.240   6.911
 5293SOL     OW16777   0.790   1.137   4.702
 5293SOL    HW116778   0.764   1.220   4.752
 5293SOL    HW216779   0.790   1.059   4.765
 5294SOL     OW16780   5.814   2.823   6.277
 5294SOL    HW116781   5.722   2.848   6.307
 5294SOL    HW216782   5.845   2.888   6.207
 5295SOL     OW16783   5.169   1.231   2.718
 5295SOL    HW116784   5.194   1.172   2.795
 5295SOL    HW216785   5.141   1.320   2.754
 5296SOL     OW16786   1.748   4.571   0.187
 5296SOL    HW116787   1.735   4.614   0.277
 5296SOL    HW216788   1.840   4.532   0.182
 5297SOL     OW16789   2.038   1.795   0.629
 5297SOL    HW116790   1.972   1.867   0.608
 5297SOL    HW216791   2.010   1.711   0.583
 5298SOL     OW16792   6.441   4.896   2.037
 5298SOL    HW116793   6.383   4.856   1.965
 5298SOL    HW216794   6.530   4.851   2.037
 5299SOL     OW16795   2.480   0.545   1.414
 5299SOL    HW116796   2.576   0.526   1.431
 5299SOL    HW216797   2.470   0.636   1.374
 5300SOL     OW16798   0.063   5.755   3.260
 5300SOL    HW116799   0.138   5.690   3.269
 5300SOL    HW216800   7.018   5.720   3.194
 5301SOL     OW16801   4.253   1.677   0.063
 5301SOL    HW116802   4.167   1.674   0.115
 5301SOL    HW216803   4.310   1.751   0.097
 5302SOL     OW16804   0.155   4.428   3.421
 5302SOL    HW116805   0.071   4.482   3.428
 5302SOL    HW216806   0.189   4.431   3.327
 5303SOL     OW16807   6.687   4.845   3.759
 5303SOL    HW116808   6.766   4.857   3.699
 5303SOL    HW216809   6.691   4.754   3.802
 5304SOL     OW16810   4.855   1.996   5.931
 5304SOL    HW116811   4.944   1.952   5.941
 5304SOL    HW216812   4.783   1.936   5.968
 5305SOL     OW16813   2.276   0.587   3.928
 5305SOL    HW116814   2.236   0.509   3.881
 5305SOL    HW216815   2.292   0.564   4.024
 5306SOL     OW16816   2.255   6.583   5.839
 5306SOL    HW116817   2.304   6.630   5.766
 5306SOL    HW216818   2.320   6.538   5.900
 5307SOL     OW16819   4.212   6.527   6.314
 5307SOL    HW116820   4.176   6.461   6.247
 5307SOL    HW216821   4.268   6.595   6.267
 5308SOL     OW16822   6.864   0.527   3.712
 5308SOL    HW116823   6.870   0.598   3.641
 5308SOL    HW216824   6.772   0.488   3.712
 5309SOL     OW16825   3.512   3.779   3.596
 5309SOL    HW116826   3.510   3.831   3.510
 5309SOL    HW216827   3.425   3.790   3.644
 5310SOL     OW16828   5.348   2.610   1.392
 5310SOL    HW116829   5.252   2.632   1.375
 5310SOL    HW216830   5.403   2.633   1.311
 5311SOL     OW16831   2.637   5.414   6.888
 5311SOL    HW116832   2.703   5.372   6.951
 5311SOL    HW216833   2.581   5.479   6.939
 5312SOL     OW16834   1.317   4.532   2.765
 5312SOL    HW116835   1.342   4.500   2.674
 5312SOL    HW216836   1.267   4.619   2.757
 5313SOL     OW16837   1.033   6.099   6.624
 5313SOL    HW116838   0.956   6.121   6.565
 5313SOL    HW216839   1.109   6.162   6.607
 5314SOL     OW16840   4.567   5.381   6.996
 5314SOL    HW116841   4.471   5.404   6.984
 5314SOL    HW216842   4.574   5.299   0.031
 5315SOL     OW16843   5.771   3.852   1.545
 5315SOL    HW116844   5.752   3.946   1.518
 5315SOL    HW216845   5.685   3.809   1.574
 5316SOL     OW16846   6.989   4.983   4.679
 5316SOL    HW116847   0.035   4.910   4.679
 5316SOL    HW216848   7.010   5.049   4.607
 5317SOL     OW16849   5.374   0.626   2.650
 5317SOL    HW116850   5.283   0.653   2.682
 5317SOL    HW216851   5.365   0.564   2.572
 5318SOL     OW16852   0.068   2.917   4.725
 5318SOL    HW116853   0.167   2.912   4.731
 5318SOL    HW216854   0.031   2.827   4.704
 5319SOL     OW16855   5.871   0.294   0.041
 5319SOL    HW116856   5.802   0.225   0.059
 5319SOL    HW216857   5.856   0.332   6.971
 5320SOL     OW16858   5.322   3.484   6.717
 5320SOL    HW116859   5.297   3.399   6.763
 5320SOL    HW216860   5.281   3.561   6.766
 5321SOL     OW16861   1.802   5.539   5.519
 5321SOL    HW116862   1.884   5.482   5.518
 5321SOL    HW216863   1.726   5.488   5.479
 5322SOL     OW16864   4.345   5.776   6.271
 5322SOL    HW116865   4.273   5.838   6.302
 5322SOL    HW216866   4.399   5.745   6.350
 5323SOL     OW16867   3.826   1.875   0.090
 5323SOL    HW116868   3.807   1.968   0.121
 5323SOL    HW216869   3.799   1.866   7.016
 5324SOL     OW16870   4.165   3.043   1.271
 5324SOL    HW116871   4.112   3.022   1.354
 5324SOL    HW216872   4.243   3.100   1.296
 5325SOL     OW16873   5.005   6.397   1.880
 5325SOL    HW116874   4.965   6.443   1.958
 5325SOL    HW216875   4.945   6.407   1.801
 5326SOL     OW16876   6.702   5.787   2.057
 5326SOL    HW116877   6.693   5.882   2.086
 5326SOL    HW216878   6.798   5.767   2.037
 5327SOL     OW16879   6.786   6.698   4.459
 5327SOL    HW116880   6.693   6.719   4.490
 5327SOL    HW216881   6.811   6.761   4.386
 5328SOL     OW16882   3.765   3.629   6.807
 5328SOL    HW116883   3.811   3.657   6.892
 5328SOL    HW216884   3.833   3.624   6.734
 5329SOL     OW16885   0.658   4.517   0.779
 5329SOL    HW116886   0.607   4.460   0.843
 5329SOL    HW216887   0.756   4.496   0.786
 5330SOL     OW16888   3.597   3.884   1.436
 5330SOL    HW116889   3.534   3.812   1.464
 5330SOL    HW216890   3.606   3.884   1.336
 5331SOL     OW16891   4.185   2.050   0.332
 5331SOL    HW116892   4.247   1.982   0.369
 5331SOL    HW216893   4.237   2.128   0.297
 5332SOL     OW16894   6.021   5.564   0.647
 5332SOL    HW116895   6.052   5.518   0.730
 5332SOL    HW216896   6.082   5.641   0.628
 5333SOL     OW16897   1.488   1.406   3.747
 5333SOL    HW116898   1.554   1.436   3.678
 5333SOL    HW216899   1.432   1.332   3.710
 5334SOL     OW16900   4.533   4.413   3.166
 5334SOL    HW116901   4.567   4.341   3.227
 5334SOL    HW216902   4.474   4.475   3.218
 5335SOL     OW16903   0.037   4.703   1.555
 5335SOL    HW116904   0.128   4.715   1.516
 5335SOL    HW216905   7.011   4.630   1.505
 5336SOL     OW16906   1.833   2.082   4.204
 5336SOL    HW116907   1.929   2.079   4.176
 5336SOL    HW216908   1.779   2.124   4.131
 5337SOL     OW16909   6.612   4.230   1.351
 5337SOL    HW116910   6.700   4.189   1.327
 5337SOL    HW216911   6.626   4.310   1.409
 5338SOL     OW16912   6.226   2.960   0.264
 5338SOL    HW116913   6.222   2.863   0.288
 5338SOL    HW216914   6.300   3.004   0.315
 5339SOL     OW16915   5.945   2.315   3.015
 5339SOL    HW116916   6.043   2.300   3.023
 5339SOL    HW216917   5.904   2.240   2.964
 5340SOL     OW16918   5.614   2.808   2.208
 5340SOL    HW116919   5.569   2.719   2.202
 5340SOL    HW216920   5.557   2.870   2.262
 5341SOL     OW16921   4.690   4.770   3.353
 5341SOL    HW116922   4.602   4.780   3.307
 5341SOL    HW216923   4.675   4.756   3.451
 5342SOL     OW16924   5.934   0.103   5.389
 5342SOL    HW116925   5.994   0.039   5.438
 5342SOL    HW216926   5.951   0.196   5.421
 5343SOL     OW16927   3.919   3.695   5.466
 5343SOL    HW116928   3.941   3.773   5.523
 5343SOL    HW216929   3.959   3.706   5.375
 5344SOL     OW16930   0.206   1.549   6.545
 5344SOL    HW116931   0.223   1.524   6.641
 5344SOL    HW216932   0.157   1.637   6.542
 5345SOL     OW16933   5.345   1.272   6.794
 5345SOL    HW116934   5.397   1.303   6.715
 5345SOL    HW216935   5.252   1.248   6.766
 5346SOL     OW16936   2.979   5.187   3.641
 5346SOL    HW116937   2.921   5.106   3.646
 5346SOL    HW216938   3.010   5.200   3.547
 5347SOL     OW16939   6.302   2.180   4.238
 5347SOL    HW116940   6.281   2.131   4.322
 5347SOL    HW216941   6.380   2.136   4.193
 5348SOL     OW16942   5.197   2.119   4.344
 5348SOL    HW116943   5.195   2.217   4.325
 5348SOL    HW216944   5.290   2.085   4.331
 5349SOL     OW16945   1.119   2.887   1.639
 5349SOL    HW116946   1.206   2.936   1.636
 5349SOL    HW216947   1.044   2.952   1.630
 5350SOL     OW16948   2.138   6.464   5.561
 5350SOL    HW116949   2.230   6.457   5.600
 5350SOL    HW216950   2.133   6.543   5.501
 5351SOL     OW16951   0.414   5.428   1.788
 5351SOL    HW116952   0.505   5.460   1.759
 5351SOL    HW216953   0.382   5.358   1.724
 5352SOL     OW16954   1.819   3.814   4.084
 5352SOL    HW116955   1.810   3.913   4.093
 5352SOL    HW216956   1.869   3.793   4.000
 5353SOL     OW16957   4.403   5.465   3.124
 5353SOL    HW116958   4.409   5.490   3.221
 5353SOL    HW216959   4.490   5.427   3.094
 5354SOL     OW16960   4.153   5.436   0.419
 5354SOL    HW116961   4.235   5.379   0.421
 5354SOL    HW216962   4.177   5.528   0.390
 5355SOL     OW16963   5.592   5.044   5.139
 5355SOL    HW116964   5.601   5.133   5.094
 5355SOL    HW216965   5.544   4.981   5.079
 5356SOL     OW16966   0.511   4.658   1.445
 5356SOL    HW116967   0.546   4.656   1.351
 5356SOL    HW216968   0.538   4.573   1.492
 5357SOL     OW16969   5.041   4.973   1.796
 5357SOL    HW116970   4.948   5.004   1.778
 5357SOL    HW216971   5.098   4.991   1.716
 5358SOL     OW16972   4.380   1.416   7.002
 5358SOL    HW116973   4.387   1.514   7.019
 5358SOL    HW216974   4.284   1.388   7.006
 5359SOL     OW16975   1.535   2.015   0.091
 5359SOL    HW116976   1.602   1.955   0.134
 5359SOL    HW216977   1.514   2.091   0.153
 5360SOL     OW16978   5.712   4.532   3.741
 5360SOL    HW116979   5.743   4.532   3.646
 5360SOL    HW216980   5.632   4.473   3.751
 5361SOL     OW16981   3.655   6.362   2.562
 5361SOL    HW116982   3.572   6.411   2.588
 5361SOL    HW216983   3.690   6.400   2.476
 5362SOL     OW16984   5.307   0.047   2.435
 5362SOL    HW116985   5.405   0.056   2.415
 5362SOL    HW216986   5.284   0.103   2.514
 5363SOL     OW16987   5.460   5.448   4.911
 5363SOL    HW116988   5.434   5.523   4.972
 5363SOL    HW216989   5.435   5.361   4.953
 5364SOL     OW16990   4.750   0.648   2.640
 5364SOL    HW116991   4.825   0.709   2.615
 5364SOL    HW216992   4.716   0.673   2.731
 5365SOL     OW16993   3.125   3.513   4.272
 5365SOL    HW116994   3.045   3.559   4.309
 5365SOL    HW216995   3.122   3.518   4.172
 5366SOL     OW16996   6.442   6.708   1.625
 5366SOL    HW116997   6.458   6.697   1.527
 5366SOL    HW216998   6.445   6.806   1.648
 5367SOL     OW16999   0.065   6.425   1.129
 5367SOL    HW117000   0.120   6.432   1.045
 5367SOL    HW217001   0.125   6.440   1.208
 5368SOL     OW17002   6.659   5.496   3.343
 5368SOL    HW117003   6.650   5.422   3.409
 5368SOL    HW217004   6.644   5.461   3.250
 5369SOL     OW17005   2.948   5.436   2.113
 5369SOL    HW117006   2.884   5.370   2.152
 5369SOL    HW217007   2.896   5.515   2.079
 5370SOL     OW17008   3.163   3.828   1.606
 5370SOL    HW117009   3.258   3.845   1.631
 5370SOL    HW217010   3.114   3.790   1.684
 5371SOL     OW17011   6.824   4.986   5.571
 5371SOL    HW117012   6.921   4.962   5.563
 5371SOL    HW217013   6.798   4.985   5.668
 5372SOL     OW17014   0.578   0.639   2.354
 5372SOL    HW117015   0.561   0.734   2.325
 5372SOL    HW217016   0.637   0.639   2.435
 5373SOL     OW17017   3.978   0.025   5.945
 5373SOL    HW117018   3.909   0.087   5.981
 5373SOL    HW217019   3.936   6.982   5.882
 5374SOL     OW17020   2.916   5.438   1.517
 5374SOL    HW117021   2.838   5.413   1.460
 5374SOL    HW217022   2.901   5.528   1.557
 5375SOL     OW17023   0.577   5.975   4.664
 5375SOL    HW117024   0.592   6.071   4.643
 5375SOL    HW217025   0.586   5.959   4.762
 5376SOL     OW17026   0.988   1.590   0.374
 5376SOL    HW117027   1.058   1.580   0.303
 5376SOL    HW217028   0.912   1.528   0.353
 5377SOL     OW17029   2.423   0.626   3.148
 5377SOL    HW117030   2.426   0.726   3.147
 5377SOL    HW217031   2.354   0.594   3.083
 5378SOL     OW17032   5.950   0.734   1.512
 5378SOL    HW117033   5.891   0.814   1.514
 5378SOL    HW217034   5.953   0.692   1.603
 5379SOL     OW17035   0.569   3.156   6.090
 5379SOL    HW117036   0.645   3.220   6.081
 5379SOL    HW217037   0.552   3.111   6.002
 5380SOL     OW17038   4.963   0.367   1.521
 5380SOL    HW117039   4.905   0.298   1.478
 5380SOL    HW217040   5.051   0.327   1.544
 5381SOL     OW17041   4.805   6.562   3.179
 5381SOL    HW117042   4.855   6.488   3.225
 5381SOL    HW217043   4.839   6.572   3.086
 5382SOL     OW17044   4.211   1.780   2.298
 5382SOL    HW117045   4.283   1.817   2.239
 5382SOL    HW217046   4.193   1.685   2.273
 5383SOL     OW17047   1.783   2.991   4.275
 5383SOL    HW117048   1.875   2.987   4.237
 5383SOL    HW217049   1.729   2.915   4.238
 5384SOL     OW17050   4.438   5.943   5.379
 5384SOL    HW117051   4.397   5.927   5.469
 5384SOL    HW217052   4.531   5.907   5.378
 5385SOL     OW17053   6.128   2.561   5.389
 5385SOL    HW117054   6.063   2.486   5.374
 5385SOL    HW217055   6.218   2.533   5.357
 5386SOL     OW17056   6.775   4.310   3.881
 5386SOL    HW117057   6.839   4.234   3.864
 5386SOL    HW217058   6.708   4.314   3.807
 5387SOL     OW17059   2.074   1.296   2.538
 5387SOL    HW117060   2.132   1.299   2.456
 5387SOL    HW217061   2.070   1.203   2.572
 5388SOL     OW17062   1.079   6.937   2.475
 5388SOL    HW117063   1.005   6.927   2.408
 5388SOL    HW217064   1.165   6.952   2.427
 5389SOL     OW17065   4.827   2.042   4.221
 5389SOL    HW117066   4.751   2.106   4.205
 5389SOL    HW217067   4.890   2.046   4.143
 5390SOL     OW17068   6.508   3.298   3.815
 5390SOL    HW117069   6.486   3.215   3.764
 5390SOL    HW217070   6.607   3.300   3.833
 5391SOL     OW17071   2.119   2.757   0.159
 5391SOL    HW117072   2.070   2.682   0.116
 5391SOL    HW217073   2.154   2.728   0.248
 5392SOL     OW17074   5.040   1.885   3.506
 5392SOL    HW117075   4.999   1.893   3.597
 5392SOL    HW217076   5.136   1.914   3.511
 5393SOL     OW17077   3.666   1.443   5.634
 5393SOL    HW117078   3.756   1.418   5.600
 5393SOL    HW217079   3.638   1.530   5.591
 5394SOL     OW17080   1.963   0.277   0.833
 5394SOL    HW117081   2.043   0.238   0.787
 5394SOL    HW217082   1.973   0.377   0.838
 5395SOL     OW17083   5.153   2.550   1.118
 5395SOL    HW117084   5.172   2.537   1.021
 5395SOL    HW217085   5.178   2.643   1.145
 5396SOL     OW17086   5.990   5.448   2.821
 5396SOL    HW117087   5.918   5.394   2.866
 5396SOL    HW217088   6.005   5.413   2.729
 5397SOL     OW17089   6.369   1.181   3.252
 5397SOL    HW117090   6.292   1.184   3.317
 5397SOL    HW217091   6.343   1.127   3.173
 5398SOL     OW17092   4.879   2.318   3.389
 5398SOL    HW117093   4.806   2.265   3.346
 5398SOL    HW217094   4.840   2.395   3.438
 5399SOL     OW17095   2.107   0.001   5.592
 5399SOL    HW117096   2.023   0.031   5.639
 5399SOL    HW217097   2.107   0.037   5.499
 5400SOL     OW17098   3.453   3.363   1.304
 5400SOL    HW117099   3.511   3.386   1.382
 5400SOL    HW217100   3.498   3.391   1.219
 5401SOL     OW17101   5.688   4.227   2.380
 5401SOL    HW117102   5.722   4.320   2.396
 5401SOL    HW217103   5.630   4.227   2.299
 5402SOL     OW17104   1.890   7.009   0.843
 5402SOL    HW117105   1.907   0.084   0.826
 5402SOL    HW217106   1.794   6.988   0.822
 5403SOL     OW17107   4.806   3.381   0.250
 5403SOL    HW117108   4.777   3.286   0.237
 5403SOL    HW217109   4.867   3.386   0.329
 5404SOL     OW17110   6.178   0.806   1.070
 5404SOL    HW117111   6.218   0.733   1.127
 5404SOL    HW217112   6.174   0.891   1.123
 5405SOL     OW17113   5.309   5.697   6.863
 5405SOL    HW117114   5.378   5.699   6.935
 5405SOL    HW217115   5.334   5.627   6.795
 5406SOL     OW17116   2.632   0.500   3.955
 5406SOL    HW117117   2.594   0.586   3.919
 5406SOL    HW217118   2.691   0.458   3.885
 5407SOL     OW17119   2.180   0.481   1.424
 5407SOL    HW117120   2.185   0.489   1.324
 5407SOL    HW217121   2.266   0.512   1.465
 5408SOL     OW17122   2.615   2.486   4.797
 5408SOL    HW117123   2.671   2.509   4.718
 5408SOL    HW217124   2.652   2.406   4.843
 5409SOL     OW17125   1.039   2.764   1.210
 5409SOL    HW117126   1.113   2.708   1.246
 5409SOL    HW217127   1.061   2.795   1.118
 5410SOL     OW17128   0.892   2.072   1.027
 5410SOL    HW117129   0.979   2.076   0.979
 5410SOL    HW217130   0.827   2.017   0.975
 5411SOL     OW17131   4.044   5.067   7.012
 5411SOL    HW117132   4.048   5.151   6.957
 5411SOL    HW217133   4.079   4.990   6.959
 5412SOL     OW17134   0.427   2.294   5.835
 5412SOL    HW117135   0.396   2.389   5.840
 5412SOL    HW217136   0.514   2.291   5.786
 5413SOL     OW17137   6.721   6.663   5.122
 5413SOL    HW117138   6.678   6.744   5.161
 5413SOL    HW217139   6.680   6.643   5.033
 5414SOL     OW17140   6.667   4.168   5.742
 5414SOL    HW117141   6.664   4.214   5.830
 5414SOL    HW217142   6.574   4.153   5.708
 5415SOL     OW17143   3.533   0.575   0.664
 5415SOL    HW117144   3.600   0.565   0.739
 5415SOL    HW217145   3.523   0.488   0.617
 5416SOL     OW17146   3.365   4.921   5.334
 5416SOL    HW117147   3.356   4.898   5.431
 5416SOL    HW217148   3.450   4.971   5.320
 5417SOL     OW17149   4.527   6.266   3.604
 5417SOL    HW117150   4.608   6.321   3.626
 5417SOL    HW217151   4.545   6.170   3.624
 5418SOL     OW17152   6.475   4.228   4.445
 5418SOL    HW117153   6.536   4.219   4.524
 5418SOL    HW217154   6.388   4.267   4.474
 5419SOL     OW17155   3.916   6.895   6.625
 5419SOL    HW117156   3.866   6.815   6.592
 5419SOL    HW217157   4.003   6.903   6.575
 5420SOL     OW17158   1.519   1.088   1.291
 5420SOL    HW117159   1.457   1.156   1.252
 5420SOL    HW217160   1.540   1.113   1.386
 5421SOL     OW17161   3.446   4.931   2.397
 5421SOL    HW117162   3.417   4.906   2.489
 5421SOL    HW217163   3.371   4.914   2.333
 5422SOL     OW17164   2.324   6.283   3.805
 5422SOL    HW117165   2.423   6.299   3.799
 5422SOL    HW217166   2.275   6.362   3.769
 5423SOL     OW17167   6.385   6.348   2.678
 5423SOL    HW117168   6.381   6.428   2.618
 5423SOL    HW217169   6.333   6.366   2.762
 5424SOL     OW17170   4.450   4.138   5.347
 5424SOL    HW117171   4.474   4.173   5.437
 5424SOL    HW217172   4.452   4.212   5.280
 5425SOL     OW17173   7.008   3.570   6.278
 5425SOL    HW117174   6.965   3.483   6.253
 5425SOL    HW217175   0.081   3.553   6.305
 5426SOL     OW17176   5.777   5.264   2.454
 5426SOL    HW117177   5.695   5.228   2.498
 5426SOL    HW217178   5.760   5.358   2.424
 5427SOL     OW17179   4.888   2.404   6.528
 5427SOL    HW117180   4.899   2.310   6.561
 5427SOL    HW217181   4.977   2.450   6.531
 5428SOL     OW17182   6.667   5.397   3.083
 5428SOL    HW117183   6.615   5.447   3.013
 5428SOL    HW217184   6.755   5.368   3.044
 5429SOL     OW17185   2.816   0.179   3.743
 5429SOL    HW117186   2.842   0.179   3.647
 5429SOL    HW217187   2.834   0.270   3.782
 5430SOL     OW17188   2.443   3.745   6.551
 5430SOL    HW117189   2.455   3.798   6.635
 5430SOL    HW217190   2.506   3.667   6.551
 5431SOL     OW17191   3.155   5.169   5.580
 5431SOL    HW117192   3.107   5.103   5.522
 5431SOL    HW217193   3.155   5.259   5.536
 5432SOL     OW17194   5.606   5.770   1.100
 5432SOL    HW117195   5.600   5.846   1.035
 5432SOL    HW217196   5.531   5.706   1.084
 5433SOL     OW17197   1.403   6.906   1.225
 5433SOL    HW117198   1.325   6.899   1.288
 5433SOL    HW217199   1.369   6.927   1.134
 5434SOL     OW17200   5.298   0.811   5.020
 5434SOL    HW117201   5.245   0.762   5.089
 5434SOL    HW217202   5.236   0.857   4.957
 5435SOL     OW17203   6.515   4.015   1.089
 5435SOL    HW117204   6.520   4.115   1.084
 5435SOL    HW217205   6.578   3.975   1.023
 5436SOL     OW17206   1.201   4.573   3.141
 5436SOL    HW117207   1.233   4.657   3.097
 5436SOL    HW217208   1.101   4.573   3.144
 5437SOL     OW17209   3.781   5.706   0.367
 5437SOL    HW117210   3.708   5.712   0.299
 5437SOL    HW217211   3.855   5.769   0.342
 5438SOL     OW17212   4.595   4.377   2.614
 5438SOL    HW117213   4.615   4.318   2.692
 5438SOL    HW217214   4.515   4.342   2.565
 5439SOL     OW17215   0.938   4.701   1.494
 5439SOL    HW117216   0.954   4.625   1.432
 5439SOL    HW217217   0.870   4.675   1.562
 5440SOL     OW17218   5.378   6.223   3.578
 5440SOL    HW117219   5.407   6.274   3.659
 5440SOL    HW217220   5.420   6.263   3.496
 5441SOL     OW17221   4.361   2.231   3.722
 5441SOL    HW117222   4.438   2.211   3.661
 5441SOL    HW217223   4.281   2.179   3.692
 5442SOL     OW17224   5.200   0.096   4.765
 5442SOL    HW117225   5.124   0.161   4.760
 5442SOL    HW217226   5.164   0.003   4.767
 5443SOL     OW17227   4.854   0.119   4.490
 5443SOL    HW117228   4.943   0.162   4.498
 5443SOL    HW217229   4.807   0.155   4.409
 5444SOL     OW17230   0.286   1.019   4.207
 5444SOL    HW117231   0.243   0.945   4.258
 5444SOL    HW217232   0.352   1.066   4.266
 5445SOL     OW17233   5.265   5.580   5.524
 5445SOL    HW117234   5.270   5.503   5.588
 5445SOL    HW217235   5.174   5.582   5.482
 5446SOL     OW17236   0.806   4.337   5.475
 5446SOL    HW117237   0.818   4.268   5.404
 5446SOL    HW217238   0.855   4.310   5.557
 5447SOL     OW17239   1.008   1.294   0.806
 5447SOL    HW117240   1.021   1.206   0.760
 5447SOL    HW217241   1.014   1.368   0.739
 5448SOL     OW17242   4.228   5.664   3.495
 5448SOL    HW117243   4.271   5.684   3.583
 5448SOL    HW217244   4.128   5.673   3.504
 5449SOL     OW17245   3.142   1.796   2.294
 5449SOL    HW117246   3.174   1.796   2.389
 5449SOL    HW217247   3.221   1.800   2.232
 5450SOL     OW17248   4.121   5.667   1.641
 5450SOL    HW117249   4.164   5.722   1.569
 5450SOL    HW217250   4.191   5.638   1.706
 5451SOL     OW17251   1.081   0.323   2.970
 5451SOL    HW117252   1.023   0.375   2.907
 5451SOL    HW217253   1.026   0.252   3.014
 5452SOL     OW17254   2.027   4.755   2.295
 5452SOL    HW117255   1.937   4.798   2.288
 5452SOL    HW217256   2.018   4.656   2.283
 5453SOL     OW17257   5.709   4.257   3.255
 5453SOL    HW117258   5.745   4.189   3.319
 5453SOL    HW217259   5.645   4.212   3.191
 5454SOL     OW17260   6.153   5.430   3.736
 5454SOL    HW117261   6.062   5.388   3.743
 5454SOL    HW217262   6.155   5.492   3.657
 5455SOL     OW17263   0.439   1.909   3.066
 5455SOL    HW117264   0.436   1.812   3.089
 5455SOL    HW217265   0.496   1.923   2.985
 5456SOL     OW17266   5.166   1.053   6.385
 5456SOL    HW117267   5.252   1.062   6.434
 5456SOL    HW217268   5.173   0.980   6.317
 5457SOL     OW17269   6.057   2.026   0.517
 5457SOL    HW117270   6.148   1.983   0.516
 5457SOL    HW217271   5.987   1.955   0.527
 5458SOL     OW17272   6.052   4.737   0.905
 5458SOL    HW117273   5.999   4.668   0.954
 5458SOL    HW217274   6.147   4.706   0.895
 5459SOL     OW17275   2.323   4.433   5.689
 5459SOL    HW117276   2.399   4.490   5.721
 5459SOL    HW217277   2.355   4.372   5.616
 5460SOL     OW17278   1.682   0.242   0.218
 5460SOL    HW117279   1.731   0.158   0.240
 5460SOL    HW217280   1.742   0.320   0.231
 5461SOL     OW17281   6.852   1.091   6.806
 5461SOL    HW117282   6.800   1.015   6.843
 5461SOL    HW217283   6.950   1.068   6.805
 5462SOL     OW17284   5.129   5.989   6.420
 5462SOL    HW117285   5.174   5.922   6.480
 5462SOL    HW217286   5.036   5.958   6.399
 5463SOL     OW17287   6.870   2.685   0.278
 5463SOL    HW117288   6.895   2.720   0.368
 5463SOL    HW217289   6.844   2.761   0.218
 5464SOL     OW17290   6.181   6.559   5.321
 5464SOL    HW117291   6.281   6.560   5.316
 5464SOL    HW217292   6.152   6.488   5.386
 5465SOL     OW17293   0.219   6.397   3.473
 5465SOL    HW117294   0.272   6.332   3.420
 5465SOL    HW217295   0.242   6.387   3.570
 5466SOL     OW17296   6.056   2.783   5.171
 5466SOL    HW117297   6.106   2.731   5.102
 5466SOL    HW217298   5.976   2.730   5.201
 5467SOL     OW17299   5.610   3.893   3.287
 5467SOL    HW117300   5.583   3.860   3.196
 5467SOL    HW217301   5.555   3.972   3.312
 5468SOL     OW17302   6.780   1.560   2.529
 5468SOL    HW117303   6.790   1.512   2.442
 5468SOL    HW217304   6.820   1.506   2.602
 5469SOL     OW17305   2.058   0.890   5.235
 5469SOL    HW117306   2.093   0.983   5.230
 5469SOL    HW217307   2.115   0.830   5.177
 5470SOL     OW17308   4.045   5.292   4.503
 5470SOL    HW117309   4.098   5.369   4.466
 5470SOL    HW217310   4.092   5.207   4.481
 5471SOL     OW17311   4.947   0.121   2.669
 5471SOL    HW117312   4.909   0.083   2.753
 5471SOL    HW217313   4.977   0.215   2.686
 5472SOL     OW17314   3.216   1.426   6.053
 5472SOL    HW117315   3.129   1.471   6.034
 5472SOL    HW217316   3.238   1.362   5.979
 5473SOL     OW17317   2.028   4.791   1.480
 5473SOL    HW117318   1.931   4.803   1.461
 5473SOL    HW217319   2.078   4.873   1.452
 5474SOL     OW17320   0.359   5.356   3.380
 5474SOL    HW117321   0.457   5.355   3.362
 5474SOL    HW217322   0.322   5.264   3.366
 5475SOL     OW17323   0.352   1.821   6.637
 5475SOL    HW117324   0.370   1.778   6.726
 5475SOL    HW217325   0.363   1.920   6.645
 5476SOL     OW17326   2.817   6.246   5.945
 5476SOL    HW117327   2.731   6.274   5.987
 5476SOL    HW217328   2.845   6.316   5.879
 5477SOL     OW17329   2.175   5.202   4.357
 5477SOL    HW117330   2.119   5.121   4.339
 5477SOL    HW217331   2.182   5.216   4.456
 5478SOL     OW17332   6.028   4.629   6.290
 5478SOL    HW117333   6.128   4.626   6.294
 5478SOL    HW217334   5.990   4.558   6.350
 5479SOL     OW17335   4.345   1.982   4.488
 5479SOL    HW117336   4.435   2.022   4.469
 5479SOL    HW217337   4.324   1.992   4.585
 5480SOL     OW17338   6.367   4.272   5.056
 5480SOL    HW117339   6.356   4.320   4.969
 5480SOL    HW217340   6.449   4.216   5.052
 5481SOL     OW17341   4.118   0.883   6.244
 5481SOL    HW117342   4.216   0.898   6.257
 5481SOL    HW217343   4.072   0.972   6.238
 5482SOL     OW17344   3.619   3.417   1.536
 5482SOL    HW117345   3.593   3.324   1.563
 5482SOL    HW217346   3.675   3.458   1.607
 5483SOL     OW17347   6.373   3.295   5.692
 5483SOL    HW117348   6.295   3.262   5.746
 5483SOL    HW217349   6.386   3.393   5.708
 5484SOL     OW17350   6.757   6.384   4.147
 5484SOL    HW117351   6.747   6.415   4.242
 5484SOL    HW217352   6.850   6.351   4.133
 5485SOL     OW17353   3.703   7.017   5.164
 5485SOL    HW117354   3.609   0.023   5.181
 5485SOL    HW217355   3.707   6.917   5.160
 5486SOL     OW17356   1.601   0.610   3.696
 5486SOL    HW117357   1.585   0.653   3.785
 5486SOL    HW217358   1.602   0.681   3.625
 5487SOL     OW17359   6.325   4.489   0.437
 5487SOL    HW117360   6.425   4.488   0.435
 5487SOL    HW217361   6.294   4.447   0.523
 5488SOL     OW17362   4.897   2.368   6.840
 5488SOL    HW117363   4.843   2.308   6.781
 5488SOL    HW217364   4.898   2.460   6.801
 5489SOL     OW17365   1.738   4.384   2.619
 5489SOL    HW117366   1.699   4.462   2.668
 5489SOL    HW217367   1.820   4.354   2.666
 5490SOL     OW17368   3.692   0.654   0.222
 5490SOL    HW117369   3.778   0.610   0.195
 5490SOL    HW217370   3.626   0.584   0.248
 5491SOL     OW17371   1.553   4.779   0.387
 5491SOL    HW117372   1.638   4.728   0.397
 5491SOL    HW217373   1.505   4.783   0.475
 5492SOL     OW17374   1.175   1.758   6.379
 5492SOL    HW117375   1.111   1.781   6.453
 5492SOL    HW217376   1.173   1.659   6.364
 5493SOL     OW17377   3.977   3.064   5.844
 5493SOL    HW117378   3.992   3.162   5.851
 5493SOL    HW217379   3.925   3.044   5.760
 5494SOL     OW17380   6.866   3.730   0.939
 5494SOL    HW117381   6.871   3.799   1.012
 5494SOL    HW217382   6.818   3.650   0.972
 5495SOL     OW17383   3.665   3.896   1.722
 5495SOL    HW117384   3.598   3.851   1.781
 5495SOL    HW217385   3.631   3.899   1.628
 5496SOL     OW17386   3.592   5.904   1.801
 5496SOL    HW117387   3.519   5.929   1.738
 5496SOL    HW217388   3.671   5.872   1.749
 5497SOL     OW17389   0.753   1.618   3.037
 5497SOL    HW117390   0.779   1.560   3.114
 5497SOL    HW217391   0.707   1.563   2.967
 5498SOL     OW17392   4.525   0.960   5.870
 5498SOL    HW117393   4.431   0.986   5.892
 5498SOL    HW217394   4.553   0.883   5.927
 5499SOL     OW17395   0.227   0.661   3.750
 5499SOL    HW117396   0.227   0.732   3.679
 5499SOL    HW217397   0.206   0.702   3.839
 5500SOL     OW17398   2.300   5.315   0.307
 5500SOL    HW117399   2.292   5.333   0.209
 5500SOL    HW217400   2.339   5.223   0.321
 5501SOL     OW17401   2.790   0.338   2.161
 5501SOL    HW117402   2.757   0.261   2.216
 5501SOL    HW217403   2.717   0.368   2.099
 5502SOL     OW17404   5.761   3.925   5.617
 5502SOL    HW117405   5.743   4.023   5.632
 5502SOL    HW217406   5.821   3.915   5.537
 5503SOL     OW17407   1.099   4.325   3.441
 5503SOL    HW117408   1.065   4.280   3.359
 5503SOL    HW217409   1.181   4.377   3.420
 5504SOL     OW17410   3.688   0.814   4.755
 5504SOL    HW117411   3.728   0.729   4.721
 5504SOL    HW217412   3.751   0.856   4.820
 5505SOL     OW17413   2.244   6.328   4.749
 5505SOL    HW117414   2.325   6.309   4.692
 5505SOL    HW217415   2.273   6.369   4.835
 5506SOL     OW17416   6.702   0.722   4.813
 5506SOL    HW117417   6.735   0.630   4.789
 5506SOL    HW217418   6.760   0.791   4.770
 5507SOL     OW17419   2.028   6.454   2.871
 5507SOL    HW117420   1.936   6.474   2.839
 5507SOL    HW217421   2.028   6.445   2.971
 5508SOL     OW17422   2.318   0.861   6.352
 5508SOL    HW117423   2.382   0.791   6.323
 5508SOL    HW217424   2.360   0.918   6.422
 5509SOL     OW17425   5.777   6.111   0.208
 5509SOL    HW117426   5.814   6.138   0.119
 5509SOL    HW217427   5.709   6.178   0.237
 5510SOL     OW17428   3.980   6.621   6.430
 5510SOL    HW117429   3.978   6.697   6.365
 5510SOL    HW217430   4.044   6.551   6.397
 5511SOL     OW17431   0.849   0.467   2.371
 5511SOL    HW117432   0.790   0.418   2.435
 5511SOL    HW217433   0.800   0.546   2.335
 5512SOL     OW17434   6.691   2.136   0.759
 5512SOL    HW117435   6.791   2.127   0.751
 5512SOL    HW217436   6.657   2.070   0.826
 5513SOL     OW17437   4.702   4.658   4.697
 5513SOL    HW117438   4.623   4.684   4.642
 5513SOL    HW217439   4.671   4.602   4.775
 5514SOL     OW17440   5.870   5.037   2.912
 5514SOL    HW117441   5.787   4.996   2.874
 5514SOL    HW217442   5.941   4.967   2.921
 5515SOL     OW17443   6.886   3.101   1.560
 5515SOL    HW117444   6.800   3.088   1.609
 5515SOL    HW217445   6.948   3.157   1.614
 5516SOL     OW17446   1.654   2.851   6.915
 5516SOL    HW117447   1.722   2.925   6.916
 5516SOL    HW217448   1.666   2.795   6.833
 5517SOL     OW17449   3.270   2.428   1.729
 5517SOL    HW117450   3.276   2.328   1.732
 5517SOL    HW217451   3.361   2.467   1.715
 5518SOL     OW17452   5.408   5.084   6.295
 5518SOL    HW117453   5.493   5.032   6.287
 5518SOL    HW217454   5.389   5.101   6.391
 5519SOL     OW17455   5.191   3.878   3.045
 5519SOL    HW117456   5.190   3.782   3.015
 5519SOL    HW217457   5.218   3.937   2.969
 5520SOL     OW17458   1.635   4.404   3.011
 5520SOL    HW117459   1.719   4.374   3.055
 5520SOL    HW217460   1.563   4.337   3.028
 5521SOL     OW17461   4.939   6.091   1.859
 5521SOL    HW117462   5.013   6.024   1.858
 5521SOL    HW217463   4.976   6.182   1.878
 5522SOL     OW17464   2.742   3.402   1.581
 5522SOL    HW117465   2.672   3.397   1.510
 5522SOL    HW217466   2.702   3.379   1.669
 5523SOL     OW17467   3.499   6.525   3.171
 5523SOL    HW117468   3.523   6.593   3.241
 5523SOL    HW217469   3.401   6.508   3.173
 5524SOL     OW17470   0.493   5.389   4.946
 5524SOL    HW117471   0.501   5.307   4.890
 5524SOL    HW217472   0.576   5.399   5.001
 5525SOL     OW17473   6.600   4.921   6.934
 5525SOL    HW117474   6.678   4.984   6.940
 5525SOL    HW217475   6.621   4.838   6.985
 5526SOL     OW17476   6.117   3.412   4.059
 5526SOL    HW117477   6.041   3.442   4.002
 5526SOL    HW217478   6.093   3.422   4.156
 5527SOL     OW17479   0.914   2.729   2.063
 5527SOL    HW117480   0.917   2.828   2.078
 5527SOL    HW217481   0.826   2.693   2.092
 5528SOL     OW17482   0.185   2.554   5.503
 5528SOL    HW117483   0.168   2.483   5.572
 5528SOL    HW217484   0.278   2.589   5.515
 5529SOL     OW17485   2.144   0.455   4.940
 5529SOL    HW117486   2.150   0.464   5.040
 5529SOL    HW217487   2.227   0.410   4.906
 5530SOL     OW17488   0.088   2.476   1.407
 5530SOL    HW117489   0.087   2.454   1.309
 5530SOL    HW217490   0.175   2.518   1.431
 5531SOL     OW17491   4.050   3.352   4.660
 5531SOL    HW117492   3.974   3.296   4.628
 5531SOL    HW217493   4.058   3.343   4.759
 5532SOL     OW17494   1.439   0.867   0.741
 5532SOL    HW117495   1.491   0.814   0.808
 5532SOL    HW217496   1.341   0.850   0.753
 5533SOL     OW17497   2.673   1.073   3.178
 5533SOL    HW117498   2.600   1.141   3.165
 5533SOL    HW217499   2.738   1.080   3.103
 5534SOL     OW17500   0.995   2.985   6.679
 5534SOL    HW117501   0.913   2.943   6.719
 5534SOL    HW217502   1.070   2.919   6.681
 5535SOL     OW17503   6.722   3.151   3.140
 5535SOL    HW117504   6.737   3.061   3.181
 5535SOL    HW217505   6.627   3.158   3.108
 5536SOL     OW17506   2.283   0.912   4.162
 5536SOL    HW117507   2.375   0.876   4.144
 5536SOL    HW217508   2.243   0.944   4.076
 5537SOL     OW17509   3.831   0.468   4.895
 5537SOL    HW117510   3.859   0.532   4.824
 5537SOL    HW217511   3.841   0.374   4.861
 5538SOL     OW17512   4.145   0.473   5.448
 5538SOL    HW117513   4.126   0.381   5.416
 5538SOL    HW217514   4.186   0.527   5.374
 5539SOL     OW17515   0.708   1.692   1.818
 5539SOL    HW117516   0.716   1.598   1.783
 5539SOL    HW217517   0.759   1.754   1.759
 5540SOL     OW17518   5.191   3.175   1.409
 5540SOL    HW117519   5.179   3.185   1.508
 5540SOL    HW217520   5.187   3.265   1.366
 5541SOL     OW17521   5.165   3.243   5.656
 5541SOL    HW117522   5.180   3.145   5.650
 5541SOL    HW217523   5.101   3.273   5.585
 5542SOL     OW17524   5.636   5.527   5.529
 5542SOL    HW117525   5.607   5.570   5.614
 5542SOL    HW217526   5.700   5.587   5.481
 5543SOL     OW17527   2.484   5.604   0.016
 5543SOL    HW117528   2.448   5.642   6.953
 5543SOL    HW217529   2.493   5.678   0.083
 5544SOL     OW17530   5.623   4.827   5.600
 5544SOL    HW117531   5.709   4.779   5.581
 5544SOL    HW217532   5.598   4.885   5.523
 5545SOL     OW17533   4.458   1.319   2.453
 5545SOL    HW117534   4.484   1.257   2.528
 5545SOL    HW217535   4.499   1.409   2.469
 5546SOL     OW17536   0.764   6.907   4.312
 5546SOL    HW117537   0.780   6.938   4.219
 5546SOL    HW217538   0.679   6.854   4.316
 5547SOL     OW17539   3.513   0.964   5.250
 5547SOL    HW117540   3.423   1.008   5.256
 5547SOL    HW217541   3.501   0.865   5.237
 5548SOL     OW17542   6.369   4.070   6.062
 5548SOL    HW117543   6.452   4.013   6.063
 5548SOL    HW217544   6.321   4.062   6.149
 5549SOL     OW17545   4.332   3.295   1.680
 5549SOL    HW117546   4.304   3.301   1.776
 5549SOL    HW217547   4.398   3.221   1.669
 5550SOL     OW17548   2.442   4.644   3.043
 5550SOL    HW117549   2.409   4.560   3.086
 5550SOL    HW217550   2.370   4.712   3.044
 5551SOL     OW17551   1.202   6.513   2.509
 5551SOL    HW117552   1.114   6.468   2.512
 5551SOL    HW217553   1.275   6.445   2.502
 5552SOL     OW17554   5.949   0.434   6.197
 5552SOL    HW117555   5.859   0.462   6.162
 5552SOL    HW217556   5.978   0.498   6.267
 5553SOL     OW17557   4.297   6.745   6.520
 5553SOL    HW117558   4.385   6.790   6.531
 5553SOL    HW217559   4.296   6.693   6.435
 5554SOL     OW17560   5.230   3.509   2.008
 5554SOL    HW117561   5.138   3.533   1.975
 5554SOL    HW217562   5.299   3.551   1.949
 5555SOL     OW17563   1.100   3.192   2.134
 5555SOL    HW117564   1.130   3.209   2.228
 5555SOL    HW217565   1.088   3.279   2.087
 5556SOL     OW17566   6.303   0.683   3.823
 5556SOL    HW117567   6.371   0.652   3.757
 5556SOL    HW217568   6.348   0.709   3.908
 5557SOL     OW17569   4.106   5.339   1.743
 5557SOL    HW117570   4.084   5.282   1.822
 5557SOL    HW217571   4.033   5.407   1.730
 5558SOL     OW17572   3.613   3.423   6.788
 5558SOL    HW117573   3.669   3.505   6.799
 5558SOL    HW217574   3.663   3.343   6.819
 5559SOL     OW17575   1.749   0.288   2.123
 5559SOL    HW117576   1.784   0.332   2.040
 5559SOL    HW217577   1.698   0.354   2.177
 5560SOL     OW17578   0.258   5.715   1.436
 5560SOL    HW117579   0.337   5.668   1.397
 5560SOL    HW217580   0.174   5.665   1.413
 5561SOL     OW17581   2.753   0.469   4.422
 5561SOL    HW117582   2.800   0.544   4.467
 5561SOL    HW217583   2.696   0.504   4.348
 5562SOL     OW17584   4.513   3.494   0.433
 5562SOL    HW117585   4.504   3.394   0.424
 5562SOL    HW217586   4.479   3.538   0.350
 5563SOL     OW17587   2.817   5.165   2.873
 5563SOL    HW117588   2.788   5.207   2.960
 5563SOL    HW217589   2.743   5.108   2.838
 5564SOL     OW17590   4.432   6.995   6.200
 5564SOL    HW117591   4.349   0.019   6.168
 5564SOL    HW217592   4.480   0.032   6.264
 5565SOL     OW17593   3.700   2.489   6.247
 5565SOL    HW117594   3.771   2.485   6.317
 5565SOL    HW217595   3.613   2.459   6.287
 5566SOL     OW17596   2.221   4.507   6.990
 5566SOL    HW117597   2.242   4.560   6.909
 5566SOL    HW217598   2.285   4.431   6.998
 5567SOL     OW17599   0.110   4.185   1.608
 5567SOL    HW117600   0.039   4.240   1.563
 5567SOL    HW217601   0.130   4.105   1.551
 5568SOL     OW17602   4.695   1.198   3.385
 5568SOL    HW117603   4.692   1.190   3.285
 5568SOL    HW217604   4.773   1.255   3.411
 5569SOL     OW17605   2.079   1.836   2.227
 5569SOL    HW117606   2.126   1.913   2.183
 5569SOL    HW217607   2.146   1.770   2.261
 5570SOL     OW17608   6.078   3.531   3.657
 5570SOL    HW117609   6.060   3.621   3.698
 5570SOL    HW217610   6.125   3.473   3.724
 5571SOL     OW17611   6.281   5.825   2.179
 5571SOL    HW117612   6.342   5.869   2.246
 5571SOL    HW217613   6.285   5.875   2.093
 5572SOL     OW17614   1.173   4.576   4.565
 5572SOL    HW117615   1.089   4.630   4.571
 5572SOL    HW217616   1.240   4.612   4.631
 5573SOL     OW17617   1.450   5.876   5.481
 5573SOL    HW117618   1.388   5.847   5.408
 5573SOL    HW217619   1.453   5.975   5.485
 5574SOL     OW17620   0.276   2.895   0.894
 5574SOL    HW117621   0.297   2.813   0.840
 5574SOL    HW217622   0.179   2.896   0.918
 5575SOL     OW17623   6.632   0.936   0.622
 5575SOL    HW117624   6.555   0.996   0.601
 5575SOL    HW217625   6.716   0.990   0.627
 5576SOL     OW17626   1.259   4.297   2.514
 5576SOL    HW117627   1.304   4.237   2.580
 5576SOL    HW217628   1.294   4.279   2.422
 5577SOL     OW17629   2.627   2.446   6.540
 5577SOL    HW117630   2.539   2.398   6.538
 5577SOL    HW217631   2.623   2.525   6.479
 5578SOL     OW17632   3.597   4.118   2.316
 5578SOL    HW117633   3.635   4.050   2.378
 5578SOL    HW217634   3.521   4.165   2.360
 5579SOL     OW17635   0.571   3.976   0.646
 5579SOL    HW117636   0.607   3.916   0.575
 5579SOL    HW217637   0.634   4.052   0.662
 5580SOL     OW17638   4.663   1.794   5.707
 5580SOL    HW117639   4.596   1.845   5.761
 5580SOL    HW217640   4.730   1.753   5.768
 5581SOL     OW17641   1.757   0.862   2.121
 5581SOL    HW117642   1.828   0.883   2.188
 5581SOL    HW217643   1.796   0.867   2.029
 5582SOL     OW17644   3.117   4.289   6.387
 5582SOL    HW117645   3.176   4.366   6.363
 5582SOL    HW217646   3.133   4.263   6.482
 5583SOL     OW17647   4.552   1.148   2.653
 5583SOL    HW117648   4.628   1.154   2.717
 5583SOL    HW217649   4.471   1.111   2.700
 5584SOL     OW17650   6.662   3.968   4.399
 5584SOL    HW117651   6.669   3.880   4.353
 5584SOL    HW217652   6.567   3.983   4.429
 5585SOL     OW17653   5.684   5.728   2.971
 5585SOL    HW117654   5.677   5.679   2.884
 5585SOL    HW217655   5.773   5.709   3.013
 5586SOL     OW17656   0.117   4.020   5.921
 5586SOL    HW117657   0.037   3.976   5.962
 5586SOL    HW217658   0.199   3.991   5.970
 5587SOL     OW17659   4.334   6.800   0.153
 5587SOL    HW117660   4.305   6.884   0.200
 5587SOL    HW217661   4.281   6.723   0.187
 5588SOL     OW17662   2.122   5.633   3.153
 5588SOL    HW117663   2.222   5.624   3.143
 5588SOL    HW217664   2.089   5.700   3.087
 5589SOL     OW17665   6.147   3.764   5.672
 5589SOL    HW117666   6.127   3.858   5.701
 5589SOL    HW217667   6.245   3.755   5.655
 5590SOL     OW17668   7.011   6.101   3.681
 5590SOL    HW117669   0.079   6.128   3.718
 5590SOL    HW217670   6.982   6.168   3.613
 5591SOL     OW17671   6.736   2.115   1.845
 5591SOL    HW117672   6.798   2.150   1.916
 5591SOL    HW217673   6.677   2.044   1.883
 5592SOL     OW17674   2.081   5.390   3.504
 5592SOL    HW117675   2.026   5.473   3.509
 5592SOL    HW217676   2.069   5.336   3.588
 5593SOL     OW17677   0.623   3.037   6.935
 5593SOL    HW117678   0.664   3.129   6.932
 5593SOL    HW217679   0.555   3.029   6.862
 5594SOL     OW17680   5.460   0.842   5.646
 5594SOL    HW117681   5.416   0.836   5.736
 5594SOL    HW217682   5.509   0.756   5.627
 5595SOL     OW17683   0.798   1.918   4.980
 5595SOL    HW117684   0.869   1.969   4.931
 5595SOL    HW217685   0.734   1.983   5.022
 5596SOL     OW17686   4.259   0.520   2.968
 5596SOL    HW117687   4.178   0.461   2.972
 5596SOL    HW217688   4.255   0.577   2.887
 5597SOL     OW17689   4.662   2.749   4.742
 5597SOL    HW117690   4.685   2.788   4.831
 5597SOL    HW217691   4.697   2.808   4.669
 5598SOL     OW17692   5.232   3.748   4.378
 5598SOL    HW117693   5.227   3.650   4.394
 5598SOL    HW217694   5.218   3.767   4.280
 5599SOL     OW17695   1.185   1.769   4.080
 5599SOL    HW117696   1.150   1.738   4.169
 5599SOL    HW217697   1.121   1.743   4.008
 5600SOL     OW17698   0.876   1.094   1.954
 5600SOL    HW117699   0.888   1.015   2.013
 5600SOL    HW217700   0.882   1.178   2.009
 5601SOL     OW17701   2.384   0.908   5.122
 5601SOL    HW117702   2.420   0.814   5.119
 5601SOL    HW217703   2.392   0.943   5.216
 5602SOL     OW17704   6.027   1.804   1.423
 5602SOL    HW117705   6.082   1.745   1.483
 5602SOL    HW217706   5.931   1.797   1.449
 5603SOL     OW17707   5.830   1.800   6.612
 5603SOL    HW117708   5.917   1.762   6.580
 5603SOL    HW217709   5.846   1.855   6.694
 5604SOL     OW17710   6.307   2.134   4.501
 5604SOL    HW117711   6.289   2.038   4.478
 5604SOL    HW217712   6.301   2.146   4.601
 5605SOL     OW17713   0.492   0.623   4.999
 5605SOL    HW117714   0.462   0.588   5.087
 5605SOL    HW217715   0.571   0.684   5.013
 5606SOL     OW17716   4.863   6.524   6.941
 5606SOL    HW117717   4.905   6.516   6.851
 5606SOL    HW217718   4.766   6.547   6.931
 5607SOL     OW17719   5.042   0.670   2.632
 5607SOL    HW117720   5.093   0.755   2.620
 5607SOL    HW217721   5.039   0.620   2.545
 5608SOL     OW17722   4.699   0.162   4.721
 5608SOL    HW117723   4.754   0.164   4.637
 5608SOL    HW217724   4.674   0.255   4.747
 5609SOL     OW17725   2.816   6.232   1.126
 5609SOL    HW117726   2.794   6.148   1.177
 5609SOL    HW217727   2.889   6.281   1.173
 5610SOL     OW17728   4.212   6.384   0.559
 5610SOL    HW117729   4.285   6.377   0.491
 5610SOL    HW217730   4.244   6.344   0.645
 5611SOL     OW17731   1.073   5.326   2.571
 5611SOL    HW117732   1.110   5.316   2.479
 5611SOL    HW217733   1.133   5.387   2.624
 5612SOL     OW17734   3.800   1.987   6.810
 5612SOL    HW117735   3.803   1.925   6.731
 5612SOL    HW217736   3.892   2.023   6.826
 5613SOL     OW17737   5.509   4.087   4.093
 5613SOL    HW117738   5.473   3.999   4.122
 5613SOL    HW217739   5.489   4.101   3.996
 5614SOL     OW17740   4.547   2.558   4.078
 5614SOL    HW117741   4.548   2.616   3.996
 5614SOL    HW217742   4.618   2.589   4.141
 5615SOL     OW17743   0.447   1.425   4.800
 5615SOL    HW117744   0.471   1.507   4.852
 5615SOL    HW217745   0.383   1.369   4.853
 5616SOL     OW17746   2.548   2.007   5.168
 5616SOL    HW117747   2.527   2.030   5.073
 5616SOL    HW217748   2.641   2.034   5.190
 5617SOL     OW17749   3.201   0.476   6.045
 5617SOL    HW117750   3.145   0.557   6.058
 5617SOL    HW217751   3.286   0.486   6.098
 5618SOL     OW17752   0.108   4.332   3.675
 5618SOL    HW117753   0.147   4.349   3.585
 5618SOL    HW217754   0.182   4.327   3.743
 5619SOL     OW17755   2.618   3.927   5.859
 5619SOL    HW117756   2.625   3.830   5.880
 5619SOL    HW217757   2.708   3.964   5.838
 5620SOL     OW17758   4.025   2.863   0.882
 5620SOL    HW117759   4.119   2.835   0.901
 5620SOL    HW217760   3.962   2.788   0.905
 5621SOL     OW17761   1.518   2.222   6.478
 5621SOL    HW117762   1.435   2.273   6.456
 5621SOL    HW217763   1.501   2.165   6.558
 5622SOL     OW17764   4.806   0.227   6.210
 5622SOL    HW117765   4.899   0.263   6.204
 5622SOL    HW217766   4.784   0.208   6.306
 5623SOL     OW17767   2.208   6.149   5.020
 5623SOL    HW117768   2.213   6.053   4.994
 5623SOL    HW217769   2.145   6.160   5.097
 5624SOL     OW17770   0.865   4.200   3.554
 5624SOL    HW117771   0.927   4.145   3.610
 5624SOL    HW217772   0.912   4.284   3.525
 5625SOL     OW17773   6.536   1.543   4.843
 5625SOL    HW117774   6.614   1.562   4.783
 5625SOL    HW217775   6.477   1.475   4.801
 5626SOL     OW17776   2.813   6.390   3.744
 5626SOL    HW117777   2.822   6.459   3.672
 5626SOL    HW217778   2.732   6.334   3.727
 5627SOL     OW17779   0.932   5.567   6.384
 5627SOL    HW117780   0.839   5.597   6.367
 5627SOL    HW217781   0.987   5.644   6.416
 5628SOL     OW17782   1.272   2.692   6.988
 5628SOL    HW117783   1.248   2.785   7.015
 5628SOL    HW217784   1.199   2.629   7.015
 5629SOL     OW17785   3.302   4.077   2.366
 5629SOL    HW117786   3.346   3.993   2.334
 5629SOL    HW217787   3.346   4.107   2.451
 5630SOL     OW17788   2.152   4.740   0.776
 5630SOL    HW117789   2.240   4.779   0.803
 5630SOL    HW217790   2.113   4.690   0.854
 5631SOL     OW17791   4.395   1.819   0.386
 5631SOL    HW117792   4.354   1.729   0.394
 5631SOL    HW217793   4.489   1.816   0.418
 5632SOL     OW17794   3.371   2.431   5.998
 5632SOL    HW117795   3.421   2.345   6.010
 5632SOL    HW217796   3.322   2.453   6.082
 5633SOL     OW17797   6.820   3.229   4.483
 5633SOL    HW117798   6.915   3.253   4.464
 5633SOL    HW217799   6.784   3.175   4.407
 5634SOL     OW17800   2.201   5.578   4.531
 5634SOL    HW117801   2.279   5.573   4.468
 5634SOL    HW217802   2.229   5.542   4.620
 5635SOL     OW17803   1.830   3.793   5.341
 5635SOL    HW117804   1.883   3.867   5.300
 5635SOL    HW217805   1.870   3.705   5.316
 5636SOL     OW17806   3.677   6.698   3.796
 5636SOL    HW117807   3.771   6.731   3.791
 5636SOL    HW217808   3.615   6.769   3.763
 5637SOL     OW17809   4.724   6.882   3.620
 5637SOL    HW117810   4.642   6.838   3.584
 5637SOL    HW217811   4.751   6.957   3.560
 5638SOL     OW17812   6.034   3.882   1.409
 5638SOL    HW117813   5.969   3.846   1.476
 5638SOL    HW217814   6.046   3.980   1.423
 5639SOL     OW17815   0.712   0.567   0.359
 5639SOL    HW117816   0.766   0.483   0.361
 5639SOL    HW217817   0.664   0.575   0.272
 5640SOL     OW17818   2.847   0.491   3.750
 5640SOL    HW117819   2.897   0.488   3.664
 5640SOL    HW217820   2.831   0.587   3.775
 5641SOL     OW17821   0.706   5.136   5.125
 5641SOL    HW117822   0.625   5.084   5.101
 5641SOL    HW217823   0.773   5.076   5.169
 5642SOL     OW17824   2.150   7.018   6.058
 5642SOL    HW117825   2.218   7.020   5.985
 5642SOL    HW217826   2.118   0.088   6.077
 5643SOL     OW17827   4.405   1.385   5.133
 5643SOL    HW117828   4.399   1.411   5.037
 5643SOL    HW217829   4.430   1.289   5.140
 5644SOL     OW17830   3.135   0.045   4.852
 5644SOL    HW117831   3.106   6.982   4.895
 5644SOL    HW217832   3.230   0.065   4.878
 5645SOL     OW17833   6.443   4.208   3.867
 5645SOL    HW117834   6.514   4.219   3.936
 5645SOL    HW217835   6.377   4.138   3.897
 5646SOL     OW17836   1.535   5.411   3.034
 5646SOL    HW117837   1.530   5.462   2.948
 5646SOL    HW217838   1.468   5.337   3.033
 5647SOL     OW17839   5.219   0.081   0.853
 5647SOL    HW117840   5.228   7.004   0.849
 5647SOL    HW217841   5.122   0.106   0.844
 5648SOL     OW17842   1.668   5.886   2.895
 5648SOL    HW117843   1.626   5.975   2.875
 5648SOL    HW217844   1.682   5.877   2.993
 5649SOL     OW17845   0.994   6.733   3.807
 5649SOL    HW117846   0.991   6.640   3.770
 5649SOL    HW217847   0.949   6.736   3.896
 5650SOL     OW17848   1.092   4.879   1.643
 5650SOL    HW117849   1.079   4.968   1.598
 5650SOL    HW217850   1.061   4.806   1.582
 5651SOL     OW17851   1.419   0.905   0.451
 5651SOL    HW117852   1.429   0.872   0.545
 5651SOL    HW217853   1.379   0.832   0.395
 5652SOL     OW17854   6.837   5.963   0.795
 5652SOL    HW117855   6.846   5.893   0.866
 5652SOL    HW217856   6.796   6.045   0.834
 5653SOL     OW17857   0.269   6.127   6.907
 5653SOL    HW117858   0.177   6.122   6.946
 5653SOL    HW217859   0.330   6.067   6.957
 5654SOL     OW17860   1.153   5.709   4.352
 5654SOL    HW117861   1.197   5.643   4.292
 5654SOL    HW217862   1.102   5.661   4.423
 5655SOL     OW17863   0.061   2.912   3.440
 5655SOL    HW117864   0.151   2.951   3.461
 5655SOL    HW217865   0.070   2.813   3.427
 5656SOL     OW17866   6.758   4.096   6.593
 5656SOL    HW117867   6.752   4.000   6.619
 5656SOL    HW217868   6.850   4.130   6.611
 5657SOL     OW17869   4.653   4.277   5.203
 5657SOL    HW117870   4.704   4.273   5.288
 5657SOL    HW217871   4.709   4.321   5.132
 5658SOL     OW17872   2.708   3.395   5.870
 5658SOL    HW117873   2.753   3.384   5.781
 5658SOL    HW217874   2.759   3.346   5.940
 5659SOL     OW17875   3.823   3.838   5.808
 5659SOL    HW117876   3.917   3.872   5.806
 5659SOL    HW217877   3.792   3.833   5.903
 5660SOL     OW17878   4.054   6.420   6.102
 5660SOL    HW117879   4.035   6.323   6.084
 5660SOL    HW217880   4.116   6.455   6.032
 5661SOL     OW17881   1.635   5.583   4.658
 5661SOL    HW117882   1.672   5.608   4.747
 5661SOL    HW217883   1.698   5.612   4.586
 5662SOL     OW17884   2.611   0.225   2.392
 5662SOL    HW117885   2.611   0.166   2.311
 5662SOL    HW217886   2.688   0.201   2.451
 5663SOL     OW17887   2.458   1.973   0.606
 5663SOL    HW117888   2.392   1.920   0.553
 5663SOL    HW217889   2.547   1.971   0.559
 5664SOL     OW17890   6.277   3.143   4.200
 5664SOL    HW117891   6.318   3.229   4.168
 5664SOL    HW217892   6.273   3.144   4.300
 5665SOL     OW17893   0.916   5.977   0.184
 5665SOL    HW117894   0.946   6.071   0.201
 5665SOL    HW217895   0.974   5.914   0.237
 5666SOL     OW17896   6.108   0.452   3.581
 5666SOL    HW117897   6.075   0.498   3.499
 5666SOL    HW217898   6.190   0.398   3.558
 5667SOL     OW17899   0.905   5.184   4.916
 5667SOL    HW117900   0.848   5.159   4.994
 5667SOL    HW217901   0.935   5.102   4.868
 5668SOL     OW17902   6.204   2.996   3.109
 5668SOL    HW117903   6.221   2.901   3.084
 5668SOL    HW217904   6.175   3.001   3.204
 5669SOL     OW17905   6.739   5.087   0.612
 5669SOL    HW117906   6.812   5.053   0.671
 5669SOL    HW217907   6.667   5.019   0.605
 5670SOL     OW17908   1.508   2.918   3.904
 5670SOL    HW117909   1.566   2.997   3.921
 5670SOL    HW217910   1.446   2.938   3.828
 5671SOL     OW17911   6.401   5.516   5.627
 5671SOL    HW117912   6.405   5.418   5.609
 5671SOL    HW217913   6.310   5.551   5.605
 5672SOL     OW17914   5.058   4.280   5.191
 5672SOL    HW117915   5.049   4.245   5.284
 5672SOL    HW217916   5.089   4.206   5.130
 5673SOL     OW17917   1.258   6.337   1.223
 5673SOL    HW117918   1.335   6.357   1.162
 5673SOL    HW217919   1.248   6.238   1.232
 5674SOL     OW17920   2.333   4.669   4.756
 5674SOL    HW117921   2.358   4.620   4.673
 5674SOL    HW217922   2.252   4.628   4.797
 5675SOL     OW17923   4.635   2.173   0.141
 5675SOL    HW117924   4.732   2.159   0.165
 5675SOL    HW217925   4.604   2.098   0.084
 5676SOL     OW17926   2.753   1.716   2.142
 5676SOL    HW117927   2.805   1.791   2.185
 5676SOL    HW217928   2.811   1.670   2.075
 5677SOL     OW17929   0.365   0.679   0.121
 5677SOL    HW117930   0.411   0.591   0.133
 5677SOL    HW217931   0.267   0.668   0.132
 5678SOL     OW17932   4.604   1.183   2.151
 5678SOL    HW117933   4.519   1.187   2.203
 5678SOL    HW217934   4.673   1.134   2.204
 5679SOL     OW17935   5.370   1.532   4.140
 5679SOL    HW117936   5.459   1.555   4.100
 5679SOL    HW217937   5.369   1.559   4.236
 5680SOL     OW17938   1.922   5.236   6.776
 5680SOL    HW117939   1.855   5.199   6.840
 5680SOL    HW217940   1.899   5.330   6.753
 5681SOL     OW17941   0.455   3.723   2.244
 5681SOL    HW117942   0.457   3.744   2.342
 5681SOL    HW217943   0.444   3.625   2.231
 5682SOL     OW17944   2.339   5.496   4.091
 5682SOL    HW117945   2.373   5.442   4.168
 5682SOL    HW217946   2.402   5.488   4.014
 5683SOL     OW17947   3.856   2.642   6.049
 5683SOL    HW117948   3.934   2.582   6.070
 5683SOL    HW217949   3.774   2.607   6.094
 5684SOL     OW17950   1.833   3.587   6.279
 5684SOL    HW117951   1.747   3.636   6.296
 5684SOL    HW217952   1.910   3.648   6.298
 5685SOL     OW17953   2.261   2.153   2.950
 5685SOL    HW117954   2.267   2.253   2.951
 5685SOL    HW217955   2.228   2.122   2.861
 5686SOL     OW17956   3.363   1.374   4.490
 5686SOL    HW117957   3.272   1.408   4.468
 5686SOL    HW217958   3.421   1.450   4.520
 5687SOL     OW17959   0.965   6.078   6.333
 5687SOL    HW117960   1.036   6.149   6.333
 5687SOL    HW217961   0.878   6.118   6.361
 5688SOL     OW17962   2.075   2.810   2.978
 5688SOL    HW117963   2.016   2.805   2.898
 5688SOL    HW217964   2.148   2.876   2.962
 5689SOL     OW17965   2.484   0.643   1.830
 5689SOL    HW117966   2.389   0.621   1.811
 5689SOL    HW217967   2.527   0.681   1.748
 5690SOL     OW17968   1.645   5.154   6.592
 5690SOL    HW117969   1.740   5.138   6.617
 5690SOL    HW217970   1.587   5.142   6.673
 5691SOL     OW17971   3.770   1.208   2.480
 5691SOL    HW117972   3.737   1.279   2.542
 5691SOL    HW217973   3.869   1.216   2.471
 5692SOL     OW17974   4.980   4.517   1.140
 5692SOL    HW117975   4.890   4.513   1.182
 5692SOL    HW217976   4.971   4.540   1.043
 5693SOL     OW17977   4.581   0.200   1.255
 5693SOL    HW117978   4.550   0.285   1.212
 5693SOL    HW217979   4.504   0.137   1.261
 5694SOL     OW17980   0.210   0.095   2.399
 5694SOL    HW117981   0.189   0.188   2.428
 5694SOL    HW217982   0.306   0.089   2.372
 5695SOL     OW17983   1.301   1.461   2.893
 5695SOL    HW117984   1.211   1.504   2.886
 5695SOL    HW217985   1.312   1.421   2.984
 5696SOL     OW17986   1.179   0.254   3.827
 5696SOL    HW117987   1.198   0.236   3.730
 5696SOL    HW217988   1.241   0.325   3.860
 5697SOL     OW17989   5.942   2.010   2.409
 5697SOL    HW117990   6.010   2.065   2.361
 5697SOL    HW217991   5.851   2.046   2.389
 5698SOL     OW17992   1.628   3.859   4.557
 5698SOL    HW117993   1.534   3.831   4.535
 5698SOL    HW217994   1.691   3.784   4.536
 5699SOL     OW17995   2.325   2.846   2.692
 5699SOL    HW117996   2.225   2.849   2.699
 5699SOL    HW217997   2.352   2.773   2.629
 5700SOL     OW17998   6.502   0.005   3.478
 5700SOL    HW117999   6.569   6.956   3.458
 5700SOL    HW218000   6.450   7.003   3.559
 5701SOL     OW18001   6.592   0.532   1.388
 5701SOL    HW118002   6.540   0.616   1.371
 5701SOL    HW218003   6.597   0.479   1.303
 5702SOL     OW18004   1.530   6.575   4.343
 5702SOL    HW118005   1.443   6.538   4.310
 5702SOL    HW218006   1.604   6.542   4.285
 5703SOL     OW18007   6.545   4.274   6.674
 5703SOL    HW118008   6.643   4.254   6.687
 5703SOL    HW218009   6.535   4.361   6.627
 5704SOL     OW18010   4.911   3.809   3.029
 5704SOL    HW118011   4.997   3.855   3.049
 5704SOL    HW218012   4.898   3.734   3.094
 5705SOL     OW18013   5.452   5.907   6.581
 5705SOL    HW118014   5.505   5.827   6.607
 5705SOL    HW218015   5.419   5.953   6.664
 5706SOL     OW18016   5.197   2.725   1.712
 5706SOL    HW118017   5.232   2.700   1.622
 5706SOL    HW218018   5.099   2.706   1.717
 5707SOL     OW18019   6.181   0.265   0.622
 5707SOL    HW118020   6.109   0.333   0.607
 5707SOL    HW218021   6.267   0.311   0.643
 5708SOL     OW18022   4.936   6.391   2.514
 5708SOL    HW118023   4.858   6.386   2.451
 5708SOL    HW218024   4.925   6.470   2.575
 5709SOL     OW18025   0.800   0.883   2.818
 5709SOL    HW118026   0.769   0.935   2.739
 5709SOL    HW218027   0.897   0.903   2.835
 5710SOL     OW18028   3.067   1.893   0.439
 5710SOL    HW118029   3.029   1.812   0.481
 5710SOL    HW218030   3.147   1.868   0.385
 5711SOL     OW18031   5.087   0.449   1.908
 5711SOL    HW118032   5.149   0.524   1.883
 5711SOL    HW218033   4.996   0.468   1.871
 5712SOL     OW18034   6.516   6.662   0.168
 5712SOL    HW118035   6.491   6.748   0.212
 5712SOL    HW218036   6.604   6.673   0.121
 5713SOL     OW18037   3.390   4.729   1.025
 5713SOL    HW118038   3.430   4.787   1.095
 5713SOL    HW218039   3.457   4.711   0.953
 5714SOL     OW18040   6.952   6.292   0.513
 5714SOL    HW118041   6.857   6.310   0.488
 5714SOL    HW218042   7.011   6.306   0.433
 5715SOL     OW18043   6.797   0.706   2.901
 5715SOL    HW118044   6.749   0.642   2.961
 5715SOL    HW218045   6.809   0.794   2.947
 5716SOL     OW18046   1.249   5.919   6.352
 5716SOL    HW118047   1.162   5.940   6.397
 5716SOL    HW218048   1.231   5.874   6.265
 5717SOL     OW18049   2.242   5.465   1.766
 5717SOL    HW118050   2.142   5.468   1.763
 5717SOL    HW218051   2.277   5.421   1.683
 5718SOL     OW18052   0.896   3.514   0.108
 5718SOL    HW118053   0.802   3.533   0.081
 5718SOL    HW218054   0.950   3.599   0.102
 5719SOL     OW18055   3.019   3.492   0.700
 5719SOL    HW118056   3.000   3.533   0.790
 5719SOL    HW218057   3.018   3.392   0.709
 5720SOL     OW18058   1.670   6.447   4.729
 5720SOL    HW118059   1.616   6.525   4.696
 5720SOL    HW218060   1.701   6.465   4.823
 5721SOL     OW18061   5.930   4.425   0.582
 5721SOL    HW118062   5.967   4.433   0.489
 5721SOL    HW218063   5.838   4.464   0.585
 5722SOL     OW18064   7.011   2.360   5.304
 5722SOL    HW118065   6.969   2.269   5.313
 5722SOL    HW218066   0.043   2.379   5.386
 5723SOL     OW18067   4.233   3.928   7.011
 5723SOL    HW118068   4.207   3.879   0.072
 5723SOL    HW218069   4.333   3.932   7.005
 5724SOL     OW18070   6.079   3.043   3.371
 5724SOL    HW118071   6.044   2.949   3.372
 5724SOL    HW218072   6.052   3.089   3.456
 5725SOL     OW18073   6.711   5.043   4.396
 5725SOL    HW118074   6.706   4.969   4.330
 5725SOL    HW218075   6.621   5.059   4.436
 5726SOL     OW18076   6.005   5.182   4.092
 5726SOL    HW118077   6.080   5.239   4.058
 5726SOL    HW218078   6.042   5.093   4.121
 5727SOL     OW18079   0.250   2.709   4.816
 5727SOL    HW118080   0.201   2.717   4.903
 5727SOL    HW218081   0.346   2.687   4.834
 5728SOL     OW18082   5.293   6.112   5.209
 5728SOL    HW118083   5.379   6.144   5.170
 5728SOL    HW218084   5.237   6.071   5.137
 5729SOL     OW18085   1.095   2.131   6.101
 5729SOL    HW118086   0.997   2.113   6.090
 5729SOL    HW218087   1.124   2.100   6.192
 5730SOL     OW18088   6.561   4.171   6.375
 5730SOL    HW118089   6.606   4.149   6.462
 5730SOL    HW218090   6.628   4.168   6.301
 5731SOL     OW18091   6.788   0.106   2.234
 5731SOL    HW118092   6.764   0.160   2.314
 5731SOL    HW218093   6.883   0.074   2.241
 5732SOL     OW18094   1.169   6.654   3.282
 5732SOL    HW118095   1.084   6.612   3.253
 5732SOL    HW218096   1.168   6.751   3.258
 5733SOL     OW18097   4.066   6.578   5.257
 5733SOL    HW118098   3.977   6.619   5.238
 5733SOL    HW218099   4.097   6.608   5.348
 5734SOL     OW18100   1.253   6.873   4.917
 5734SOL    HW118101   1.160   6.839   4.909
 5734SOL    HW218102   1.253   6.973   4.907
 5735SOL     OW18103   3.049   1.333   1.157
 5735SOL    HW118104   2.973   1.392   1.184
 5735SOL    HW218105   3.109   1.318   1.236
 5736SOL     OW18106   0.155   4.391   0.249
 5736SOL    HW118107   0.081   4.328   0.226
 5736SOL    HW218108   0.224   4.388   0.177
 5737SOL     OW18109   5.617   6.433   6.559
 5737SOL    HW118110   5.645   6.350   6.511
 5737SOL    HW218111   5.617   6.510   6.495
 5738SOL     OW18112   1.424   3.404   6.790
 5738SOL    HW118113   1.493   3.378   6.722
 5738SOL    HW218114   1.357   3.330   6.798
 5739SOL     OW18115   1.575   1.044   6.515
 5739SOL    HW118116   1.486   1.012   6.483
 5739SOL    HW218117   1.632   1.068   6.436
 5740SOL     OW18118   4.514   5.658   0.310
 5740SOL    HW118119   4.460   5.706   0.241
 5740SOL    HW218120   4.554   5.725   0.373
 5741SOL     OW18121   6.736   5.767   4.308
 5741SOL    HW118122   6.826   5.728   4.288
 5741SOL    HW218123   6.665   5.701   4.285
 5742SOL     OW18124   5.178   6.428   2.365
 5742SOL    HW118125   5.104   6.427   2.432
 5742SOL    HW218126   5.198   6.335   2.335
 5743SOL     OW18127   2.678   0.043   4.706
 5743SOL    HW118128   2.590   0.023   4.749
 5743SOL    HW218129   2.734   6.983   4.706
 5744SOL     OW18130   4.795   0.771   0.515
 5744SOL    HW118131   4.778   0.790   0.418
 5744SOL    HW218132   4.770   0.851   0.569
 5745SOL     OW18133   2.541   1.685   4.441
 5745SOL    HW118134   2.442   1.678   4.428
 5745SOL    HW218135   2.560   1.698   4.539
 5746SOL     OW18136   4.732   0.941   0.267
 5746SOL    HW118137   4.692   0.939   0.175
 5746SOL    HW218138   4.832   0.935   0.259
 5747SOL     OW18139   0.176   5.526   2.965
 5747SOL    HW118140   0.200   5.623   2.961
 5747SOL    HW218141   0.135   5.499   2.878
 5748SOL     OW18142   2.077   4.767   1.749
 5748SOL    HW118143   2.067   4.785   1.652
 5748SOL    HW218144   2.174   4.763   1.773
 5749SOL     OW18145   2.070   1.365   4.214
 5749SOL    HW118146   2.130   1.290   4.241
 5749SOL    HW218147   2.052   1.359   4.116
 5750SOL     OW18148   5.863   5.164   4.856
 5750SOL    HW118149   5.823   5.089   4.802
 5750SOL    HW218150   5.799   5.241   4.857
 5751SOL     OW18151   2.197   2.794   5.089
 5751SOL    HW118152   2.255   2.866   5.049
 5751SOL    HW218153   2.232   2.769   5.179
 5752SOL     OW18154   6.612   0.634   5.910
 5752SOL    HW118155   6.560   0.628   5.825
 5752SOL    HW218156   6.597   0.724   5.952
 5753SOL     OW18157   3.435   3.112   6.698
 5753SOL    HW118158   3.408   3.201   6.735
 5753SOL    HW218159   3.425   3.114   6.598
 5754SOL     OW18160   5.790   5.398   2.090
 5754SOL    HW118161   5.837   5.394   2.001
 5754SOL    HW218162   5.833   5.468   2.147
 5755SOL     OW18163   2.895   3.431   6.507
 5755SOL    HW118164   2.945   3.395   6.585
 5755SOL    HW218165   2.953   3.496   6.457
 5756SOL     OW18166   6.668   4.669   3.412
 5756SOL    HW118167   6.601   4.662   3.486
 5756SOL    HW218168   6.693   4.765   3.398
 5757SOL     OW18169   6.287   6.136   1.271
 5757SOL    HW118170   6.211   6.187   1.230
 5757SOL    HW218171   6.371   6.159   1.223
 5758SOL     OW18172   2.781   2.313   4.912
 5758SOL    HW118173   2.797   2.345   5.005
 5758SOL    HW218174   2.866   2.277   4.873
 5759SOL     OW18175   5.090   2.251   6.288
 5759SOL    HW118176   5.053   2.342   6.307
 5759SOL    HW218177   5.166   2.232   6.350
 5760SOL     OW18178   1.573   6.166   2.513
 5760SOL    HW118179   1.649   6.222   2.545
 5760SOL    HW218180   1.598   6.069   2.521
 5761SOL     OW18181   5.890   0.123   4.835
 5761SOL    HW118182   5.905   0.077   4.747
 5761SOL    HW218183   5.879   0.054   4.907
 5762SOL     OW18184   5.544   6.994   0.356
 5762SOL    HW118185   5.480   7.004   0.433
 5762SOL    HW218186   5.634   0.004   0.383
 5763SOL     OW18187   0.979   6.636   0.543
 5763SOL    HW118188   0.998   6.723   0.590
 5763SOL    HW218189   0.959   6.655   0.446
 5764SOL     OW18190   6.080   4.627   5.471
 5764SOL    HW118191   6.127   4.708   5.504
 5764SOL    HW218192   6.115   4.602   5.381
 5765SOL     OW18193   6.186   4.038   6.567
 5765SOL    HW118194   6.126   4.107   6.607
 5765SOL    HW218195   6.276   4.044   6.609
 5766SOL     OW18196   3.371   1.504   1.939
 5766SOL    HW118197   3.414   1.559   1.867
 5766SOL    HW218198   3.442   1.458   1.992
 5767SOL     OW18199   1.115   6.088   0.791
 5767SOL    HW118200   1.041   6.104   0.726
 5767SOL    HW218201   1.077   6.048   0.875
 5768SOL     OW18202   6.947   0.746   3.307
 5768SOL    HW118203   6.991   0.676   3.250
 5768SOL    HW218204   6.848   0.738   3.299
 5769SOL     OW18205   2.747   6.228   3.114
 5769SOL    HW118206   2.743   6.328   3.109
 5769SOL    HW218207   2.714   6.198   3.203
 5770SOL     OW18208   0.049   6.771   1.010
 5770SOL    HW118209   0.038   6.732   1.101
 5770SOL    HW218210   0.146   6.773   0.986
 5771SOL     OW18211   1.353   0.621   1.274
 5771SOL    HW118212   1.422   0.558   1.308
 5771SOL    HW218213   1.268   0.570   1.257
 5772SOL     OW18214   5.758   2.469   0.785
 5772SOL    HW118215   5.751   2.487   0.687
 5772SOL    HW218216   5.839   2.412   0.803
 5773SOL     OW18217   5.529   6.814   3.985
 5773SOL    HW118218   5.591   6.856   3.920
 5773SOL    HW218219   5.489   6.732   3.945
 5774SOL     OW18220   2.481   4.456   3.300
 5774SOL    HW118221   2.459   4.545   3.339
 5774SOL    HW218222   2.578   4.453   3.275
 5775SOL     OW18223   0.086   0.113   0.453
 5775SOL    HW118224   0.078   0.139   0.550
 5775SOL    HW218225   0.004   0.063   0.426
 5776SOL     OW18226   5.294   0.806   6.241
 5776SOL    HW118227   5.327   0.842   6.154
 5776SOL    HW218228   5.371   0.771   6.294
 5777SOL     OW18229   6.248   0.829   4.201
 5777SOL    HW118230   6.193   0.880   4.135
 5777SOL    HW218231   6.190   0.796   4.275
 5778SOL     OW18232   1.646   0.280   2.535
 5778SOL    HW118233   1.656   0.216   2.611
 5778SOL    HW218234   1.737   0.306   2.501
 5779SOL     OW18235   3.786   1.122   1.367
 5779SOL    HW118236   3.732   1.077   1.438
 5779SOL    HW218237   3.810   1.055   1.296
 5780SOL     OW18238   6.381   4.497   2.012
 5780SOL    HW118239   6.391   4.592   1.985
 5780SOL    HW218240   6.470   4.451   2.007
 5781SOL     OW18241   1.655   3.923   4.947
 5781SOL    HW118242   1.633   3.998   5.010
 5781SOL    HW218243   1.669   3.960   4.855
 5782SOL     OW18244   1.943   1.183   1.291
 5782SOL    HW118245   2.003   1.255   1.256
 5782SOL    HW218246   1.865   1.223   1.338
 5783SOL     OW18247   1.517   0.224   0.685
 5783SOL    HW118248   1.596   0.286   0.680
 5783SOL    HW218249   1.496   0.191   0.593
 5784SOL     OW18250   0.786   6.419   0.144
 5784SOL    HW118251   0.739   6.477   0.077
 5784SOL    HW218252   0.876   6.395   0.109
 5785SOL     OW18253   1.140   0.792   1.219
 5785SOL    HW118254   1.124   0.774   1.122
 5785SOL    HW218255   1.215   0.734   1.251
 5786SOL     OW18256   1.606   3.544   1.659
 5786SOL    HW118257   1.526   3.602   1.645
 5786SOL    HW218258   1.635   3.506   1.571
 5787SOL     OW18259   6.194   2.836   4.587
 5787SOL    HW118260   6.236   2.917   4.628
 5787SOL    HW218261   6.158   2.777   4.659
 5788SOL     OW18262   3.308   0.779   2.020
 5788SOL    HW118263   3.295   0.723   2.102
 5788SOL    HW218264   3.262   0.867   2.032
 5789SOL     OW18265   3.889   3.831   0.295
 5789SOL    HW118266   3.890   3.746   0.348
 5789SOL    HW218267   3.816   3.891   0.329
 5790SOL     OW18268   5.671   5.344   4.795
 5790SOL    HW118269   5.599   5.392   4.846
 5790SOL    HW218270   5.661   5.363   4.697
 5791SOL     OW18271   3.717   1.412   2.667
 5791SOL    HW118272   3.814   1.435   2.662
 5791SOL    HW218273   3.691   1.397   2.762
 5792SOL     OW18274   4.924   3.664   2.785
 5792SOL    HW118275   4.923   3.694   2.689
 5792SOL    HW218276   4.891   3.738   2.843
 5793SOL     OW18277   6.148   2.657   4.939
 5793SOL    HW118278   6.095   2.641   4.856
 5793SOL    HW218279   6.207   2.736   4.927
 5794SOL     OW18280   2.668   6.902   5.572
 5794SOL    HW118281   2.622   6.898   5.660
 5794SOL    HW218282   2.757   6.857   5.578
 5795SOL     OW18283   0.727   5.031   1.568
 5795SOL    HW118284   0.773   5.027   1.480
 5795SOL    HW218285   0.655   4.962   1.572
 5796SOL     OW18286   4.269   1.244   6.161
 5796SOL    HW118287   4.184   1.215   6.206
 5796SOL    HW218288   4.266   1.342   6.144
 5797SOL     OW18289   4.897   1.787   6.873
 5797SOL    HW118290   4.807   1.774   6.831
 5797SOL    HW218291   4.926   1.882   6.859
 5798SOL     OW18292   1.211   3.616   5.094
 5798SOL    HW118293   1.168   3.689   5.040
 5798SOL    HW218294   1.154   3.534   5.089
 5799SOL     OW18295   1.542   6.755   3.015
 5799SOL    HW118296   1.569   6.789   2.925
 5799SOL    HW218297   1.443   6.766   3.027
 5800SOL     OW18298   0.303   6.760   0.924
 5800SOL    HW118299   0.385   6.706   0.904
 5800SOL    HW218300   0.323   6.857   0.911
 5801SOL     OW18301   2.216   2.829   2.134
 5801SOL    HW118302   2.199   2.783   2.221
 5801SOL    HW218303   2.264   2.766   2.072
 5802SOL     OW18304   6.875   1.834   2.796
 5802SOL    HW118305   6.815   1.893   2.742
 5802SOL    HW218306   6.951   1.803   2.738
 5803SOL     OW18307   1.078   5.515   4.791
 5803SOL    HW118308   1.105   5.540   4.698
 5803SOL    HW218309   1.081   5.596   4.850
 5804SOL     OW18310   5.763   6.454   3.475
 5804SOL    HW118311   5.824   6.473   3.398
 5804SOL    HW218312   5.806   6.387   3.535
 5805SOL     OW18313   2.444   3.305   0.715
 5805SOL    HW118314   2.408   3.399   0.715
 5805SOL    HW218315   2.419   3.260   0.801
 5806SOL     OW18316   0.416   2.878   3.368
 5806SOL    HW118317   0.369   2.924   3.444
 5806SOL    HW218318   0.381   2.912   3.281
 5807SOL     OW18319   1.068   6.196   0.218
 5807SOL    HW118320   1.132   6.210   0.294
 5807SOL    HW218321   1.113   6.217   0.132
 5808SOL     OW18322   6.128   0.735   4.420
 5808SOL    HW118323   6.122   0.637   4.437
 5808SOL    HW218324   6.052   0.782   4.464
 5809SOL     OW18325   0.302   2.675   6.144
 5809SOL    HW118326   0.319   2.729   6.062
 5809SOL    HW218327   0.371   2.695   6.214
 5810SOL     OW18328   4.177   6.689   4.701
 5810SOL    HW118329   4.098   6.749   4.683
 5810SOL    HW218330   4.233   6.682   4.619
 5811SOL     OW18331   3.162   3.015   6.122
 5811SOL    HW118332   3.261   3.017   6.110
 5811SOL    HW218333   3.140   2.986   6.216
 5812SOL     OW18334   5.667   2.982   0.671
 5812SOL    HW118335   5.597   3.039   0.714
 5812SOL    HW218336   5.712   2.927   0.741
 5813SOL     OW18337   4.628   6.104   0.844
 5813SOL    HW118338   4.674   6.189   0.817
 5813SOL    HW218339   4.594   6.113   0.938
 5814SOL     OW18340   5.852   1.774   2.266
 5814SOL    HW118341   5.788   1.727   2.327
 5814SOL    HW218342   5.896   1.849   2.316
 5815SOL     OW18343   6.778   1.031   4.149
 5815SOL    HW118344   6.777   0.993   4.057
 5815SOL    HW218345   6.774   0.956   4.216
 5816SOL     OW18346   0.071   4.271   3.058
 5816SOL    HW118347   6.995   4.257   3.051
 5816SOL    HW218348   0.119   4.191   3.024
 5817SOL     OW18349   5.588   4.272   4.426
 5817SOL    HW118350   5.676   4.288   4.471
 5817SOL    HW218351   5.594   4.297   4.330
 5818SOL     OW18352   1.643   0.111   4.709
 5818SOL    HW118353   1.699   0.133   4.628
 5818SOL    HW218354   1.641   0.190   4.770
 5819SOL     OW18355   4.205   4.866   6.910
 5819SOL    HW118356   4.301   4.861   6.937
 5819SOL    HW218357   4.184   4.791   6.847
 5820SOL     OW18358   5.854   4.982   2.567
 5820SOL    HW118359   5.792   4.906   2.587
 5820SOL    HW218360   5.801   5.061   2.536
 5821SOL     OW18361   6.361   0.605   1.204
 5821SOL    HW118362   6.331   0.514   1.177
 5821SOL    HW218363   6.319   0.631   1.290
 5822SOL     OW18364   1.377   2.461   2.622
 5822SOL    HW118365   1.295   2.496   2.667
 5822SOL    HW218366   1.410   2.528   2.556
 5823SOL     OW18367   2.233   6.463   3.614
 5823SOL    HW118368   2.317   6.515   3.598
 5823SOL    HW218369   2.215   6.404   3.535
 5824SOL     OW18370   1.107   0.358   2.392
 5824SOL    HW118371   1.111   0.281   2.456
 5824SOL    HW218372   1.012   0.388   2.383
 5825SOL     OW18373   6.225   0.259   4.199
 5825SOL    HW118374   6.195   0.354   4.211
 5825SOL    HW218375   6.323   0.257   4.182
 5826SOL     OW18376   0.109   6.947   5.221
 5826SOL    HW118377   0.027   6.913   5.175
 5826SOL    HW218378   0.109   0.025   5.220
 5827SOL     OW18379   1.941   4.327   5.224
 5827SOL    HW118380   2.040   4.339   5.233
 5827SOL    HW218381   1.911   4.356   5.133
 5828SOL     OW18382   4.857   0.100   4.074
 5828SOL    HW118383   4.801   0.069   3.997
 5828SOL    HW218384   4.800   0.156   4.135
 5829SOL     OW18385   2.513   0.692   3.803
 5829SOL    HW118386   2.428   0.661   3.845
 5829SOL    HW218387   2.513   0.668   3.706
 5830SOL     OW18388   3.832   5.572   5.177
 5830SOL    HW118389   3.923   5.532   5.184
 5830SOL    HW218390   3.840   5.670   5.156
 5831SOL     OW18391   1.668   1.204   5.154
 5831SOL    HW118392   1.694   1.222   5.249
 5831SOL    HW218393   1.577   1.241   5.136
 5832SOL     OW18394   3.498   4.893   1.232
 5832SOL    HW118395   3.417   4.952   1.225
 5832SOL    HW218396   3.568   4.941   1.285
 5833SOL     OW18397   4.074   3.499   5.557
 5833SOL    HW118398   4.023   3.582   5.535
 5833SOL    HW218399   4.158   3.497   5.503
 5834SOL     OW18400   6.522   4.463   0.186
 5834SOL    HW118401   6.524   4.428   0.093
 5834SOL    HW218402   6.429   4.455   0.222
 5835SOL     OW18403   5.652   1.103   2.402
 5835SOL    HW118404   5.730   1.163   2.421
 5835SOL    HW218405   5.685   1.013   2.375
 5836SOL     OW18406   4.795   6.942   1.630
 5836SOL    HW118407   4.851   6.885   1.571
 5836SOL    HW218408   4.854   7.002   1.685
 5837SOL     OW18409   3.401   4.205   0.480
 5837SOL    HW118410   3.391   4.304   0.485
 5837SOL    HW218411   3.352   4.171   0.400
 5838SOL     OW18412   2.698   1.772   1.194
 5838SOL    HW118413   2.792   1.741   1.178
 5838SOL    HW218414   2.698   1.871   1.209
 5839SOL     OW18415   1.712   2.520   1.905
 5839SOL    HW118416   1.684   2.442   1.961
 5839SOL    HW218417   1.703   2.496   1.808
 5840SOL     OW18418   0.689   3.122   2.071
 5840SOL    HW118419   0.665   3.218   2.086
 5840SOL    HW218420   0.627   3.063   2.123
 5841SOL     OW18421   4.516   1.490   0.394
 5841SOL    HW118422   4.542   1.407   0.346
 5841SOL    HW218423   4.417   1.491   0.407
 5842SOL     OW18424   2.947   1.414   0.774
 5842SOL    HW118425   2.860   1.366   0.759
 5842SOL    HW218426   3.008   1.355   0.827
 5843SOL     OW18427   1.655   3.394   1.423
 5843SOL    HW118428   1.579   3.334   1.396
 5843SOL    HW218429   1.742   3.355   1.393
 5844SOL     OW18430   0.843   0.447   5.089
 5844SOL    HW118431   0.913   0.490   5.032
 5844SOL    HW218432   0.790   0.382   5.033
 5845SOL     OW18433   0.830   5.752   1.712
 5845SOL    HW118434   0.786   5.714   1.793
 5845SOL    HW218435   0.899   5.819   1.740
 5846SOL     OW18436   6.494   3.746   5.913
 5846SOL    HW118437   6.429   3.705   5.977
 5846SOL    HW218438   6.526   3.834   5.949
 5847SOL     OW18439   2.721   2.864   0.782
 5847SOL    HW118440   2.632   2.821   0.795
 5847SOL    HW218441   2.727   2.902   0.690
 5848SOL     OW18442   1.692   6.226   3.584
 5848SOL    HW118443   1.631   6.173   3.642
 5848SOL    HW218444   1.787   6.206   3.610
 5849SOL     OW18445   2.134   6.256   5.387
 5849SOL    HW118446   2.080   6.291   5.310
 5849SOL    HW218447   2.134   6.323   5.461
 5850SOL     OW18448   1.662   2.456   1.629
 5850SOL    HW118449   1.723   2.402   1.572
 5850SOL    HW218450   1.582   2.484   1.575
 5851SOL     OW18451   5.585   3.278   4.801
 5851SOL    HW118452   5.625   3.267   4.710
 5851SOL    HW218453   5.582   3.375   4.824
 5852SOL     OW18454   4.914   5.235   3.368
 5852SOL    HW118455   4.858   5.201   3.293
 5852SOL    HW218456   4.991   5.173   3.383
 5853SOL     OW18457   3.598   5.014   5.904
 5853SOL    HW118458   3.597   5.060   5.993
 5853SOL    HW218459   3.505   4.997   5.874
 5854SOL     OW18460   2.545   4.703   6.068
 5854SOL    HW118461   2.565   4.661   6.157
 5854SOL    HW218462   2.497   4.790   6.082
 5855SOL     OW18463   2.009   2.562   3.733
 5855SOL    HW118464   2.002   2.554   3.833
 5855SOL    HW218465   1.932   2.515   3.690
 5856SOL     OW18466   1.794   0.038   2.798
 5856SOL    HW118467   1.839   0.039   2.888
 5856SOL    HW218468   1.702   0.076   2.806
 5857SOL     OW18469   0.615   3.802   6.378
 5857SOL    HW118470   0.524   3.803   6.335
 5857SOL    HW218471   0.679   3.853   6.321
 5858SOL     OW18472   2.094   1.919   3.156
 5858SOL    HW118473   2.016   1.980   3.171
 5858SOL    HW218474   2.066   1.844   3.096
 5859SOL     OW18475   6.094   0.253   2.721
 5859SOL    HW118476   5.996   0.272   2.724
 5859SOL    HW218477   6.111   0.180   2.655
 5860SOL     OW18478   0.137   3.272   3.657
 5860SOL    HW118479   0.150   3.361   3.613
 5860SOL    HW218480   0.060   3.225   3.615
 5861SOL     OW18481   6.050   1.280   4.801
 5861SOL    HW118482   6.030   1.343   4.876
 5861SOL    HW218483   5.989   1.299   4.724
 5862SOL     OW18484   0.090   5.299   2.766
 5862SOL    HW118485   0.026   5.249   2.824
 5862SOL    HW218486   0.051   5.308   2.674
 5863SOL     OW18487   3.391   0.144   4.879
 5863SOL    HW118488   3.392   0.243   4.868
 5863SOL    HW218489   3.481   0.113   4.910
 5864SOL     OW18490   3.192   3.867   3.139
 5864SOL    HW118491   3.184   3.780   3.091
 5864SOL    HW218492   3.218   3.939   3.075
 5865SOL     OW18493   6.047   0.929   5.710
 5865SOL    HW118494   5.975   0.999   5.710
 5865SOL    HW218495   6.050   0.885   5.800
 5866SOL     OW18496   4.232   3.293   1.968
 5866SOL    HW118497   4.327   3.295   1.997
 5866SOL    HW218498   4.174   3.328   2.042
 5867SOL     OW18499   2.466   1.992   1.420
 5867SOL    HW118500   2.489   1.994   1.517
 5867SOL    HW218501   2.428   2.080   1.393
 5868SOL     OW18502   0.374   1.746   6.374
 5868SOL    HW118503   0.306   1.675   6.355
 5868SOL    HW218504   0.385   1.756   6.473
 5869SOL     OW18505   0.960   4.888   4.048
 5869SOL    HW118506   0.898   4.825   4.095
 5869SOL    HW218507   0.998   4.844   3.967
 5870SOL     OW18508   4.408   4.771   5.219
 5870SOL    HW118509   4.326   4.803   5.266
 5870SOL    HW218510   4.389   4.763   5.121
 5871SOL     OW18511   3.111   3.136   3.482
 5871SOL    HW118512   3.142   3.109   3.573
 5871SOL    HW218513   3.038   3.204   3.490
 5872SOL     OW18514   4.443   6.589   2.504
 5872SOL    HW118515   4.496   6.659   2.552
 5872SOL    HW218516   4.356   6.575   2.552
 5873SOL     OW18517   3.522   4.915   3.194
 5873SOL    HW118518   3.587   4.879   3.260
 5873SOL    HW218519   3.429   4.909   3.231
 5874SOL     OW18520   2.061   3.786   5.515
 5874SOL    HW118521   1.974   3.811   5.471
 5874SOL    HW218522   2.136   3.831   5.468
 5875SOL     OW18523   3.267   1.835   0.219
 5875SOL    HW118524   3.343   1.794   0.169
 5875SOL    HW218525   3.269   1.935   0.207
 5876SOL     OW18526   4.040   3.106   1.901
 5876SOL    HW118527   4.093   3.190   1.914
 5876SOL    HW218528   3.985   3.088   1.983
 5877SOL     OW18529   5.981   5.957   1.153
 5877SOL    HW118530   5.956   5.989   1.244
 5877SOL    HW218531   5.939   6.016   1.084
 5878SOL     OW18532   1.930   4.916   2.739
 5878SOL    HW118533   1.927   5.015   2.754
 5878SOL    HW218534   1.975   4.897   2.652
 5879SOL     OW18535   6.205   3.978   0.135
 5879SOL    HW118536   6.150   4.037   0.194
 5879SOL    HW218537   6.150   3.900   0.105
 5880SOL     OW18538   2.879   6.547   1.506
 5880SOL    HW118539   2.874   6.619   1.575
 5880SOL    HW218540   2.887   6.588   1.415
 5881SOL     OW18541   0.696   4.540   3.847
 5881SOL    HW118542   0.632   4.477   3.803
 5881SOL    HW218543   0.654   4.630   3.854
 5882SOL     OW18544   5.176   0.601   0.968
 5882SOL    HW118545   5.113   0.665   0.925
 5882SOL    HW218546   5.270   0.626   0.947
 5883SOL     OW18547   6.825   2.700   6.794
 5883SOL    HW118548   6.899   2.637   6.769
 5883SOL    HW218549   6.737   2.656   6.777
 5884SOL     OW18550   1.092   1.204   3.461
 5884SOL    HW118551   1.046   1.170   3.379
 5884SOL    HW218552   1.080   1.303   3.468
 5885SOL     OW18553   6.618   6.726   1.175
 5885SOL    HW118554   6.698   6.682   1.135
 5885SOL    HW218555   6.647   6.802   1.233
 5886SOL     OW18556   0.474   2.755   5.351
 5886SOL    HW118557   0.446   2.761   5.447
 5886SOL    HW218558   0.556   2.811   5.337
 5887SOL     OW18559   3.718   0.769   3.986
 5887SOL    HW118560   3.738   0.777   4.084
 5887SOL    HW218561   3.659   0.844   3.958
 5888SOL     OW18562   1.726   6.329   3.002
 5888SOL    HW118563   1.698   6.273   2.924
 5888SOL    HW218564   1.734   6.424   2.974
 5889SOL     OW18565   2.177   0.424   1.074
 5889SOL    HW118566   2.208   0.517   1.096
 5889SOL    HW218567   2.250   0.376   1.026
 5890SOL     OW18568   1.307   6.377   5.053
 5890SOL    HW118569   1.250   6.330   5.121
 5890SOL    HW218570   1.249   6.435   4.996
 5891SOL     OW18571   3.950   3.367   6.695
 5891SOL    HW118572   3.956   3.315   6.609
 5891SOL    HW218573   3.930   3.463   6.675
 5892SOL     OW18574   1.227   6.061   1.290
 5892SOL    HW118575   1.191   6.070   1.383
 5892SOL    HW218576   1.313   6.010   1.291
 5893SOL     OW18577   1.385   3.053   3.470
 5893SOL    HW118578   1.476   3.094   3.461
 5893SOL    HW218579   1.369   3.027   3.565
 5894SOL     OW18580   1.959   4.444   3.708
 5894SOL    HW118581   1.940   4.427   3.805
 5894SOL    HW218582   1.986   4.540   3.696
 5895SOL     OW18583   5.324   2.814   4.877
 5895SOL    HW118584   5.362   2.724   4.899
 5895SOL    HW218585   5.345   2.878   4.951
 5896SOL     OW18586   3.889   2.438   6.448
 5896SOL    HW118587   3.966   2.399   6.398
 5896SOL    HW218588   3.888   2.401   6.541
 5897SOL     OW18589   3.785   0.167   1.226
 5897SOL    HW118590   3.701   0.115   1.240
 5897SOL    HW218591   3.806   0.217   1.310
 5898SOL     OW18592   0.974   6.943   1.562
 5898SOL    HW118593   0.886   6.962   1.606
 5898SOL    HW218594   0.982   6.845   1.542
 5899SOL     OW18595   5.918   6.990   5.082
 5899SOL    HW118596   5.891   6.970   5.176
 5899SOL    HW218597   6.017   7.006   5.078
 5900SOL     OW18598   4.747   4.874   3.013
 5900SOL    HW118599   4.803   4.859   2.932
 5900SOL    HW218600   4.756   4.795   3.074
 5901SOL     OW18601   1.931   6.510   6.818
 5901SOL    HW118602   1.852   6.476   6.767
 5901SOL    HW218603   1.915   6.605   6.844
 5902SOL     OW18604   6.951   2.310   0.816
 5902SOL    HW118605   6.862   2.324   0.859
 5902SOL    HW218606   7.003   2.243   0.869
 5903SOL     OW18607   5.857   4.546   0.243
 5903SOL    HW118608   5.837   4.644   0.240
 5903SOL    HW218609   5.771   4.495   0.235
 5904SOL     OW18610   0.395   3.448   2.296
 5904SOL    HW118611   0.337   3.374   2.260
 5904SOL    HW218612   0.380   3.457   2.394
 5905SOL     OW18613   6.860   6.521   2.911
 5905SOL    HW118614   6.949   6.501   2.950
 5905SOL    HW218615   6.859   6.615   2.875
 5906SOL     OW18616   5.591   0.836   4.040
 5906SOL    HW118617   5.518   0.899   4.012
 5906SOL    HW218618   5.586   0.752   3.987
 5907SOL     OW18619   1.547   6.486   1.119
 5907SOL    HW118620   1.629   6.490   1.062
 5907SOL    HW218621   1.545   6.564   1.181
 5908SOL     OW18622   0.732   1.869   5.533
 5908SOL    HW118623   0.694   1.960   5.518
 5908SOL    HW218624   0.749   1.825   5.445
 5909SOL     OW18625   1.123   5.961   6.919
 5909SOL    HW118626   1.142   5.917   7.007
 5909SOL    HW218627   1.155   5.903   6.845
 5910SOL     OW18628   0.864   2.780   3.548
 5910SOL    HW118629   0.948   2.736   3.516
 5910SOL    HW218630   0.807   2.804   3.469
 5911SOL     OW18631   6.969   5.692   6.299
 5911SOL    HW118632   7.002   5.786   6.286
 5911SOL    HW218633   6.869   5.692   6.303
 5912SOL     OW18634   6.256   1.598   5.408
 5912SOL    HW118635   6.285   1.546   5.489
 5912SOL    HW218636   6.180   1.659   5.434
 5913SOL     OW18637   5.667   2.748   0.321
 5913SOL    HW118638   5.676   2.814   0.247
 5913SOL    HW218639   5.585   2.768   0.374
 5914SOL     OW18640   0.930   6.845   6.434
 5914SOL    HW118641   0.977   6.771   6.482
 5914SOL    HW218642   0.832   6.829   6.435
 5915SOL     OW18643   3.132   6.573   0.216
 5915SOL    HW118644   3.071   6.513   0.267
 5915SOL    HW218645   3.148   6.536   0.125
 5916SOL     OW18646   0.820   6.491   1.694
 5916SOL    HW118647   0.889   6.419   1.683
 5916SOL    HW218648   0.866   6.580   1.700
 5917SOL     OW18649   3.020   3.584   6.305
 5917SOL    HW118650   3.084   3.655   6.276
 5917SOL    HW218651   2.927   3.611   6.279
 5918SOL     OW18652   2.399   6.010   5.747
 5918SOL    HW118653   2.301   6.001   5.732
 5918SOL    HW218654   2.426   6.106   5.740
 5919SOL     OW18655   2.984   3.428   3.491
 5919SOL    HW118656   3.081   3.450   3.486
 5919SOL    HW218657   2.948   3.414   3.399
 5920SOL     OW18658   5.531   1.151   6.213
 5920SOL    HW118659   5.556   1.055   6.223
 5920SOL    HW218660   5.562   1.184   6.124
 5921SOL     OW18661   3.825   4.659   6.971
 5921SOL    HW118662   3.839   4.565   7.001
 5921SOL    HW218663   3.776   4.710   0.020
 5922SOL     OW18664   6.279   3.897   3.668
 5922SOL    HW118665   6.279   3.956   3.748
 5922SOL    HW218666   6.342   3.933   3.600
 5923SOL     OW18667   6.167   1.001   1.289
 5923SOL    HW118668   6.154   0.969   1.382
 5923SOL    HW218669   6.262   0.988   1.262
 5924SOL     OW18670   5.278   6.809   2.905
 5924SOL    HW118671   5.278   6.769   2.996
 5924SOL    HW218672   5.371   6.808   2.869
 5925SOL     OW18673   4.070   5.947   1.567
 5925SOL    HW118674   4.103   5.931   1.474
 5925SOL    HW218675   4.070   6.046   1.586
 5926SOL     OW18676   4.189   4.688   3.386
 5926SOL    HW118677   4.219   4.661   3.294
 5926SOL    HW218678   4.169   4.786   3.386
 5927SOL     OW18679   1.781   4.066   2.074
 5927SOL    HW118680   1.734   4.091   1.989
 5927SOL    HW218681   1.825   3.978   2.062
 5928SOL     OW18682   4.275   0.157   1.243
 5928SOL    HW118683   4.199   0.217   1.220
 5928SOL    HW218684   4.250   0.097   1.319
 5929SOL     OW18685   6.652   0.489   5.504
 5929SOL    HW118686   6.580   0.557   5.493
 5929SOL    HW218687   6.648   0.423   5.430
 5930SOL     OW18688   1.274   3.044   1.049
 5930SOL    HW118689   1.303   2.959   1.006
 5930SOL    HW218690   1.291   3.040   1.147
 5931SOL     OW18691   5.986   6.254   2.875
 5931SOL    HW118692   5.915   6.288   2.813
 5931SOL    HW218693   5.943   6.217   2.957
 5932SOL     OW18694   3.295   0.100   6.466
 5932SOL    HW118695   3.334   0.139   6.549
 5932SOL    HW218696   3.197   0.084   6.478
 5933SOL     OW18697   6.988   5.642   4.253
 5933SOL    HW118698   0.051   5.626   4.303
 5933SOL    HW218699   6.969   5.565   4.193
 5934SOL     OW18700   3.549   3.803   5.702
 5934SOL    HW118701   3.638   3.831   5.738
 5934SOL    HW218702   3.563   3.748   5.619
 5935SOL     OW18703   0.480   5.968   5.536
 5935SOL    HW118704   0.402   5.939   5.592
 5935SOL    HW218705   0.524   5.888   5.496
 5936SOL     OW18706   2.958   3.169   2.432
 5936SOL    HW118707   2.992   3.120   2.352
 5936SOL    HW218708   2.911   3.252   2.403
 5937SOL     OW18709   6.955   2.396   2.251
 5937SOL    HW118710   7.013   2.409   2.331
 5937SOL    HW218711   6.892   2.473   2.243
 5938SOL     OW18712   6.035   5.435   5.006
 5938SOL    HW118713   6.062   5.346   5.044
 5938SOL    HW218714   5.944   5.426   4.964
 5939SOL     OW18715   3.498   6.229   4.075
 5939SOL    HW118716   3.509   6.149   4.017
 5939SOL    HW218717   3.586   6.277   4.083
 5940SOL     OW18718   4.673   5.286   3.154
 5940SOL    HW118719   4.723   5.329   3.079
 5940SOL    HW218720   4.712   5.195   3.171
 5941SOL     OW18721   6.094   2.455   2.557
 5941SOL    HW118722   6.165   2.453   2.487
 5941SOL    HW218723   6.051   2.365   2.565
 5942SOL     OW18724   5.896   3.053   5.648
 5942SOL    HW118725   5.878   3.134   5.703
 5942SOL    HW218726   5.885   3.074   5.551
 5943SOL     OW18727   4.488   3.787   0.566
 5943SOL    HW118728   4.536   3.701   0.584
 5943SOL    HW218729   4.540   3.841   0.501
 5944SOL     OW18730   0.857   2.599   0.243
 5944SOL    HW118731   0.791   2.675   0.235
 5944SOL    HW218732   0.824   2.533   0.311
 5945SOL     OW18733   0.677   6.334   4.972
 5945SOL    HW118734   0.692   6.350   5.069
 5945SOL    HW218735   0.762   6.350   4.921
 5946SOL     OW18736   3.245   4.893   6.911
 5946SOL    HW118737   3.170   4.847   6.863
 5946SOL    HW218738   3.255   4.986   6.875
 5947SOL     OW18739   3.169   3.084   4.454
 5947SOL    HW118740   3.266   3.077   4.479
 5947SOL    HW218741   3.115   3.110   4.534
 5948SOL     OW18742   4.752   4.275   2.159
 5948SOL    HW118743   4.796   4.187   2.140
 5948SOL    HW218744   4.672   4.286   2.100
 5949SOL     OW18745   5.685   5.467   1.450
 5949SOL    HW118746   5.697   5.368   1.447
 5949SOL    HW218747   5.740   5.506   1.524
 5950SOL     OW18748   5.308   2.562   5.413
 5950SOL    HW118749   5.390   2.569   5.357
 5950SOL    HW218750   5.231   2.604   5.366
 5951SOL     OW18751   0.733   5.413   5.168
 5951SOL    HW118752   0.698   5.321   5.149
 5951SOL    HW218753   0.798   5.409   5.243
 5952SOL     OW18754   3.946   5.169   2.390
 5952SOL    HW118755   3.940   5.093   2.326
 5952SOL    HW218756   4.031   5.161   2.443
 5953SOL     OW18757   6.250   3.082   4.704
 5953SOL    HW118758   6.331   3.138   4.724
 5953SOL    HW218759   6.168   3.128   4.740
 5954SOL     OW18760   0.162   5.269   5.740
 5954SOL    HW118761   0.192   5.215   5.662
 5954SOL    HW218762   0.093   5.336   5.711
 5955SOL     OW18763   4.727   5.129   1.464
 5955SOL    HW118764   4.659   5.095   1.399
 5955SOL    HW218765   4.814   5.081   1.448
 5956SOL     OW18766   5.205   2.460   4.542
 5956SOL    HW118767   5.199   2.420   4.451
 5956SOL    HW218768   5.160   2.550   4.542
 5957SOL     OW18769   1.460   1.181   3.102
 5957SOL    HW118770   1.446   1.134   3.015
 5957SOL    HW218771   1.473   1.113   3.174
 5958SOL     OW18772   3.889   0.263   3.103
 5958SOL    HW118773   3.974   0.214   3.087
 5958SOL    HW218774   3.909   0.357   3.132
 5959SOL     OW18775   4.734   2.477   5.639
 5959SOL    HW118776   4.723   2.537   5.718
 5959SOL    HW218777   4.759   2.385   5.670
 5960SOL     OW18778   3.046   6.384   4.749
 5960SOL    HW118779   3.040   6.348   4.656
 5960SOL    HW218780   3.033   6.310   4.815
 5961SOL     OW18781   3.951   1.901   2.322
 5961SOL    HW118782   3.940   1.985   2.268
 5961SOL    HW218783   4.036   1.856   2.296
 5962SOL     OW18784   5.089   6.105   6.031
 5962SOL    HW118785   5.057   6.170   5.961
 5962SOL    HW218786   5.185   6.123   6.052
 5963SOL     OW18787   3.112   4.559   6.761
 5963SOL    HW118788   3.034   4.503   6.790
 5963SOL    HW218789   3.196   4.504   6.766
 5964SOL     OW18790   2.657   6.870   2.917
 5964SOL    HW118791   2.607   6.820   2.988
 5964SOL    HW218792   2.676   6.963   2.948
 5965SOL     OW18793   2.124   0.303   6.692
 5965SOL    HW118794   2.221   0.284   6.712
 5965SOL    HW218795   2.115   0.394   6.652
 5966SOL     OW18796   1.746   6.982   5.391
 5966SOL    HW118797   1.745   0.052   5.351
 5966SOL    HW218798   1.719   6.988   5.487
 5967SOL     OW18799   2.811   2.073   5.233
 5967SOL    HW118800   2.854   1.983   5.240
 5967SOL    HW218801   2.877   2.143   5.260
 5968SOL     OW18802   5.468   2.322   0.240
 5968SOL    HW118803   5.393   2.259   0.258
 5968SOL    HW218804   5.532   2.321   0.317
 5969SOL     OW18805   4.748   0.295   6.486
 5969SOL    HW118806   4.798   0.380   6.468
 5969SOL    HW218807   4.709   0.298   6.578
 5970SOL     OW18808   0.280   4.368   0.863
 5970SOL    HW118809   0.316   4.329   0.778
 5970SOL    HW218810   0.356   4.405   0.917
 5971SOL     OW18811   5.861   0.538   2.243
 5971SOL    HW118812   5.821   0.624   2.276
 5971SOL    HW218813   5.792   0.488   2.190
 5972SOL     OW18814   5.553   5.273   6.763
 5972SOL    HW118815   5.625   5.308   6.702
 5972SOL    HW218816   5.559   5.174   6.768
 5973SOL     OW18817   2.077   3.466   2.445
 5973SOL    HW118818   2.116   3.549   2.406
 5973SOL    HW218819   1.979   3.464   2.428
 5974SOL     OW18820   4.449   0.926   0.224
 5974SOL    HW118821   4.488   0.872   0.299
 5974SOL    HW218822   4.371   0.876   0.185
 5975SOL     OW18823   5.013   5.174   1.107
 5975SOL    HW118824   5.064   5.113   1.048
 5975SOL    HW218825   5.074   5.214   1.175
 5976SOL     OW18826   3.443   3.489   5.784
 5976SOL    HW118827   3.508   3.438   5.726
 5976SOL    HW218828   3.472   3.584   5.790
 5977SOL     OW18829   0.940   5.340   0.072
 5977SOL    HW118830   0.998   5.306   0.146
 5977SOL    HW218831   0.846   5.348   0.105
 5978SOL     OW18832   3.628   4.965   0.606
 5978SOL    HW118833   3.619   5.018   0.522
 5978SOL    HW218834   3.569   5.004   0.676
 5979SOL     OW18835   6.356   0.648   2.429
 5979SOL    HW118836   6.334   0.577   2.496
 5979SOL    HW218837   6.391   0.605   2.346
 5980SOL     OW18838   3.394   2.912   2.188
 5980SOL    HW118839   3.480   2.956   2.159
 5980SOL    HW218840   3.344   2.880   2.108
 5981SOL     OW18841   4.731   2.015   0.424
 5981SOL    HW118842   4.760   2.075   0.350
 5981SOL    HW218843   4.787   1.932   0.423
 5982SOL     OW18844   5.736   2.173   2.303
 5982SOL    HW118845   5.637   2.171   2.308
 5982SOL    HW218846   5.764   2.182   2.207
 5983SOL     OW18847   1.219   0.889   4.028
 5983SOL    HW118848   1.200   0.806   4.080
 5983SOL    HW218849   1.182   0.879   3.935
 5984SOL     OW18850   5.769   6.699   3.612
 5984SOL    HW118851   5.823   6.716   3.695
 5984SOL    HW218852   5.770   6.602   3.591
 5985SOL     OW18853   6.297   2.400   3.866
 5985SOL    HW118854   6.251   2.336   3.928
 5985SOL    HW218855   6.396   2.391   3.877
 5986SOL     OW18856   4.316   4.044   5.719
 5986SOL    HW118857   4.411   4.014   5.713
 5986SOL    HW218858   4.302   4.123   5.659
 5987SOL     OW18859   6.497   0.858   4.368
 5987SOL    HW118860   6.451   0.861   4.279
 5987SOL    HW218861   6.431   0.876   4.441
 5988SOL     OW18862   3.367   1.122   6.608
 5988SOL    HW118863   3.411   1.033   6.618
 5988SOL    HW218864   3.427   1.193   6.644
 5989SOL     OW18865   1.775   5.346   6.281
 5989SOL    HW118866   1.752   5.263   6.333
 5989SOL    HW218867   1.702   5.413   6.291
 5990SOL     OW18868   4.183   3.895   1.215
 5990SOL    HW118869   4.201   3.839   1.134
 5990SOL    HW218870   4.127   3.974   1.190
 5991SOL     OW18871   4.314   5.674   0.070
 5991SOL    HW118872   4.220   5.679   0.105
 5991SOL    HW218873   4.329   5.583   0.031
 5992SOL     OW18874   2.947   0.233   2.757
 5992SOL    HW118875   2.940   0.223   2.658
 5992SOL    HW218876   3.020   0.174   2.792
 5993SOL     OW18877   6.076   3.690   6.592
 5993SOL    HW118878   6.110   3.747   6.517
 5993SOL    HW218879   6.034   3.749   6.662
 5994SOL     OW18880   0.028   3.029   0.688
 5994SOL    HW118881   0.019   2.975   0.772
 5994SOL    HW218882   6.996   3.113   0.698
 5995SOL     OW18883   4.504   3.088   1.622
 5995SOL    HW118884   4.544   3.078   1.713
 5995SOL    HW218885   4.577   3.104   1.555
 5996SOL     OW18886   2.159   5.974   1.324
 5996SOL    HW118887   2.134   5.899   1.263
 5996SOL    HW218888   2.256   5.996   1.312
 5997SOL     OW18889   0.225   6.680   3.466
 5997SOL    HW118890   0.283   6.684   3.384
 5997SOL    HW218891   0.210   6.584   3.491
 5998SOL     OW18892   5.682   0.532   1.630
 5998SOL    HW118893   5.648   0.580   1.549
 5998SOL    HW218894   5.692   0.597   1.705
 5999SOL     OW18895   3.949   3.001   1.131
 5999SOL    HW118896   3.958   2.966   1.038
 5999SOL    HW218897   4.040   3.014   1.171
 6000SOL     OW18898   0.299   5.901   0.086
 6000SOL    HW118899   0.275   5.868   7.017
 6000SOL    HW218900   0.295   5.824   0.151
 6001SOL     OW18901   5.561   6.182   6.360
 6001SOL    HW118902   5.648   6.145   6.393
 6001SOL    HW218903   5.579   6.257   6.296
 6002SOL     OW18904   6.952   6.810   5.086
 6002SOL    HW118905   6.875   6.749   5.063
 6002SOL    HW218906   6.977   6.862   5.004
 6003SOL     OW18907   6.794   2.360   4.779
 6003SOL    HW118908   6.856   2.296   4.824
 6003SOL    HW218909   6.759   2.319   4.694
 6004SOL     OW18910   5.788   2.496   3.503
 6004SOL    HW118911   5.806   2.542   3.416
 6004SOL    HW218912   5.696   2.456   3.501
 6005SOL     OW18913   5.605   4.712   5.203
 6005SOL    HW118914   5.526   4.726   5.263
 6005SOL    HW218915   5.603   4.778   5.129
 6006SOL     OW18916   3.447   0.025   5.224
 6006SOL    HW118917   3.395   0.108   5.207
 6006SOL    HW218918   3.409   6.972   5.169
 6007SOL     OW18919   0.015   3.585   0.115
 6007SOL    HW118920   6.992   3.674   0.099
 6007SOL    HW218921   0.112   3.600   0.132
 6008SOL     OW18922   2.205   4.397   5.275
 6008SOL    HW118923   2.206   4.477   5.334
 6008SOL    HW218924   2.298   4.366   5.258
 6009SOL     OW18925   4.856   5.764   3.174
 6009SOL    HW118926   4.806   5.837   3.126
 6009SOL    HW218927   4.792   5.710   3.227
 6010SOL     OW18928   0.245   3.972   4.380
 6010SOL    HW118929   0.302   3.988   4.461
 6010SOL    HW218930   0.195   3.887   4.391
 6011SOL     OW18931   4.497   2.354   2.699
 6011SOL    HW118932   4.544   2.322   2.617
 6011SOL    HW218933   4.403   2.319   2.698
 6012SOL     OW18934   5.952   0.814   6.688
 6012SOL    HW118935   5.856   0.842   6.689
 6012SOL    HW218936   5.958   0.714   6.679
 6013SOL     OW18937   4.952   1.154   2.539
 6013SOL    HW118938   5.039   1.189   2.576
 6013SOL    HW218939   4.907   1.097   2.607
 6014SOL     OW18940   3.384   3.209   3.966
 6014SOL    HW118941   3.402   3.266   3.885
 6014SOL    HW218942   3.287   3.218   3.991
 6015SOL     OW18943   5.837   3.160   4.365
 6015SOL    HW118944   5.908   3.091   4.380
 6015SOL    HW218945   5.846   3.198   4.273
 6016SOL     OW18946   5.019   2.047   5.555
 6016SOL    HW118947   5.076   2.079   5.479
 6016SOL    HW218948   4.986   2.125   5.607
 6017SOL     OW18949   0.124   4.123   4.646
 6017SOL    HW118950   0.139   4.027   4.670
 6017SOL    HW218951   0.040   4.131   4.594
 6018SOL     OW18952   3.386   1.124   4.577
 6018SOL    HW118953   3.384   1.221   4.552
 6018SOL    HW218954   3.481   1.092   4.576
 6019SOL     OW18955   0.835   3.668   6.008
 6019SOL    HW118956   0.747   3.633   6.041
 6019SOL    HW218957   0.901   3.593   6.001
 6020SOL     OW18958   1.091   4.741   1.025
 6020SOL    HW118959   1.098   4.702   0.933
 6020SOL    HW218960   1.027   4.818   1.024
 6021SOL     OW18961   4.602   0.277   2.885
 6021SOL    HW118962   4.616   0.326   2.800
 6021SOL    HW218963   4.690   0.252   2.925
 6022SOL     OW18964   6.479   2.077   3.347
 6022SOL    HW118965   6.379   2.068   3.341
 6022SOL    HW218966   6.521   1.986   3.341
 6023SOL     OW18967   5.182   0.197   1.498
 6023SOL    HW118968   5.186   0.231   1.404
 6023SOL    HW218969   5.233   0.111   1.505
 6024SOL     OW18970   0.481   4.715   0.854
 6024SOL    HW118971   0.471   4.642   0.786
 6024SOL    HW218972   0.401   4.775   0.850
 6025SOL     OW18973   2.659   1.382   3.709
 6025SOL    HW118974   2.630   1.474   3.738
 6025SOL    HW218975   2.653   1.376   3.610
 6026SOL     OW18976   6.147   4.690   4.529
 6026SOL    HW118977   6.131   4.771   4.584
 6026SOL    HW218978   6.063   4.665   4.480
 6027SOL     OW18979   6.266   3.290   6.140
 6027SOL    HW118980   6.352   3.262   6.184
 6027SOL    HW218981   6.189   3.257   6.195
 6028SOL     OW18982   5.356   5.147   1.465
 6028SOL    HW118983   5.430   5.097   1.420
 6028SOL    HW218984   5.369   5.245   1.452
 6029SOL     OW18985   2.228   6.783   3.458
 6029SOL    HW118986   2.312   6.799   3.406
 6029SOL    HW218987   2.173   6.713   3.411
 6030SOL     OW18988   4.846   3.763   4.750
 6030SOL    HW118989   4.797   3.846   4.775
 6030SOL    HW218990   4.842   3.697   4.825
 6031SOL     OW18991   1.312   5.978   3.898
 6031SOL    HW118992   1.285   5.911   3.829
 6031SOL    HW218993   1.238   6.045   3.910
 6032SOL     OW18994   2.938   5.951   3.711
 6032SOL    HW118995   2.988   6.028   3.751
 6032SOL    HW218996   2.961   5.944   3.614
 6033SOL     OW18997   2.375   2.620   2.551
 6033SOL    HW118998   2.448   2.587   2.491
 6033SOL    HW218999   2.399   2.601   2.646
 6034SOL     OW19000   0.869   0.327   6.472
 6034SOL    HW119001   0.885   0.378   6.557
 6034SOL    HW219002   0.928   0.246   6.470
 6035SOL     OW19003   0.752   1.046   2.608
 6035SOL    HW119004   0.764   1.032   2.510
 6035SOL    HW219005   0.757   1.144   2.628
 6036SOL     OW19006   6.320   4.747   1.865
 6036SOL    HW119007   6.379   4.733   1.785
 6036SOL    HW219008   6.225   4.729   1.838
 6037SOL     OW19009   3.863   0.554   0.847
 6037SOL    HW119010   3.813   0.475   0.883
 6037SOL    HW219011   3.953   0.559   0.892
 6038SOL     OW19012   0.289   2.409   6.362
 6038SOL    HW119013   0.231   2.329   6.369
 6038SOL    HW219014   0.245   2.479   6.305
 6039SOL     OW19015   3.960   3.644   3.924
 6039SOL    HW119016   3.884   3.581   3.938
 6039SOL    HW219017   4.024   3.605   3.857
 6040SOL     OW19018   1.718   1.367   0.351
 6040SOL    HW119019   1.682   1.369   0.445
 6040SOL    HW219020   1.767   1.281   0.336
 6041SOL     OW19021   3.175   2.941   5.404
 6041SOL    HW119022   3.092   2.961   5.456
 6041SOL    HW219023   3.201   3.021   5.351
 6042SOL     OW19024   4.089   6.159   3.113
 6042SOL    HW119025   4.092   6.256   3.137
 6042SOL    HW219026   4.023   6.145   3.040
 6043SOL     OW19027   1.201   0.681   4.253
 6043SOL    HW119028   1.249   0.734   4.322
 6043SOL    HW219029   1.132   0.624   4.296
 6044SOL     OW19030   2.075   1.736   1.725
 6044SOL    HW119031   2.174   1.723   1.712
 6044SOL    HW219032   2.059   1.814   1.786
 6045SOL     OW19033   4.914   3.079   3.935
 6045SOL    HW119034   4.955   2.988   3.933
 6045SOL    HW219035   4.836   3.082   3.873
 6046SOL     OW19036   3.336   3.082   1.271
 6046SOL    HW119037   3.343   3.019   1.349
 6046SOL    HW219038   3.391   3.163   1.289
 6047SOL     OW19039   5.385   2.387   1.147
 6047SOL    HW119040   5.436   2.411   1.229
 6047SOL    HW219041   5.312   2.453   1.132
 6048SOL     OW19042   5.512   5.301   5.154
 6048SOL    HW119043   5.465   5.333   5.236
 6048SOL    HW219044   5.454   5.236   5.105
 6049SOL     OW19045   5.501   4.529   6.119
 6049SOL    HW119046   5.574   4.558   6.181
 6049SOL    HW219047   5.542   4.485   6.039
 6050SOL     OW19048   2.973   5.039   0.962
 6050SOL    HW119049   3.065   5.002   0.964
 6050SOL    HW219050   2.975   5.132   0.925
 6051SOL     OW19051   0.731   0.645   2.583
 6051SOL    HW119052   0.695   0.678   2.670
 6051SOL    HW219053   0.831   0.642   2.588
 6052SOL     OW19054   5.535   0.614   1.432
 6052SOL    HW119055   5.435   0.610   1.426
 6052SOL    HW219056   5.575   0.553   1.363
 6053SOL     OW19057   4.185   0.566   5.989
 6053SOL    HW119058   4.190   0.589   6.086
 6053SOL    HW219059   4.205   0.647   5.934
 6054SOL     OW19060   3.481   5.040   0.828
 6054SOL    HW119061   3.497   5.119   0.888
 6054SOL    HW219062   3.534   4.962   0.862
 6055SOL     OW19063   3.523   5.203   6.473
 6055SOL    HW119064   3.443   5.236   6.422
 6055SOL    HW219065   3.562   5.123   6.426
 6056SOL     OW19066   5.987   2.986   4.925
 6056SOL    HW119067   5.942   3.031   4.848
 6056SOL    HW219068   5.946   2.896   4.941
 6057SOL     OW19069   5.733   0.647   2.507
 6057SOL    HW119070   5.678   0.702   2.569
 6057SOL    HW219071   5.698   0.553   2.506
 6058SOL     OW19072   6.095   3.285   0.415
 6058SOL    HW119073   6.021   3.339   0.455
 6058SOL    HW219074   6.159   3.258   0.488
 6059SOL     OW19075   5.174   4.002   5.488
 6059SOL    HW119076   5.263   4.007   5.534
 6059SOL    HW219077   5.133   4.093   5.486
 6060SOL     OW19078   3.402   3.227   0.512
 6060SOL    HW119079   3.454   3.188   0.436
 6060SOL    HW219080   3.439   3.192   0.598
 6061SOL     OW19081   4.706   4.678   0.751
 6061SOL    HW119082   4.719   4.604   0.817
 6061SOL    HW219083   4.619   4.666   0.704
 6062SOL     OW19084   2.635   1.979   6.751
 6062SOL    HW119085   2.633   1.969   6.851
 6062SOL    HW219086   2.550   1.943   6.712
 6063SOL     OW19087   3.632   4.220   5.297
 6063SOL    HW119088   3.592   4.166   5.371
 6063SOL    HW219089   3.566   4.288   5.266
 6064SOL     OW19090   0.674   0.321   0.787
 6064SOL    HW119091   0.771   0.329   0.766
 6064SOL    HW219092   0.623   0.395   0.743
 6065SOL     OW19093   0.993   5.362   1.376
 6065SOL    HW119094   0.997   5.410   1.289
 6065SOL    HW219095   0.898   5.359   1.408
 6066SOL     OW19096   4.970   1.206   3.785
 6066SOL    HW119097   4.991   1.170   3.875
 6066SOL    HW219098   5.038   1.275   3.759
 6067SOL     OW19099   5.097   0.593   5.983
 6067SOL    HW119100   5.183   0.543   5.975
 6067SOL    HW219101   5.072   0.629   5.893
 6068SOL     OW19102   5.187   2.562   5.055
 6068SOL    HW119103   5.149   2.474   5.083
 6068SOL    HW219104   5.287   2.558   5.058
 6069SOL     OW19105   6.625   2.928   6.242
 6069SOL    HW119106   6.559   2.902   6.171
 6069SOL    HW219107   6.624   3.027   6.253
 6070SOL     OW19108   3.583   2.207   1.640
 6070SOL    HW119109   3.624   2.269   1.707
 6070SOL    HW219110   3.568   2.256   1.554
 6071SOL     OW19111   0.197   5.889   4.471
 6071SOL    HW119112   0.139   5.885   4.390
 6071SOL    HW219113   0.283   5.936   4.447
 6072SOL     OW19114   6.652   1.904   1.323
 6072SOL    HW119115   6.597   1.975   1.278
 6072SOL    HW219116   6.693   1.941   1.406
 6073SOL     OW19117   5.130   3.053   0.830
 6073SOL    HW119118   5.109   2.976   0.890
 6073SOL    HW219119   5.144   3.135   0.886
 6074SOL     OW19120   1.919   0.065   2.192
 6074SOL    HW119121   1.861   0.143   2.169
 6074SOL    HW219122   1.897   0.032   2.284
 6075SOL     OW19123   4.533   6.857   5.703
 6075SOL    HW119124   4.537   6.915   5.785
 6075SOL    HW219125   4.611   6.877   5.645
 6076SOL     OW19126   2.827   4.929   3.594
 6076SOL    HW119127   2.757   4.863   3.568
 6076SOL    HW219128   2.902   4.883   3.641
 6077SOL     OW19129   5.118   6.431   0.786
 6077SOL    HW119130   5.060   6.479   0.851
 6077SOL    HW219131   5.211   6.467   0.791
 6078SOL     OW19132   4.430   4.513   0.854
 6078SOL    HW119133   4.366   4.585   0.881
 6078SOL    HW219134   4.422   4.436   0.917
 6079SOL     OW19135   4.915   4.817   6.639
 6079SOL    HW119136   4.952   4.908   6.622
 6079SOL    HW219137   4.989   4.752   6.651
 6080SOL     OW19138   0.340   5.233   1.601
 6080SOL    HW119139   0.370   5.231   1.505
 6080SOL    HW219140   0.248   5.194   1.607
 6081SOL     OW19141   6.957   3.249   5.929
 6081SOL    HW119142   7.017   3.297   5.993
 6081SOL    HW219143   6.927   3.311   5.857
 6082SOL     OW19144   3.369   6.577   2.124
 6082SOL    HW119145   3.288   6.553   2.070
 6082SOL    HW219146   3.368   6.526   2.210
 6083SOL     OW19147   5.527   5.982   0.394
 6083SOL    HW119148   5.613   5.949   0.356
 6083SOL    HW219149   5.451   5.936   0.349
 6084SOL     OW19150   0.880   6.464   2.202
 6084SOL    HW119151   0.862   6.368   2.223
 6084SOL    HW219152   0.837   6.487   2.115
 6085SOL     OW19153   5.902   6.082   6.018
 6085SOL    HW119154   5.809   6.112   6.000
 6085SOL    HW219155   5.956   6.158   6.053
 6086SOL     OW19156   3.803   2.934   6.023
 6086SOL    HW119157   3.834   2.840   6.035
 6086SOL    HW219158   3.864   2.981   5.959
 6087SOL     OW19159   5.116   6.315   1.156
 6087SOL    HW119160   5.080   6.227   1.123
 6087SOL    HW219161   5.202   6.299   1.203
 6088SOL     OW19162   5.964   6.280   5.123
 6088SOL    HW119163   5.908   6.272   5.205
 6088SOL    HW219164   6.045   6.222   5.133
 6089SOL     OW19165   6.679   2.616   2.673
 6089SOL    HW119166   6.731   2.675   2.611
 6089SOL    HW219167   6.581   2.630   2.658
 6090SOL     OW19168   2.829   5.154   4.488
 6090SOL    HW119169   2.757   5.102   4.442
 6090SOL    HW219170   2.913   5.151   4.433
 6091SOL     OW19171   2.955   1.689   0.896
 6091SOL    HW119172   2.881   1.624   0.908
 6091SOL    HW219173   2.921   1.782   0.911
 6092SOL     OW19174   4.387   1.017   1.882
 6092SOL    HW119175   4.425   1.091   1.826
 6092SOL    HW219176   4.404   0.929   1.837
 6093SOL     OW19177   2.635   2.066   2.414
 6093SOL    HW119178   2.583   2.097   2.493
 6093SOL    HW219179   2.574   2.060   2.334
 6094SOL     OW19180   1.280   6.355   3.119
 6094SOL    HW119181   1.347   6.427   3.102
 6094SOL    HW219182   1.272   6.339   3.217
 6095SOL     OW19183   4.973   5.078   6.670
 6095SOL    HW119184   5.000   5.143   6.599
 6095SOL    HW219185   4.884   5.104   6.708
 6096SOL     OW19186   5.365   6.558   1.693
 6096SOL    HW119187   5.348   6.505   1.776
 6096SOL    HW219188   5.453   6.531   1.653
 6097SOL     OW19189   1.398   5.459   1.900
 6097SOL    HW119190   1.376   5.539   1.845
 6097SOL    HW219191   1.475   5.479   1.960
 6098SOL     OW19192   6.003   0.580   5.931
 6098SOL    HW119193   5.944   0.649   5.974
 6098SOL    HW219194   6.058   0.535   6.001
 6099SOL     OW19195   4.584   6.141   5.649
 6099SOL    HW119196   4.522   6.219   5.637
 6099SOL    HW219197   4.616   6.110   5.559
 6100SOL     OW19198   7.020   5.827   1.999
 6100SOL    HW119199   0.036   5.885   2.071
 6100SOL    HW219200   0.064   5.817   1.925
 6101SOL     OW19201   5.845   2.856   2.817
 6101SOL    HW119202   5.791   2.926   2.771
 6101SOL    HW219203   5.860   2.779   2.755
 6102SOL     OW19204   4.021   5.894   2.526
 6102SOL    HW119205   3.958   5.817   2.517
 6102SOL    HW219206   3.982   5.962   2.589
 6103SOL     OW19207   6.435   0.951   1.247
 6103SOL    HW119208   6.496   0.967   1.170
 6103SOL    HW219209   6.484   0.900   1.318
 6104SOL     OW19210   6.030   0.856   5.160
 6104SOL    HW119211   6.033   0.778   5.098
 6104SOL    HW219212   6.048   0.940   5.108
 6105SOL     OW19213   2.000   5.710   5.668
 6105SOL    HW119214   2.083   5.707   5.724
 6105SOL    HW219215   1.986   5.620   5.626
 6106SOL     OW19216   1.346   5.019   0.531
 6106SOL    HW119217   1.361   4.922   0.551
 6106SOL    HW219218   1.345   5.070   0.617
 6107SOL     OW19219   4.641   5.657   4.148
 6107SOL    HW119220   4.692   5.632   4.065
 6107SOL    HW219221   4.584   5.581   4.177
 6108SOL     OW19222   1.235   2.137   3.245
 6108SOL    HW119223   1.298   2.204   3.282
 6108SOL    HW219224   1.204   2.166   3.154
 6109SOL     OW19225   5.236   1.197   4.459
 6109SOL    HW119226   5.287   1.184   4.374
 6109SOL    HW219227   5.257   1.288   4.496
 6110SOL     OW19228   1.769   2.705   6.695
 6110SOL    HW119229   1.777   2.616   6.739
 6110SOL    HW219230   1.850   2.721   6.639
 6111SOL     OW19231   1.451   3.367   1.806
 6111SOL    HW119232   1.530   3.426   1.788
 6111SOL    HW219233   1.426   3.319   1.722
 6112SOL     OW19234   4.273   0.533   2.507
 6112SOL    HW119235   4.268   0.448   2.454
 6112SOL    HW219236   4.360   0.579   2.488
 6113SOL     OW19237   2.648   3.559   6.575
 6113SOL    HW119238   2.725   3.501   6.547
 6113SOL    HW219239   2.681   3.632   6.634
 6114SOL     OW19240   5.159   3.096   2.148
 6114SOL    HW119241   5.107   3.178   2.126
 6114SOL    HW219242   5.172   3.089   2.247
 6115SOL     OW19243   6.739   1.746   5.373
 6115SOL    HW119244   6.671   1.673   5.379
 6115SOL    HW219245   6.694   1.835   5.381
 6116SOL     OW19246   4.182   2.550   5.499
 6116SOL    HW119247   4.163   2.537   5.596
 6116SOL    HW219248   4.100   2.528   5.445
 6117SOL     OW19249   1.008   1.972   3.260
 6117SOL    HW119250   1.084   1.908   3.275
 6117SOL    HW219251   1.027   2.028   3.180
 6118SOL     OW19252   5.400   1.220   1.607
 6118SOL    HW119253   5.377   1.128   1.577
 6118SOL    HW219254   5.499   1.229   1.614
 6119SOL     OW19255   0.654   2.796   0.385
 6119SOL    HW119256   0.663   2.839   0.295
 6119SOL    HW219257   0.729   2.827   0.444
 6120SOL     OW19258   1.614   6.794   5.820
 6120SOL    HW119259   1.696   6.741   5.841
 6120SOL    HW219260   1.548   6.785   5.895
 6121SOL     OW19261   0.755   4.218   5.877
 6121SOL    HW119262   0.847   4.254   5.861
 6121SOL    HW219263   0.761   4.128   5.918
 6122SOL     OW19264   4.936   5.281   6.233
 6122SOL    HW119265   4.925   5.364   6.178
 6122SOL    HW219266   4.847   5.247   6.260
 6123SOL     OW19267   5.607   1.023   5.486
 6123SOL    HW119268   5.626   0.930   5.516
 6123SOL    HW219269   5.530   1.060   5.538
 6124SOL     OW19270   0.952   6.565   5.365
 6124SOL    HW119271   0.933   6.566   5.463
 6124SOL    HW219272   1.045   6.596   5.348
 6125SOL     OW19273   2.471   3.859   6.810
 6125SOL    HW119274   2.408   3.933   6.789
 6125SOL    HW219275   2.451   3.823   6.901
 6126SOL     OW19276   1.056   1.668   5.743
 6126SOL    HW119277   1.020   1.637   5.655
 6126SOL    HW219278   1.104   1.755   5.731
 6127SOL     OW19279   4.344   0.755   1.334
 6127SOL    HW119280   4.381   0.797   1.417
 6127SOL    HW219281   4.253   0.792   1.316
 6128SOL     OW19282   5.662   5.368   0.650
 6128SOL    HW119283   5.722   5.445   0.632
 6128SOL    HW219284   5.567   5.399   0.647
 6129SOL     OW19285   1.304   4.132   3.758
 6129SOL    HW119286   1.401   4.117   3.775
 6129SOL    HW219287   1.265   4.052   3.712
 6130SOL     OW19288   6.196   2.223   3.096
 6130SOL    HW119289   6.225   2.152   3.161
 6130SOL    HW219290   6.275   2.251   3.042
 6131SOL     OW19291   0.873   2.131   2.096
 6131SOL    HW119292   0.926   2.047   2.108
 6131SOL    HW219293   0.855   2.172   2.185
 6132SOL     OW19294   3.465   1.941   6.268
 6132SOL    HW119295   3.495   1.980   6.355
 6132SOL    HW219296   3.371   1.908   6.277
 6133SOL     OW19297   1.419   2.334   3.338
 6133SOL    HW119298   1.353   2.397   3.296
 6133SOL    HW219299   1.419   2.346   3.437
 6134SOL     OW19300   4.380   0.251   6.550
 6134SOL    HW119301   4.391   0.342   6.589
 6134SOL    HW219302   4.294   0.211   6.580
 6135SOL     OW19303   5.885   6.324   0.429
 6135SOL    HW119304   5.802   6.368   0.395
 6135SOL    HW219305   5.868   6.226   0.441
 6136SOL     OW19306   1.417   2.589   1.081
 6136SOL    HW119307   1.377   2.560   0.994
 6136SOL    HW219308   1.346   2.592   1.151
 6137SOL     OW19309   0.817   3.842   2.150
 6137SOL    HW119310   0.872   3.769   2.110
 6137SOL    HW219311   0.797   3.821   2.246
 6138SOL     OW19312   3.767   0.091   2.573
 6138SOL    HW119313   3.680   0.077   2.527
 6138SOL    HW219314   3.776   0.187   2.600
 6139SOL     OW19315   0.531   6.983   5.624
 6139SOL    HW119316   0.484   6.947   5.544
 6139SOL    HW219317   0.582   0.043   5.600
 6140SOL     OW19318   0.513   1.224   3.122
 6140SOL    HW119319   0.480   1.282   3.048
 6140SOL    HW219320   0.435   1.185   3.172
 6141SOL     OW19321   0.995   0.308   5.913
 6141SOL    HW119322   0.967   0.224   5.867
 6141SOL    HW219323   0.965   0.387   5.859
 6142SOL     OW19324   1.198   0.078   6.123
 6142SOL    HW119325   1.256   0.150   6.084
 6142SOL    HW219326   1.108   0.115   6.145
 6143SOL     OW19327   6.872   4.388   1.115
 6143SOL    HW119328   6.911   4.384   1.207
 6143SOL    HW219329   6.935   4.436   1.054
 6144SOL     OW19330   5.202   4.261   3.343
 6144SOL    HW119331   5.169   4.195   3.275
 6144SOL    HW219332   5.294   4.292   3.317
 6145SOL     OW19333   5.690   4.556   4.341
 6145SOL    HW119334   5.641   4.496   4.278
 6145SOL    HW219335   5.634   4.569   4.424
 6146SOL     OW19336   3.541   6.652   4.042
 6146SOL    HW119337   3.622   6.700   4.075
 6146SOL    HW219338   3.554   6.626   3.946
 6147SOL     OW19339   2.182   2.789   4.473
 6147SOL    HW119340   2.082   2.798   4.476
 6147SOL    HW219341   2.219   2.798   4.566
 6148SOL     OW19342   4.005   5.186   6.757
 6148SOL    HW119343   3.950   5.201   6.675
 6148SOL    HW219344   4.058   5.269   6.777
 6149SOL     OW19345   1.532   6.854   1.765
 6149SOL    HW119346   1.518   6.830   1.669
 6149SOL    HW219347   1.476   6.934   1.788
 6150SOL     OW19348   5.751   4.010   6.708
 6150SOL    HW119349   5.663   3.980   6.746
 6150SOL    HW219350   5.752   3.992   6.610
 6151SOL     OW19351   5.013   5.063   4.217
 6151SOL    HW119352   5.024   4.967   4.243
 6151SOL    HW219353   4.948   5.070   4.141
 6152SOL     OW19354   0.827   5.767   4.622
 6152SOL    HW119355   0.744   5.789   4.570
 6152SOL    HW219356   0.869   5.852   4.654
 6153SOL     OW19357   4.789   5.026   1.061
 6153SOL    HW119358   4.859   5.098   1.063
 6153SOL    HW219359   4.746   5.024   0.971
 6154SOL     OW19360   5.317   3.275   2.677
 6154SOL    HW119361   5.337   3.318   2.589
 6154SOL    HW219362   5.395   3.285   2.738
 6155SOL     OW19363   3.057   0.852   2.859
 6155SOL    HW119364   3.015   0.789   2.794
 6155SOL    HW219365   3.099   0.801   2.934
 6156SOL     OW19366   4.912   4.234   1.848
 6156SOL    HW119367   4.822   4.208   1.815
 6156SOL    HW219368   4.906   4.323   1.895
 6157SOL     OW19369   0.804   2.302   3.139
 6157SOL    HW119370   0.761   2.258   3.060
 6157SOL    HW219371   0.776   2.398   3.143
 6158SOL     OW19372   2.873   1.853   0.064
 6158SOL    HW119373   2.864   1.753   0.069
 6158SOL    HW219374   2.940   1.877   7.016
 6159SOL     OW19375   5.418   3.150   0.708
 6159SOL    HW119376   5.424   3.115   0.802
 6159SOL    HW219377   5.332   3.120   0.667
 6160SOL     OW19378   0.095   6.757   6.709
 6160SOL    HW119379   0.181   6.788   6.750
 6160SOL    HW219380   0.093   6.657   6.709
 6161SOL     OW19381   4.927   1.195   0.245
 6161SOL    HW119382   4.850   1.207   0.309
 6161SOL    HW219383   4.952   1.098   0.241
 6162SOL     OW19384   6.004   6.343   3.862
 6162SOL    HW119385   6.086   6.344   3.919
 6162SOL    HW219386   6.022   6.394   3.778
 6163SOL     OW19387   5.460   5.893   2.318
 6163SOL    HW119388   5.519   5.899   2.398
 6163SOL    HW219389   5.436   5.985   2.287
 6164SOL     OW19390   3.623   3.794   4.571
 6164SOL    HW119391   3.577   3.867   4.622
 6164SOL    HW219392   3.695   3.834   4.515
 6165SOL     OW19393   3.881   2.150   5.828
 6165SOL    HW119394   3.856   2.229   5.883
 6165SOL    HW219395   3.835   2.069   5.863
 6166SOL     OW19396   6.310   1.732   0.319
 6166SOL    HW119397   6.320   1.802   0.248
 6166SOL    HW219398   6.215   1.729   0.350
 6167SOL     OW19399   0.898   4.579   3.157
 6167SOL    HW119400   0.870   4.512   3.088
 6167SOL    HW219401   0.916   4.667   3.113
 6168SOL     OW19402   0.490   2.333   3.281
 6168SOL    HW119403   0.548   2.407   3.246
 6168SOL    HW219404   0.519   2.309   3.373
 6169SOL     OW19405   0.611   1.067   6.135
 6169SOL    HW119406   0.604   0.968   6.138
 6169SOL    HW219407   0.708   1.093   6.138
 6170SOL     OW19408   3.312   4.462   6.151
 6170SOL    HW119409   3.246   4.409   6.098
 6170SOL    HW219410   3.371   4.400   6.202
 6171SOL     OW19411   1.394   3.757   1.713
 6171SOL    HW119412   1.410   3.826   1.643
 6171SOL    HW219413   1.311   3.705   1.691
 6172SOL     OW19414   7.009   0.607   2.759
 6172SOL    HW119415   0.067   0.665   2.774
 6172SOL    HW219416   6.930   0.646   2.806
 6173SOL     OW19417   6.832   5.028   2.527
 6173SOL    HW119418   6.867   5.049   2.436
 6173SOL    HW219419   6.897   4.967   2.574
 6174SOL     OW19420   5.824   4.732   3.009
 6174SOL    HW119421   5.798   4.745   3.105
 6174SOL    HW219422   5.917   4.696   3.004
 6175SOL     OW19423   5.566   6.963   3.378
 6175SOL    HW119424   5.590   0.037   3.390
 6175SOL    HW219425   5.646   6.912   3.345
 6176SOL     OW19426   6.269   2.889   6.871
 6176SOL    HW119427   6.337   2.851   6.933
 6176SOL    HW219428   6.266   2.835   6.787
 6177SOL     OW19429   5.399   1.902   1.331
 6177SOL    HW119430   5.314   1.869   1.374
 6177SOL    HW219431   5.382   1.993   1.292
 6178SOL     OW19432   4.951   5.688   1.311
 6178SOL    HW119433   4.897   5.605   1.327
 6178SOL    HW219434   4.943   5.748   1.391
 6179SOL     OW19435   6.900   4.151   4.473
 6179SOL    HW119436   6.806   4.119   4.477
 6179SOL    HW219437   6.901   4.246   4.440
 6180SOL     OW19438   3.078   6.845   6.267
 6180SOL    HW119439   3.134   6.780   6.318
 6180SOL    HW219440   3.115   6.857   6.175
 6181SOL     OW19441   5.327   6.618   0.387
 6181SOL    HW119442   5.268   6.698   0.395
 6181SOL    HW219443   5.359   6.610   0.293
 6182SOL     OW19444   5.459   4.572   5.573
 6182SOL    HW119445   5.437   4.607   5.482
 6182SOL    HW219446   5.519   4.636   5.621
 6183SOL     OW19447   2.564   0.294   2.913
 6183SOL    HW119448   2.623   0.374   2.902
 6183SOL    HW219449   2.621   0.212   2.924
 6184SOL     OW19450   1.826   6.622   5.880
 6184SOL    HW119451   1.901   6.684   5.905
 6184SOL    HW219452   1.851   6.574   5.796
 6185SOL     OW19453   1.763   4.404   6.957
 6185SOL    HW119454   1.724   4.312   6.949
 6185SOL    HW219455   1.742   4.442   0.025
 6186SOL     OW19456   5.953   6.721   3.823
 6186SOL    HW119457   5.980   6.815   3.801
 6186SOL    HW219458   5.998   6.693   3.908
 6187SOL     OW19459   4.645   4.461   4.297
 6187SOL    HW119460   4.730   4.473   4.349
 6187SOL    HW219461   4.660   4.396   4.223
 6188SOL     OW19462   2.448   5.870   1.318
 6188SOL    HW119463   2.483   5.948   1.370
 6188SOL    HW219464   2.521   5.831   1.262
 6189SOL     OW19465   4.437   4.500   3.777
 6189SOL    HW119466   4.535   4.485   3.767
 6189SOL    HW219467   4.417   4.520   3.873
 6190SOL     OW19468   6.125   3.795   5.975
 6190SOL    HW119469   6.183   3.737   6.033
 6190SOL    HW219470   6.121   3.756   5.883
 6191SOL     OW19471   4.502   2.403   0.497
 6191SOL    HW119472   4.504   2.348   0.581
 6191SOL    HW219473   4.490   2.343   0.418
 6192SOL     OW19474   3.873   3.621   0.471
 6192SOL    HW119475   3.902   3.612   0.566
 6192SOL    HW219476   3.809   3.548   0.449
 6193SOL     OW19477   4.131   0.926   2.432
 6193SOL    HW119478   4.096   0.840   2.469
 6193SOL    HW219479   4.072   1.002   2.460
 6194SOL     OW19480   1.814   6.565   0.118
 6194SOL    HW119481   1.811   6.594   0.022
 6194SOL    HW219482   1.886   6.497   0.129
 6195SOL     OW19483   3.567   5.337   5.431
 6195SOL    HW119484   3.509   5.259   5.455
 6195SOL    HW219485   3.662   5.315   5.455
 6196SOL     OW19486   6.219   2.145   0.821
 6196SOL    HW119487   6.235   2.244   0.826
 6196SOL    HW219488   6.273   2.106   0.747
 6197SOL     OW19489   4.666   3.568   0.649
 6197SOL    HW119490   4.648   3.524   0.561
 6197SOL    HW219491   4.694   3.500   0.716
 6198SOL     OW19492   3.304   5.523   2.530
 6198SOL    HW119493   3.295   5.539   2.628
 6198SOL    HW219494   3.214   5.501   2.491
 6199SOL     OW19495   0.168   0.123   1.201
 6199SOL    HW119496   0.176   0.180   1.283
 6199SOL    HW219497   0.215   0.036   1.216
 6200SOL     OW19498   2.267   1.088   5.544
 6200SOL    HW119499   2.282   1.186   5.534
 6200SOL    HW219500   2.229   1.069   5.635
 6201SOL     OW19501   2.112   3.565   5.715
 6201SOL    HW119502   2.193   3.508   5.705
 6201SOL    HW219503   2.112   3.635   5.644
 6202SOL     OW19504   3.901   1.897   1.494
 6202SOL    HW119505   3.911   1.814   1.549
 6202SOL    HW219506   3.805   1.923   1.487
 6203SOL     OW19507   5.207   0.214   3.754
 6203SOL    HW119508   5.188   0.121   3.785
 6203SOL    HW219509   5.120   0.262   3.739
 6204SOL     OW19510   0.566   4.895   4.888
 6204SOL    HW119511   0.552   4.986   4.847
 6204SOL    HW219512   0.546   4.825   4.820
 6205SOL     OW19513   5.674   6.781   6.616
 6205SOL    HW119514   5.633   6.712   6.556
 6205SOL    HW219515   5.701   6.738   6.703
 6206SOL     OW19516   6.380   0.174   2.833
 6206SOL    HW119517   6.313   0.186   2.759
 6206SOL    HW219518   6.351   0.099   2.892
 6207SOL     OW19519   1.359   3.948   4.912
 6207SOL    HW119520   1.447   3.908   4.937
 6207SOL    HW219521   1.318   3.991   4.993
 6208SOL     OW19522   6.037   0.264   6.479
 6208SOL    HW119523   5.997   0.289   6.391
 6208SOL    HW219524   6.116   0.322   6.498
 6209SOL     OW19525   4.784   5.652   6.657
 6209SOL    HW119526   4.755   5.571   6.607
 6209SOL    HW219527   4.795   5.629   6.754
 6210SOL     OW19528   5.787   4.542   3.450
 6210SOL    HW119529   5.839   4.505   3.373
 6210SOL    HW219530   5.740   4.625   3.421
 6211SOL     OW19531   3.329   6.402   4.736
 6211SOL    HW119532   3.233   6.389   4.710
 6211SOL    HW219533   3.383   6.423   4.655
 6212SOL     OW19534   1.101   5.199   3.302
 6212SOL    HW119535   1.130   5.152   3.386
 6212SOL    HW219536   1.059   5.132   3.241
 6213SOL     OW19537   5.149   6.877   6.219
 6213SOL    HW119538   5.189   6.885   6.310
 6213SOL    HW219539   5.063   6.928   6.215
 6214SOL     OW19540   5.778   4.843   3.251
 6214SOL    HW119541   5.720   4.921   3.274
 6214SOL    HW219542   5.874   4.868   3.264
 6215SOL     OW19543   3.427   1.457   6.899
 6215SOL    HW119544   3.470   1.414   6.978
 6215SOL    HW219545   3.461   1.414   6.815
 6216SOL     OW19546   6.338   2.530   2.423
 6216SOL    HW119547   6.368   2.584   2.502
 6216SOL    HW219548   6.418   2.505   2.368
 6217SOL     OW19549   6.495   2.727   2.232
 6217SOL    HW119550   6.418   2.770   2.281
 6217SOL    HW219551   6.475   2.726   2.134
 6218SOL     OW19552   3.362   5.210   4.373
 6218SOL    HW119553   3.274   5.213   4.421
 6218SOL    HW219554   3.416   5.291   4.397
 6219SOL     OW19555   0.554   1.403   4.559
 6219SOL    HW119556   0.511   1.423   4.647
 6219SOL    HW219557   0.599   1.485   4.525
 6220SOL     OW19558   1.373   4.002   5.851
 6220SOL    HW119559   1.394   4.063   5.775
 6220SOL    HW219560   1.457   3.963   5.887
 6221SOL     OW19561   6.401   5.650   6.194
 6221SOL    HW119562   6.424   5.660   6.291
 6221SOL    HW219563   6.427   5.733   6.145
 6222SOL     OW19564   0.965   6.417   1.326
 6222SOL    HW119565   0.904   6.355   1.376
 6222SOL    HW219566   1.039   6.364   1.283
 6223SOL     OW19567   6.945   3.789   4.179
 6223SOL    HW119568   0.016   3.821   4.159
 6223SOL    HW219569   6.942   3.754   4.272
 6224SOL     OW19570   1.781   2.150   6.119
 6224SOL    HW119571   1.688   2.158   6.156
 6224SOL    HW219572   1.789   2.206   6.037
 6225SOL     OW19573   3.055   3.017   1.172
 6225SOL    HW119574   3.125   3.060   1.229
 6225SOL    HW219575   3.044   3.070   1.088
 6226SOL     OW19576   5.598   2.230   4.567
 6226SOL    HW119577   5.632   2.206   4.657
 6226SOL    HW219578   5.537   2.158   4.533
 6227SOL     OW19579   3.808   5.240   6.540
 6227SOL    HW119580   3.720   5.213   6.503
 6227SOL    HW219581   3.879   5.222   6.472
 6228SOL     OW19582   0.285   2.823   2.376
 6228SOL    HW119583   0.245   2.849   2.288
 6228SOL    HW219584   0.327   2.732   2.368
 6229SOL     OW19585   0.947   2.874   2.451
 6229SOL    HW119586   0.940   2.775   2.440
 6229SOL    HW219587   0.973   2.915   2.363
 6230SOL     OW19588   1.066   1.061   4.218
 6230SOL    HW119589   1.097   1.016   4.302
 6230SOL    HW219590   1.089   1.004   4.139
 6231SOL     OW19591   6.871   4.689   1.798
 6231SOL    HW119592   6.796   4.634   1.761
 6231SOL    HW219593   6.919   4.734   1.722
 6232SOL     OW19594   6.247   1.557   1.041
 6232SOL    HW119595   6.209   1.630   1.098
 6232SOL    HW219596   6.193   1.474   1.053
 6233SOL     OW19597   5.173   0.929   7.006
 6233SOL    HW119598   5.211   0.845   0.021
 6233SOL    HW219599   5.203   1.007   0.039
 6234SOL     OW19600   6.926   0.935   5.743
 6234SOL    HW119601   6.857   0.956   5.674
 6234SOL    HW219602   6.978   1.017   5.765
 6235SOL     OW19603   1.386   0.236   2.060
 6235SOL    HW119604   1.372   0.158   1.999
 6235SOL    HW219605   1.431   0.205   2.144
 6236SOL     OW19606   0.892   5.062   6.994
 6236SOL    HW119607   0.927   5.156   6.993
 6236SOL    HW219608   0.794   5.062   6.977
 6237SOL     OW19609   3.443   6.317   0.520
 6237SOL    HW119610   3.471   6.347   0.429
 6237SOL    HW219611   3.513   6.341   0.587
 6238SOL     OW19612   4.327   4.621   3.127
 6238SOL    HW119613   4.396   4.575   3.071
 6238SOL    HW219614   4.269   4.678   3.068
 6239SOL     OW19615   2.857   6.773   1.663
 6239SOL    HW119616   2.813   6.862   1.678
 6239SOL    HW219617   2.894   6.740   1.749
 6240SOL     OW19618   3.000   2.275   0.112
 6240SOL    HW119619   2.965   2.363   0.144
 6240SOL    HW219620   2.971   2.202   0.174
 6241SOL     OW19621   2.270   0.789   2.404
 6241SOL    HW119622   2.198   0.789   2.473
 6241SOL    HW219623   2.351   0.744   2.442
 6242SOL     OW19624   5.265   0.724   3.384
 6242SOL    HW119625   5.311   0.650   3.333
 6242SOL    HW219626   5.329   0.763   3.450
 6243SOL     OW19627   5.145   6.545   3.389
 6243SOL    HW119628   5.057   6.593   3.395
 6243SOL    HW219629   5.161   6.495   3.474
 6244SOL     OW19630   1.955   2.240   1.987
 6244SOL    HW119631   2.000   2.329   1.989
 6244SOL    HW219632   2.018   2.171   2.024
 6245SOL     OW19633   2.442   4.793   1.333
 6245SOL    HW119634   2.442   4.720   1.401
 6245SOL    HW219635   2.428   4.881   1.378
 6246SOL     OW19636   2.580   3.055   6.369
 6246SOL    HW119637   2.631   3.098   6.444
 6246SOL    HW219638   2.490   3.026   6.403
 6247SOL     OW19639   0.764   6.313   3.532
 6247SOL    HW119640   0.750   6.214   3.534
 6247SOL    HW219641   0.700   6.355   3.468
 6248SOL     OW19642   2.388   3.695   1.046
 6248SOL    HW119643   2.296   3.654   1.050
 6248SOL    HW219644   2.456   3.626   1.069
 6249SOL     OW19645   0.512   4.704   0.375
 6249SOL    HW119646   0.589   4.719   0.312
 6249SOL    HW219647   0.499   4.785   0.432
 6250SOL     OW19648   6.301   5.899   0.417
 6250SOL    HW119649   6.252   5.861   0.495
 6250SOL    HW219650   6.236   5.914   0.342
 6251SOL     OW19651   3.807   6.651   0.062
 6251SOL    HW119652   3.847   6.640   6.993
 6251SOL    HW219653   3.871   6.701   0.120
 6252SOL     OW19654   1.734   6.824   4.750
 6252SOL    HW119655   1.744   6.919   4.720
 6252SOL    HW219656   1.673   6.821   4.829
 6253SOL     OW19657   2.148   3.842   2.613
 6253SOL    HW119658   2.181   3.811   2.523
 6253SOL    HW219659   2.137   3.764   2.674
 6254SOL     OW19660   5.369   1.028   0.566
 6254SOL    HW119661   5.270   1.027   0.555
 6254SOL    HW219662   5.407   1.112   0.526
 6255SOL     OW19663   2.056   0.874   1.284
 6255SOL    HW119664   2.044   0.936   1.207
 6255SOL    HW219665   1.969   0.865   1.333
 6256SOL     OW19666   3.288   5.320   3.078
 6256SOL    HW119667   3.348   5.289   3.004
 6256SOL    HW219668   3.338   5.318   3.165
 6257SOL     OW19669   5.738   2.177   1.038
 6257SOL    HW119670   5.812   2.231   0.999
 6257SOL    HW219671   5.752   2.168   1.137
 6258SOL     OW19672   4.348   0.281   3.650
 6258SOL    HW119673   4.273   0.327   3.698
 6258SOL    HW219674   4.424   0.345   3.639
 6259SOL     OW19675   2.879   1.982   0.937
 6259SOL    HW119676   2.814   2.022   1.002
 6259SOL    HW219677   2.967   2.027   0.947
 6260SOL     OW19678   2.427   4.324   7.009
 6260SOL    HW119679   2.414   4.300   0.083
 6260SOL    HW219680   2.476   4.250   6.962
 6261SOL     OW19681   3.074   0.206   6.171
 6261SOL    HW119682   3.061   0.148   6.251
 6261SOL    HW219683   3.133   0.283   6.195
 6262SOL     OW19684   1.470   4.170   1.292
 6262SOL    HW119685   1.549   4.141   1.237
 6262SOL    HW219686   1.500   4.240   1.357
 6263SOL     OW19687   0.239   0.353   5.922
 6263SOL    HW119688   0.150   0.396   5.938
 6263SOL    HW219689   0.308   0.395   5.981
 6264SOL     OW19690   1.535   6.703   0.832
 6264SOL    HW119691   1.541   6.803   0.837
 6264SOL    HW219692   1.616   6.663   0.875
 6265SOL     OW19693   3.135   3.927   1.084
 6265SOL    HW119694   3.213   3.981   1.054
 6265SOL    HW219695   3.123   3.937   1.183
 6266SOL     OW19696   4.317   0.721   4.811
 6266SOL    HW119697   4.376   0.799   4.795
 6266SOL    HW219698   4.332   0.687   4.904
 6267SOL     OW19699   3.424   0.504   0.343
 6267SOL    HW119700   3.406   0.445   0.263
 6267SOL    HW219701   3.374   0.469   0.422
 6268SOL     OW19702   3.078   6.405   2.855
 6268SOL    HW119703   3.148   6.476   2.844
 6268SOL    HW219704   3.122   6.315   2.859
 6269SOL     OW19705   6.511   5.888   2.420
 6269SOL    HW119706   6.526   5.822   2.494
 6269SOL    HW219707   6.439   5.952   2.447
 6270SOL     OW19708   1.672   0.346   4.889
 6270SOL    HW119709   1.668   0.428   4.832
 6270SOL    HW219710   1.626   0.363   4.976
 6271SOL     OW19711   5.995   2.101   5.427
 6271SOL    HW119712   6.075   2.105   5.366
 6271SOL    HW219713   6.002   2.173   5.496
 6272SOL     OW19714   1.130   2.505   5.667
 6272SOL    HW119715   1.140   2.513   5.766
 6272SOL    HW219716   1.219   2.508   5.623
 6273SOL     OW19717   1.936   0.311   2.490
 6273SOL    HW119718   1.956   0.383   2.423
 6273SOL    HW219719   2.018   0.254   2.502
 6274SOL     OW19720   2.589   5.605   5.735
 6274SOL    HW119721   2.629   5.665   5.666
 6274SOL    HW219722   2.516   5.551   5.693
 6275SOL     OW19723   1.944   6.439   4.955
 6275SOL    HW119724   1.943   6.340   4.948
 6275SOL    HW219725   1.989   6.478   4.874
 6276SOL     OW19726   1.435   5.232   3.861
 6276SOL    HW119727   1.387   5.279   3.935
 6276SOL    HW219728   1.449   5.136   3.886
 6277SOL     OW19729   5.507   3.266   2.115
 6277SOL    HW119730   5.440   3.225   2.052
 6277SOL    HW219731   5.584   3.302   2.062
 6278SOL     OW19732   4.765   0.429   4.821
 6278SOL    HW119733   4.827   0.506   4.811
 6278SOL    HW219734   4.679   0.459   4.863
 6279SOL     OW19735   3.935   1.011   6.537
 6279SOL    HW119736   3.985   0.953   6.602
 6279SOL    HW219737   3.883   0.953   6.474
 6280SOL     OW19738   0.261   2.132   5.964
 6280SOL    HW119739   0.315   2.097   6.041
 6280SOL    HW219740   0.304   2.215   5.928
 6281SOL     OW19741   1.730   5.821   4.930
 6281SOL    HW119742   1.662   5.864   4.870
 6281SOL    HW219743   1.703   5.835   5.025
 6282SOL     OW19744   1.146   0.492   4.867
 6282SOL    HW119745   1.063   0.457   4.823
 6282SOL    HW219746   1.120   0.549   4.945
 6283SOL     OW19747   6.049   3.180   5.088
 6283SOL    HW119748   6.103   3.156   5.168
 6283SOL    HW219749   6.053   3.105   5.022
 6284SOL     OW19750   1.991   5.725   4.938
 6284SOL    HW119751   2.035   5.784   5.006
 6284SOL    HW219752   1.896   5.754   4.926
 6285SOL     OW19753   1.526   2.671   3.597
 6285SOL    HW119754   1.521   2.698   3.693
 6285SOL    HW219755   1.581   2.738   3.547
 6286SOL     OW19756   6.198   2.162   3.989
 6286SOL    HW119757   6.125   2.094   3.980
 6286SOL    HW219758   6.230   2.164   4.084
 6287SOL     OW19759   4.208   4.802   2.985
 6287SOL    HW119760   4.112   4.811   2.959
 6287SOL    HW219761   4.253   4.890   2.975
 6288SOL     OW19762   5.637   4.543   2.548
 6288SOL    HW119763   5.548   4.499   2.542
 6288SOL    HW219764   5.649   4.605   2.470
 6289SOL     OW19765   1.236   4.285   2.872
 6289SOL    HW119766   1.263   4.369   2.824
 6289SOL    HW219767   1.290   4.276   2.956
 6290SOL     OW19768   6.103   3.784   4.431
 6290SOL    HW119769   6.189   3.809   4.475
 6290SOL    HW219770   6.027   3.797   4.495
 6291SOL     OW19771   3.581   3.256   3.363
 6291SOL    HW119772   3.584   3.221   3.270
 6291SOL    HW219773   3.672   3.254   3.403
 6292SOL     OW19774   0.757   2.488   3.555
 6292SOL    HW119775   0.837   2.538   3.589
 6292SOL    HW219776   0.787   2.419   3.489
 6293SOL     OW19777   4.393   0.014   6.778
 6293SOL    HW119778   4.308   0.058   6.749
 6293SOL    HW219779   4.433   6.985   6.702
 6294SOL     OW19780   3.421   4.972   4.065
 6294SOL    HW119781   3.425   4.972   4.165
 6294SOL    HW219782   3.506   4.935   4.028
 6295SOL     OW19783   5.451   4.943   5.339
 6295SOL    HW119784   5.508   4.998   5.278
 6295SOL    HW219785   5.363   4.924   5.295
 6296SOL     OW19786   6.798   6.310   4.700
 6296SOL    HW119787   6.854   6.226   4.697
 6296SOL    HW219788   6.830   6.368   4.775
 6297SOL     OW19789   4.768   6.835   5.072
 6297SOL    HW119790   4.844   6.844   5.136
 6297SOL    HW219791   4.804   6.819   4.980
 6298SOL     OW19792   1.573   2.409   5.795
 6298SOL    HW119793   1.526   2.338   5.742
 6298SOL    HW219794   1.508   2.450   5.859
 6299SOL     OW19795   4.883   1.790   0.464
 6299SOL    HW119796   4.941   1.716   0.429
 6299SOL    HW219797   4.923   1.829   0.546
 6300SOL     OW19798   5.203   1.020   5.191
 6300SOL    HW119799   5.160   0.944   5.141
 6300SOL    HW219800   5.211   0.996   5.288
 6301SOL     OW19801   2.756   0.756   1.274
 6301SOL    HW119802   2.779   0.675   1.328
 6301SOL    HW219803   2.692   0.813   1.326
 6302SOL     OW19804   1.451   1.903   4.118
 6302SOL    HW119805   1.394   1.840   4.064
 6302SOL    HW219806   1.531   1.854   4.152
 6303SOL     OW19807   2.246   0.834   4.690
 6303SOL    HW119808   2.310   0.898   4.732
 6303SOL    HW219809   2.288   0.743   4.686
 6304SOL     OW19810   2.141   1.173   0.913
 6304SOL    HW119811   2.182   1.260   0.940
 6304SOL    HW219812   2.082   1.187   0.834
 6305SOL     OW19813   6.417   6.934   0.688
 6305SOL    HW119814   6.480   6.862   0.717
 6305SOL    HW219815   6.435   7.017   0.741
 6306SOL     OW19816   1.138   4.126   4.440
 6306SOL    HW119817   1.102   4.065   4.370
 6306SOL    HW219818   1.180   4.073   4.513
 6307SOL     OW19819   4.081   3.928   5.574
 6307SOL    HW119820   4.156   3.935   5.640
 6307SOL    HW219821   4.084   4.006   5.512
 6308SOL     OW19822   1.296   1.984   5.092
 6308SOL    HW119823   1.321   2.081   5.089
 6308SOL    HW219824   1.313   1.948   5.183
 6309SOL     OW19825   4.896   3.890   4.279
 6309SOL    HW119826   4.820   3.953   4.292
 6309SOL    HW219827   4.897   3.859   4.184
 6310SOL     OW19828   2.074   5.574   4.106
 6310SOL    HW119829   2.165   5.552   4.070
 6310SOL    HW219830   2.022   5.624   4.037
 6311SOL     OW19831   5.741   0.358   5.627
 6311SOL    HW119832   5.808   0.357   5.552
 6311SOL    HW219833   5.788   0.351   5.714
 6312SOL     OW19834   5.723   5.147   5.590
 6312SOL    HW119835   5.785   5.226   5.589
 6312SOL    HW219836   5.756   5.078   5.526
 6313SOL     OW19837   1.418   6.018   3.119
 6313SOL    HW119838   1.332   6.064   3.097
 6313SOL    HW219839   1.456   6.057   3.203
 6314SOL     OW19840   4.207   6.633   1.631
 6314SOL    HW119841   4.241   6.579   1.708
 6314SOL    HW219842   4.276   6.699   1.603
 6315SOL     OW19843   3.994   2.931   6.754
 6315SOL    HW119844   4.063   2.973   6.696
 6315SOL    HW219845   4.007   2.962   6.849
 6316SOL     OW19846   4.620   2.030   6.158
 6316SOL    HW119847   4.588   1.996   6.247
 6316SOL    HW219848   4.614   1.957   6.090
 6317SOL     OW19849   5.362   5.350   3.404
 6317SOL    HW119850   5.346   5.303   3.318
 6317SOL    HW219851   5.440   5.308   3.451
 6318SOL     OW19852   3.008   1.841   4.720
 6318SOL    HW119853   3.020   1.940   4.716
 6318SOL    HW219854   3.073   1.801   4.786
 6319SOL     OW19855   0.011   2.505   3.211
 6319SOL    HW119856   0.060   2.429   3.254
 6319SOL    HW219857   0.044   2.591   3.249
 6320SOL     OW19858   6.067   4.901   4.671
 6320SOL    HW119859   6.049   4.966   4.597
 6320SOL    HW219860   6.123   4.945   4.741
 6321SOL     OW19861   3.229   4.967   0.942
 6321SOL    HW119862   3.313   4.966   0.888
 6321SOL    HW219863   3.251   4.960   1.039
 6322SOL     OW19864   1.533   2.545   6.589
 6322SOL    HW119865   1.628   2.517   6.576
 6322SOL    HW219866   1.502   2.517   6.680
 6323SOL     OW19867   3.762   2.786   0.962
 6323SOL    HW119868   3.710   2.846   1.022
 6323SOL    HW219869   3.703   2.750   0.890
 6324SOL     OW19870   4.795   0.394   5.995
 6324SOL    HW119871   4.786   0.486   6.032
 6324SOL    HW219872   4.767   0.327   6.064
 6325SOL     OW19873   1.191   1.979   2.075
 6325SOL    HW119874   1.248   1.924   2.135
 6325SOL    HW219875   1.248   2.025   2.007
 6326SOL     OW19876   4.839   6.358   1.586
 6326SOL    HW119877   4.777   6.434   1.607
 6326SOL    HW219878   4.785   6.278   1.560
 6327SOL     OW19879   7.004   0.438   5.257
 6327SOL    HW119880   6.932   0.496   5.220
 6327SOL    HW219881   7.011   0.452   5.356
 6328SOL     OW19882   1.619   3.777   0.376
 6328SOL    HW119883   1.652   3.864   0.414
 6328SOL    HW219884   1.682   3.704   0.400
 6329SOL     OW19885   2.076   2.899   3.439
 6329SOL    HW119886   2.038   2.916   3.349
 6329SOL    HW219887   2.103   2.802   3.446
 6330SOL     OW19888   4.630   1.058   1.662
 6330SOL    HW119889   4.641   1.095   1.754
 6330SOL    HW219890   4.696   0.984   1.647
 6331SOL     OW19891   5.777   2.214   0.231
 6331SOL    HW119892   5.751   2.284   0.298
 6331SOL    HW219893   5.740   2.126   0.259
 6332SOL     OW19894   0.064   4.048   2.302
 6332SOL    HW119895   0.065   4.122   2.370
 6332SOL    HW219896   0.129   3.977   2.331
 6333SOL     OW19897   3.969   5.002   4.368
 6333SOL    HW119898   4.052   4.949   4.351
 6333SOL    HW219899   3.894   4.940   4.392
 6334SOL     OW19900   2.283   0.454   2.413
 6334SOL    HW119901   2.216   0.512   2.366
 6334SOL    HW219902   2.374   0.472   2.376
 6335SOL     OW19903   4.648   1.421   0.800
 6335SOL    HW119904   4.631   1.463   0.889
 6335SOL    HW219905   4.564   1.420   0.746
 6336SOL     OW19906   6.848   1.321   6.051
 6336SOL    HW119907   6.897   1.246   6.007
 6336SOL    HW219908   6.872   1.407   6.005
 6337SOL     OW19909   4.662   4.049   6.365
 6337SOL    HW119910   4.678   4.095   6.452
 6337SOL    HW219911   4.748   4.043   6.314
 6338SOL     OW19912   2.824   2.140   2.625
 6338SOL    HW119913   2.810   2.187   2.538
 6338SOL    HW219914   2.847   2.044   2.608
 6339SOL     OW19915   0.288   3.147   3.908
 6339SOL    HW119916   0.352   3.091   3.855
 6339SOL    HW219917   0.198   3.145   3.864
 6340SOL     OW19918   1.972   4.977   3.040
 6340SOL    HW119919   2.033   4.905   3.008
 6340SOL    HW219920   1.981   4.988   3.139
 6341SOL     OW19921   0.586   5.020   3.274
 6341SOL    HW119922   0.501   5.023   3.325
 6341SOL    HW219923   0.651   4.959   3.320
 6342SOL     OW19924   2.652   1.661   1.498
 6342SOL    HW119925   2.558   1.677   1.470
 6342SOL    HW219926   2.696   1.749   1.519
 6343SOL     OW19927   5.178   2.605   6.226
 6343SOL    HW119928   5.238   2.544   6.277
 6343SOL    HW219929   5.199   2.700   6.248
 6344SOL     OW19930   5.763   3.462   5.564
 6344SOL    HW119931   5.752   3.541   5.503
 6344SOL    HW219932   5.859   3.452   5.589
 6345SOL     OW19933   4.500   1.534   2.178
 6345SOL    HW119934   4.546   1.476   2.245
 6345SOL    HW219935   4.535   1.628   2.185
 6346SOL     OW19936   6.851   3.449   3.595
 6346SOL    HW119937   6.895   3.470   3.508
 6346SOL    HW219938   6.814   3.356   3.591
 6347SOL     OW19939   2.217   0.678   1.135
 6347SOL    HW119940   2.270   0.729   1.068
 6347SOL    HW219941   2.174   0.742   1.199
 6348SOL     OW19942   1.186   4.047   5.084
 6348SOL    HW119943   1.180   4.102   5.167
 6348SOL    HW219944   1.115   3.977   5.084
 6349SOL     OW19945   3.092   0.506   1.540
 6349SOL    HW119946   3.183   0.514   1.499
 6349SOL    HW219947   3.062   0.596   1.572
 6350SOL     OW19948   2.515   4.750   4.055
 6350SOL    HW119949   2.419   4.738   4.029
 6350SOL    HW219950   2.531   4.704   4.143
 6351SOL     OW19951   6.601   3.166   2.448
 6351SOL    HW119952   6.619   3.246   2.506
 6351SOL    HW219953   6.598   3.195   2.352
 6352SOL     OW19954   2.245   5.213   4.662
 6352SOL    HW119955   2.324   5.153   4.667
 6352SOL    HW219956   2.252   5.283   4.732
 6353SOL     OW19957   6.397   0.470   6.271
 6353SOL    HW119958   6.485   0.510   6.243
 6353SOL    HW219959   6.333   0.475   6.194
 6354SOL     OW19960   1.191   0.289   2.698
 6354SOL    HW119961   1.247   0.369   2.715
 6354SOL    HW219962   1.134   0.270   2.778
 6355SOL     OW19963   1.373   4.601   5.796
 6355SOL    HW119964   1.309   4.588   5.872
 6355SOL    HW219965   1.460   4.634   5.831
 6356SOL     OW19966   4.242   4.703   2.278
 6356SOL    HW119967   4.263   4.612   2.243
 6356SOL    HW219968   4.284   4.715   2.368
 6357SOL     OW19969   4.888   2.692   1.779
 6357SOL    HW119970   4.898   2.597   1.811
 6357SOL    HW219971   4.894   2.754   1.857
 6358SOL     OW19972   0.692   2.279   5.765
 6358SOL    HW119973   0.785   2.308   5.745
 6358SOL    HW219974   0.694   2.191   5.812
 6359SOL     OW19975   5.907   6.747   5.720
 6359SOL    HW119976   5.855   6.833   5.719
 6359SOL    HW219977   5.864   6.683   5.656
 6360SOL     OW19978   2.164   3.777   4.119
 6360SOL    HW119979   2.186   3.829   4.036
 6360SOL    HW219980   2.187   3.830   4.200
 6361SOL     OW19981   6.104   0.283   0.196
 6361SOL    HW119982   6.047   0.343   0.253
 6361SOL    HW219983   6.063   0.274   0.105
 6362SOL     OW19984   5.757   5.384   6.219
 6362SOL    HW119985   5.798   5.462   6.172
 6362SOL    HW219986   5.829   5.325   6.256
 6363SOL     OW19987   2.356   5.045   2.928
 6363SOL    HW119988   2.341   5.107   3.006
 6363SOL    HW219989   2.313   4.957   2.947
 6364SOL     OW19990   3.359   1.203   5.881
 6364SOL    HW119991   3.410   1.136   5.827
 6364SOL    HW219992   3.382   1.295   5.849
 6365SOL     OW19993   4.965   6.904   4.419
 6365SOL    HW119994   5.013   6.945   4.342
 6365SOL    HW219995   4.897   6.969   4.454
 6366SOL     OW19996   0.422   5.842   6.280
 6366SOL    HW119997   0.455   5.888   6.198
 6366SOL    HW219998   0.488   5.773   6.309
 6367SOL     OW19999   3.921   0.483   4.130
 6367SOL    HW120000   3.862   0.556   4.163
 6367SOL    HW220001   3.874   0.432   4.058
 6368SOL     OW20002   3.477   0.458   3.584
 6368SOL    HW120003   3.547   0.526   3.606
 6368SOL    HW220004   3.518   0.367   3.583
 6369SOL     OW20005   2.484   5.065   4.670
 6369SOL    HW120006   2.569   5.115   4.688
 6369SOL    HW220007   2.474   4.990   4.734
 6370SOL     OW20008   1.662   3.024   2.492
 6370SOL    HW120009   1.590   3.049   2.428
 6370SOL    HW220010   1.750   3.025   2.444
 6371SOL     OW20011   4.845   3.140   4.189
 6371SOL    HW120012   4.893   3.089   4.261
 6371SOL    HW220013   4.883   3.115   4.100
 6372SOL     OW20014   3.317   6.892   1.895
 6372SOL    HW120015   3.252   6.895   1.820
 6372SOL    HW220016   3.370   6.976   1.897
 6373SOL     OW20017   5.892   3.942   4.049
 6373SOL    HW120018   5.845   3.991   4.123
 6373SOL    HW220019   5.989   3.930   4.074
 6374SOL     OW20020   3.832   4.066   4.115
 6374SOL    HW120021   3.805   4.117   4.033
 6374SOL    HW220022   3.903   3.999   4.090
 6375SOL     OW20023   0.269   1.670   3.856
 6375SOL    HW120024   0.346   1.632   3.804
 6375SOL    HW220025   0.241   1.604   3.926
 6376SOL     OW20026   6.452   2.436   5.608
 6376SOL    HW120027   6.406   2.383   5.537
 6376SOL    HW220028   6.420   2.406   5.698
 6377SOL     OW20029   6.444   1.545   5.887
 6377SOL    HW120030   6.376   1.574   5.955
 6377SOL    HW220031   6.517   1.614   5.882
 6378SOL     OW20032   5.178   5.059   3.667
 6378SOL    HW120033   5.255   5.024   3.613
 6378SOL    HW220034   5.099   5.071   3.608
 6379SOL     OW20035   2.356   4.431   4.395
 6379SOL    HW120036   2.271   4.395   4.358
 6379SOL    HW220037   2.368   4.397   4.489
 6380SOL     OW20038   0.306   1.526   5.622
 6380SOL    HW120039   0.249   1.601   5.588
 6380SOL    HW220040   0.401   1.555   5.624
 6381SOL     OW20041   3.809   3.229   2.712
 6381SOL    HW120042   3.711   3.210   2.725
 6381SOL    HW220043   3.843   3.176   2.635
 6382SOL     OW20044   1.154   2.952   0.305
 6382SOL    HW120045   1.116   2.861   0.323
 6382SOL    HW220046   1.137   3.011   0.385
 6383SOL     OW20047   2.154   2.576   2.806
 6383SOL    HW120048   2.119   2.612   2.719
 6383SOL    HW220049   2.230   2.633   2.838
 6384SOL     OW20050   5.953   4.321   1.204
 6384SOL    HW120051   5.898   4.322   1.287
 6384SOL    HW220052   5.957   4.413   1.165
 6385SOL     OW20053   6.907   4.765   4.427
 6385SOL    HW120054   7.007   4.768   4.423
 6385SOL    HW220055   6.869   4.813   4.349
 6386SOL     OW20056   2.429   4.067   6.600
 6386SOL    HW120057   2.349   4.011   6.579
 6386SOL    HW220058   2.486   4.075   6.518
 6387SOL     OW20059   0.675   1.847   6.761
 6387SOL    HW120060   0.585   1.806   6.776
 6387SOL    HW220061   0.727   1.843   6.847
 6388SOL     OW20062   4.319   4.550   1.905
 6388SOL    HW120063   4.361   4.460   1.889
 6388SOL    HW220064   4.391   4.616   1.928
 6389SOL     OW20065   0.686   5.857   2.256
 6389SOL    HW120066   0.705   5.762   2.229
 6389SOL    HW220067   0.700   5.917   2.177
 6390SOL     OW20068   1.227   2.585   4.568
 6390SOL    HW120069   1.132   2.614   4.577
 6390SOL    HW220070   1.286   2.650   4.614
 6391SOL     OW20071   3.121   0.072   5.935
 6391SOL    HW120072   3.066   7.011   5.942
 6391SOL    HW220073   3.093   0.136   6.008
 6392SOL     OW20074   2.634   6.613   3.314
 6392SOL    HW120075   2.606   6.690   3.257
 6392SOL    HW220076   2.565   6.541   3.309
 6393SOL     OW20077   6.143   6.497   1.468
 6393SOL    HW120078   6.174   6.491   1.373
 6393SOL    HW220079   6.143   6.406   1.509
 6394SOL     OW20080   2.359   4.095   1.405
 6394SOL    HW120081   2.348   4.181   1.355
 6394SOL    HW220082   2.336   4.019   1.345
 6395SOL     OW20083   5.794   2.818   1.249
 6395SOL    HW120084   5.872   2.770   1.208
 6395SOL    HW220085   5.820   2.850   1.340
 6396SOL     OW20086   5.361   2.945   6.620
 6396SOL    HW120087   5.270   2.909   6.599
 6396SOL    HW220088   5.403   2.890   6.692
 6397SOL     OW20089   5.859   1.989   6.800
 6397SOL    HW120090   5.809   2.053   6.859
 6397SOL    HW220091   5.901   2.040   6.725
 6398SOL     OW20092   3.315   1.010   0.570
 6398SOL    HW120093   3.247   1.077   0.599
 6398SOL    HW220094   3.305   0.992   0.473
 6399SOL     OW20095   1.918   5.084   6.369
 6399SOL    HW120096   1.940   5.172   6.327
 6399SOL    HW220097   1.963   5.011   6.318
 6400SOL     OW20098   1.898   5.538   3.295
 6400SOL    HW120099   1.994   5.567   3.289
 6400SOL    HW220100   1.871   5.495   3.208
 6401SOL     OW20101   6.527   4.471   3.586
 6401SOL    HW120102   6.588   4.522   3.646
 6401SOL    HW220103   6.581   4.418   3.521
 6402SOL     OW20104   3.140   0.793   3.108
 6402SOL    HW120105   3.122   0.758   3.200
 6402SOL    HW220106   3.214   0.861   3.112
 6403SOL     OW20107   0.395   6.131   6.289
 6403SOL    HW120108   0.437   6.220   6.308
 6403SOL    HW220109   0.396   6.075   6.372
 6404SOL     OW20110   4.051   1.289   2.742
 6404SOL    HW120111   4.011   1.368   2.790
 6404SOL    HW220112   4.102   1.233   2.808
 6405SOL     OW20113   1.645   1.190   3.477
 6405SOL    HW120114   1.724   1.232   3.432
 6405SOL    HW220115   1.668   1.168   3.572
 6406SOL     OW20116   1.906   2.234   3.512
 6406SOL    HW120117   2.004   2.250   3.504
 6406SOL    HW220118   1.856   2.305   3.463
 6407SOL     OW20119   3.178   6.746   2.970
 6407SOL    HW120120   3.080   6.761   2.983
 6407SOL    HW220121   3.211   6.680   3.038
 6408SOL     OW20122   6.237   2.478   0.094
 6408SOL    HW120123   6.181   2.396   0.092
 6408SOL    HW220124   6.326   2.457   0.134
 6409SOL     OW20125   6.892   4.073   3.235
 6409SOL    HW120126   6.862   4.126   3.156
 6409SOL    HW220127   6.991   4.082   3.245
 6410SOL     OW20128   1.703   1.637   0.223
 6410SOL    HW120129   1.610   1.664   0.198
 6410SOL    HW220130   1.701   1.548   0.270
 6411SOL     OW20131   0.642   2.930   3.104
 6411SOL    HW120132   0.664   3.027   3.092
 6411SOL    HW220133   0.677   2.898   3.191
 6412SOL     OW20134   0.119   2.967   5.403
 6412SOL    HW120135   0.111   2.925   5.494
 6412SOL    HW220136   0.082   2.903   5.335
 6413SOL     OW20137   5.089   5.109   3.122
 6413SOL    HW120138   5.049   5.056   3.047
 6413SOL    HW220139   5.117   5.199   3.088
 6414SOL     OW20140   6.016   0.537   1.981
 6414SOL    HW120141   5.979   0.523   2.073
 6414SOL    HW220142   6.108   0.575   1.987
 6415SOL     OW20143   2.856   2.238   2.865
 6415SOL    HW120144   2.857   2.218   2.767
 6415SOL    HW220145   2.764   2.263   2.894
 6416SOL     OW20146   0.691   0.711   5.702
 6416SOL    HW120147   0.652   0.672   5.785
 6416SOL    HW220148   0.680   0.811   5.703
 6417SOL     OW20149   0.114   4.555   2.534
 6417SOL    HW120150   0.030   4.514   2.569
 6417SOL    HW220151   0.193   4.506   2.570
 6418SOL     OW20152   6.047   4.919   2.379
 6418SOL    HW120153   5.980   4.945   2.449
 6418SOL    HW220154   6.134   4.896   2.423
 6419SOL     OW20155   2.758   5.019   2.530
 6419SOL    HW120156   2.847   5.056   2.556
 6419SOL    HW220157   2.686   5.076   2.567
 6420SOL     OW20158   3.077   3.567   5.672
 6420SOL    HW120159   3.063   3.493   5.607
 6420SOL    HW220160   3.010   3.639   5.657
 6421SOL     OW20161   6.192   1.669   2.192
 6421SOL    HW120162   6.268   1.608   2.171
 6421SOL    HW220163   6.109   1.636   2.146
 6422SOL     OW20164   6.659   0.296   3.846
 6422SOL    HW120165   6.664   0.208   3.799
 6422SOL    HW220166   6.736   0.305   3.910
 6423SOL     OW20167   4.551   4.569   2.424
 6423SOL    HW120168   4.545   4.523   2.335
 6423SOL    HW220169   4.566   4.501   2.496
 6424SOL     OW20170   6.608   5.331   5.956
 6424SOL    HW120171   6.604   5.259   5.887
 6424SOL    HW220172   6.692   5.321   6.010
 6425SOL     OW20173   6.541   5.580   3.971
 6425SOL    HW120174   6.603   5.650   3.936
 6425SOL    HW220175   6.484   5.546   3.895
 6426SOL     OW20176   0.602   4.186   3.624
 6426SOL    HW120177   0.573   4.103   3.670
 6426SOL    HW220178   0.693   4.173   3.585
 6427SOL     OW20179   1.876   3.387   6.925
 6427SOL    HW120180   1.796   3.442   6.947
 6427SOL    HW220181   1.869   3.353   6.831
 6428SOL     OW20182   6.170   3.243   0.708
 6428SOL    HW120183   6.159   3.341   0.722
 6428SOL    HW220184   6.090   3.195   0.743
 6429SOL     OW20185   0.773   1.355   4.898
 6429SOL    HW120186   0.800   1.397   4.811
 6429SOL    HW220187   0.736   1.425   4.958
 6430SOL     OW20188   4.956   1.167   2.082
 6430SOL    HW120189   4.879   1.125   2.129
 6430SOL    HW220190   4.927   1.254   2.042
 6431SOL     OW20191   5.696   0.122   3.108
 6431SOL    HW120192   5.787   0.085   3.129
 6431SOL    HW220193   5.632   0.047   3.092
 6432SOL     OW20194   3.886   4.072   7.021
 6432SOL    HW120195   3.853   4.154   6.973
 6432SOL    HW220196   3.900   4.094   0.096
 6433SOL     OW20197   3.691   4.278   0.967
 6433SOL    HW120198   3.655   4.257   1.059
 6433SOL    HW220199   3.615   4.280   0.902
 6434SOL     OW20200   1.598   4.051   0.446
 6434SOL    HW120201   1.637   4.143   0.437
 6434SOL    HW220202   1.578   4.033   0.542
 6435SOL     OW20203   3.835   5.098   0.144
 6435SOL    HW120204   3.916   5.094   0.085
 6435SOL    HW220205   3.824   5.191   0.179
 6436SOL     OW20206   2.191   3.079   3.883
 6436SOL    HW120207   2.200   3.160   3.941
 6436SOL    HW220208   2.113   3.090   3.823
 6437SOL     OW20209   1.567   1.134   0.752
 6437SOL    HW120210   1.482   1.082   0.743
 6437SOL    HW220211   1.625   1.092   0.822
 6438SOL     OW20212   0.380   4.460   5.824
 6438SOL    HW120213   0.378   4.552   5.863
 6438SOL    HW220214   0.371   4.393   5.898
 6439SOL     OW20215   0.115   6.882   1.807
 6439SOL    HW120216   0.079   6.847   1.894
 6439SOL    HW220217   0.063   6.962   1.779
 6440SOL     OW20218   2.140   1.174   2.093
 6440SOL    HW120219   2.106   1.265   2.118
 6440SOL    HW220220   2.177   1.129   2.174
 6441SOL     OW20221   0.928   0.161   2.515
 6441SOL    HW120222   0.832   0.138   2.498
 6441SOL    HW220223   0.982   0.076   2.521
 6442SOL     OW20224   1.665   1.507   3.593
 6442SOL    HW120225   1.729   1.581   3.613
 6442SOL    HW220226   1.653   1.498   3.495
 6443SOL     OW20227   3.746   2.666   0.106
 6443SOL    HW120228   3.719   2.675   0.010
 6443SOL    HW220229   3.777   2.572   0.123
 6444SOL     OW20230   1.154   2.500   3.749
 6444SOL    HW120231   1.088   2.467   3.816
 6444SOL    HW220232   1.215   2.566   3.792
 6445SOL     OW20233   5.004   2.674   5.689
 6445SOL    HW120234   5.013   2.726   5.605
 6445SOL    HW220235   4.907   2.660   5.710
 6446SOL     OW20236   0.771   1.522   6.342
 6446SOL    HW120237   0.840   1.527   6.270
 6446SOL    HW220238   0.683   1.498   6.301
 6447SOL     OW20239   0.091   5.689   2.303
 6447SOL    HW120240   0.087   5.773   2.247
 6447SOL    HW220241   0.151   5.704   2.381
 6448SOL     OW20242   5.657   4.688   2.292
 6448SOL    HW120243   5.579   4.636   2.258
 6448SOL    HW220244   5.636   4.785   2.292
 6449SOL     OW20245   3.815   4.260   1.316
 6449SOL    HW120246   3.785   4.356   1.318
 6449SOL    HW220247   3.885   4.248   1.246
 6450SOL     OW20248   0.183   3.476   1.522
 6450SOL    HW120249   0.199   3.523   1.435
 6450SOL    HW220250   0.214   3.535   1.598
 6451SOL     OW20251   2.687   6.249   4.825
 6451SOL    HW120252   2.704   6.235   4.728
 6451SOL    HW220253   2.599   6.209   4.850
 6452SOL     OW20254   3.516   6.078   5.352
 6452SOL    HW120255   3.538   6.063   5.256
 6452SOL    HW220256   3.435   6.025   5.376
 6453SOL     OW20257   2.154   6.058   6.891
 6453SOL    HW120258   2.080   6.118   6.863
 6453SOL    HW220259   2.227   6.112   6.934
 6454SOL     OW20260   2.886   1.257   3.618
 6454SOL    HW120261   2.957   1.308   3.666
 6454SOL    HW220262   2.796   1.282   3.656
 6455SOL     OW20263   0.536   2.576   4.215
 6455SOL    HW120264   0.615   2.607   4.161
 6455SOL    HW220265   0.453   2.583   4.159
 6456SOL     OW20266   1.718   0.376   3.590
 6456SOL    HW120267   1.681   0.354   3.500
 6456SOL    HW220268   1.686   0.467   3.618
 6457SOL     OW20269   5.320   1.122   1.221
 6457SOL    HW120270   5.281   1.080   1.303
 6457SOL    HW220271   5.315   1.222   1.230
 6458SOL     OW20272   1.170   0.014   3.573
 6458SOL    HW120273   1.165   0.099   3.520
 6458SOL    HW220274   1.078   6.999   3.584
 6459SOL     OW20275   5.860   5.453   0.940
 6459SOL    HW120276   5.958   5.467   0.941
 6459SOL    HW220277   5.821   5.483   1.027
 6460SOL     OW20278   4.527   5.038   5.968
 6460SOL    HW120279   4.547   5.120   5.914
 6460SOL    HW220280   4.479   5.064   6.052
 6461SOL     OW20281   3.131   4.934   5.159
 6461SOL    HW120282   3.154   4.976   5.071
 6461SOL    HW220283   3.213   4.890   5.197
 6462SOL     OW20284   2.344   2.812   5.318
 6462SOL    HW120285   2.372   2.888   5.260
 6462SOL    HW220286   2.423   2.754   5.339
 6463SOL     OW20287   1.723   3.816   6.345
 6463SOL    HW120288   1.679   3.904   6.327
 6463SOL    HW220289   1.677   3.770   6.420
 6464SOL     OW20290   0.866   4.839   4.960
 6464SOL    HW120291   0.767   4.831   4.950
 6464SOL    HW220292   0.888   4.869   5.053
 6465SOL     OW20293   6.500   2.690   3.742
 6465SOL    HW120294   6.508   2.694   3.643
 6465SOL    HW220295   6.577   2.738   3.784
 6466SOL     OW20296   0.131   1.497   6.254
 6466SOL    HW120297   0.180   1.415   6.225
 6466SOL    HW220298   0.161   1.523   6.346
 6467SOL     OW20299   3.115   1.111   6.864
 6467SOL    HW120300   3.194   1.096   6.804
 6467SOL    HW220301   3.142   1.169   6.941
 6468SOL     OW20302   4.067   6.247   1.536
 6468SOL    HW120303   4.001   6.292   1.596
 6468SOL    HW220304   4.103   6.313   1.471
 6469SOL     OW20305   4.980   0.849   5.380
 6469SOL    HW120306   4.946   0.937   5.346
 6469SOL    HW220307   4.931   0.824   5.463
 6470SOL     OW20308   6.227   4.987   6.091
 6470SOL    HW120309   6.145   4.958   6.141
 6470SOL    HW220310   6.207   4.991   5.993
 6471SOL     OW20311   6.613   5.565   5.803
 6471SOL    HW120312   6.531   5.562   5.747
 6471SOL    HW220313   6.619   5.482   5.860
 6472SOL     OW20314   0.116   4.883   0.925
 6472SOL    HW120315   0.123   4.866   1.023
 6472SOL    HW220316   0.024   4.859   0.893
 6473SOL     OW20317   2.215   1.843   4.941
 6473SOL    HW120318   2.197   1.759   4.992
 6473SOL    HW220319   2.144   1.856   4.872
 6474SOL     OW20320   1.586   3.195   5.771
 6474SOL    HW120321   1.584   3.108   5.722
 6474SOL    HW220322   1.678   3.235   5.764
 6475SOL     OW20323   6.712   5.280   4.722
 6475SOL    HW120324   6.618   5.308   4.701
 6475SOL    HW220325   6.776   5.349   4.688
 6476SOL     OW20326   4.846   3.650   1.635
 6476SOL    HW120327   4.863   3.736   1.683
 6476SOL    HW220328   4.752   3.620   1.652
 6477SOL     OW20329   0.165   4.904   1.330
 6477SOL    HW120330   0.243   4.907   1.393
 6477SOL    HW220331   0.167   4.984   1.271
 6478SOL     OW20332   3.665   6.093   2.352
 6478SOL    HW120333   3.710   6.167   2.401
 6478SOL    HW220334   3.613   6.130   2.275
 6479SOL     OW20335   3.825   5.233   3.042
 6479SOL    HW120336   3.733   5.197   3.024
 6479SOL    HW220337   3.818   5.331   3.063
 6480SOL     OW20338   3.406   2.878   5.561
 6480SOL    HW120339   3.422   2.780   5.568
 6480SOL    HW220340   3.322   2.895   5.508
 6481SOL     OW20341   3.335   2.180   1.747
 6481SOL    HW120342   3.432   2.198   1.730
 6481SOL    HW220343   3.301   2.115   1.679
 6482SOL     OW20344   0.192   1.036   6.103
 6482SOL    HW120345   0.136   0.958   6.078
 6482SOL    HW220346   0.155   1.080   6.185
 6483SOL     OW20347   2.580   5.577   1.609
 6483SOL    HW120348   2.645   5.521   1.661
 6483SOL    HW220349   2.520   5.517   1.556
 6484SOL     OW20350   3.916   0.555   2.970
 6484SOL    HW120351   3.945   0.540   3.064
 6484SOL    HW220352   3.967   0.494   2.909
 6485SOL     OW20353   1.805   3.660   3.820
 6485SOL    HW120354   1.751   3.694   3.743
 6485SOL    HW220355   1.746   3.607   3.881
 6486SOL     OW20356   1.536   4.466   4.119
 6486SOL    HW120357   1.498   4.557   4.102
 6486SOL    HW220358   1.478   4.417   4.184
 6487SOL     OW20359   6.470   5.658   5.126
 6487SOL    HW120360   6.471   5.618   5.218
 6487SOL    HW220361   6.528   5.740   5.125
 6488SOL     OW20362   2.752   5.867   4.749
 6488SOL    HW120363   2.659   5.829   4.756
 6488SOL    HW220364   2.749   5.965   4.768
 6489SOL     OW20365   2.343   3.531   6.894
 6489SOL    HW120366   2.356   3.442   6.937
 6489SOL    HW220367   2.398   3.536   6.810
 6490SOL     OW20368   4.488   2.734   6.569
 6490SOL    HW120369   4.398   2.730   6.527
 6490SOL    HW220370   4.545   2.661   6.530
 6491SOL     OW20371   4.065   1.340   6.726
 6491SOL    HW120372   4.114   1.423   6.701
 6491SOL    HW220373   4.131   1.267   6.745
 6492SOL     OW20374   5.881   6.199   6.996
 6492SOL    HW120375   5.809   6.236   6.938
 6492SOL    HW220376   5.963   6.256   6.989
 6493SOL     OW20377   1.456   6.175   5.469
 6493SOL    HW120378   1.389   6.235   5.424
 6493SOL    HW220379   1.535   6.163   5.409
 6494SOL     OW20380   0.285   1.191   3.281
 6494SOL    HW120381   0.245   1.103   3.255
 6494SOL    HW220382   0.318   1.186   3.375
 6495SOL     OW20383   4.714   6.056   4.585
 6495SOL    HW120384   4.697   6.069   4.488
 6495SOL    HW220385   4.634   6.087   4.637
 6496SOL     OW20386   0.344   6.123   2.294
 6496SOL    HW120387   0.303   6.173   2.371
 6496SOL    HW220388   0.319   6.167   2.208
 6497SOL     OW20389   2.455   3.274   0.174
 6497SOL    HW120390   2.496   3.360   0.203
 6497SOL    HW220391   2.488   3.199   0.232
 6498SOL     OW20392   2.587   4.588   4.270
 6498SOL    HW120393   2.653   4.625   4.335
 6498SOL    HW220394   2.522   4.528   4.318
 6499SOL     OW20395   5.819   1.725   4.971
 6499SOL    HW120396   5.811   1.709   5.069
 6499SOL    HW220397   5.763   1.804   4.945
 6500SOL     OW20398   0.413   4.953   3.781
 6500SOL    HW120399   0.375   4.913   3.864
 6500SOL    HW220400   0.394   4.894   3.703
 6501SOL     OW20401   0.110   2.607   0.620
 6501SOL    HW120402   0.203   2.644   0.623
 6501SOL    HW220403   0.071   2.609   0.712
 6502SOL     OW20404   6.799   3.880   3.387
 6502SOL    HW120405   6.816   3.965   3.338
 6502SOL    HW220406   6.711   3.841   3.359
 6503SOL     OW20407   5.256   6.970   3.778
 6503SOL    HW120408   5.181   6.937   3.835
 6503SOL    HW220409   5.313   6.893   3.750
 6504SOL     OW20410   4.557   6.195   6.077
 6504SOL    HW120411   4.502   6.274   6.051
 6504SOL    HW220412   4.617   6.169   6.001
 6505SOL     OW20413   5.690   4.546   1.949
 6505SOL    HW120414   5.741   4.616   1.997
 6505SOL    HW220415   5.753   4.480   1.909
 6506SOL     OW20416   0.685   3.189   0.681
 6506SOL    HW120417   0.689   3.289   0.690
 6506SOL    HW220418   0.590   3.159   0.680
 6507SOL     OW20419   1.895   5.932   6.538
 6507SOL    HW120420   1.818   5.949   6.476
 6507SOL    HW220421   1.917   5.835   6.539
 6508SOL     OW20422   2.094   1.948   3.774
 6508SOL    HW120423   2.134   2.039   3.783
 6508SOL    HW220424   2.165   1.884   3.745
 6509SOL     OW20425   2.146   2.408   4.700
 6509SOL    HW120426   2.048   2.429   4.701
 6509SOL    HW220427   2.198   2.492   4.717
 6510SOL     OW20428   0.720   5.063   6.575
 6510SOL    HW120429   0.680   5.152   6.593
 6510SOL    HW220430   0.783   5.070   6.497
 6511SOL     OW20431   5.259   0.830   4.604
 6511SOL    HW120432   5.255   0.730   4.616
 6511SOL    HW220433   5.239   0.853   4.509
 6512SOL     OW20434   5.197   0.504   2.868
 6512SOL    HW120435   5.208   0.483   2.965
 6512SOL    HW220436   5.281   0.479   2.819
 6513SOL     OW20437   3.418   6.100   3.341
 6513SOL    HW120438   3.497   6.160   3.336
 6513SOL    HW220439   3.343   6.147   3.388
 6514SOL     OW20440   5.577   0.374   3.097
 6514SOL    HW120441   5.649   0.420   3.045
 6514SOL    HW220442   5.606   0.281   3.118
 6515SOL     OW20443   0.191   5.471   3.784
 6515SOL    HW120444   0.093   5.450   3.784
 6515SOL    HW220445   0.225   5.473   3.878
 6516SOL     OW20446   0.193   2.056   0.411
 6516SOL    HW120447   0.152   2.111   0.484
 6516SOL    HW220448   0.292   2.057   0.421
 6517SOL     OW20449   5.713   1.329   0.590
 6517SOL    HW120450   5.621   1.353   0.557
 6517SOL    HW220451   5.712   1.319   0.689
 6518SOL     OW20452   0.598   6.132   6.798
 6518SOL    HW120453   0.680   6.190   6.807
 6518SOL    HW220454   0.626   6.039   6.777
 6519SOL     OW20455   2.338   2.016   3.496
 6519SOL    HW120456   2.427   1.972   3.483
 6519SOL    HW220457   2.292   2.024   3.407
 6520SOL     OW20458   6.769   5.951   3.244
 6520SOL    HW120459   6.829   5.878   3.212
 6520SOL    HW220460   6.761   5.945   3.344
 6521SOL     OW20461   1.012   1.351   4.540
 6521SOL    HW120462   1.057   1.322   4.624
 6521SOL    HW220463   0.948   1.281   4.510
 6522SOL     OW20464   3.016   4.375   6.973
 6522SOL    HW120465   2.987   4.313   6.900
 6522SOL    HW220466   2.946   4.378   0.022
 6523SOL     OW20467   3.240   1.407   6.489
 6523SOL    HW120468   3.193   1.381   6.574
 6523SOL    HW220469   3.320   1.348   6.478
 6524SOL     OW20470   3.480   2.877   3.215
 6524SOL    HW120471   3.404   2.863   3.279
 6524SOL    HW220472   3.567   2.870   3.265
 6525SOL     OW20473   2.223   3.016   2.900
 6525SOL    HW120474   2.280   2.964   2.836
 6525SOL    HW220475   2.250   3.112   2.898
 6526SOL     OW20476   0.656   6.237   4.586
 6526SOL    HW120477   0.561   6.252   4.558
 6526SOL    HW220478   0.707   6.198   4.509
 6527SOL     OW20479   0.445   1.516   4.209
 6527SOL    HW120480   0.491   1.434   4.243
 6527SOL    HW220481   0.510   1.572   4.158
 6528SOL     OW20482   6.916   0.667   3.957
 6528SOL    HW120483   6.992   0.727   3.932
 6528SOL    HW220484   6.887   0.614   3.877
 6529SOL     OW20485   6.096   1.707   3.735
 6529SOL    HW120486   6.157   1.651   3.678
 6529SOL    HW220487   6.005   1.666   3.736
 6530SOL     OW20488   6.901   4.130   0.945
 6530SOL    HW120489   6.873   4.145   1.040
 6530SOL    HW220490   6.995   4.098   0.942
 6531SOL     OW20491   5.125   3.277   4.245
 6531SOL    HW120492   5.119   3.366   4.290
 6531SOL    HW220493   5.167   3.210   4.307
 6532SOL     OW20494   5.575   1.195   1.129
 6532SOL    HW120495   5.478   1.181   1.148
 6532SOL    HW220496   5.620   1.232   1.210
 6533SOL     OW20497   5.403   5.803   1.667
 6533SOL    HW120498   5.499   5.811   1.642
 6533SOL    HW220499   5.376   5.707   1.668
 6534SOL     OW20500   2.588   4.465   1.343
 6534SOL    HW120501   2.584   4.519   1.427
 6534SOL    HW220502   2.653   4.390   1.355
 6535SOL     OW20503   0.497   3.344   4.432
 6535SOL    HW120504   0.595   3.333   4.414
 6535SOL    HW220505   0.466   3.431   4.394
 6536SOL     OW20506   6.692   2.341   5.995
 6536SOL    HW120507   6.755   2.307   5.924
 6536SOL    HW220508   6.607   2.371   5.952
 6537SOL     OW20509   6.270   5.832   6.737
 6537SOL    HW120510   6.209   5.768   6.691
 6537SOL    HW220511   6.233   5.924   6.732
 6538SOL     OW20512   3.698   4.024   0.346
 6538SOL    HW120513   3.628   4.086   0.380
 6538SOL    HW220514   3.763   4.076   0.289
 6539SOL     OW20515   2.616   1.485   6.202
 6539SOL    HW120516   2.662   1.572   6.220
 6539SOL    HW220517   2.684   1.414   6.188
 6540SOL     OW20518   4.412   1.945   4.781
 6540SOL    HW120519   4.392   2.035   4.819
 6540SOL    HW220520   4.510   1.937   4.763
 6541SOL     OW20521   3.656   2.058   4.457
 6541SOL    HW120522   3.730   2.118   4.488
 6541SOL    HW220523   3.669   1.966   4.495
 6542SOL     OW20524   0.299   4.784   3.227
 6542SOL    HW120525   0.202   4.809   3.231
 6542SOL    HW220526   0.322   4.729   3.307
 6543SOL     OW20527   6.452   4.139   0.297
 6543SOL    HW120528   6.394   4.203   0.247
 6543SOL    HW220529   6.395   4.064   0.333
 6544SOL     OW20530   0.459   6.084   3.654
 6544SOL    HW120531   0.460   6.178   3.687
 6544SOL    HW220532   0.408   6.080   3.568
 6545SOL     OW20533   4.912   2.030   6.246
 6545SOL    HW120534   4.815   2.038   6.224
 6545SOL    HW220535   4.959   2.114   6.218
 6546SOL     OW20536   4.576   4.474   6.450
 6546SOL    HW120537   4.628   4.521   6.522
 6546SOL    HW220538   4.623   4.483   6.363
 6547SOL     OW20539   4.168   1.729   5.637
 6547SOL    HW120540   4.124   1.690   5.556
 6547SOL    HW220541   4.240   1.793   5.608
 6548SOL     OW20542   0.638   4.075   6.945
 6548SOL    HW120543   0.563   4.009   6.934
 6548SOL    HW220544   0.690   4.081   6.860
 6549SOL     OW20545   3.649   1.302   0.843
 6549SOL    HW120546   3.594   1.382   0.818
 6549SOL    HW220547   3.623   1.225   0.785
 6550SOL     OW20548   7.018   6.261   3.227
 6550SOL    HW120549   6.979   6.279   3.317
 6550SOL    HW220550   0.039   6.171   3.227
 6551SOL     OW20551   1.935   4.153   2.386
 6551SOL    HW120552   1.936   4.196   2.476
 6551SOL    HW220553   1.929   4.223   2.315
 6552SOL     OW20554   2.393   6.845   4.631
 6552SOL    HW120555   2.428   6.850   4.538
 6552SOL    HW220556   2.371   6.937   4.664
 6553SOL     OW20557   0.060   2.253   1.545
 6553SOL    HW120558   0.069   2.332   1.485
 6553SOL    HW220559   0.031   2.284   1.636
 6554SOL     OW20560   5.853   1.933   6.211
 6554SOL    HW120561   5.816   1.904   6.123
 6554SOL    HW220562   5.847   1.857   6.276
 6555SOL     OW20563   1.817   0.983   2.484
 6555SOL    HW120564   1.900   0.991   2.539
 6555SOL    HW220565   1.840   0.997   2.388
 6556SOL     OW20566   4.706   4.595   5.165
 6556SOL    HW120567   4.770   4.530   5.122
 6556SOL    HW220568   4.750   4.639   5.243
 6557SOL     OW20569   5.173   5.353   1.251
 6557SOL    HW120570   5.160   5.444   1.212
 6557SOL    HW220571   5.266   5.345   1.288
 6558SOL     OW20572   6.399   6.019   1.487
 6558SOL    HW120573   6.390   6.088   1.558
 6558SOL    HW220574   6.371   6.057   1.399
 6559SOL     OW20575   6.567   4.197   0.648
 6559SOL    HW120576   6.598   4.245   0.730
 6559SOL    HW220577   6.617   4.231   0.568
 6560SOL     OW20578   3.577   2.788   1.854
 6560SOL    HW120579   3.590   2.767   1.951
 6560SOL    HW220580   3.573   2.702   1.802
 6561SOL     OW20581   3.753   3.910   2.422
 6561SOL    HW120582   3.851   3.912   2.405
 6561SOL    HW220583   3.731   3.834   2.484
 6562SOL     OW20584   6.210   4.693   6.559
 6562SOL    HW120585   6.264   4.708   6.476
 6562SOL    HW220586   6.203   4.595   6.578
 6563SOL     OW20587   0.601   6.514   6.962
 6563SOL    HW120588   0.657   6.453   6.906
 6563SOL    HW220589   0.621   6.609   6.937
 6564SOL     OW20590   0.692   3.620   2.021
 6564SOL    HW120591   0.667   3.707   2.064
 6564SOL    HW220592   0.750   3.638   1.941
 6565SOL     OW20593   6.618   2.047   4.547
 6565SOL    HW120594   6.602   2.068   4.643
 6565SOL    HW220595   6.531   2.049   4.498
 6566SOL     OW20596   3.464   6.768   1.309
 6566SOL    HW120597   3.396   6.751   1.380
 6566SOL    HW220598   3.417   6.780   1.221
 6567SOL     OW20599   4.166   2.017   1.551
 6567SOL    HW120600   4.112   1.950   1.601
 6567SOL    HW220601   4.106   2.071   1.492
 6568SOL     OW20602   4.708   4.962   2.459
 6568SOL    HW120603   4.710   4.946   2.557
 6568SOL    HW220604   4.772   5.036   2.436
 6569SOL     OW20605   2.946   4.588   1.409
 6569SOL    HW120606   3.022   4.543   1.455
 6569SOL    HW220607   2.930   4.545   1.320
 6570SOL     OW20608   5.015   6.775   1.101
 6570SOL    HW120609   5.022   6.696   1.162
 6570SOL    HW220610   4.990   6.856   1.154
 6571SOL     OW20611   2.243   6.671   2.538
 6571SOL    HW120612   2.201   6.659   2.628
 6571SOL    HW220613   2.180   6.720   2.479
 6572SOL     OW20614   6.499   4.754   5.334
 6572SOL    HW120615   6.447   4.835   5.308
 6572SOL    HW220616   6.474   4.678   5.273
 6573SOL     OW20617   3.045   1.907   3.201
 6573SOL    HW120618   3.127   1.872   3.157
 6573SOL    HW220619   2.987   1.952   3.132
 6574SOL     OW20620   2.929   6.021   2.228
 6574SOL    HW120621   2.872   5.989   2.304
 6574SOL    HW220622   2.886   6.101   2.186
 6575SOL     OW20623   0.799   1.463   1.684
 6575SOL    HW120624   0.758   1.390   1.630
 6575SOL    HW220625   0.852   1.523   1.623
 6576SOL     OW20626   1.713   6.282   6.334
 6576SOL    HW120627   1.706   6.187   6.305
 6576SOL    HW220628   1.706   6.342   6.254
 6577SOL     OW20629   0.791   1.488   3.267
 6577SOL    HW120630   0.794   1.581   3.301
 6577SOL    HW220631   0.787   1.424   3.343
 6578SOL     OW20632   0.018   4.971   2.795
 6578SOL    HW120633   6.996   5.011   2.875
 6578SOL    HW220634   0.116   4.962   2.812
 6579SOL     OW20635   0.002   4.160   4.190
 6579SOL    HW120636   6.983   4.139   4.279
 6579SOL    HW220637   0.077   4.097   4.173
 6580SOL     OW20638   5.917   1.328   1.454
 6580SOL    HW120639   5.850   1.278   1.400
 6580SOL    HW220640   6.001   1.274   1.462
 6581SOL     OW20641   3.713   0.839   6.106
 6581SOL    HW120642   3.800   0.849   6.056
 6581SOL    HW220643   3.637   0.857   6.044
 6582SOL     OW20644   1.511   0.486   1.946
 6582SOL    HW120645   1.477   0.399   1.981
 6582SOL    HW220646   1.604   0.473   1.910
 6583SOL     OW20647   4.256   0.793   5.854
 6583SOL    HW120648   4.211   0.784   5.765
 6583SOL    HW220649   4.263   0.889   5.878
 6584SOL     OW20650   5.379   1.435   0.268
 6584SOL    HW120651   5.379   1.497   0.190
 6584SOL    HW220652   5.296   1.380   0.268
 6585SOL     OW20653   6.272   1.047   0.427
 6585SOL    HW120654   6.369   1.049   0.404
 6585SOL    HW220655   6.218   1.048   0.342
 6586SOL     OW20656   5.741   2.326   6.034
 6586SOL    HW120657   5.711   2.421   6.033
 6586SOL    HW220658   5.691   2.276   6.105
 6587SOL     OW20659   3.099   5.834   4.072
 6587SOL    HW120660   3.110   5.747   4.024
 6587SOL    HW220661   3.089   5.908   4.006
 6588SOL     OW20662   2.174   4.183   1.627
 6588SOL    HW120663   2.227   4.148   1.550
 6588SOL    HW220664   2.078   4.189   1.601
 6589SOL     OW20665   4.239   0.653   6.867
 6589SOL    HW120666   4.149   0.638   6.908
 6589SOL    HW220667   4.292   0.568   6.871
 6590SOL     OW20668   0.563   1.651   5.906
 6590SOL    HW120669   0.645   1.666   5.849
 6590SOL    HW220670   0.534   1.738   5.945
 6591SOL     OW20671   5.725   6.105   2.318
 6591SOL    HW120672   5.694   6.147   2.403
 6591SOL    HW220673   5.818   6.137   2.298
 6592SOL     OW20674   5.072   6.879   3.948
 6592SOL    HW120675   5.129   6.860   4.028
 6592SOL    HW220676   4.992   6.818   3.950
 6593SOL     OW20677   2.247   2.617   3.609
 6593SOL    HW120678   2.334   2.612   3.657
 6593SOL    HW220679   2.172   2.600   3.673
 6594SOL     OW20680   3.982   1.184   0.603
 6594SOL    HW120681   3.960   1.103   0.548
 6594SOL    HW220682   3.903   1.208   0.659
 6595SOL     OW20683   0.505   4.082   1.047
 6595SOL    HW120684   0.464   4.019   0.981
 6595SOL    HW220685   0.602   4.061   1.058
 6596SOL     OW20686   3.955   0.198   4.826
 6596SOL    HW120687   4.007   0.122   4.864
 6596SOL    HW220688   3.995   0.225   4.739
 6597SOL     OW20689   1.170   6.113   3.114
 6597SOL    HW120690   1.113   6.091   3.194
 6597SOL    HW220691   1.191   6.210   3.114
 6598SOL     OW20692   1.684   6.212   5.313
 6598SOL    HW120693   1.654   6.300   5.278
 6598SOL    HW220694   1.783   6.203   5.302
 6599SOL     OW20695   4.003   5.368   5.545
 6599SOL    HW120696   4.072   5.323   5.602
 6599SOL    HW220697   3.955   5.300   5.491
 6600SOL     OW20698   5.310   5.313   5.362
 6600SOL    HW120699   5.363   5.257   5.425
 6600SOL    HW220700   5.248   5.371   5.415
 6601SOL     OW20701   1.084   0.547   0.690
 6601SOL    HW120702   0.997   0.561   0.738
 6601SOL    HW220703   1.135   0.474   0.735
 6602SOL     OW20704   6.751   1.826   1.739
 6602SOL    HW120705   6.723   1.829   1.834
 6602SOL    HW220706   6.720   1.910   1.693
 6603SOL     OW20707   1.114   2.834   4.176
 6603SOL    HW120708   1.213   2.837   4.187
 6603SOL    HW220709   1.077   2.753   4.221
 6604SOL     OW20710   3.040   6.317   1.432
 6604SOL    HW120711   3.001   6.227   1.450
 6604SOL    HW220712   2.973   6.387   1.453
 6605SOL     OW20713   5.045   4.673   0.908
 6605SOL    HW120714   5.003   4.616   0.838
 6605SOL    HW220715   5.071   4.761   0.869
 6606SOL     OW20716   4.852   6.534   2.066
 6606SOL    HW120717   4.762   6.515   2.104
 6606SOL    HW220718   4.911   6.573   2.137
 6607SOL     OW20719   2.219   1.469   1.539
 6607SOL    HW120720   2.317   1.452   1.526
 6607SOL    HW220721   2.202   1.491   1.635
 6608SOL     OW20722   5.281   5.034   2.241
 6608SOL    HW120723   5.240   5.097   2.175
 6608SOL    HW220724   5.209   4.979   2.284
 6609SOL     OW20725   4.868   0.848   6.383
 6609SOL    HW120726   4.847   0.944   6.365
 6609SOL    HW220727   4.787   0.801   6.419
 6610SOL     OW20728   2.398   0.182   6.727
 6610SOL    HW120729   2.451   0.175   6.642
 6610SOL    HW220730   2.445   0.245   6.790
 6611SOL     OW20731   6.721   2.484   2.883
 6611SOL    HW120732   6.696   2.526   2.796
 6611SOL    HW220733   6.817   2.455   2.880
 6612SOL     OW20734   0.370   3.930   0.198
 6612SOL    HW120735   0.464   3.904   0.221
 6612SOL    HW220736   0.312   3.849   0.199
 6613SOL     OW20737   5.818   6.136   3.601
 6613SOL    HW120738   5.781   6.180   3.683
 6613SOL    HW220739   5.802   6.037   3.606
 6614SOL     OW20740   4.609   6.447   6.626
 6614SOL    HW120741   4.542   6.421   6.556
 6614SOL    HW220742   4.566   6.443   6.716
 6615SOL     OW20743   0.515   3.853   4.676
 6615SOL    HW120744   0.462   3.800   4.743
 6615SOL    HW220745   0.607   3.816   4.670
 6616SOL     OW20746   4.296   1.039   5.959
 6616SOL    HW120747   4.271   1.090   6.041
 6616SOL    HW220748   4.288   1.099   5.879
 6617SOL     OW20749   3.185   6.164   2.909
 6617SOL    HW120750   3.156   6.108   2.986
 6617SOL    HW220751   3.229   6.107   2.840
 6618SOL     OW20752   0.817   3.319   2.972
 6618SOL    HW120753   0.882   3.379   3.019
 6618SOL    HW220754   0.866   3.265   2.903
 6619SOL     OW20755   6.568   6.712   4.661
 6619SOL    HW120756   6.484   6.692   4.611
 6619SOL    HW220757   6.563   6.672   4.753
 6620SOL     OW20758   1.915   2.710   5.565
 6620SOL    HW120759   1.901   2.793   5.511
 6620SOL    HW220760   2.006   2.673   5.546
 6621SOL     OW20761   2.729   3.486   0.377
 6621SOL    HW120762   2.641   3.510   0.336
 6621SOL    HW220763   2.738   3.532   0.465
 6622SOL     OW20764   6.398   6.217   1.706
 6622SOL    HW120765   6.389   6.258   1.797
 6622SOL    HW220766   6.459   6.273   1.650
 6623SOL     OW20767   3.307   3.155   1.763
 6623SOL    HW120768   3.264   3.129   1.677
 6623SOL    HW220769   3.384   3.094   1.781
 6624SOL     OW20770   2.689   6.838   4.044
 6624SOL    HW120771   2.701   6.866   4.140
 6624SOL    HW220772   2.777   6.838   3.998
 6625SOL     OW20773   5.320   2.188   6.455
 6625SOL    HW120774   5.403   2.191   6.512
 6625SOL    HW220775   5.239   2.190   6.514
 6626SOL     OW20776   3.629   5.097   3.617
 6626SOL    HW120777   3.702   5.047   3.663
 6626SOL    HW220778   3.637   5.087   3.518
 6627SOL     OW20779   2.213   0.870   5.759
 6627SOL    HW120780   2.226   0.771   5.764
 6627SOL    HW220781   2.124   0.890   5.719
 6628SOL     OW20782   4.901   5.493   3.445
 6628SOL    HW120783   4.846   5.524   3.523
 6628SOL    HW220784   4.898   5.393   3.441
 6629SOL     OW20785   3.044   6.375   0.541
 6629SOL    HW120786   3.037   6.364   0.640
 6629SOL    HW220787   2.953   6.363   0.500
 6630SOL     OW20788   3.399   2.020   0.973
 6630SOL    HW120789   3.434   1.954   1.040
 6630SOL    HW220790   3.476   2.068   0.931
 6631SOL     OW20791   4.572   0.178   2.394
 6631SOL    HW120792   4.652   0.134   2.434
 6631SOL    HW220793   4.490   0.153   2.445
 6632SOL     OW20794   6.876   0.941   1.719
 6632SOL    HW120795   6.790   0.982   1.690
 6632SOL    HW220796   6.907   0.985   1.803
 6633SOL     OW20797   1.836   5.483   5.815
 6633SOL    HW120798   1.834   5.550   5.741
 6633SOL    HW220799   1.746   5.478   5.859
 6634SOL     OW20800   5.559   3.376   5.726
 6634SOL    HW120801   5.471   3.421   5.708
 6634SOL    HW220802   5.613   3.376   5.642
 6635SOL     OW20803   4.230   5.082   2.919
 6635SOL    HW120804   4.300   5.078   2.846
 6635SOL    HW220805   4.140   5.095   2.877
 6636SOL     OW20806   2.209   2.458   6.079
 6636SOL    HW120807   2.242   2.489   5.990
 6636SOL    HW220808   2.209   2.358   6.081
 6637SOL     OW20809   1.553   0.439   6.698
 6637SOL    HW120810   1.612   0.455   6.777
 6637SOL    HW220811   1.590   0.363   6.643
 6638SOL     OW20812   4.056   4.666   5.243
 6638SOL    HW120813   4.112   4.720   5.304
 6638SOL    HW220814   4.112   4.596   5.199
 6639SOL     OW20815   5.674   6.375   6.197
 6639SOL    HW120816   5.662   6.408   6.103
 6639SOL    HW220817   5.769   6.389   6.225
 6640SOL     OW20818   0.111   2.022   5.180
 6640SOL    HW120819   0.147   1.930   5.173
 6640SOL    HW220820   0.186   2.088   5.175
 6641SOL     OW20821   2.317   3.055   6.483
 6641SOL    HW120822   2.315   3.136   6.541
 6641SOL    HW220823   2.269   3.074   6.397
 6642SOL     OW20824   3.028   4.903   0.430
 6642SOL    HW120825   3.013   4.987   0.481
 6642SOL    HW220826   3.007   4.918   0.333
 6643SOL     OW20827   6.591   4.643   6.894
 6643SOL    HW120828   6.667   4.579   6.884
 6643SOL    HW220829   6.508   4.602   6.856
 6644SOL     OW20830   2.947   4.837   1.865
 6644SOL    HW120831   2.972   4.818   1.770
 6644SOL    HW220832   2.910   4.754   1.907
 6645SOL     OW20833   6.382   5.581   0.308
 6645SOL    HW120834   6.398   5.671   0.269
 6645SOL    HW220835   6.372   5.589   0.408
 6646SOL     OW20836   4.261   5.841   4.198
 6646SOL    HW120837   4.194   5.779   4.157
 6646SOL    HW220838   4.329   5.788   4.248
 6647SOL     OW20839   3.455   1.730   2.808
 6647SOL    HW120840   3.411   1.642   2.793
 6647SOL    HW220841   3.527   1.743   2.739
 6648SOL     OW20842   3.543   6.196   2.091
 6648SOL    HW120843   3.527   6.258   2.014
 6648SOL    HW220844   3.519   6.103   2.065
 6649SOL     OW20845   5.145   1.752   6.768
 6649SOL    HW120846   5.204   1.802   6.831
 6649SOL    HW220847   5.054   1.741   6.809
 6650SOL     OW20848   4.089   1.737   4.530
 6650SOL    HW120849   4.163   1.681   4.492
 6650SOL    HW220850   4.124   1.788   4.608
 6651SOL     OW20851   1.466   1.707   6.864
 6651SOL    HW120852   1.463   1.698   6.963
 6651SOL    HW220853   1.395   1.770   6.834
 6652SOL     OW20854   6.422   4.729   0.094
 6652SOL    HW120855   6.488   4.675   0.042
 6652SOL    HW220856   6.334   4.728   0.048
 6653SOL     OW20857   3.534   3.161   3.100
 6653SOL    HW120858   3.497   3.068   3.101
 6653SOL    HW220859   3.493   3.212   3.024
 6654SOL     OW20860   2.161   2.581   1.018
 6654SOL    HW120861   2.220   2.511   1.059
 6654SOL    HW220862   2.098   2.617   1.087
 6655SOL     OW20863   2.821   0.018   1.684
 6655SOL    HW120864   2.802   0.043   1.589
 6655SOL    HW220865   2.757   0.064   1.745
 6656SOL     OW20866   6.290   1.464   3.191
 6656SOL    HW120867   6.303   1.526   3.114
 6656SOL    HW220868   6.337   1.378   3.173
 6657SOL     OW20869   4.738   6.248   6.276
 6657SOL    HW120870   4.673   6.242   6.200
 6657SOL    HW220871   4.745   6.344   6.306
 6658SOL     OW20872   5.949   1.451   5.108
 6658SOL    HW120873   5.906   1.367   5.140
 6658SOL    HW220874   5.911   1.529   5.158
 6659SOL     OW20875   2.735   2.280   0.351
 6659SOL    HW120876   2.762   2.189   0.319
 6659SOL    HW220877   2.641   2.299   0.324
 6660SOL     OW20878   0.434   6.394   1.068
 6660SOL    HW120879   0.502   6.451   1.022
 6660SOL    HW220880   0.344   6.435   1.060
 6661SOL     OW20881   0.688   5.049   3.795
 6661SOL    HW120882   0.706   5.050   3.893
 6661SOL    HW220883   0.594   5.020   3.779
 6662SOL     OW20884   1.845   0.667   6.658
 6662SOL    HW120885   1.933   0.639   6.619
 6662SOL    HW220886   1.805   0.590   6.709
 6663SOL     OW20887   6.859   5.481   2.897
 6663SOL    HW120888   6.855   5.395   2.846
 6663SOL    HW220889   6.937   5.535   2.865
 6664SOL     OW20890   1.458   0.059   1.503
 6664SOL    HW120891   1.379   0.046   1.564
 6664SOL    HW220892   1.429   0.048   1.408
 6665SOL     OW20893   2.192   0.482   3.025
 6665SOL    HW120894   2.203   0.386   3.048
 6665SOL    HW220895   2.097   0.509   3.035
 6666SOL     OW20896   5.835   1.689   5.263
 6666SOL    HW120897   5.750   1.737   5.287
 6666SOL    HW220898   5.911   1.729   5.313
 6667SOL     OW20899   6.724   4.987   5.076
 6667SOL    HW120900   6.696   5.067   5.129
 6667SOL    HW220901   6.809   5.007   5.027
 6668SOL     OW20902   6.623   6.033   1.792
 6668SOL    HW120903   6.554   6.051   1.722
 6668SOL    HW220904   6.710   6.009   1.749
 6669SOL     OW20905   1.910   2.940   3.956
 6669SOL    HW120906   1.949   2.919   3.866
 6669SOL    HW220907   1.970   2.903   4.027
 6670SOL     OW20908   3.384   3.598   6.233
 6670SOL    HW120909   3.399   3.504   6.201
 6670SOL    HW220910   3.364   3.657   6.155
 6671SOL     OW20911   5.534   5.512   0.949
 6671SOL    HW120912   5.485   5.555   0.873
 6671SOL    HW220913   5.630   5.497   0.922
 6672SOL     OW20914   0.854   1.651   5.029
 6672SOL    HW120915   0.928   1.633   4.965
 6672SOL    HW220916   0.814   1.741   5.009
 6673SOL     OW20917   4.303   5.845   3.008
 6673SOL    HW120918   4.215   5.893   3.014
 6673SOL    HW220919   4.299   5.762   3.064
 6674SOL     OW20920   1.046   5.158   6.225
 6674SOL    HW120921   0.958   5.164   6.271
 6674SOL    HW220922   1.033   5.122   6.132
 6675SOL     OW20923   4.694   4.065   1.773
 6675SOL    HW120924   4.666   3.969   1.778
 6675SOL    HW220925   4.613   4.124   1.773
 6676SOL     OW20926   0.120   3.575   5.557
 6676SOL    HW120927   0.213   3.613   5.557
 6676SOL    HW220928   0.109   3.514   5.635
 6677SOL     OW20929   0.393   3.033   0.135
 6677SOL    HW120930   0.372   3.003   0.042
 6677SOL    HW220931   0.349   2.972   0.201
 6678SOL     OW20932   1.520   2.519   0.148
 6678SOL    HW120933   1.440   2.576   0.167
 6678SOL    HW220934   1.602   2.577   0.150
 6679SOL     OW20935   2.072   1.832   4.704
 6679SOL    HW120936   2.056   1.734   4.718
 6679SOL    HW220937   2.146   1.844   4.637
 6680SOL     OW20938   4.394   5.940   5.663
 6680SOL    HW120939   4.391   5.879   5.742
 6680SOL    HW220940   4.457   6.015   5.681
 6681SOL     OW20941   4.762   4.995   0.098
 6681SOL    HW120942   4.857   4.989   0.128
 6681SOL    HW220943   4.718   5.073   0.141
 6682SOL     OW20944   1.123   3.887   2.358
 6682SOL    HW120945   1.027   3.863   2.374
 6682SOL    HW220946   1.173   3.806   2.327
 6683SOL     OW20947   5.169   2.455   5.889
 6683SOL    HW120948   5.187   2.553   5.891
 6683SOL    HW220949   5.224   2.413   5.816
 6684SOL     OW20950   1.995   6.574   1.105
 6684SOL    HW120951   1.968   6.666   1.078
 6684SOL    HW220952   1.950   6.550   1.191
 6685SOL     OW20953   5.390   2.090   5.862
 6685SOL    HW120954   5.341   2.149   5.926
 6685SOL    HW220955   5.426   2.010   5.910
 6686SOL     OW20956   5.695   5.092   3.845
 6686SOL    HW120957   5.697   4.993   3.859
 6686SOL    HW220958   5.694   5.137   3.934
 6687SOL     OW20959   0.564   1.960   1.620
 6687SOL    HW120960   0.658   1.941   1.647
 6687SOL    HW220961   0.562   1.993   1.525
 6688SOL     OW20962   0.424   4.314   1.917
 6688SOL    HW120963   0.467   4.398   1.951
 6688SOL    HW220964   0.407   4.252   1.993
 6689SOL     OW20965   4.217   2.458   0.133
 6689SOL    HW120966   4.305   2.427   0.169
 6689SOL    HW220967   4.169   2.510   0.203
 6690SOL     OW20968   2.601   1.244   1.675
 6690SOL    HW120969   2.701   1.238   1.677
 6690SOL    HW220970   2.562   1.167   1.725
 6691SOL     OW20971   3.274   5.706   1.290
 6691SOL    HW120972   3.338   5.765   1.241
 6691SOL    HW220973   3.322   5.623   1.319
 6692SOL     OW20974   2.831   4.870   5.130
 6692SOL    HW120975   2.918   4.919   5.126
 6692SOL    HW220976   2.839   4.784   5.079
 6693SOL     OW20977   5.299   3.366   6.461
 6693SOL    HW120978   5.308   3.421   6.544
 6693SOL    HW220979   5.333   3.417   6.383
 6694SOL     OW20980   4.666   5.894   6.855
 6694SOL    HW120981   4.568   5.907   6.870
 6694SOL    HW220982   4.687   5.906   6.758
 6695SOL     OW20983   1.032   1.806   6.603
 6695SOL    HW120984   0.969   1.730   6.621
 6695SOL    HW220985   1.006   1.885   6.659
 6696SOL     OW20986   1.858   2.553   0.444
 6696SOL    HW120987   1.833   2.501   0.525
 6696SOL    HW220988   1.904   2.493   0.378
 6697SOL     OW20989   4.408   2.425   3.013
 6697SOL    HW120990   4.404   2.510   2.961
 6697SOL    HW220991   4.464   2.437   3.094
 6698SOL     OW20992   3.666   2.532   0.456
 6698SOL    HW120993   3.714   2.601   0.510
 6698SOL    HW220994   3.585   2.501   0.506
 6699SOL     OW20995   3.368   4.492   0.218
 6699SOL    HW120996   3.305   4.472   0.293
 6699SOL    HW220997   3.399   4.587   0.225
 6700SOL     OW20998   0.226   5.470   0.893
 6700SOL    HW120999   0.162   5.424   0.831
 6700SOL    HW221000   0.254   5.557   0.853
 6701SOL     OW21001   6.380   2.775   1.247
 6701SOL    HW121002   6.313   2.826   1.194
 6701SOL    HW221003   6.366   2.790   1.344
 6702SOL     OW21004   2.879   2.539   0.142
 6702SOL    HW121005   2.894   2.610   0.210
 6702SOL    HW221006   2.783   2.509   0.146
 6703SOL     OW21007   6.306   1.933   0.142
 6703SOL    HW121008   6.358   1.952   0.059
 6703SOL    HW221009   6.254   2.014   0.167
 6704SOL     OW21010   4.243   2.292   2.603
 6704SOL    HW121011   4.283   2.363   2.546
 6704SOL    HW221012   4.155   2.264   2.564
 6705SOL     OW21013   0.252   1.923   1.919
 6705SOL    HW121014   0.313   1.853   1.882
 6705SOL    HW221015   0.297   1.969   1.996
 6706SOL     OW21016   1.211   4.425   0.561
 6706SOL    HW121017   1.220   4.327   0.543
 6706SOL    HW221018   1.217   4.475   0.474
 6707SOL     OW21019   6.468   5.585   4.861
 6707SOL    HW121020   6.497   5.610   4.953
 6707SOL    HW221021   6.458   5.667   4.805
 6708SOL     OW21022   1.737   5.918   2.520
 6708SOL    HW121023   1.768   5.924   2.615
 6708SOL    HW221024   1.783   5.988   2.465
 6709SOL     OW21025   3.339   6.076   1.352
 6709SOL    HW121026   3.388   6.018   1.286
 6709SOL    HW221027   3.241   6.073   1.331
 6710SOL     OW21028   2.460   2.113   6.310
 6710SOL    HW121029   2.424   2.168   6.385
 6710SOL    HW221030   2.408   2.133   6.227
 6711SOL     OW21031   5.830   4.515   6.517
 6711SOL    HW121032   5.786   4.451   6.454
 6711SOL    HW221033   5.791   4.504   6.609
 6712SOL     OW21034   4.351   5.236   0.421
 6712SOL    HW121035   4.448   5.259   0.425
 6712SOL    HW221036   4.341   5.137   0.409
 6713SOL     OW21037   2.054   1.688   1.347
 6713SOL    HW121038   2.129   1.751   1.366
 6713SOL    HW221039   2.090   1.594   1.344
 6714SOL     OW21040   5.330   0.454   5.423
 6714SOL    HW121041   5.410   0.489   5.374
 6714SOL    HW221042   5.268   0.408   5.359
 6715SOL     OW21043   0.102   0.607   0.163
 6715SOL    HW121044   0.083   0.605   0.261
 6715SOL    HW221045   0.144   0.520   0.136
 6716SOL     OW21046   1.492   6.752   1.485
 6716SOL    HW121047   1.406   6.704   1.500
 6716SOL    HW221048   1.506   6.767   1.387
 6717SOL     OW21049   4.682   2.757   0.730
 6717SOL    HW121050   4.698   2.848   0.769
 6717SOL    HW221051   4.769   2.710   0.718
 6718SOL     OW21052   4.208   5.718   6.627
 6718SOL    HW121053   4.238   5.630   6.591
 6718SOL    HW221054   4.196   5.783   6.551
 6719SOL     OW21055   0.865   0.417   6.166
 6719SOL    HW121056   0.873   0.396   6.264
 6719SOL    HW221057   0.925   0.355   6.115
 6720SOL     OW21058   2.640   6.051   1.970
 6720SOL    HW121059   2.622   6.059   1.872
 6720SOL    HW221060   2.589   5.973   2.006
 6721SOL     OW21061   5.475   6.547   4.163
 6721SOL    HW121062   5.538   6.475   4.135
 6721SOL    HW221063   5.421   6.516   4.241
 6722SOL     OW21064   5.173   3.278   0.965
 6722SOL    HW121065   5.253   3.318   1.010
 6722SOL    HW221066   5.099   3.345   0.962
 6723SOL     OW21067   2.495   6.796   3.192
 6723SOL    HW121068   2.409   6.754   3.165
 6723SOL    HW221069   2.479   6.891   3.218
 6724SOL     OW21070   1.813   4.410   5.468
 6724SOL    HW121071   1.720   4.443   5.453
 6724SOL    HW221072   1.855   4.387   5.380
 6725SOL     OW21073   0.856   4.270   2.216
 6725SOL    HW121074   0.907   4.304   2.295
 6725SOL    HW221075   0.849   4.342   2.147
 6726SOL     OW21076   1.943   2.289   5.007
 6726SOL    HW121077   1.981   2.205   5.044
 6726SOL    HW221078   1.999   2.367   5.035
 6727SOL     OW21079   5.578   3.728   6.008
 6727SOL    HW121080   5.580   3.729   5.908
 6727SOL    HW221081   5.593   3.635   6.041
 6728SOL     OW21082   4.844   1.583   4.135
 6728SOL    HW121083   4.811   1.677   4.128
 6728SOL    HW221084   4.785   1.531   4.197
 6729SOL     OW21085   6.444   1.365   2.614
 6729SOL    HW121086   6.373   1.406   2.557
 6729SOL    HW221087   6.520   1.430   2.624
 6730SOL     OW21088   2.546   6.751   0.054
 6730SOL    HW121089   2.629   6.747   0.110
 6730SOL    HW221090   2.518   6.659   0.029
 6731SOL     OW21091   2.540   4.396   0.963
 6731SOL    HW121092   2.501   4.329   1.026
 6731SOL    HW221093   2.493   4.483   0.973
 6732SOL     OW21094   2.728   5.974   6.766
 6732SOL    HW121095   2.699   5.893   6.716
 6732SOL    HW221096   2.685   6.055   6.726
 6733SOL     OW21097   4.668   5.412   6.519
 6733SOL    HW121098   4.677   5.396   6.421
 6733SOL    HW221099   4.614   5.339   6.560
 6734SOL     OW21100   0.564   3.088   5.824
 6734SOL    HW121101   0.498   3.151   5.782
 6734SOL    HW221102   0.577   3.009   5.764
 6735SOL     OW21103   0.454   5.101   5.331
 6735SOL    HW121104   0.444   5.032   5.260
 6735SOL    HW221105   0.507   5.064   5.407
 6736SOL     OW21106   2.102   3.437   0.861
 6736SOL    HW121107   2.152   3.376   0.922
 6736SOL    HW221108   2.162   3.510   0.829
 6737SOL     OW21109   2.110   1.396   1.309
 6737SOL    HW121110   2.138   1.433   1.398
 6737SOL    HW221111   2.191   1.376   1.254
 6738SOL     OW21112   2.366   2.292   2.278
 6738SOL    HW121113   2.441   2.353   2.302
 6738SOL    HW221114   2.310   2.332   2.206
 6739SOL     OW21115   3.252   5.840   5.512
 6739SOL    HW121116   3.157   5.809   5.524
 6739SOL    HW221117   3.313   5.783   5.567
 6740SOL     OW21118   1.689   1.102   4.490
 6740SOL    HW121119   1.614   1.167   4.504
 6740SOL    HW221120   1.776   1.146   4.511
 6741SOL     OW21121   4.313   1.525   6.146
 6741SOL    HW121122   4.238   1.591   6.155
 6741SOL    HW221123   4.365   1.544   6.063
 6742SOL     OW21124   0.248   5.620   4.351
 6742SOL    HW121125   0.277   5.696   4.409
 6742SOL    HW221126   0.324   5.590   4.294
 6743SOL     OW21127   4.021   3.643   6.600
 6743SOL    HW121128   4.093   3.587   6.641
 6743SOL    HW221129   4.054   3.683   6.514
 6744SOL     OW21130   4.021   5.213   6.126
 6744SOL    HW121131   4.026   5.132   6.067
 6744SOL    HW221132   4.085   5.282   6.093
 6745SOL     OW21133   1.100   5.054   2.647
 6745SOL    HW121134   1.053   5.123   2.593
 6745SOL    HW221135   1.199   5.060   2.630
 6746SOL     OW21136   0.913   0.764   1.548
 6746SOL    HW121137   1.003   0.733   1.520
 6746SOL    HW221138   0.878   0.830   1.481
 6747SOL     OW21139   5.362   6.470   4.423
 6747SOL    HW121140   5.436   6.434   4.481
 6747SOL    HW221141   5.286   6.500   4.481
 6748SOL     OW21142   0.814   0.987   2.330
 6748SOL    HW121143   0.857   0.913   2.279
 6748SOL    HW221144   0.765   1.047   2.268
 6749SOL     OW21145   3.365   0.363   0.122
 6749SOL    HW121146   3.441   0.344   0.060
 6749SOL    HW221147   3.287   0.305   0.097
 6750SOL     OW21148   3.034   1.979   4.241
 6750SOL    HW121149   3.097   1.936   4.177
 6750SOL    HW221150   3.056   1.951   4.335
 6751SOL     OW21151   2.980   2.233   4.113
 6751SOL    HW121152   3.034   2.182   4.180
 6751SOL    HW221153   3.021   2.223   4.022
 6752SOL     OW21154   6.090   2.407   1.243
 6752SOL    HW121155   5.994   2.430   1.261
 6752SOL    HW221156   6.127   2.357   1.321
 6753SOL     OW21157   4.283   1.720   6.781
 6753SOL    HW121158   4.285   1.630   6.738
 6753SOL    HW221159   4.262   1.710   6.878
 6754SOL     OW21160   6.600   2.068   6.384
 6754SOL    HW121161   6.653   2.082   6.300
 6754SOL    HW221162   6.529   2.137   6.391
 6755SOL     OW21163   5.087   1.581   3.490
 6755SOL    HW121164   5.091   1.560   3.393
 6755SOL    HW221165   5.100   1.680   3.504
 6756SOL     OW21166   4.747   4.129   4.295
 6756SOL    HW121167   4.672   4.185   4.330
 6756SOL    HW221168   4.736   4.116   4.197
 6757SOL     OW21169   4.626   5.417   0.365
 6757SOL    HW121170   4.589   5.504   0.333
 6757SOL    HW221171   4.720   5.431   0.398
 6758SOL     OW21172   5.435   3.684   2.217
 6758SOL    HW121173   5.508   3.666   2.150
 6758SOL    HW221174   5.349   3.649   2.181
 6759SOL     OW21175   1.528   4.285   3.415
 6759SOL    HW121176   1.509   4.382   3.395
 6759SOL    HW221177   1.445   4.231   3.397
 6760SOL     OW21178   0.273   5.059   4.598
 6760SOL    HW121179   0.189   5.013   4.572
 6760SOL    HW221180   0.349   4.995   4.596
 6761SOL     OW21181   5.569   2.572   5.623
 6761SOL    HW121182   5.648   2.629   5.600
 6761SOL    HW221183   5.585   2.479   5.591
 6762SOL     OW21184   6.321   4.847   3.431
 6762SOL    HW121185   6.384   4.800   3.492
 6762SOL    HW221186   6.312   4.942   3.460
 6763SOL     OW21187   5.797   5.766   4.629
 6763SOL    HW121188   5.843   5.781   4.716
 6763SOL    HW221189   5.741   5.683   4.635
 6764SOL     OW21190   3.102   3.970   5.960
 6764SOL    HW121191   3.200   3.955   5.948
 6764SOL    HW221192   3.057   3.883   5.979
 6765SOL     OW21193   6.465   4.748   3.623
 6765SOL    HW121194   6.544   4.789   3.671
 6765SOL    HW221195   6.442   4.661   3.667
 6766SOL     OW21196   1.902   0.543   6.401
 6766SOL    HW121197   1.827   0.583   6.349
 6766SOL    HW221198   1.984   0.599   6.389
 6767SOL     OW21199   0.075   2.480   0.377
 6767SOL    HW121200   0.064   2.545   0.452
 6767SOL    HW221201   0.071   2.529   0.289
 6768SOL     OW21202   0.674   0.477   3.915
 6768SOL    HW121203   0.748   0.467   3.848
 6768SOL    HW221204   0.627   0.390   3.926
 6769SOL     OW21205   3.276   1.985   5.101
 6769SOL    HW121206   3.205   2.027   5.158
 6769SOL    HW221207   3.262   2.011   5.006
 6770SOL     OW21208   0.241   2.547   3.753
 6770SOL    HW121209   0.315   2.566   3.817
 6770SOL    HW221210   0.245   2.451   3.725
 6771SOL     OW21211   3.570   2.056   3.396
 6771SOL    HW121212   3.520   2.118   3.335
 6771SOL    HW221213   3.668   2.073   3.388
 6772SOL     OW21214   5.791   1.664   2.686
 6772SOL    HW121215   5.712   1.724   2.671
 6772SOL    HW221216   5.766   1.570   2.661
 6773SOL     OW21217   6.993   6.082   1.402
 6773SOL    HW121218   6.897   6.058   1.421
 6773SOL    HW221219   7.014   6.060   1.307
 6774SOL     OW21220   1.606   1.773   5.265
 6774SOL    HW121221   1.662   1.856   5.272
 6774SOL    HW221222   1.575   1.762   5.170
 6775SOL     OW21223   0.850   1.773   4.589
 6775SOL    HW121224   0.807   1.860   4.564
 6775SOL    HW221225   0.942   1.770   4.552
 6776SOL     OW21226   4.045   4.208   1.509
 6776SOL    HW121227   4.118   4.219   1.440
 6776SOL    HW221228   3.957   4.227   1.467
 6777SOL     OW21229   4.524   5.787   1.253
 6777SOL    HW121230   4.456   5.807   1.182
 6777SOL    HW221231   4.586   5.716   1.220
 6778SOL     OW21232   6.078   3.372   2.576
 6778SOL    HW121233   6.066   3.435   2.500
 6778SOL    HW221234   6.035   3.409   2.658
 6779SOL     OW21235   5.869   4.181   5.695
 6779SOL    HW121236   5.862   4.226   5.784
 6779SOL    HW221237   5.868   4.250   5.623
 6780SOL     OW21238   2.464   2.562   3.200
 6780SOL    HW121239   2.429   2.653   3.220
 6780SOL    HW221240   2.459   2.506   3.283
 6781SOL     OW21241   6.371   1.514   4.367
 6781SOL    HW121242   6.289   1.532   4.421
 6781SOL    HW221243   6.359   1.429   4.315
 6782SOL     OW21244   6.850   1.871   3.528
 6782SOL    HW121245   6.932   1.871   3.471
 6782SOL    HW221246   6.769   1.879   3.470
 6783SOL     OW21247   1.068   5.044   5.423
 6783SOL    HW121248   1.138   5.072   5.357
 6783SOL    HW221249   1.080   4.948   5.446
 6784SOL     OW21250   1.885   3.252   1.366
 6784SOL    HW121251   1.963   3.268   1.426
 6784SOL    HW221252   1.912   3.264   1.271
 6785SOL     OW21253   5.665   4.938   4.718
 6785SOL    HW121254   5.718   4.861   4.754
 6785SOL    HW221255   5.704   4.967   4.631
 6786SOL     OW21256   6.509   2.362   1.070
 6786SOL    HW121257   6.529   2.404   0.982
 6786SOL    HW221258   6.434   2.411   1.114
 6787SOL     OW21259   3.650   2.408   0.005
 6787SOL    HW121260   3.676   2.327   0.058
 6787SOL    HW221261   3.695   2.404   6.938
 6788SOL     OW21262   0.530   4.000   3.807
 6788SOL    HW121263   0.546   4.021   3.903
 6788SOL    HW221264   0.432   3.983   3.793
 6789SOL     OW21265   6.557   3.831   3.764
 6789SOL    HW121266   6.499   3.897   3.715
 6789SOL    HW221267   6.587   3.760   3.701
 6790SOL     OW21268   1.560   4.729   5.947
 6790SOL    HW121269   1.616   4.812   5.951
 6790SOL    HW221270   1.475   4.744   5.997
 6791SOL     OW21271   4.536   1.348   3.973
 6791SOL    HW121272   4.492   1.381   4.056
 6791SOL    HW221273   4.536   1.421   3.904
 6792SOL     OW21274   4.263   0.111   5.163
 6792SOL    HW121275   4.244   0.062   5.078
 6792SOL    HW221276   4.343   0.170   5.150
 6793SOL     OW21277   2.185   3.379   0.119
 6793SOL    HW121278   2.176   3.399   0.021
 6793SOL    HW221279   2.273   3.333   0.136
 6794SOL     OW21280   4.271   1.484   5.777
 6794SOL    HW121281   4.319   1.540   5.845
 6794SOL    HW221282   4.225   1.544   5.711
 6795SOL     OW21283   1.260   0.931   1.462
 6795SOL    HW121284   1.236   0.892   1.372
 6795SOL    HW221285   1.331   0.876   1.504
 6796SOL     OW21286   5.550   1.265   2.014
 6796SOL    HW121287   5.476   1.319   1.974
 6796SOL    HW221288   5.514   1.205   2.085
 6797SOL     OW21289   0.474   1.790   1.816
 6797SOL    HW121290   0.500   1.864   1.754
 6797SOL    HW221291   0.557   1.747   1.853
 6798SOL     OW21292   5.685   0.365   2.107
 6798SOL    HW121293   5.674   0.380   2.008
 6798SOL    HW221294   5.606   0.314   2.141
 6799SOL     OW21295   5.300   6.703   3.143
 6799SOL    HW121296   5.246   6.679   3.223
 6799SOL    HW221297   5.388   6.657   3.146
 6800SOL     OW21298   0.307   1.176   1.553
 6800SOL    HW121299   0.376   1.121   1.506
 6800SOL    HW221300   0.229   1.190   1.493
 6801SOL     OW21301   1.315   6.375   4.662
 6801SOL    HW121302   1.406   6.334   4.668
 6801SOL    HW221303   1.250   6.307   4.627
 6802SOL     OW21304   3.297   5.746   1.561
 6802SOL    HW121305   3.215   5.721   1.613
 6802SOL    HW221306   3.284   5.722   1.465
 6803SOL     OW21307   5.169   4.545   6.543
 6803SOL    HW121308   5.077   4.508   6.549
 6803SOL    HW221309   5.215   4.508   6.462
 6804SOL     OW21310   2.568   4.640   2.790
 6804SOL    HW121311   2.518   4.647   2.876
 6804SOL    HW221312   2.666   4.646   2.809
 6805SOL     OW21313   0.356   4.704   5.929
 6805SOL    HW121314   0.411   4.757   5.994
 6805SOL    HW221315   0.259   4.718   5.947
 6806SOL     OW21316   6.666   0.686   3.321
 6806SOL    HW121317   6.644   0.589   3.310
 6806SOL    HW221318   6.674   0.707   3.419
 6807SOL     OW21319   3.127   3.886   2.208
 6807SOL    HW121320   3.151   3.955   2.276
 6807SOL    HW221321   3.029   3.868   2.211
 6808SOL     OW21322   4.252   1.505   4.913
 6808SOL    HW121323   4.216   1.596   4.896
 6808SOL    HW221324   4.193   1.457   4.979
 6809SOL     OW21325   5.906   4.461   2.577
 6809SOL    HW121326   5.811   4.480   2.554
 6809SOL    HW221327   5.910   4.381   2.637
 6810SOL     OW21328   2.666   1.340   3.406
 6810SOL    HW121329   2.589   1.402   3.419
 6810SOL    HW221330   2.655   1.291   3.320
 6811SOL     OW21331   6.397   1.646   2.442
 6811SOL    HW121332   6.320   1.582   2.448
 6811SOL    HW221333   6.368   1.730   2.396
 6812SOL     OW21334   2.839   3.857   5.121
 6812SOL    HW121335   2.750   3.861   5.166
 6812SOL    HW221336   2.878   3.949   5.118
 6813SOL     OW21337   5.978   3.800   1.730
 6813SOL    HW121338   5.901   3.808   1.667
 6813SOL    HW221339   6.018   3.890   1.745
 6814SOL     OW21340   4.430   1.390   6.407
 6814SOL    HW121341   4.408   1.473   6.355
 6814SOL    HW221342   4.477   1.325   6.347
 6815SOL     OW21343   2.393   5.245   6.318
 6815SOL    HW121344   2.305   5.287   6.297
 6815SOL    HW221345   2.464   5.283   6.259
 6816SOL     OW21346   0.655   2.288   4.177
 6816SOL    HW121347   0.683   2.379   4.207
 6816SOL    HW221348   0.722   2.221   4.208
 6817SOL     OW21349   3.557   2.039   2.193
 6817SOL    HW121350   3.612   2.116   2.161
 6817SOL    HW221351   3.495   2.071   2.265
 6818SOL     OW21352   2.112   6.529   6.444
 6818SOL    HW121353   2.023   6.495   6.476
 6818SOL    HW221354   2.115   6.524   6.345
 6819SOL     OW21355   4.387   4.790   2.489
 6819SOL    HW121356   4.469   4.747   2.450
 6819SOL    HW221357   4.367   4.874   2.440
 6820SOL     OW21358   2.315   6.136   1.136
 6820SOL    HW121359   2.412   6.109   1.138
 6820SOL    HW221360   2.303   6.220   1.188
 6821SOL     OW21361   4.586   3.045   5.306
 6821SOL    HW121362   4.669   3.088   5.268
 6821SOL    HW221363   4.517   3.115   5.322
 6822SOL     OW21364   6.973   2.513   6.657
 6822SOL    HW121365   6.936   2.457   6.583
 6822SOL    HW221366   0.048   2.531   6.640
 6823SOL     OW21367   5.337   3.172   0.204
 6823SOL    HW121368   5.280   3.251   0.180
 6823SOL    HW221369   5.388   3.193   0.287
 6824SOL     OW21370   1.152   2.074   6.336
 6824SOL    HW121371   1.138   1.975   6.332
 6824SOL    HW221372   1.072   2.117   6.378
 6825SOL     OW21373   6.901   5.946   1.743
 6825SOL    HW121374   6.940   6.039   1.746
 6825SOL    HW221375   6.963   5.883   1.789
 6826SOL     OW21376   0.652   3.482   3.494
 6826SOL    HW121377   0.688   3.421   3.424
 6826SOL    HW221378   0.693   3.461   3.583
 6827SOL     OW21379   4.015   6.061   4.885
 6827SOL    HW121380   4.102   6.024   4.919
 6827SOL    HW221381   3.943   5.993   4.899
 6828SOL     OW21382   3.526   2.022   2.989
 6828SOL    HW121383   3.521   1.933   3.033
 6828SOL    HW221384   3.473   2.088   3.042
 6829SOL     OW21385   5.582   6.852   4.780
 6829SOL    HW121386   5.576   6.777   4.714
 6829SOL    HW221387   5.663   6.839   4.838
 6830SOL     OW21388   5.467   0.404   2.834
 6830SOL    HW121389   5.515   0.458   2.904
 6830SOL    HW221390   5.488   0.441   2.744
 6831SOL     OW21391   1.453   1.465   6.282
 6831SOL    HW121392   1.365   1.507   6.300
 6831SOL    HW221393   1.463   1.448   6.184
 6832SOL     OW21394   2.948   2.158   0.542
 6832SOL    HW121395   2.921   2.148   0.447
 6832SOL    HW221396   3.048   2.168   0.548
 6833SOL     OW21397   2.970   5.427   5.876
 6833SOL    HW121398   3.069   5.434   5.887
 6833SOL    HW221399   2.942   5.470   5.790
 6834SOL     OW21400   5.109   6.747   0.309
 6834SOL    HW121401   5.136   6.837   0.276
 6834SOL    HW221402   5.070   6.695   0.233
 6835SOL     OW21403   2.800   2.037   4.478
 6835SOL    HW121404   2.828   2.106   4.411
 6835SOL    HW221405   2.809   1.946   4.437
 6836SOL     OW21406   2.291   5.252   6.582
 6836SOL    HW121407   2.372   5.254   6.524
 6836SOL    HW221408   2.243   5.164   6.570
 6837SOL     OW21409   0.793   0.774   1.947
 6837SOL    HW121410   0.698   0.776   1.917
 6837SOL    HW221411   0.842   0.700   1.901
 6838SOL     OW21412   2.663   4.496   5.319
 6838SOL    HW121413   2.691   4.417   5.373
 6838SOL    HW221414   2.729   4.512   5.246
 6839SOL     OW21415   5.486   2.795   3.937
 6839SOL    HW121416   5.446   2.885   3.951
 6839SOL    HW221417   5.585   2.800   3.953
 6840SOL     OW21418   2.452   6.532   5.418
 6840SOL    HW121419   2.514   6.472   5.366
 6840SOL    HW221420   2.398   6.587   5.355
 6841SOL     OW21421   3.785   5.827   1.644
 6841SOL    HW121422   3.872   5.876   1.649
 6841SOL    HW221423   3.793   5.753   1.576
 6842SOL     OW21424   0.615   3.727   6.659
 6842SOL    HW121425   0.692   3.754   6.716
 6842SOL    HW221426   0.622   3.772   6.570
 6843SOL     OW21427   4.002   2.273   1.865
 6843SOL    HW121428   4.038   2.205   1.929
 6843SOL    HW221429   3.904   2.286   1.882
 6844SOL     OW21430   4.485   5.218   4.058
 6844SOL    HW121431   4.540   5.281   4.112
 6844SOL    HW221432   4.482   5.129   4.103
 6845SOL     OW21433   4.658   5.304   2.105
 6845SOL    HW121434   4.644   5.363   2.025
 6845SOL    HW221435   4.756   5.291   2.119
 6846SOL     OW21436   3.487   3.206   2.693
 6846SOL    HW121437   3.409   3.160   2.736
 6846SOL    HW221438   3.480   3.196   2.594
 6847SOL     OW21439   5.070   4.021   1.717
 6847SOL    HW121440   5.015   4.097   1.753
 6847SOL    HW221441   5.100   4.043   1.625
 6848SOL     OW21442   0.743   5.696   4.216
 6848SOL    HW121443   0.720   5.738   4.304
 6848SOL    HW221444   0.736   5.765   4.144
 6849SOL     OW21445   3.612   5.933   3.982
 6849SOL    HW121446   3.587   5.851   3.931
 6849SOL    HW221447   3.696   5.972   3.944
 6850SOL     OW21448   5.581   2.347   3.367
 6850SOL    HW121449   5.668   2.314   3.331
 6850SOL    HW221450   5.517   2.362   3.292
 6851SOL     OW21451   1.837   5.210   5.837
 6851SOL    HW121452   1.918   5.165   5.799
 6851SOL    HW221453   1.843   5.308   5.819
 6852SOL     OW21454   1.518   4.299   1.884
 6852SOL    HW121455   1.474   4.225   1.936
 6852SOL    HW221456   1.451   4.370   1.865
 6853SOL     OW21457   0.699   4.897   5.879
 6853SOL    HW121458   0.787   4.849   5.886
 6853SOL    HW221459   0.637   4.843   5.822
 6854SOL     OW21460   0.048   1.921   5.887
 6854SOL    HW121461   0.041   1.833   5.933
 6854SOL    HW221462   0.134   1.965   5.913
 6855SOL     OW21463   3.784   6.840   2.977
 6855SOL    HW121464   3.842   6.801   2.906
 6855SOL    HW221465   3.834   6.913   3.025
 6856SOL     OW21466   6.254   3.577   4.683
 6856SOL    HW121467   6.319   3.541   4.750
 6856SOL    HW221468   6.162   3.545   4.705
 6857SOL     OW21469   2.869   2.435   5.910
 6857SOL    HW121470   2.845   2.425   6.006
 6857SOL    HW221471   2.965   2.461   5.901
 6858SOL     OW21472   4.047   3.694   4.719
 6858SOL    HW121473   4.067   3.790   4.699
 6858SOL    HW221474   4.024   3.646   4.635
 6859SOL     OW21475   2.570   6.636   0.896
 6859SOL    HW121476   2.618   6.711   0.942
 6859SOL    HW221477   2.606   6.624   0.804
 6860SOL     OW21478   6.000   4.634   1.250
 6860SOL    HW121479   6.030   4.709   1.191
 6860SOL    HW221480   5.921   4.662   1.304
 6861SOL     OW21481   5.416   5.962   6.854
 6861SOL    HW121482   5.368   6.046   6.879
 6861SOL    HW221483   5.364   5.883   6.886
 6862SOL     OW21484   3.172   5.493   4.943
 6862SOL    HW121485   3.221   5.422   4.992
 6862SOL    HW221486   3.097   5.452   4.889
 6863SOL     OW21487   5.675   1.343   3.866
 6863SOL    HW121488   5.680   1.387   3.776
 6863SOL    HW221489   5.737   1.265   3.869
 6864SOL     OW21490   2.715   6.056   3.337
 6864SOL    HW121491   2.674   5.979   3.287
 6864SOL    HW221492   2.808   6.032   3.365
 6865SOL     OW21493   6.640   3.966   4.785
 6865SOL    HW121494   6.676   3.956   4.877
 6865SOL    HW221495   6.643   3.878   4.738
 6866SOL     OW21496   6.976   3.694   2.192
 6866SOL    HW121497   0.031   3.706   2.130
 6866SOL    HW221498   6.905   3.760   2.170
 6867SOL     OW21499   2.263   4.057   1.928
 6867SOL    HW121500   2.229   4.009   2.009
 6867SOL    HW221501   2.302   4.145   1.955
 6868SOL     OW21502   1.841   6.225   4.792
 6868SOL    HW121503   1.780   6.288   4.745
 6868SOL    HW221504   1.922   6.208   4.735
 6869SOL     OW21505   5.445   2.175   5.594
 6869SOL    HW121506   5.387   2.257   5.591
 6869SOL    HW221507   5.436   2.131   5.683
 6870SOL     OW21508   5.891   3.445   2.764
 6870SOL    HW121509   5.843   3.424   2.679
 6870SOL    HW221510   5.827   3.438   2.840
 6871SOL     OW21511   6.017   4.886   1.145
 6871SOL    HW121512   6.075   4.965   1.166
 6871SOL    HW221513   6.031   4.860   1.050
 6872SOL     OW21514   2.135   3.202   1.091
 6872SOL    HW121515   2.049   3.250   1.104
 6872SOL    HW221516   2.118   3.103   1.087
 6873SOL     OW21517   6.023   2.945   5.870
 6873SOL    HW121518   5.977   2.983   5.790
 6873SOL    HW221519   5.972   2.970   5.952
 6874SOL     OW21520   6.975   3.041   3.826
 6874SOL    HW121521   6.940   2.979   3.897
 6874SOL    HW221522   7.016   2.987   3.753
 6875SOL     OW21523   1.548   1.741   2.674
 6875SOL    HW121524   1.485   1.732   2.750
 6875SOL    HW221525   1.642   1.744   2.708
 6876SOL     OW21526   3.406   5.484   0.241
 6876SOL    HW121527   3.394   5.537   0.157
 6876SOL    HW221528   3.441   5.393   0.219
 6877SOL     OW21529   2.151   3.996   6.826
 6877SOL    HW121530   2.204   4.013   6.909
 6877SOL    HW221531   2.185   4.054   6.752
 6878SOL     OW21532   1.880   1.805   5.509
 6878SOL    HW121533   1.954   1.756   5.463
 6878SOL    HW221534   1.816   1.840   5.440
 6879SOL     OW21535   0.149   2.180   6.376
 6879SOL    HW121536   0.088   2.119   6.326
 6879SOL    HW221537   0.194   2.130   6.450
 6880SOL     OW21538   2.109   3.924   5.210
 6880SOL    HW121539   2.064   4.002   5.252
 6880SOL    HW221540   2.184   3.955   5.152
 6881SOL     OW21541   6.958   4.378   1.474
 6881SOL    HW121542   6.877   4.426   1.441
 6881SOL    HW221543   0.014   4.400   1.416
 6882SOL     OW21544   1.783   0.894   5.271
 6882SOL    HW121545   1.882   0.882   5.279
 6882SOL    HW221546   1.753   0.971   5.327
 6883SOL     OW21547   3.595   0.004   1.344
 6883SOL    HW121548   3.573   6.929   1.341
 6883SOL    HW221549   3.546   0.047   1.419
 6884SOL     OW21550   2.294   4.396   4.923
 6884SOL    HW121551   2.306   4.462   4.997
 6884SOL    HW221552   2.198   4.368   4.919
 6885SOL     OW21553   2.489   6.185   3.418
 6885SOL    HW121554   2.423   6.110   3.424
 6885SOL    HW221555   2.579   6.147   3.394
 6886SOL     OW21556   5.157   0.916   2.561
 6886SOL    HW121557   5.129   0.951   2.472
 6886SOL    HW221558   5.242   0.961   2.590
 6887SOL     OW21559   6.032   0.487   5.260
 6887SOL    HW121560   6.110   0.545   5.238
 6887SOL    HW221561   6.016   0.421   5.186
 6888SOL     OW21562   6.179   0.518   4.704
 6888SOL    HW121563   6.139   0.499   4.614
 6888SOL    HW221564   6.230   0.603   4.701
 6889SOL     OW21565   1.008   2.788   5.968
 6889SOL    HW121566   1.021   2.842   5.885
 6889SOL    HW221567   0.916   2.806   6.005
 6890SOL     OW21568   2.625   0.392   0.998
 6890SOL    HW121569   2.548   0.363   0.941
 6890SOL    HW221570   2.620   0.348   1.087
 6891SOL     OW21571   2.179   3.835   4.645
 6891SOL    HW121572   2.183   3.747   4.598
 6891SOL    HW221573   2.200   3.822   4.742
 6892SOL     OW21574   3.762   0.343   3.947
 6892SOL    HW121575   3.667   0.355   3.978
 6892SOL    HW221576   3.791   0.249   3.966
 6893SOL     OW21577   5.192   5.828   3.431
 6893SOL    HW121578   5.225   5.774   3.354
 6893SOL    HW221579   5.270   5.869   3.478
 6894SOL     OW21580   6.041   5.619   0.067
 6894SOL    HW121581   6.129   5.666   0.081
 6894SOL    HW221582   6.035   5.589   6.994
 6895SOL     OW21583   2.757   3.807   0.369
 6895SOL    HW121584   2.786   3.762   0.285
 6895SOL    HW221585   2.796   3.758   0.448
 6896SOL     OW21586   3.489   1.096   3.403
 6896SOL    HW121587   3.516   1.186   3.367
 6896SOL    HW221588   3.566   1.033   3.396
 6897SOL     OW21589   3.003   3.478   0.418
 6897SOL    HW121590   2.906   3.457   0.407
 6897SOL    HW221591   3.028   3.471   0.515
 6898SOL     OW21592   4.154   0.634   1.865
 6898SOL    HW121593   4.226   0.573   1.898
 6898SOL    HW221594   4.195   0.709   1.813
 6899SOL     OW21595   5.229   6.731   5.987
 6899SOL    HW121596   5.312   6.767   5.944
 6899SOL    HW221597   5.215   6.778   6.075
 6900SOL     OW21598   5.394   0.975   6.032
 6900SOL    HW121599   5.463   1.046   6.044
 6900SOL    HW221600   5.311   1.015   5.993
 6901SOL     OW21601   1.327   0.093   6.377
 6901SOL    HW121602   1.286   0.088   6.286
 6901SOL    HW221603   1.267   0.146   6.438
 6902SOL     OW21604   1.051   6.932   0.120
 6902SOL    HW121605   0.968   6.947   0.066
 6902SOL    HW221606   1.067   7.011   0.179
 6903SOL     OW21607   3.663   3.427   0.454
 6903SOL    HW121608   3.647   3.335   0.421
 6903SOL    HW221609   3.598   3.490   0.411
 6904SOL     OW21610   6.443   0.754   4.034
 6904SOL    HW121611   6.376   0.791   4.098
 6904SOL    HW221612   6.501   0.686   4.080
 6905SOL     OW21613   6.719   6.325   1.287
 6905SOL    HW121614   6.769   6.278   1.214
 6905SOL    HW221615   6.746   6.421   1.289
 6906SOL     OW21616   3.521   0.951   3.877
 6906SOL    HW121617   3.512   0.933   3.779
 6906SOL    HW221618   3.557   1.044   3.891
 6907SOL     OW21619   3.985   1.239   1.552
 6907SOL    HW121620   3.927   1.186   1.490
 6907SOL    HW221621   3.937   1.323   1.579
 6908SOL     OW21622   1.384   7.021   5.515
 6908SOL    HW121623   1.475   6.995   5.546
 6908SOL    HW221624   1.317   7.001   5.586
 6909SOL     OW21625   4.458   4.943   1.032
 6909SOL    HW121626   4.424   4.881   1.103
 6909SOL    HW221627   4.488   4.889   0.953
 6910SOL     OW21628   6.350   1.481   2.067
 6910SOL    HW121629   6.428   1.542   2.080
 6910SOL    HW221630   6.345   1.453   1.972
 6911SOL     OW21631   4.369   0.153   3.953
 6911SOL    HW121632   4.294   0.189   4.008
 6911SOL    HW221633   4.373   0.201   3.866
 6912SOL     OW21634   5.011   4.834   1.168
 6912SOL    HW121635   4.932   4.889   1.141
 6912SOL    HW221636   5.031   4.766   1.097
 6913SOL     OW21637   5.029   4.815   4.303
 6913SOL    HW121638   4.979   4.791   4.386
 6913SOL    HW221639   4.994   4.762   4.226
 6914SOL     OW21640   5.969   5.503   6.419
 6914SOL    HW121641   5.990   5.547   6.506
 6914SOL    HW221642   5.938   5.572   6.354
 6915SOL     OW21643   0.631   4.408   2.604
 6915SOL    HW121644   0.673   4.326   2.643
 6915SOL    HW221645   0.616   4.475   2.676
 6916SOL     OW21646   6.483   4.356   6.958
 6916SOL    HW121647   6.410   4.315   7.013
 6916SOL    HW221648   6.475   4.324   6.863
 6917SOL     OW21649   4.074   6.147   5.961
 6917SOL    HW121650   4.114   6.174   5.874
 6917SOL    HW221651   4.101   6.053   5.982
 6918SOL     OW21652   0.321   4.102   4.131
 6918SOL    HW121653   0.276   4.020   4.095
 6918SOL    HW221654   0.322   4.098   4.231
 6919SOL     OW21655   2.127   6.078   2.615
 6919SOL    HW121656   2.171   6.078   2.525
 6919SOL    HW221657   2.145   6.166   2.660
 6920SOL     OW21658   5.108   5.091   4.499
 6920SOL    HW121659   5.192   5.037   4.497
 6920SOL    HW221660   5.068   5.094   4.407
 6921SOL     OW21661   5.828   5.946   3.323
 6921SOL    HW121662   5.849   5.909   3.414
 6921SOL    HW221663   5.854   5.879   3.253
 6922SOL     OW21664   2.121   6.216   6.571
 6922SOL    HW121665   2.025   6.200   6.594
 6922SOL    HW221666   2.157   6.289   6.629
 6923SOL     OW21667   4.347   6.744   3.642
 6923SOL    HW121668   4.431   6.693   3.663
 6923SOL    HW221669   4.321   6.800   3.720
 6924SOL     OW21670   0.950   4.975   0.241
 6924SOL    HW121671   0.993   4.885   0.240
 6924SOL    HW221672   0.926   5.001   0.147
 6925SOL     OW21673   4.200   6.040   3.831
 6925SOL    HW121674   4.123   5.995   3.785
 6925SOL    HW221675   4.284   5.990   3.814
 6926SOL     OW21676   3.889   3.658   3.509
 6926SOL    HW121677   3.796   3.621   3.505
 6926SOL    HW221678   3.891   3.748   3.466
 6927SOL     OW21679   5.098   3.824   6.660
 6927SOL    HW121680   5.050   3.780   6.584
 6927SOL    HW221681   5.175   3.877   6.624
 6928SOL     OW21682   4.091   0.415   6.414
 6928SOL    HW121683   4.172   0.414   6.473
 6928SOL    HW221684   4.072   0.508   6.384
 6929SOL     OW21685   4.825   6.265   6.639
 6929SOL    HW121686   4.747   6.328   6.639
 6929SOL    HW221687   4.806   6.188   6.578
 6930SOL     OW21688   0.672   6.497   2.000
 6930SOL    HW121689   0.718   6.481   1.913
 6930SOL    HW221690   0.632   6.589   2.001
 6931SOL     OW21691   0.680   0.191   1.755
 6931SOL    HW121692   0.747   0.265   1.751
 6931SOL    HW221693   0.590   0.225   1.730
 6932SOL     OW21694   2.879   0.989   6.747
 6932SOL    HW121695   2.961   1.022   6.794
 6932SOL    HW221696   2.806   1.057   6.753
 6933SOL     OW21697   3.554   5.715   4.815
 6933SOL    HW121698   3.494   5.692   4.891
 6933SOL    HW221699   3.619   5.786   4.844
 6934SOL     OW21700   5.194   2.685   0.239
 6934SOL    HW121701   5.289   2.662   0.217
 6934SOL    HW221702   5.152   2.610   0.290
 6935SOL     OW21703   3.968   5.936   3.679
 6935SOL    HW121704   3.980   6.019   3.625
 6935SOL    HW221705   3.978   5.856   3.620
 6936SOL     OW21706   0.215   2.270   2.215
 6936SOL    HW121707   0.153   2.320   2.154
 6936SOL    HW221708   0.164   2.237   2.295
 6937SOL     OW21709   4.228   6.181   5.751
 6937SOL    HW121710   4.292   6.105   5.741
 6937SOL    HW221711   4.221   6.231   5.665
 6938SOL     OW21712   5.008   3.667   5.907
 6938SOL    HW121713   4.990   3.569   5.912
 6938SOL    HW221714   5.086   3.684   5.846
 6939SOL     OW21715   0.092   4.669   2.293
 6939SOL    HW121716   0.110   4.644   2.388
 6939SOL    HW221717   0.157   4.622   2.233
 6940SOL     OW21718   4.870   0.750   0.027
 6940SOL    HW121719   4.783   0.798   0.019
 6940SOL    HW221720   4.930   0.799   0.091
 6941SOL     OW21721   3.119   3.047   2.199
 6941SOL    HW121722   3.064   3.106   2.142
 6941SOL    HW221723   3.213   3.045   2.165
 6942SOL     OW21724   0.345   2.410   0.561
 6942SOL    HW121725   0.267   2.441   0.506
 6942SOL    HW221726   0.315   2.394   0.655
 6943SOL     OW21727   5.388   6.477   6.024
 6943SOL    HW121728   5.455   6.552   6.027
 6943SOL    HW221729   5.331   6.486   5.942
 6944SOL     OW21730   1.425   5.806   5.977
 6944SOL    HW121731   1.338   5.793   6.024
 6944SOL    HW221732   1.431   5.743   5.899
 6945SOL     OW21733   6.208   3.384   6.435
 6945SOL    HW121734   6.240   3.289   6.428
 6945SOL    HW221735   6.122   3.386   6.486
 6946SOL     OW21736   6.056   4.639   2.916
 6946SOL    HW121737   6.052   4.655   2.817
 6946SOL    HW221738   6.105   4.553   2.934
 6947SOL     OW21739   3.738   7.009   3.581
 6947SOL    HW121740   3.757   6.957   3.498
 6947SOL    HW221741   3.784   0.075   3.577
 6948SOL     OW21742   5.059   0.285   0.611
 6948SOL    HW121743   5.036   0.209   0.672
 6948SOL    HW221744   4.976   0.322   0.570
 6949SOL     OW21745   4.798   6.384   3.528
 6949SOL    HW121746   4.853   6.306   3.498
 6949SOL    HW221747   4.835   6.468   3.487
 6950SOL     OW21748   1.942   0.563   3.007
 6950SOL    HW121749   1.869   0.495   3.001
 6950SOL    HW221750   1.912   0.638   3.066
 6951SOL     OW21751   6.462   6.307   6.056
 6951SOL    HW121752   6.383   6.256   6.022
 6951SOL    HW221753   6.444   6.405   6.048
 6952SOL     OW21754   7.010   5.229   3.234
 6952SOL    HW121755   6.951   5.161   3.279
 6952SOL    HW221756   0.083   5.209   3.254
 6953SOL     OW21757   5.142   1.024   5.909
 6953SOL    HW121758   5.109   0.942   5.862
 6953SOL    HW221759   5.078   1.048   5.982
 6954SOL     OW21760   0.419   3.216   4.125
 6954SOL    HW121761   0.429   3.123   4.159
 6954SOL    HW221762   0.346   3.219   4.056
 6955SOL     OW21763   0.313   6.626   1.852
 6955SOL    HW121764   0.233   6.646   1.908
 6955SOL    HW221765   0.395   6.656   1.900
 6956SOL     OW21766   4.707   5.468   1.908
 6956SOL    HW121767   4.788   5.454   1.851
 6956SOL    HW221768   4.694   5.566   1.923
 6957SOL     OW21769   6.701   4.759   1.984
 6957SOL    HW121770   6.775   4.759   1.916
 6957SOL    HW221771   6.660   4.668   1.987
 6958SOL     OW21772   2.012   2.203   6.234
 6958SOL    HW121773   1.924   2.206   6.187
 6958SOL    HW221774   2.022   2.286   6.291
 6959SOL     OW21775   3.495   1.523   4.811
 6959SOL    HW121776   3.408   1.537   4.859
 6959SOL    HW221777   3.561   1.480   4.873
 6960SOL     OW21778   6.959   4.887   7.017
 6960SOL    HW121779   6.959   4.942   6.934
 6960SOL    HW221780   6.946   4.947   0.074
 6961SOL     OW21781   0.571   2.249   3.526
 6961SOL    HW121782   0.657   2.226   3.480
 6961SOL    HW221783   0.584   2.246   3.625
 6962SOL     OW21784   5.448   5.836   2.779
 6962SOL    HW121785   5.393   5.771   2.832
 6962SOL    HW221786   5.413   5.928   2.794
 6963SOL     OW21787   0.061   5.207   1.666
 6963SOL    HW121788   0.052   5.187   1.764
 6963SOL    HW221789   0.013   5.292   1.645
 6964SOL     OW21790   5.076   5.239   5.238
 6964SOL    HW121791   5.018   5.282   5.306
 6964SOL    HW221792   5.172   5.243   5.268
 6965SOL     OW21793   6.561   3.244   6.024
 6965SOL    HW121794   6.559   3.236   6.124
 6965SOL    HW221795   6.534   3.157   5.983
 6966SOL     OW21796   5.378   2.765   2.760
 6966SOL    HW121797   5.403   2.854   2.723
 6966SOL    HW221798   5.281   2.763   2.780
 6967SOL     OW21799   1.481   2.034   5.962
 6967SOL    HW121800   1.407   1.966   5.958
 6967SOL    HW221801   1.501   2.055   6.058
 6968SOL     OW21802   4.355   6.299   1.090
 6968SOL    HW121803   4.359   6.202   1.069
 6968SOL    HW221804   4.285   6.343   1.033
 6969SOL     OW21805   4.316   1.366   1.813
 6969SOL    HW121806   4.263   1.448   1.833
 6969SOL    HW221807   4.331   1.314   1.898
 6970SOL     OW21808   4.225   4.304   0.490
 6970SOL    HW121809   4.218   4.213   0.448
 6970SOL    HW221810   4.135   4.346   0.493
 6971SOL     OW21811   6.599   2.813   1.622
 6971SOL    HW121812   6.654   2.867   1.685
 6971SOL    HW221813   6.513   2.861   1.603
 6972SOL     OW21814   5.313   4.293   3.901
 6972SOL    HW121815   5.259   4.209   3.901
 6972SOL    HW221816   5.280   4.354   3.973
 6973SOL     OW21817   1.724   4.305   4.479
 6973SOL    HW121818   1.814   4.320   4.520
 6973SOL    HW221819   1.696   4.211   4.493
 6974SOL     OW21820   3.867   3.450   3.151
 6974SOL    HW121821   3.938   3.518   3.171
 6974SOL    HW221822   3.884   3.368   3.205
 6975SOL     OW21823   3.205   0.123   5.619
 6975SOL    HW121824   3.255   0.043   5.649
 6975SOL    HW221825   3.248   0.206   5.657
 6976SOL     OW21826   3.104   4.664   6.467
 6976SOL    HW121827   3.116   4.643   6.564
 6976SOL    HW221828   3.192   4.662   6.420
 6977SOL     OW21829   4.932   1.829   2.145
 6977SOL    HW121830   4.881   1.913   2.128
 6977SOL    HW221831   5.030   1.849   2.142
 6978SOL     OW21832   6.686   0.488   2.081
 6978SOL    HW121833   6.713   0.394   2.061
 6978SOL    HW221834   6.622   0.519   2.010
 6979SOL     OW21835   1.388   5.053   2.089
 6979SOL    HW121836   1.481   5.084   2.073
 6979SOL    HW221837   1.365   4.980   2.024
 6980SOL     OW21838   2.182   0.833   3.441
 6980SOL    HW121839   2.105   0.877   3.487
 6980SOL    HW221840   2.156   0.740   3.414
 6981SOL     OW21841   2.573   4.130   6.845
 6981SOL    HW121842   2.622   4.050   6.880
 6981SOL    HW221843   2.524   4.105   6.762
 6982SOL     OW21844   1.357   1.146   3.887
 6982SOL    HW121845   1.319   1.072   3.943
 6982SOL    HW221846   1.407   1.209   3.945
 6983SOL     OW21847   0.336   0.776   4.567
 6983SOL    HW121848   0.270   0.776   4.492
 6983SOL    HW221849   0.381   0.687   4.571
 6984SOL     OW21850   2.097   1.729   5.385
 6984SOL    HW121851   2.127   1.634   5.383
 6984SOL    HW221852   2.131   1.776   5.303
 6985SOL     OW21853   4.012   5.575   2.008
 6985SOL    HW121854   3.946   5.583   2.082
 6985SOL    HW221855   3.964   5.578   1.920
 6986SOL     OW21856   2.335   6.316   6.088
 6986SOL    HW121857   2.295   6.288   6.001
 6986SOL    HW221858   2.298   6.259   6.161
 6987SOL     OW21859   0.406   2.067   6.246
 6987SOL    HW121860   0.414   2.165   6.264
 6987SOL    HW221861   0.393   2.018   6.332
 6988SOL     OW21862   5.498   1.560   4.436
 6988SOL    HW121863   5.434   1.562   4.513
 6988SOL    HW221864   5.583   1.605   4.463
 6989SOL     OW21865   0.857   1.731   3.385
 6989SOL    HW121866   0.941   1.781   3.365
 6989SOL    HW221867   0.778   1.784   3.353
 6990SOL     OW21868   4.966   2.081   6.940
 6990SOL    HW121869   4.985   2.130   0.003
 6990SOL    HW221870   4.906   2.136   6.883
 6991SOL     OW21871   2.497   4.551   5.072
 6991SOL    HW121872   2.494   4.583   4.977
 6991SOL    HW221873   2.568   4.601   5.122
 6992SOL     OW21874   6.099   6.056   4.708
 6992SOL    HW121875   6.095   5.975   4.767
 6992SOL    HW221876   6.187   6.102   4.721
 6993SOL     OW21877   6.074   6.641   3.412
 6993SOL    HW121878   6.098   6.724   3.360
 6993SOL    HW221879   6.073   6.563   3.350
 6994SOL     OW21880   1.142   3.659   5.731
 6994SOL    HW121881   1.151   3.575   5.784
 6994SOL    HW221882   1.079   3.721   5.778
 6995SOL     OW21883   6.173   5.325   4.770
 6995SOL    HW121884   6.124   5.318   4.683
 6995SOL    HW221885   6.153   5.413   4.812
 6996SOL     OW21886   2.989   0.691   4.993
 6996SOL    HW121887   2.939   0.606   4.977
 6996SOL    HW221888   2.931   0.769   4.969
 6997SOL     OW21889   4.858   6.406   5.111
 6997SOL    HW121890   4.935   6.451   5.157
 6997SOL    HW221891   4.805   6.475   5.061
 6998SOL     OW21892   1.624   3.057   1.566
 6998SOL    HW121893   1.700   3.085   1.623
 6998SOL    HW221894   1.655   3.042   1.472
 6999SOL     OW21895   2.182   1.533   6.205
 6999SOL    HW121896   2.211   1.538   6.109
 6999SOL    HW221897   2.262   1.518   6.264
 7000SOL     OW21898   0.469   6.051   2.852
 7000SOL    HW121899   0.507   6.104   2.776
 7000SOL    HW221900   0.495   5.955   2.842
 7001SOL     OW21901   2.600   2.558   5.976
 7001SOL    HW121902   2.573   2.484   6.037
 7001SOL    HW221903   2.610   2.523   5.883
 7002SOL     OW21904   2.622   4.787   3.538
 7002SOL    HW121905   2.603   4.813   3.633
 7002SOL    HW221906   2.540   4.745   3.498
 7003SOL     OW21907   3.018   0.271   6.818
 7003SOL    HW121908   2.962   0.200   6.775
 7003SOL    HW221909   2.962   0.350   6.840
 7004SOL     OW21910   2.125   4.390   1.823
 7004SOL    HW121911   2.103   4.321   1.892
 7004SOL    HW221912   2.143   4.346   1.736
 7005SOL     OW21913   6.533   6.053   5.852
 7005SOL    HW121914   6.471   6.131   5.841
 7005SOL    HW221915   6.608   6.078   5.913
 7006SOL     OW21916   4.823   4.394   5.033
 7006SOL    HW121917   4.816   4.363   4.939
 7006SOL    HW221918   4.915   4.378   5.067
 7007SOL     OW21919   4.895   6.642   3.442
 7007SOL    HW121920   4.816   6.698   3.418
 7007SOL    HW221921   4.948   6.689   3.513
 7008SOL     OW21922   2.230   4.700   4.445
 7008SOL    HW121923   2.262   4.605   4.453
 7008SOL    HW221924   2.219   4.723   4.348
 7009SOL     OW21925   6.483   4.978   2.349
 7009SOL    HW121926   6.447   4.982   2.443
 7009SOL    HW221927   6.414   5.013   2.286
 7010SOL     OW21928   3.769   4.880   6.198
 7010SOL    HW121929   3.787   4.888   6.100
 7010SOL    HW221930   3.753   4.784   6.221
 7011SOL     OW21931   1.540   6.801   4.974
 7011SOL    HW121932   1.451   6.800   4.928
 7011SOL    HW221933   1.527   6.828   5.070
 7012SOL     OW21934   1.182   0.383   2.134
 7012SOL    HW121935   1.263   0.329   2.114
 7012SOL    HW221936   1.171   0.392   2.234
 7013SOL     OW21937   0.918   6.582   1.112
 7013SOL    HW121938   1.007   6.562   1.070
 7013SOL    HW221939   0.907   6.527   1.194
 7014SOL     OW21940   4.206   3.784   0.965
 7014SOL    HW121941   4.204   3.686   0.943
 7014SOL    HW221942   4.230   3.836   0.882
 7015SOL     OW21943   5.683   3.663   2.084
 7015SOL    HW121944   5.773   3.643   2.045
 7015SOL    HW221945   5.685   3.752   2.129
 7016SOL     OW21946   4.659   4.933   1.993
 7016SOL    HW121947   4.722   4.996   1.947
 7016SOL    HW221948   4.694   4.911   2.084
 7017SOL     OW21949   2.300   1.277   2.890
 7017SOL    HW121950   2.365   1.326   2.831
 7017SOL    HW221951   2.351   1.229   2.962
 7018SOL     OW21952   7.004   3.993   4.945
 7018SOL    HW121953   6.940   4.067   4.923
 7018SOL    HW221954   0.028   3.964   4.862
 7019SOL     OW21955   2.480   4.736   6.690
 7019SOL    HW121956   2.453   4.700   6.779
 7019SOL    HW221957   2.444   4.829   6.680
 7020SOL     OW21958   5.328   0.018   0.539
 7020SOL    HW121959   5.296   0.111   0.555
 7020SOL    HW221960   5.281   6.978   0.602
 7021SOL     OW21961   2.876   0.914   4.892
 7021SOL    HW121962   2.895   1.012   4.891
 7021SOL    HW221963   2.944   0.866   4.837
 7022SOL     OW21964   5.158   3.824   0.941
 7022SOL    HW121965   5.109   3.749   0.897
 7022SOL    HW221966   5.254   3.799   0.951
 7023SOL     OW21967   6.462   2.435   2.931
 7023SOL    HW121968   6.559   2.449   2.913
 7023SOL    HW221969   6.409   2.454   2.848
 7024SOL     OW21970   1.907   5.585   6.153
 7024SOL    HW121971   1.882   5.503   6.203
 7024SOL    HW221972   1.979   5.563   6.087
 7025SOL     OW21973   3.095   1.651   6.457
 7025SOL    HW121974   3.164   1.581   6.473
 7025SOL    HW221975   3.006   1.607   6.444
 7026SOL     OW21976   2.828   1.160   2.014
 7026SOL    HW121977   2.781   1.206   1.939
 7026SOL    HW221978   2.876   1.228   2.070
 7027SOL     OW21979   3.978   5.712   3.217
 7027SOL    HW121980   4.044   5.653   3.170
 7027SOL    HW221981   3.940   5.778   3.152
 7028SOL     OW21982   5.333   6.769   4.422
 7028SOL    HW121983   5.323   6.677   4.460
 7028SOL    HW221984   5.344   6.763   4.323
 7029SOL     OW21985   3.330   6.035   6.584
 7029SOL    HW121986   3.401   6.105   6.595
 7029SOL    HW221987   3.362   5.949   6.622
 7030SOL     OW21988   0.470   3.866   5.779
 7030SOL    HW121989   0.478   3.947   5.721
 7030SOL    HW221990   0.376   3.832   5.776
 7031SOL     OW21991   2.268   5.791   3.921
 7031SOL    HW121992   2.265   5.766   4.017
 7031SOL    HW221993   2.186   5.756   3.875
 7032SOL     OW21994   4.181   0.219   3.078
 7032SOL    HW121995   4.160   0.137   3.131
 7032SOL    HW221996   4.265   0.261   3.113
 7033SOL     OW21997   6.816   1.239   4.329
 7033SOL    HW121998   6.899   1.294   4.321
 7033SOL    HW221999   6.816   1.168   4.259
 7034SOL     OW22000   5.366   0.412   2.497
 7034SOL    HW122001   5.354   0.342   2.568
 7034SOL    HW222002   5.320   0.384   2.414
 7035SOL     OW22003   1.062   6.699   2.623
 7035SOL    HW122004   1.120   6.633   2.575
 7035SOL    HW222005   1.056   6.783   2.569
 7036SOL     OW22006   6.440   5.786   1.823
 7036SOL    HW122007   6.459   5.755   1.730
 7036SOL    HW222008   6.526   5.800   1.871
 7037SOL     OW22009   0.286   6.844   6.094
 7037SOL    HW122010   0.314   6.879   6.005
 7037SOL    HW222011   0.204   6.787   6.083
 7038SOL     OW22012   1.798   4.113   4.081
 7038SOL    HW122013   1.801   4.212   4.072
 7038SOL    HW222014   1.790   4.088   4.178
 7039SOL     OW22015   3.275   6.916   0.111
 7039SOL    HW122016   3.280   6.878   0.203
 7039SOL    HW222017   3.182   6.945   0.092
 7040SOL     OW22018   4.892   2.844   5.985
 7040SOL    HW122019   4.839   2.807   5.908
 7040SOL    HW222020   4.978   2.795   5.993
 7041SOL     OW22021   1.176   1.773   3.354
 7041SOL    HW122022   1.193   1.714   3.274
 7041SOL    HW222023   1.232   1.741   3.431
 7042SOL     OW22024   5.111   5.174   6.404
 7042SOL    HW122025   5.038   5.219   6.353
 7042SOL    HW222026   5.184   5.149   6.340
 7043SOL     OW22027   1.991   2.993   3.171
 7043SOL    HW122028   2.028   2.936   3.098
 7043SOL    HW222029   2.046   3.076   3.179
 7044SOL     OW22030   4.767   4.581   3.045
 7044SOL    HW122031   4.721   4.501   3.085
 7044SOL    HW222032   4.860   4.588   3.083
 7045SOL     OW22033   4.861   6.669   0.858
 7045SOL    HW122034   4.911   6.712   0.933
 7045SOL    HW222035   4.804   6.595   0.894
 7046SOL     OW22036   3.672   1.869   4.042
 7046SOL    HW122037   3.728   1.802   4.090
 7046SOL    HW222038   3.724   1.908   3.966
 7047SOL     OW22039   1.019   2.204   3.041
 7047SOL    HW122040   0.944   2.263   3.070
 7047SOL    HW222041   1.004   2.175   2.946
 7048SOL     OW22042   1.117   5.728   0.889
 7048SOL    HW122043   1.103   5.789   0.811
 7048SOL    HW222044   1.117   5.781   0.974
 7049SOL     OW22045   2.224   0.811   0.651
 7049SOL    HW122046   2.207   0.715   0.629
 7049SOL    HW222047   2.137   0.854   0.678
 7050SOL     OW22048   3.559   4.051   3.867
 7050SOL    HW122049   3.503   4.076   3.789
 7050SOL    HW222050   3.640   4.001   3.835
 7051SOL     OW22051   6.908   0.294   1.107
 7051SOL    HW122052   6.906   0.200   1.073
 7051SOL    HW222053   6.999   0.315   1.143
 7052SOL     OW22054   7.007   2.060   4.582
 7052SOL    HW122055   6.963   2.127   4.641
 7052SOL    HW222056   6.956   1.974   4.584
 7053SOL     OW22057   0.174   3.542   6.714
 7053SOL    HW122058   0.151   3.479   6.640
 7053SOL    HW222059   0.188   3.634   6.676
 7054SOL     OW22060   0.844   5.910   1.221
 7054SOL    HW122061   0.802   5.937   1.308
 7054SOL    HW222062   0.781   5.928   1.146
 7055SOL     OW22063   4.183   6.430   5.644
 7055SOL    HW122064   4.174   6.518   5.599
 7055SOL    HW222065   4.097   6.380   5.637
 7056SOL     OW22066   5.552   5.212   3.539
 7056SOL    HW122067   5.534   5.157   3.620
 7056SOL    HW222068   5.624   5.278   3.559
 7057SOL     OW22069   0.948   4.224   4.855
 7057SOL    HW122070   0.866   4.219   4.912
 7057SOL    HW222071   0.929   4.279   4.774
 7058SOL     OW22072   0.096   5.564   5.658
 7058SOL    HW122073   0.057   5.604   5.741
 7058SOL    HW222074   0.023   5.539   5.595
 7059SOL     OW22075   0.135   0.141   2.077
 7059SOL    HW122076   0.095   0.067   2.131
 7059SOL    HW222077   0.205   0.104   2.017
 7060SOL     OW22078   3.125   0.173   1.742
 7060SOL    HW122079   3.107   0.121   1.825
 7060SOL    HW222080   3.161   0.264   1.766
 7061SOL     OW22081   0.290   2.165   3.504
 7061SOL    HW122082   0.377   2.212   3.515
 7061SOL    HW222083   0.306   2.068   3.484
 7062SOL     OW22084   5.750   1.864   5.962
 7062SOL    HW122085   5.652   1.882   5.974
 7062SOL    HW222086   5.781   1.907   5.877
 7063SOL     OW22087   1.160   6.265   0.471
 7063SOL    HW122088   1.258   6.283   0.477
 7063SOL    HW222089   1.116   6.296   0.556
 7064SOL     OW22090   4.390   2.386   1.533
 7064SOL    HW122091   4.443   2.470   1.528
 7064SOL    HW222092   4.318   2.397   1.602
 7065SOL     OW22093   5.042   4.177   1.085
 7065SOL    HW122094   4.947   4.199   1.062
 7065SOL    HW222095   5.085   4.255   1.130
 7066SOL     OW22096   3.792   0.888   0.504
 7066SOL    HW122097   3.833   0.899   0.595
 7066SOL    HW222098   3.719   0.821   0.509
 7067SOL     OW22099   0.671   3.473   5.564
 7067SOL    HW122100   0.732   3.432   5.632
 7067SOL    HW222101   0.680   3.423   5.477
 7068SOL     OW22102   1.060   3.081   2.695
 7068SOL    HW122103   0.985   3.060   2.632
 7068SOL    HW222104   1.097   2.996   2.732
 7069SOL     OW22105   6.392   3.412   4.463
 7069SOL    HW122106   6.417   3.483   4.397
 7069SOL    HW222107   6.297   3.424   4.491
 7070SOL     OW22108   6.607   5.207   5.259
 7070SOL    HW122109   6.643   5.280   5.201
 7070SOL    HW222110   6.546   5.148   5.206
 7071SOL     OW22111   0.370   6.454   5.272
 7071SOL    HW122112   0.443   6.388   5.287
 7071SOL    HW222113   0.378   6.529   5.338
 7072SOL     OW22114   6.907   6.959   6.291
 7072SOL    HW122115   6.812   6.982   6.272
 7072SOL    HW222116   6.960   0.022   6.304
 7073SOL     OW22117   6.843   0.895   4.692
 7073SOL    HW122118   6.921   0.900   4.754
 7073SOL    HW222119   6.848   0.970   4.626
 7074SOL     OW22120   3.667   3.008   2.130
 7074SOL    HW122121   3.692   2.973   2.220
 7074SOL    HW222122   3.621   3.096   2.139
 7075SOL     OW22123   1.322   6.473   4.220
 7075SOL    HW122124   1.277   6.531   4.152
 7075SOL    HW222125   1.289   6.378   4.209
 7076SOL     OW22126   3.448   1.701   0.072
 7076SOL    HW122127   3.438   1.659   7.004
 7076SOL    HW222128   3.521   1.769   0.070
 7077SOL     OW22129   2.341   5.812   5.549
 7077SOL    HW122130   2.260   5.864   5.523
 7077SOL    HW222131   2.358   5.824   5.647
 7078SOL     OW22132   6.258   0.432   2.584
 7078SOL    HW122133   6.210   0.428   2.496
 7078SOL    HW222134   6.202   0.391   2.655
 7079SOL     OW22135   6.762   6.527   5.795
 7079SOL    HW122136   6.698   6.484   5.732
 7079SOL    HW222137   6.820   6.457   5.838
 7080SOL     OW22138   4.042   1.751   3.900
 7080SOL    HW122139   4.135   1.763   3.865
 7080SOL    HW222140   4.046   1.731   3.998
 7081SOL     OW22141   3.808   1.131   5.589
 7081SOL    HW122142   3.904   1.109   5.611
 7081SOL    HW222143   3.805   1.212   5.531
 7082SOL     OW22144   5.589   6.508   0.476
 7082SOL    HW122145   5.509   6.562   0.450
 7082SOL    HW222146   5.618   6.533   0.568
 7083SOL     OW22147   3.090   1.218   6.218
 7083SOL    HW122148   3.165   1.284   6.224
 7083SOL    HW222149   3.070   1.200   6.122
 7084SOL     OW22150   6.929   6.458   5.183
 7084SOL    HW122151   7.010   6.514   5.199
 7084SOL    HW222152   6.850   6.518   5.168
 7085SOL     OW22153   1.744   1.199   3.106
 7085SOL    HW122154   1.646   1.219   3.101
 7085SOL    HW222155   1.776   1.210   3.199
 7086SOL     OW22156   5.356   1.411   6.136
 7086SOL    HW122157   5.390   1.322   6.165
 7086SOL    HW222158   5.272   1.433   6.185
 7087SOL     OW22159   0.752   3.136   4.490
 7087SOL    HW122160   0.666   3.097   4.456
 7087SOL    HW222161   0.828   3.098   4.439
 7088SOL     OW22162   4.793   2.795   4.023
 7088SOL    HW122163   4.731   2.738   3.968
 7088SOL    HW222164   4.885   2.792   3.983
 7089SOL     OW22165   3.010   2.807   6.612
 7089SOL    HW122166   2.917   2.807   6.576
 7089SOL    HW222167   3.044   2.713   6.617
 7090SOL     OW22168   2.285   1.377   5.590
 7090SOL    HW122169   2.224   1.411   5.519
 7090SOL    HW222170   2.368   1.433   5.593
 7091SOL     OW22171   6.904   1.535   6.505
 7091SOL    HW122172   6.860   1.622   6.484
 7091SOL    HW222173   7.003   1.546   6.508
 7092SOL     OW22174   4.325   3.115   0.470
 7092SOL    HW122175   4.307   3.041   0.405
 7092SOL    HW222176   4.363   3.077   0.554
 7093SOL     OW22177   3.465   3.693   4.077
 7093SOL    HW122178   3.371   3.720   4.096
 7093SOL    HW222179   3.527   3.765   4.106
 7094SOL     OW22180   0.642   6.436   5.512
 7094SOL    HW122181   0.573   6.366   5.527
 7094SOL    HW222182   0.729   6.393   5.490
 7095SOL     OW22183   2.667   2.823   0.260
 7095SOL    HW122184   2.586   2.821   0.203
 7095SOL    HW222185   2.659   2.754   0.333
 7096SOL     OW22186   5.951   1.272   3.772
 7096SOL    HW122187   6.022   1.277   3.842
 7096SOL    HW222188   5.937   1.363   3.731
 7097SOL     OW22189   6.543   0.569   1.859
 7097SOL    HW122190   6.475   0.533   1.795
 7097SOL    HW222191   6.632   0.574   1.814
 7098SOL     OW22192   1.080   5.756   4.936
 7098SOL    HW122193   1.157   5.783   4.878
 7098SOL    HW222194   1.000   5.810   4.913
 7099SOL     OW22195   1.359   1.198   4.794
 7099SOL    HW122196   1.423   1.269   4.823
 7099SOL    HW222197   1.408   1.112   4.780
 7100SOL     OW22198   5.432   3.335   1.060
 7100SOL    HW122199   5.441   3.324   1.159
 7100SOL    HW222200   5.522   3.324   1.017
 7101SOL     OW22201   3.117   0.568   4.416
 7101SOL    HW122202   3.162   0.657   4.402
 7101SOL    HW222203   3.018   0.581   4.422
 7102SOL     OW22204   4.719   0.743   1.015
 7102SOL    HW122205   4.781   0.817   0.991
 7102SOL    HW222206   4.629   0.780   1.038
 7103SOL     OW22207   3.949   5.336   0.265
 7103SOL    HW122208   3.940   5.369   0.171
 7103SOL    HW222209   4.041   5.358   0.299
 7104SOL     OW22210   1.203   3.514   4.495
 7104SOL    HW122211   1.297   3.487   4.479
 7104SOL    HW222212   1.198   3.575   4.574
 7105SOL     OW22213   3.696   3.121   5.368
 7105SOL    HW122214   3.601   3.128   5.340
 7105SOL    HW222215   3.734   3.214   5.378
 7106SOL     OW22216   3.334   3.298   3.486
 7106SOL    HW122217   3.259   3.233   3.494
 7106SOL    HW222218   3.412   3.254   3.440
 7107SOL     OW22219   2.462   0.951   0.608
 7107SOL    HW122220   2.392   0.896   0.653
 7107SOL    HW222221   2.482   0.914   0.518
 7108SOL     OW22222   4.637   6.436   0.808
 7108SOL    HW122223   4.557   6.493   0.826
 7108SOL    HW222224   4.679   6.409   0.894
 7109SOL     OW22225   3.638   0.013   6.145
 7109SOL    HW122226   3.697   0.056   6.077
 7109SOL    HW222227   3.692   7.003   6.222
 7110SOL     OW22228   4.957   5.262   3.673
 7110SOL    HW122229   5.013   5.252   3.591
 7110SOL    HW222230   5.002   5.326   3.736
 7111SOL     OW22231   0.964   2.787   4.782
 7111SOL    HW122232   1.009   2.768   4.869
 7111SOL    HW222233   1.008   2.865   4.737
 7112SOL     OW22234   1.350   5.543   4.603
 7112SOL    HW122235   1.346   5.624   4.545
 7112SOL    HW222236   1.435   5.544   4.655
 7113SOL     OW22237   3.454   3.937   4.737
 7113SOL    HW122238   3.364   3.895   4.741
 7113SOL    HW222239   3.467   3.994   4.819
 7114SOL     OW22240   4.420   0.022   1.768
 7114SOL    HW122241   4.342   0.074   1.802
 7114SOL    HW222242   4.473   0.078   1.704
 7115SOL     OW22243   5.446   2.337   1.823
 7115SOL    HW122244   5.474   2.260   1.880
 7115SOL    HW222245   5.483   2.326   1.731
 7116SOL     OW22246   5.732   3.626   3.254
 7116SOL    HW122247   5.805   3.589   3.310
 7116SOL    HW222248   5.692   3.706   3.299
 7117SOL     OW22249   6.970   6.953   4.285
 7117SOL    HW122250   6.883   6.996   4.310
 7117SOL    HW222251   0.008   7.022   4.243
 7118SOL     OW22252   4.825   3.021   0.798
 7118SOL    HW122253   4.863   2.977   0.716
 7118SOL    HW222254   4.899   3.065   0.849
 7119SOL     OW22255   4.887   1.290   3.136
 7119SOL    HW122256   4.928   1.381   3.136
 7119SOL    HW222257   4.787   1.299   3.128
 7120SOL     OW22258   3.769   1.755   2.692
 7120SOL    HW122259   3.730   1.803   2.614
 7120SOL    HW222260   3.761   1.811   2.774
 7121SOL     OW22261   1.885   0.243   3.091
 7121SOL    HW122262   1.842   0.200   3.170
 7121SOL    HW222263   1.982   0.256   3.109
 7122SOL     OW22264   6.491   0.902   0.091
 7122SOL    HW122265   6.471   0.997   0.111
 7122SOL    HW222266   6.412   0.859   0.047
 7123SOL     OW22267   3.664   5.321   1.406
 7123SOL    HW122268   3.690   5.389   1.475
 7123SOL    HW222269   3.586   5.268   1.439
 7124SOL     OW22270   0.998   4.136   0.308
 7124SOL    HW122271   0.929   4.106   0.242
 7124SOL    HW222272   1.066   4.063   0.319
 7125SOL     OW22273   6.916   6.197   1.124
 7125SOL    HW122274   6.969   6.112   1.125
 7125SOL    HW222275   6.978   6.275   1.125
 7126SOL     OW22276   2.237   4.211   0.953
 7126SOL    HW122277   2.326   4.168   0.970
 7126SOL    HW222278   2.232   4.297   1.004
 7127SOL     OW22279   2.786   5.393   3.962
 7127SOL    HW122280   2.802   5.309   4.013
 7127SOL    HW222281   2.867   5.414   3.907
 7128SOL     OW22282   3.006   4.590   0.269
 7128SOL    HW122283   3.035   4.605   0.175
 7128SOL    HW222284   3.086   4.575   0.327
 7129SOL     OW22285   3.411   1.047   0.972
 7129SOL    HW122286   3.376   1.140   0.959
 7129SOL    HW222287   3.457   1.040   1.060
 7130SOL     OW22288   3.239   4.883   4.494
 7130SOL    HW122289   3.190   4.949   4.552
 7130SOL    HW222290   3.254   4.799   4.546
 7131SOL     OW22291   2.241   1.636   0.254
 7131SOL    HW122292   2.175   1.563   0.237
 7131SOL    HW222293   2.284   1.663   0.167
 7132SOL     OW22294   4.050   3.570   1.966
 7132SOL    HW122295   4.022   3.657   2.008
 7132SOL    HW222296   4.036   3.496   2.032
 7133SOL     OW22297   5.351   4.913   3.418
 7133SOL    HW122298   5.338   4.842   3.488
 7133SOL    HW222299   5.353   4.871   3.328
 7134SOL     OW22300   6.167   5.651   3.268
 7134SOL    HW122301   6.243   5.716   3.264
 7134SOL    HW222302   6.167   5.594   3.186
 7135SOL     OW22303   1.271   1.260   3.653
 7135SOL    HW122304   1.267   1.247   3.752
 7135SOL    HW222305   1.182   1.241   3.613
 7136SOL     OW22306   1.905   1.806   0.260
 7136SOL    HW122307   1.828   1.759   0.216
 7136SOL    HW222308   1.949   1.745   0.325
 7137SOL     OW22309   4.469   1.502   4.723
 7137SOL    HW122310   4.397   1.478   4.787
 7137SOL    HW222311   4.547   1.540   4.773
 7138SOL     OW22312   3.104   2.713   1.378
 7138SOL    HW122313   3.181   2.657   1.405
 7138SOL    HW222314   3.134   2.782   1.312
 7139SOL     OW22315   4.943   3.312   2.114
 7139SOL    HW122316   4.889   3.235   2.082
 7139SOL    HW222317   4.885   3.392   2.126
 7140SOL     OW22318   6.331   3.458   4.988
 7140SOL    HW122319   6.362   3.390   4.921
 7140SOL    HW222320   6.347   3.423   5.080
 7141SOL     OW22321   3.233   0.070   1.220
 7141SOL    HW122322   3.139   0.040   1.209
 7141SOL    HW222323   3.285   0.050   1.137
 7142SOL     OW22324   4.174   6.639   3.164
 7142SOL    HW122325   4.231   6.558   3.147
 7142SOL    HW222326   4.214   6.694   3.237
 7143SOL     OW22327   1.405   3.179   6.237
 7143SOL    HW122328   1.399   3.093   6.287
 7143SOL    HW222329   1.441   3.163   6.146
 7144SOL     OW22330   0.966   1.066   3.244
 7144SOL    HW122331   0.872   1.034   3.238
 7144SOL    HW222332   0.991   1.112   3.158
 7145SOL     OW22333   3.789   6.065   6.663
 7145SOL    HW122334   3.782   6.125   6.743
 7145SOL    HW222335   3.756   6.113   6.582
 7146SOL     OW22336   2.375   0.377   0.377
 7146SOL    HW122337   2.405   0.329   0.295
 7146SOL    HW222338   2.397   0.323   0.458
 7147SOL     OW22339   6.314   6.926   3.669
 7147SOL    HW122340   6.291   6.865   3.594
 7147SOL    HW222341   6.341   6.871   3.749
 7148SOL     OW22342   1.105   5.496   1.744
 7148SOL    HW122343   1.111   5.396   1.739
 7148SOL    HW222344   1.037   5.522   1.812
 7149SOL     OW22345   6.951   0.144   3.412
 7149SOL    HW122346   0.008   0.197   3.444
 7149SOL    HW222347   6.869   0.174   3.462
 7150SOL     OW22348   5.370   3.305   1.710
 7150SOL    HW122349   5.302   3.232   1.711
 7150SOL    HW222350   5.426   3.301   1.793
 7151SOL     OW22351   0.947   5.241   1.035
 7151SOL    HW122352   0.910   5.290   0.956
 7151SOL    HW222353   0.927   5.143   1.025
 7152SOL     OW22354   0.318   2.828   5.899
 7152SOL    HW122355   0.390   2.797   5.837
 7152SOL    HW222356   0.329   2.926   5.917
 7153SOL     OW22357   3.147   6.157   5.014
 7153SOL    HW122358   3.094   6.073   5.007
 7153SOL    HW222359   3.236   6.145   4.970
 7154SOL     OW22360   4.070   5.769   4.487
 7154SOL    HW122361   4.031   5.858   4.509
 7154SOL    HW222362   3.998   5.700   4.486
 7155SOL     OW22363   1.785   6.379   1.437
 7155SOL    HW122364   1.714   6.329   1.387
 7155SOL    HW222365   1.755   6.474   1.451
 7156SOL     OW22366   0.639   4.934   4.303
 7156SOL    HW122367   0.640   4.991   4.221
 7156SOL    HW222368   0.721   4.952   4.357
 7157SOL     OW22369   6.133   5.467   0.901
 7157SOL    HW122370   6.175   5.497   0.987
 7157SOL    HW222371   6.199   5.414   0.848
 7158SOL     OW22372   0.449   0.175   3.632
 7158SOL    HW122373   0.389   0.250   3.604
 7158SOL    HW222374   0.422   0.091   3.584
 7159SOL     OW22375   0.185   4.343   2.320
 7159SOL    HW122376   0.235   4.376   2.400
 7159SOL    HW222377   0.170   4.418   2.256
 7160SOL     OW22378   6.638   0.946   2.966
 7160SOL    HW122379   6.603   0.875   3.027
 7160SOL    HW222380   6.640   1.033   3.014
 7161SOL     OW22381   3.318   4.096   4.011
 7161SOL    HW122382   3.408   4.116   3.973
 7161SOL    HW222383   3.325   4.087   4.111
 7162SOL     OW22384   2.911   6.019   5.525
 7162SOL    HW122385   2.882   6.008   5.621
 7162SOL    HW222386   2.966   5.940   5.498
 7163SOL     OW22387   3.468   6.876   4.316
 7163SOL    HW122388   3.562   6.870   4.349
 7163SOL    HW222389   3.408   6.902   4.392
 7164SOL     OW22390   1.677   2.133   2.921
 7164SOL    HW122391   1.640   2.208   2.865
 7164SOL    HW222392   1.603   2.086   2.968
 7165SOL     OW22393   5.991   0.398   0.940
 7165SOL    HW122394   5.977   0.482   0.993
 7165SOL    HW222395   5.902   0.359   0.914
 7166SOL     OW22396   5.421   4.262   1.162
 7166SOL    HW122397   5.447   4.166   1.151
 7166SOL    HW222398   5.351   4.286   1.095
 7167SOL     OW22399   4.840   4.037   4.900
 7167SOL    HW122400   4.920   4.078   4.857
 7167SOL    HW222401   4.761   4.097   4.889
 7168SOL     OW22402   1.199   2.035   4.054
 7168SOL    HW122403   1.297   2.054   4.044
 7168SOL    HW222404   1.184   1.936   4.050
 7169SOL     OW22405   1.153   3.056   4.918
 7169SOL    HW122406   1.080   3.064   4.850
 7169SOL    HW222407   1.235   3.018   4.874
 7170SOL     OW22408   4.025   5.336   3.176
 7170SOL    HW122409   4.119   5.300   3.173
 7170SOL    HW222410   3.964   5.275   3.126
 7171SOL     OW22411   5.944   3.644   6.238
 7171SOL    HW122412   5.850   3.662   6.268
 7171SOL    HW222413   5.975   3.718   6.179
 7172SOL     OW22414   1.637   6.954   6.360
 7172SOL    HW122415   1.680   6.912   6.440
 7172SOL    HW222416   1.543   6.920   6.353
 7173SOL     OW22417   0.464   4.703   5.505
 7173SOL    HW122418   0.367   4.693   5.484
 7173SOL    HW222419   0.509   4.752   5.431
 7174SOL     OW22420   1.316   5.398   6.797
 7174SOL    HW122421   1.367   5.483   6.792
 7174SOL    HW222422   1.249   5.395   6.723
 7175SOL     OW22423   5.749   2.875   0.951
 7175SOL    HW122424   5.814   2.863   0.876
 7175SOL    HW222425   5.778   2.819   1.029
 7176SOL     OW22426   0.396   5.388   2.869
 7176SOL    HW122427   0.306   5.426   2.892
 7176SOL    HW222428   0.430   5.333   2.946
 7177SOL     OW22429   2.135   6.078   3.806
 7177SOL    HW122430   2.208   6.146   3.812
 7177SOL    HW222431   2.161   6.007   3.740
 7178SOL     OW22432   2.078   2.674   5.800
 7178SOL    HW122433   2.048   2.605   5.867
 7178SOL    HW222434   2.021   2.756   5.809
 7179SOL     OW22435   1.561   3.444   5.462
 7179SOL    HW122436   1.499   3.414   5.534
 7179SOL    HW222437   1.533   3.404   5.374
 7180SOL     OW22438   1.257   5.138   6.427
 7180SOL    HW122439   1.294   5.048   6.451
 7180SOL    HW222440   1.192   5.129   6.352
 7181SOL     OW22441   3.513   0.298   0.591
 7181SOL    HW122442   3.595   0.289   0.535
 7181SOL    HW222443   3.433   0.311   0.532
 7182SOL     OW22444   1.185   3.391   5.456
 7182SOL    HW122445   1.182   3.491   5.445
 7182SOL    HW222446   1.263   3.366   5.513
 7183SOL     OW22447   1.614   4.836   2.648
 7183SOL    HW122448   1.704   4.873   2.668
 7183SOL    HW222449   1.619   4.778   2.566
 7184SOL     OW22450   0.560   6.966   3.327
 7184SOL    HW122451   0.571   0.027   3.274
 7184SOL    HW222452   0.650   6.930   3.352
 7185SOL     OW22453   4.955   2.520   6.076
 7185SOL    HW122454   5.016   2.550   6.150
 7185SOL    HW222455   5.009   2.479   6.003
 7186SOL     OW22456   6.825   6.942   5.620
 7186SOL    HW122457   6.904   6.894   5.582
 7186SOL    HW222458   6.812   6.914   5.715
 7187SOL     OW22459   1.580   4.709   1.619
 7187SOL    HW122460   1.598   4.695   1.717
 7187SOL    HW222461   1.525   4.632   1.585
 7188SOL     OW22462   5.729   0.077   0.699
 7188SOL    HW122463   5.636   0.093   0.734
 7188SOL    HW222464   5.766   0.161   0.661
 7189SOL     OW22465   6.207   1.247   6.776
 7189SOL    HW122466   6.275   1.189   6.732
 7189SOL    HW222467   6.248   1.336   6.797
 7190SOL     OW22468   5.290   3.527   3.379
 7190SOL    HW122469   5.348   3.602   3.411
 7190SOL    HW222470   5.294   3.522   3.280
 7191SOL     OW22471   0.796   3.895   2.445
 7191SOL    HW122472   0.708   3.918   2.487
 7191SOL    HW222473   0.862   3.969   2.463
 7192SOL     OW22474   2.047   6.499   5.246
 7192SOL    HW122475   2.004   6.577   5.292
 7192SOL    HW222476   2.012   6.491   5.153
 7193SOL     OW22477   3.022   2.185   3.505
 7193SOL    HW122478   3.007   2.192   3.406
 7193SOL    HW222479   3.119   2.171   3.523
 7194SOL     OW22480   2.297   1.821   1.065
 7194SOL    HW122481   2.344   1.748   1.115
 7194SOL    HW222482   2.364   1.872   1.011
 7195SOL     OW22483   0.220   5.122   0.105
 7195SOL    HW122484   0.134   5.105   0.154
 7195SOL    HW222485   0.217   5.079   0.015
 7196SOL     OW22486   3.012   3.562   2.375
 7196SOL    HW122487   2.953   3.522   2.304
 7196SOL    HW222488   2.999   3.661   2.377
 7197SOL     OW22489   6.517   2.634   5.934
 7197SOL    HW122490   6.461   2.696   5.989
 7197SOL    HW222491   6.457   2.571   5.884
 7198SOL     OW22492   1.281   0.409   5.751
 7198SOL    HW122493   1.274   0.383   5.848
 7198SOL    HW222494   1.250   0.503   5.740
 7199SOL     OW22495   1.390   1.028   2.264
 7199SOL    HW122496   1.295   1.061   2.264
 7199SOL    HW222497   1.430   1.043   2.354
 7200SOL     OW22498   2.534   0.444   0.054
 7200SOL    HW122499   2.547   0.465   6.980
 7200SOL    HW222500   2.485   0.357   0.063
 7201SOL     OW22501   1.582   4.666   3.113
 7201SOL    HW122502   1.600   4.577   3.072
 7201SOL    HW222503   1.493   4.665   3.159
 7202SOL     OW22504   3.834   0.077   6.393
 7202SOL    HW122505   3.791   0.070   6.483
 7202SOL    HW222506   3.832   0.172   6.362
 7203SOL     OW22507   5.855   0.919   0.263
 7203SOL    HW122508   5.791   0.843   0.274
 7203SOL    HW222509   5.840   0.986   0.337
 7204SOL     OW22510   6.066   6.540   4.516
 7204SOL    HW122511   6.023   6.547   4.426
 7204SOL    HW222512   5.995   6.532   4.586
 7205SOL     OW22513   1.374   6.199   3.687
 7205SOL    HW122514   1.304   6.162   3.628
 7205SOL    HW222515   1.396   6.133   3.759
 7206SOL     OW22516   0.846   0.977   1.383
 7206SOL    HW122517   0.771   0.990   1.318
 7206SOL    HW222518   0.932   1.005   1.342
 7207SOL     OW22519   3.424   0.116   1.792
 7207SOL    HW122520   3.385   0.133   1.702
 7207SOL    HW222521   3.469   0.199   1.825
 7208SOL     OW22522   3.938   6.421   4.450
 7208SOL    HW122523   3.953   6.388   4.543
 7208SOL    HW222524   4.014   6.393   4.392
 7209SOL     OW22525   3.209   3.137   3.748
 7209SOL    HW122526   3.304   3.126   3.778
 7209SOL    HW222527   3.158   3.187   3.818
 7210SOL     OW22528   5.110   0.618   3.716
 7210SOL    HW122529   5.047   0.616   3.638
 7210SOL    HW222530   5.058   0.632   3.800
 7211SOL     OW22531   0.859   6.058   3.654
 7211SOL    HW122532   0.823   6.082   3.744
 7211SOL    HW222533   0.837   5.963   3.633
 7212SOL     OW22534   0.685   5.843   3.950
 7212SOL    HW122535   0.591   5.810   3.954
 7212SOL    HW222536   0.689   5.927   3.895
 7213SOL     OW22537   5.525   6.662   5.180
 7213SOL    HW122538   5.488   6.734   5.239
 7213SOL    HW222539   5.498   6.573   5.215
 7214SOL     OW22540   2.475   5.470   4.427
 7214SOL    HW122541   2.447   5.382   4.389
 7214SOL    HW222542   2.567   5.461   4.467
 7215SOL     OW22543   0.779   3.656   4.449
 7215SOL    HW122544   0.831   3.580   4.410
 7215SOL    HW222545   0.732   3.705   4.375
 7216SOL     OW22546   3.170   5.224   0.397
 7216SOL    HW122547   3.146   5.135   0.357
 7216SOL    HW222548   3.227   5.209   0.478
 7217SOL     OW22549   1.631   4.652   1.908
 7217SOL    HW122550   1.590   4.612   1.990
 7217SOL    HW222551   1.727   4.624   1.901
 7218SOL     OW22552   4.637   2.937   5.644
 7218SOL    HW122553   4.591   3.007   5.699
 7218SOL    HW222554   4.601   2.939   5.551
 7219SOL     OW22555   4.444   6.233   3.349
 7219SOL    HW122556   4.355   6.190   3.367
 7219SOL    HW222557   4.477   6.277   3.433
 7220SOL     OW22558   6.712   6.283   3.644
 7220SOL    HW122559   6.622   6.265   3.684
 7220SOL    HW222560   6.771   6.327   3.712
 7221SOL     OW22561   5.824   4.973   5.398
 7221SOL    HW122562   5.802   4.877   5.382
 7221SOL    HW222563   5.885   5.005   5.325
 7222SOL     OW22564   6.340   6.600   0.476
 7222SOL    HW122565   6.439   6.599   0.467
 7222SOL    HW222566   6.303   6.676   0.422
 7223SOL     OW22567   3.014   1.702   1.384
 7223SOL    HW122568   2.922   1.678   1.354
 7223SOL    HW222569   3.068   1.620   1.398
 7224SOL     OW22570   6.005   1.959   4.657
 7224SOL    HW122571   5.969   2.038   4.607
 7224SOL    HW222572   5.934   1.889   4.664
 7225SOL     OW22573   1.698   5.583   6.841
 7225SOL    HW122574   1.714   5.533   6.927
 7225SOL    HW222575   1.778   5.639   6.821
 7226SOL     OW22576   0.430   0.308   0.536
 7226SOL    HW122577   0.386   0.309   0.446
 7226SOL    HW222578   0.376   0.363   0.600
 7227SOL     OW22579   0.795   2.430   0.420
 7227SOL    HW122580   0.825   2.352   0.476
 7227SOL    HW222581   0.730   2.486   0.472
 7228SOL     OW22582   0.084   0.309   1.762
 7228SOL    HW122583   0.081   0.276   1.856
 7228SOL    HW222584   0.066   0.407   1.761
 7229SOL     OW22585   0.821   0.457   4.151
 7229SOL    HW122586   0.919   0.442   4.145
 7229SOL    HW222587   0.785   0.482   4.061
 7230SOL     OW22588   4.301   5.264   5.105
 7230SOL    HW122589   4.283   5.274   5.007
 7230SOL    HW222590   4.285   5.169   5.131
 7231SOL     OW22591   4.629   0.927   6.992
 7231SOL    HW122592   4.618   0.977   6.906
 7231SOL    HW222593   4.544   0.931   0.022
 7232SOL     OW22594   3.735   4.887   3.390
 7232SOL    HW122595   3.772   4.882   3.298
 7232SOL    HW222596   3.808   4.871   3.457
 7233SOL     OW22597   0.307   3.149   5.059
 7233SOL    HW122598   0.214   3.119   5.082
 7233SOL    HW222599   0.367   3.070   5.053
 7234SOL     OW22600   6.146   2.733   1.820
 7234SOL    HW122601   6.072   2.701   1.879
 7234SOL    HW222602   6.175   2.660   1.759
 7235SOL     OW22603   6.544   3.718   4.039
 7235SOL    HW122604   6.552   3.721   3.939
 7235SOL    HW222605   6.616   3.773   4.080
 7236SOL     OW22606   3.243   1.755   3.091
 7236SOL    HW122607   3.330   1.781   3.051
 7236SOL    HW222608   3.258   1.716   3.182
 7237SOL     OW22609   6.667   6.182   5.250
 7237SOL    HW122610   6.697   6.088   5.230
 7237SOL    HW222611   6.582   6.180   5.301
 7238SOL     OW22612   2.461   1.460   1.841
 7238SOL    HW122613   2.508   1.419   1.763
 7238SOL    HW222614   2.381   1.404   1.865
 7239SOL     OW22615   1.855   1.718   3.613
 7239SOL    HW122616   1.926   1.655   3.643
 7239SOL    HW222617   1.861   1.804   3.665
 7240SOL     OW22618   3.046   4.320   0.673
 7240SOL    HW122619   2.986   4.255   0.718
 7240SOL    HW222620   3.063   4.291   0.579
 7241SOL     OW22621   3.207   0.315   5.828
 7241SOL    HW122622   3.251   0.370   5.899
 7241SOL    HW222623   3.175   0.229   5.868
 7242SOL     OW22624   5.800   4.121   6.935
 7242SOL    HW122625   5.791   4.094   6.839
 7242SOL    HW222626   5.881   4.179   6.946
 7243SOL     OW22627   1.526   4.690   6.492
 7243SOL    HW122628   1.569   4.604   6.519
 7243SOL    HW222629   1.596   4.759   6.477
 7244SOL     OW22630   4.732   1.254   0.449
 7244SOL    HW122631   4.668   1.323   0.481
 7244SOL    HW222632   4.710   1.166   0.489
 7245SOL     OW22633   0.158   2.772   5.093
 7245SOL    HW122634   0.126   2.863   5.067
 7245SOL    HW222635   0.099   2.735   5.165
 7246SOL     OW22636   6.887   6.789   4.706
 7246SOL    HW122637   6.928   6.703   4.736
 7246SOL    HW222638   6.817   6.770   4.637
 7247SOL     OW22639   2.331   6.410   2.397
 7247SOL    HW122640   2.286   6.436   2.482
 7247SOL    HW222641   2.303   6.473   2.324
 7248SOL     OW22642   3.227   1.117   3.714
 7248SOL    HW122643   3.201   1.131   3.618
 7248SOL    HW222644   3.216   1.021   3.738
 7249SOL     OW22645   5.779   4.495   0.926
 7249SOL    HW122646   5.748   4.440   0.848
 7249SOL    HW222647   5.877   4.482   0.938
 7250SOL     OW22648   2.311   4.778   6.388
 7250SOL    HW122649   2.393   4.720   6.394
 7250SOL    HW222650   2.327   4.864   6.435
 7251SOL     OW22651   6.362   6.694   5.595
 7251SOL    HW122652   6.457   6.724   5.603
 7251SOL    HW222653   6.301   6.773   5.597
 7252SOL     OW22654   3.189   3.370   4.691
 7252SOL    HW122655   3.109   3.311   4.684
 7252SOL    HW222656   3.166   3.462   4.658
 7253SOL     OW22657   1.594   5.857   0.439
 7253SOL    HW122658   1.679   5.820   0.477
 7253SOL    HW222659   1.516   5.824   0.493
 7254SOL     OW22660   3.446   5.247   4.076
 7254SOL    HW122661   3.380   5.267   4.148
 7254SOL    HW222662   3.434   5.153   4.045
 7255SOL     OW22663   2.903   3.072   1.728
 7255SOL    HW122664   2.962   3.098   1.804
 7255SOL    HW222665   2.924   2.979   1.700
 7256SOL     OW22666   4.460   4.755   4.611
 7256SOL    HW122667   4.402   4.818   4.558
 7256SOL    HW222668   4.422   4.742   4.702
 7257SOL     OW22669   6.156   2.719   3.063
 7257SOL    HW122670   6.063   2.682   3.053
 7257SOL    HW222671   6.216   2.647   3.098
 7258SOL     OW22672   4.266   0.516   4.264
 7258SOL    HW122673   4.300   0.595   4.214
 7258SOL    HW222674   4.253   0.540   4.360
 7259SOL     OW22675   2.793   4.313   0.085
 7259SOL    HW122676   2.726   4.359   0.143
 7259SOL    HW222677   2.754   4.226   0.053
 7260SOL     OW22678   3.786   1.923   2.921
 7260SOL    HW122679   3.869   1.946   2.973
 7260SOL    HW222680   3.711   1.983   2.950
 7261SOL     OW22681   2.267   3.222   1.763
 7261SOL    HW122682   2.364   3.245   1.755
 7261SOL    HW222683   2.226   3.277   1.835
 7262SOL     OW22684   6.019   2.629   4.710
 7262SOL    HW122685   5.923   2.627   4.682
 7262SOL    HW222686   6.062   2.541   4.689
 7263SOL     OW22687   1.353   5.670   1.720
 7263SOL    HW122688   1.370   5.747   1.660
 7263SOL    HW222689   1.263   5.632   1.700
 7264SOL     OW22690   6.712   0.855   6.927
 7264SOL    HW122691   6.781   0.804   6.977
 7264SOL    HW222692   6.658   0.911   6.990
 7265SOL     OW22693   5.355   5.482   5.972
 7265SOL    HW122694   5.404   5.523   6.049
 7265SOL    HW222695   5.335   5.386   5.991
 7266SOL     OW22696   5.235   0.941   1.454
 7266SOL    HW122697   5.185   0.899   1.378
 7266SOL    HW222698   5.213   0.893   1.539
 7267SOL     OW22699   6.901   4.241   4.922
 7267SOL    HW122700   6.867   4.323   4.966
 7267SOL    HW222701   6.939   4.264   4.832
 7268SOL     OW22702   4.351   5.811   2.038
 7268SOL    HW122703   4.328   5.863   1.955
 7268SOL    HW222704   4.428   5.854   2.084
 7269SOL     OW22705   0.679   5.516   1.613
 7269SOL    HW122706   0.732   5.591   1.653
 7269SOL    HW222707   0.735   5.433   1.610
 7270SOL     OW22708   1.965   1.683   3.047
 7270SOL    HW122709   2.014   1.607   3.089
 7270SOL    HW222710   1.980   1.681   2.948
 7271SOL     OW22711   0.383   3.800   2.510
 7271SOL    HW122712   0.299   3.789   2.456
 7271SOL    HW222713   0.363   3.787   2.607
 7272SOL     OW22714   4.929   2.775   2.987
 7272SOL    HW122715   4.964   2.720   3.063
 7272SOL    HW222716   4.909   2.867   3.018
 7273SOL     OW22717   5.751   4.627   1.671
 7273SOL    HW122718   5.841   4.584   1.667
 7273SOL    HW222719   5.733   4.673   1.584
 7274SOL     OW22720   0.484   4.851   5.716
 7274SOL    HW122721   0.423   4.810   5.784
 7274SOL    HW222722   0.495   4.788   5.639
 7275SOL     OW22723   6.932   0.707   0.004
 7275SOL    HW122724   6.932   0.648   6.946
 7275SOL    HW222725   7.004   0.678   0.067
 7276SOL     OW22726   2.251   2.073   4.121
 7276SOL    HW122727   2.234   2.088   4.024
 7276SOL    HW222728   2.202   1.991   4.151
 7277SOL     OW22729   4.516   1.397   5.675
 7277SOL    HW122730   4.558   1.352   5.754
 7277SOL    HW222731   4.424   1.428   5.699
 7278SOL     OW22732   3.913   1.429   3.285
 7278SOL    HW122733   3.833   1.371   3.271
 7278SOL    HW222734   3.904   1.476   3.373
 7279SOL     OW22735   4.443   4.368   0.635
 7279SOL    HW122736   4.425   4.404   0.727
 7279SOL    HW222737   4.358   4.364   0.583
 7280SOL     OW22738   5.329   2.163   5.098
 7280SOL    HW122739   5.405   2.186   5.159
 7280SOL    HW222740   5.320   2.234   5.028
 7281SOL     OW22741   3.644   6.531   0.994
 7281SOL    HW122742   3.614   6.438   0.970
 7281SOL    HW222743   3.663   6.536   1.092
 7282SOL     OW22744   6.627   5.345   2.002
 7282SOL    HW122745   6.547   5.300   2.043
 7282SOL    HW222746   6.672   5.402   2.071
 7283SOL     OW22747   3.516   5.684   2.518
 7283SOL    HW122748   3.426   5.641   2.515
 7283SOL    HW222749   3.532   5.734   2.433
 7284SOL     OW22750   6.594   2.399   3.819
 7284SOL    HW122751   6.671   2.368   3.764
 7284SOL    HW222752   6.567   2.491   3.790
 7285SOL     OW22753   4.956   2.941   1.896
 7285SOL    HW122754   4.880   2.998   1.926
 7285SOL    HW222755   5.008   2.910   1.975
 7286SOL     OW22756   0.724   1.467   0.885
 7286SOL    HW122757   0.803   1.467   0.823
 7286SOL    HW222758   0.640   1.468   0.831
 7287SOL     OW22759   1.272   2.767   3.591
 7287SOL    HW122760   1.206   2.706   3.546
 7287SOL    HW222761   1.365   2.730   3.579
 7288SOL     OW22762   3.098   2.140   2.997
 7288SOL    HW122763   3.016   2.179   2.957
 7288SOL    HW222764   3.132   2.066   2.939
 7289SOL     OW22765   6.169   2.153   2.264
 7289SOL    HW122766   6.103   2.226   2.245
 7289SOL    HW222767   6.259   2.181   2.232
 7290SOL     OW22768   4.376   1.454   5.383
 7290SOL    HW122769   4.435   1.523   5.426
 7290SOL    HW222770   4.388   1.456   5.284
 7291SOL     OW22771   3.588   0.304   6.933
 7291SOL    HW122772   3.560   0.335   6.842
 7291SOL    HW222773   3.572   0.206   6.941
 7292SOL     OW22774   1.531   0.341   3.361
 7292SOL    HW122775   1.502   0.262   3.308
 7292SOL    HW222776   1.527   0.423   3.305
 7293SOL     OW22777   1.258   0.553   5.505
 7293SOL    HW122778   1.340   0.539   5.560
 7293SOL    HW222779   1.215   0.464   5.487
 7294SOL     OW22780   3.096   4.517   1.647
 7294SOL    HW122781   3.188   4.486   1.671
 7294SOL    HW222782   3.035   4.503   1.725
 7295SOL     OW22783   6.367   5.206   2.003
 7295SOL    HW122784   6.372   5.109   1.980
 7295SOL    HW222785   6.350   5.259   1.919
 7296SOL     OW22786   3.935   4.833   2.893
 7296SOL    HW122787   3.918   4.901   2.821
 7296SOL    HW222788   3.905   4.743   2.862
 7297SOL     OW22789   2.930   6.716   1.924
 7297SOL    HW122790   3.004   6.755   1.980
 7297SOL    HW222791   2.866   6.667   1.982
 7298SOL     OW22792   5.033   5.630   6.449
 7298SOL    HW122793   5.069   5.660   6.361
 7298SOL    HW222794   4.933   5.629   6.445
 7299SOL     OW22795   1.205   2.993   6.929
 7299SOL    HW122796   1.245   3.046   6.854
 7299SOL    HW222797   1.244   3.023   7.016
 7300SOL     OW22798   0.685   5.274   1.393
 7300SOL    HW122799   0.625   5.211   1.343
 7300SOL    HW222800   0.667   5.267   1.491
 7301SOL     OW22801   5.465   6.935   5.335
 7301SOL    HW122802   5.492   6.904   5.426
 7301SOL    HW222803   5.500   0.005   5.319
 7302SOL     OW22804   5.108   3.071   5.896
 7302SOL    HW122805   5.023   3.055   5.847
 7302SOL    HW222806   5.186   3.052   5.836
 7303SOL     OW22807   2.433   1.197   0.788
 7303SOL    HW122808   2.417   1.116   0.731
 7303SOL    HW222809   2.381   1.188   0.874
 7304SOL     OW22810   2.905   5.266   1.855
 7304SOL    HW122811   2.925   5.225   1.944
 7304SOL    HW222812   2.916   5.197   1.783
 7305SOL     OW22813   6.020   2.325   0.193
 7305SOL    HW122814   5.996   2.422   0.194
 7305SOL    HW222815   5.938   2.269   0.206
 7306SOL     OW22816   2.788   1.425   1.472
 7306SOL    HW122817   2.845   1.393   1.548
 7306SOL    HW222818   2.756   1.518   1.493
 7307SOL     OW22819   3.078   6.467   1.843
 7307SOL    HW122820   3.122   6.429   1.762
 7307SOL    HW222821   3.082   6.567   1.838
 7308SOL     OW22822   5.252   0.607   1.698
 7308SOL    HW122823   5.167   0.621   1.648
 7308SOL    HW222824   5.296   0.695   1.715
 7309SOL     OW22825   2.587   5.715   2.718
 7309SOL    HW122826   2.536   5.632   2.741
 7309SOL    HW222827   2.626   5.705   2.627
 7310SOL     OW22828   1.743   2.687   0.122
 7310SOL    HW122829   1.769   2.747   0.198
 7310SOL    HW222830   1.720   2.742   0.042
 7311SOL     OW22831   0.318   6.962   0.398
 7311SOL    HW122832   0.376   6.996   0.472
 7311SOL    HW222833   0.235   7.017   0.392
 7312SOL     OW22834   6.856   2.272   5.765
 7312SOL    HW122835   6.784   2.288   5.697
 7312SOL    HW222836   6.936   2.231   5.719
 7313SOL     OW22837   2.386   1.049   1.530
 7313SOL    HW122838   2.303   1.104   1.518
 7313SOL    HW222839   2.421   1.063   1.623
 7314SOL     OW22840   7.009   4.252   6.904
 7314SOL    HW122841   0.069   4.207   6.939
 7314SOL    HW222842   6.928   4.209   6.945
 7315SOL     OW22843   0.079   5.287   2.118
 7315SOL    HW122844   0.154   5.281   2.184
 7315SOL    HW222845   0.064   5.382   2.092
 7316SOL     OW22846   3.016   2.293   6.526
 7316SOL    HW122847   3.006   2.216   6.589
 7316SOL    HW222848   2.926   2.325   6.498
 7317SOL     OW22849   3.662   1.354   1.936
 7317SOL    HW122850   3.615   1.297   2.004
 7317SOL    HW222851   3.699   1.435   1.980
 7318SOL     OW22852   3.582   0.074   2.323
 7318SOL    HW122853   3.498   0.022   2.336
 7318SOL    HW222854   3.632   0.037   2.245
 7319SOL     OW22855   6.581   4.620   0.417
 7319SOL    HW122856   6.586   4.720   0.417
 7319SOL    HW222857   6.552   4.588   0.326
 7320SOL     OW22858   0.121   3.778   0.793
 7320SOL    HW122859   0.148   3.749   0.885
 7320SOL    HW222860   0.058   3.711   0.754
 7321SOL     OW22861   2.438   6.110   6.483
 7321SOL    HW122862   2.498   6.046   6.435
 7321SOL    HW222863   2.369   6.058   6.533
 7322SOL     OW22864   0.834   1.679   2.327
 7322SOL    HW122865   0.758   1.697   2.264
 7322SOL    HW222866   0.919   1.673   2.276
 7323SOL     OW22867   1.641   1.839   0.987
 7323SOL    HW122868   1.727   1.801   1.021
 7323SOL    HW222869   1.569   1.825   1.055
 7324SOL     OW22870   5.510   5.042   3.061
 7324SOL    HW122871   5.593   5.057   3.116
 7324SOL    HW222872   5.537   5.014   2.969
 7325SOL     OW22873   3.802   0.204   5.994
 7325SOL    HW122874   3.813   0.234   6.089
 7325SOL    HW222875   3.726   0.253   5.952
 7326SOL     OW22876   2.877   0.923   6.464
 7326SOL    HW122877   2.847   0.828   6.448
 7326SOL    HW222878   2.881   0.940   6.563
 7327SOL     OW22879   6.073   4.005   3.440
 7327SOL    HW122880   6.135   3.936   3.476
 7327SOL    HW222881   6.123   4.090   3.424
 7328SOL     OW22882   3.813   5.179   5.441
 7328SOL    HW122883   3.849   5.191   5.349
 7328SOL    HW222884   3.733   5.120   5.438
 7329SOL     OW22885   2.301   2.928   0.544
 7329SOL    HW122886   2.249   3.013   0.529
 7329SOL    HW222887   2.260   2.855   0.489
 7330SOL     OW22888   3.304   2.721   1.732
 7330SOL    HW122889   3.382   2.659   1.739
 7330SOL    HW222890   3.224   2.670   1.699
 7331SOL     OW22891   4.611   0.369   1.686
 7331SOL    HW122892   4.599   0.281   1.642
 7331SOL    HW222893   4.588   0.361   1.783
 7332SOL     OW22894   3.607   3.840   0.129
 7332SOL    HW122895   3.652   3.912   0.180
 7332SOL    HW222896   3.623   3.853   0.031
 7333SOL     OW22897   6.367   2.943   1.571
 7333SOL    HW122898   6.300   2.885   1.525
 7333SOL    HW222899   6.321   3.000   1.640
 7334SOL     OW22900   2.622   0.296   5.338
 7334SOL    HW122901   2.623   0.337   5.429
 7334SOL    HW222902   2.675   0.211   5.339
 7335SOL     OW22903   0.103   3.023   2.652
 7335SOL    HW122904   0.182   3.046   2.596
 7335SOL    HW222905   0.121   2.938   2.702
 7336SOL     OW22906   1.373   6.041   0.653
 7336SOL    HW122907   1.282   6.055   0.693
 7336SOL    HW222908   1.380   5.946   0.621
 7337SOL     OW22909   2.581   2.454   2.065
 7337SOL    HW122910   2.672   2.418   2.044
 7337SOL    HW222911   2.522   2.379   2.095
 7338SOL     OW22912   5.769   3.107   1.474
 7338SOL    HW122913   5.761   3.028   1.534
 7338SOL    HW222914   5.724   3.186   1.516
 7339SOL     OW22915   0.039   5.950   5.239
 7339SOL    HW122916   0.014   5.950   5.142
 7339SOL    HW222917   0.033   5.857   5.275
 7340SOL     OW22918   2.728   0.740   6.820
 7340SOL    HW122919   2.660   0.719   6.750
 7340SOL    HW222920   2.776   0.824   6.795
 7341SOL     OW22921   0.157   5.041   3.989
 7341SOL    HW122922   0.112   5.085   3.912
 7341SOL    HW222923   0.220   5.105   4.033
 7342SOL     OW22924   6.946   0.332   6.990
 7342SOL    HW122925   6.886   0.348   0.047
 7342SOL    HW222926   6.925   0.398   6.918
 7343SOL     OW22927   5.542   4.087   2.608
 7343SOL    HW122928   5.609   4.121   2.542
 7343SOL    HW222929   5.499   4.163   2.655
 7344SOL     OW22930   1.825   6.594   6.423
 7344SOL    HW122931   1.819   6.524   6.351
 7344SOL    HW222932   1.735   6.633   6.440
 7345SOL     OW22933   3.974   5.036   5.639
 7345SOL    HW122934   3.948   4.941   5.656
 7345SOL    HW222935   3.900   5.082   5.589
 7346SOL     OW22936   3.840   4.471   0.842
 7346SOL    HW122937   3.774   4.544   0.826
 7346SOL    HW222938   3.794   4.394   0.887
 7347SOL     OW22939   6.292   2.024   2.596
 7347SOL    HW122940   6.353   2.103   2.586
 7347SOL    HW222941   6.265   1.992   2.505
 7348SOL     OW22942   1.340   2.998   3.716
 7348SOL    HW122943   1.304   2.913   3.678
 7348SOL    HW222944   1.264   3.055   3.748
 7349SOL     OW22945   3.704   2.015   1.205
 7349SOL    HW122946   3.692   1.971   1.294
 7349SOL    HW222947   3.657   1.961   1.135
 7350SOL     OW22948   0.563   2.471   3.763
 7350SOL    HW122949   0.573   2.378   3.801
 7350SOL    HW222950   0.618   2.479   3.680
 7351SOL     OW22951   4.103   4.661   6.057
 7351SOL    HW122952   4.092   4.744   6.110
 7351SOL    HW222953   4.069   4.583   6.110
 7352SOL     OW22954   1.353   1.874   2.237
 7352SOL    HW122955   1.333   1.781   2.206
 7352SOL    HW222956   1.429   1.873   2.301
 7353SOL     OW22957   6.351   1.878   4.806
 7353SOL    HW122958   6.259   1.860   4.841
 7353SOL    HW222959   6.377   1.971   4.828
 7354SOL     OW22960   6.612   0.277   6.387
 7354SOL    HW122961   6.676   0.351   6.409
 7354SOL    HW222962   6.527   0.316   6.351
 7355SOL     OW22963   0.639   5.872   1.532
 7355SOL    HW122964   0.605   5.818   1.455
 7355SOL    HW222965   0.684   5.812   1.598
 7356SOL     OW22966   6.338   1.807   6.717
 7356SOL    HW122967   6.243   1.777   6.726
 7356SOL    HW222968   6.355   1.836   6.622
 7357SOL     OW22969   4.679   1.204   0.020
 7357SOL    HW122970   4.773   1.237   0.008
 7357SOL    HW222971   4.680   1.106   0.036
 7358SOL     OW22972   3.635   1.954   3.743
 7358SOL    HW122973   3.728   1.937   3.711
 7358SOL    HW222974   3.636   2.031   3.808
 7359SOL     OW22975   3.880   2.993   2.581
 7359SOL    HW122976   3.816   2.938   2.527
 7359SOL    HW222977   3.959   3.017   2.525
 7360SOL     OW22978   1.564   2.309   5.508
 7360SOL    HW122979   1.651   2.357   5.524
 7360SOL    HW222980   1.488   2.370   5.532
 7361SOL     OW22981   5.203   6.837   0.838
 7361SOL    HW122982   5.147   6.784   0.775
 7361SOL    HW222983   5.209   6.790   0.926
 7362SOL     OW22984   1.017   6.781   4.820
 7362SOL    HW122985   0.981   6.865   4.779
 7362SOL    HW222986   0.945   6.736   4.873
 7363SOL     OW22987   5.886   2.585   0.231
 7363SOL    HW122988   5.817   2.609   0.300
 7363SOL    HW222989   5.843   2.581   0.141
 7364SOL     OW22990   4.174   6.969   0.808
 7364SOL    HW122991   4.203   6.880   0.773
 7364SOL    HW222992   4.090   6.998   0.761
 7365SOL     OW22993   2.983   0.514   2.748
 7365SOL    HW122994   2.984   0.414   2.744
 7365SOL    HW222995   3.015   0.544   2.837
 7366SOL     OW22996   1.049   5.431   6.640
 7366SOL    HW122997   1.023   5.334   6.632
 7366SOL    HW222998   1.032   5.476   6.552
 7367SOL     OW22999   5.273   4.026   1.271
 7367SOL    HW123000   5.218   4.046   1.190
 7367SOL    HW223001   5.370   4.036   1.248
 7368SOL     OW23002   3.354   3.378   4.359
 7368SOL    HW123003   3.276   3.403   4.301
 7368SOL    HW223004   3.437   3.421   4.324
 7369SOL     OW23005   5.216   3.761   1.408
 7369SOL    HW123006   5.216   3.857   1.379
 7369SOL    HW223007   5.161   3.707   1.345
 7370SOL     OW23008   2.279   7.004   0.318
 7370SOL    HW123009   2.312   6.966   0.231
 7370SOL    HW223010   2.357   0.003   0.376
 7371SOL     OW23011   3.128   5.339   3.853
 7371SOL    HW123012   3.071   5.309   3.776
 7371SOL    HW223013   3.120   5.272   3.927
 7372SOL     OW23014   4.038   0.253   5.279
 7372SOL    HW123015   4.011   0.323   5.213
 7372SOL    HW223016   4.116   0.202   5.244
 7373SOL     OW23017   4.072   1.075   3.475
 7373SOL    HW123018   4.101   1.140   3.544
 7373SOL    HW223019   4.079   0.982   3.511
 7374SOL     OW23020   1.574   2.731   5.472
 7374SOL    HW123021   1.669   2.727   5.440
 7374SOL    HW223022   1.522   2.793   5.414
 7375SOL     OW23023   1.135   1.565   4.862
 7375SOL    HW123024   1.115   1.632   4.791
 7375SOL    HW223025   1.115   1.473   4.827
 7376SOL     OW23026   2.859   3.023   0.184
 7376SOL    HW123027   2.806   3.108   0.183
 7376SOL    HW223028   2.799   2.947   0.212
 7377SOL     OW23029   4.855   4.474   1.586
 7377SOL    HW123030   4.801   4.429   1.657
 7377SOL    HW223031   4.811   4.561   1.563
 7378SOL     OW23032   0.397   2.158   4.944
 7378SOL    HW123033   0.366   2.171   4.850
 7378SOL    HW223034   0.371   2.066   4.974
 7379SOL     OW23035   4.291   1.190   2.057
 7379SOL    HW123036   4.353   1.115   2.037
 7379SOL    HW223037   4.201   1.170   2.020
 7380SOL     OW23038   6.491   3.029   5.850
 7380SOL    HW123039   6.543   2.951   5.814
 7380SOL    HW223040   6.506   3.109   5.791
 7381SOL     OW23041   4.861   2.991   2.499
 7381SOL    HW123042   4.934   3.059   2.508
 7381SOL    HW223043   4.878   2.933   2.420
 7382SOL     OW23044   0.410   4.442   4.854
 7382SOL    HW123045   0.417   4.404   4.761
 7382SOL    HW223046   0.349   4.384   4.909
 7383SOL     OW23047   0.554   6.342   2.180
 7383SOL    HW123048   0.606   6.408   2.125
 7383SOL    HW223049   0.491   6.293   2.121
 7384SOL     OW23050   5.043   0.157   2.276
 7384SOL    HW123051   5.113   0.180   2.343
 7384SOL    HW223052   5.015   0.240   2.227
 7385SOL     OW23053   4.528   6.239   2.097
 7385SOL    HW123054   4.483   6.200   2.178
 7385SOL    HW223055   4.627   6.231   2.108
 7386SOL     OW23056   0.959   2.294   5.733
 7386SOL    HW123057   1.003   2.221   5.680
 7386SOL    HW223058   1.014   2.378   5.726
 7387SOL     OW23059   4.152   5.547   4.337
 7387SOL    HW123060   4.121   5.620   4.398
 7387SOL    HW223061   4.137   5.575   4.242
 7388SOL     OW23062   6.785   5.195   4.081
 7388SOL    HW123063   6.699   5.204   4.031
 7388SOL    HW223064   6.800   5.099   4.105
 7389SOL     OW23065   1.406   4.222   7.001
 7389SOL    HW123066   1.428   4.249   6.907
 7389SOL    HW223067   1.310   4.242   7.019
 7390SOL     OW23068   0.089   1.780   6.560
 7390SOL    HW123069   0.019   1.845   6.590
 7390SOL    HW223070   0.176   1.804   6.603
 7391SOL     OW23071   5.515   4.039   6.271
 7391SOL    HW123072   5.506   4.055   6.173
 7391SOL    HW223073   5.496   4.123   6.321
 7392SOL     OW23074   1.960   6.004   5.533
 7392SOL    HW123075   1.966   6.065   5.455
 7392SOL    HW223076   1.879   5.946   5.525
 7393SOL     OW23077   6.174   5.446   2.096
 7393SOL    HW123078   6.123   5.532   2.096
 7393SOL    HW223079   6.259   5.458   2.045
 7394SOL     OW23080   3.601   3.348   6.514
 7394SOL    HW123081   3.597   3.364   6.613
 7394SOL    HW223082   3.565   3.257   6.494
 7395SOL     OW23083   0.582   0.404   6.471
 7395SOL    HW123084   0.680   0.395   6.485
 7395SOL    HW223085   0.540   0.313   6.465
 7396SOL     OW23086   1.547   0.630   5.619
 7396SOL    HW123087   1.629   0.598   5.667
 7396SOL    HW223088   1.571   0.659   5.527
 7397SOL     OW23089   6.348   4.325   4.791
 7397SOL    HW123090   6.327   4.399   4.727
 7397SOL    HW223091   6.290   4.246   4.771
 7398SOL     OW23092   4.410   5.497   3.400
 7398SOL    HW123093   4.329   5.547   3.431
 7398SOL    HW223094   4.445   5.440   3.474
 7399SOL     OW23095   6.404   4.159   5.664
 7399SOL    HW123096   6.357   4.189   5.747
 7399SOL    HW223097   6.344   4.101   5.610
 7400SOL     OW23098   3.011   4.092   6.740
 7400SOL    HW123099   2.965   4.178   6.715
 7400SOL    HW223100   2.962   4.015   6.698
 7401SOL     OW23101   0.089   1.135   4.068
 7401SOL    HW123102   0.062   1.223   4.106
 7401SOL    HW223103   0.158   1.093   4.128
 7402SOL     OW23104   2.199   6.904   3.958
 7402SOL    HW123105   2.128   6.882   4.025
 7402SOL    HW223106   2.287   6.866   3.989
 7403SOL     OW23107   1.777   3.390   3.512
 7403SOL    HW123108   1.864   3.418   3.552
 7403SOL    HW223109   1.706   3.457   3.535
 7404SOL     OW23110   1.755   0.426   0.686
 7404SOL    HW123111   1.826   0.360   0.709
 7404SOL    HW223112   1.733   0.481   0.767
 7405SOL     OW23113   1.970   5.184   5.060
 7405SOL    HW123114   1.927   5.242   5.129
 7405SOL    HW223115   1.986   5.238   4.977
 7406SOL     OW23116   1.324   3.808   2.562
 7406SOL    HW123117   1.412   3.822   2.607
 7406SOL    HW223118   1.275   3.895   2.557
 7407SOL     OW23119   0.398   5.880   5.129
 7407SOL    HW123120   0.331   5.928   5.187
 7407SOL    HW223121   0.485   5.872   5.178
 7408SOL     OW23122   2.337   4.337   5.970
 7408SOL    HW123123   2.281   4.382   6.041
 7408SOL    HW223124   2.280   4.316   5.891
 7409SOL     OW23125   0.864   1.130   4.453
 7409SOL    HW123126   0.830   1.132   4.548
 7409SOL    HW223127   0.871   1.036   4.422
 7410SOL     OW23128   0.034   4.728   1.183
 7410SOL    HW123129   6.967   4.771   1.168
 7410SOL    HW223130   0.090   4.787   1.241
 7411SOL     OW23131   2.647   6.704   4.438
 7411SOL    HW123132   2.679   6.638   4.507
 7411SOL    HW223133   2.547   6.698   4.431
 7412SOL     OW23134   2.421   0.761   0.962
 7412SOL    HW123135   2.390   0.728   0.873
 7412SOL    HW223136   2.519   0.744   0.972
 7413SOL     OW23137   0.369   3.446   3.935
 7413SOL    HW123138   0.452   3.451   3.990
 7413SOL    HW223139   0.346   3.350   3.918
 7414SOL     OW23140   6.081   6.694   2.335
 7414SOL    HW123141   6.084   6.765   2.265
 7414SOL    HW223142   6.111   6.607   2.295
 7415SOL     OW23143   1.464   3.075   2.852
 7415SOL    HW123144   1.508   3.006   2.911
 7415SOL    HW223145   1.405   3.133   2.907
 7416SOL     OW23146   3.589   1.245   4.344
 7416SOL    HW123147   3.552   1.245   4.251
 7416SOL    HW223148   3.521   1.282   4.407
 7417SOL     OW23149   1.454   6.651   6.068
 7417SOL    HW123150   1.410   6.613   6.150
 7417SOL    HW223151   1.396   6.724   6.031
 7418SOL     OW23152   2.806   4.273   1.354
 7418SOL    HW123153   2.870   4.322   1.295
 7418SOL    HW223154   2.771   4.193   1.305
 7419SOL     OW23155   5.852   2.181   4.435
 7419SOL    HW123156   5.889   2.225   4.353
 7419SOL    HW223157   5.776   2.236   4.471
 7420SOL     OW23158   6.667   6.842   2.264
 7420SOL    HW123159   6.568   6.835   2.275
 7420SOL    HW223160   6.693   6.938   2.259
 7421SOL     OW23161   3.439   3.697   1.566
 7421SOL    HW123162   3.448   3.671   1.662
 7421SOL    HW223163   3.423   3.615   1.510
 7422SOL     OW23164   0.200   3.638   1.294
 7422SOL    HW123165   0.166   3.727   1.328
 7422SOL    HW223166   0.197   3.637   1.194
 7423SOL     OW23167   1.900   4.541   6.087
 7423SOL    HW123168   1.846   4.534   6.003
 7423SOL    HW223169   1.988   4.585   6.066
 7424SOL     OW23170   5.780   1.663   4.259
 7424SOL    HW123171   5.762   1.756   4.228
 7424SOL    HW223172   5.755   1.655   4.356
 7425SOL     OW23173   3.523   4.606   6.553
 7425SOL    HW123174   3.425   4.611   6.575
 7425SOL    HW223175   3.536   4.625   6.456
 7426SOL     OW23176   0.312   2.289   0.063
 7426SOL    HW123177   0.297   2.195   0.093
 7426SOL    HW223178   0.407   2.315   0.082
 7427SOL     OW23179   3.016   6.048   4.353
 7427SOL    HW123180   2.950   5.973   4.342
 7427SOL    HW223181   3.058   6.069   4.264
 7428SOL     OW23182   3.656   2.048   5.317
 7428SOL    HW123183   3.708   2.124   5.357
 7428SOL    HW223184   3.572   2.083   5.276
 7429SOL     OW23185   6.997   0.209   2.778
 7429SOL    HW123186   6.978   0.294   2.826
 7429SOL    HW223187   6.987   0.132   2.840
 7430SOL     OW23188   6.904   4.140   5.485
 7430SOL    HW123189   7.003   4.132   5.473
 7430SOL    HW223190   6.882   4.225   5.533
 7431SOL     OW23191   1.029   3.472   1.372
 7431SOL    HW123192   0.945   3.502   1.417
 7431SOL    HW223193   1.033   3.509   1.279
 7432SOL     OW23194   1.020   6.306   3.618
 7432SOL    HW123195   0.944   6.320   3.554
 7432SOL    HW223196   1.004   6.357   3.702
 7433SOL     OW23197   6.243   5.376   1.183
 7433SOL    HW123198   6.232   5.467   1.224
 7433SOL    HW223199   6.338   5.348   1.189
 7434SOL     OW23200   2.638   1.998   0.041
 7434SOL    HW123201   2.725   1.949   0.037
 7434SOL    HW223202   2.574   1.946   0.099
 7435SOL     OW23203   3.521   6.672   5.790
 7435SOL    HW123204   3.612   6.630   5.783
 7435SOL    HW223205   3.484   6.656   5.881
 7436SOL     OW23206   5.809   3.173   7.005
 7436SOL    HW123207   5.838   3.261   6.967
 7436SOL    HW223208   5.884   3.135   0.038
 7437SOL     OW23209   6.567   5.033   6.117
 7437SOL    HW123210   6.518   5.118   6.096
 7437SOL    HW223211   6.665   5.051   6.118
 7438SOL     OW23212   0.798   4.085   1.997
 7438SOL    HW123213   0.775   4.009   2.057
 7438SOL    HW223214   0.798   4.170   2.049
 7439SOL     OW23215   2.638   6.927   3.780
 7439SOL    HW123216   2.671   7.017   3.810
 7439SOL    HW223217   2.630   6.866   3.859
 7440SOL     OW23218   1.421   2.977   4.799
 7440SOL    HW123219   1.497   3.039   4.780
 7440SOL    HW223220   1.418   2.905   4.730
 7441SOL     OW23221   5.299   0.457   3.831
 7441SOL    HW123222   5.226   0.513   3.792
 7441SOL    HW223223   5.262   0.369   3.860
 7442SOL     OW23224   0.968   1.334   6.520
 7442SOL    HW123225   0.881   1.370   6.487
 7442SOL    HW223226   0.973   1.348   6.619
 7443SOL     OW23227   6.746   1.808   0.718
 7443SOL    HW123228   6.808   1.881   0.689
 7443SOL    HW223229   6.740   1.739   0.646
 7444SOL     OW23230   6.787   3.331   6.666
 7444SOL    HW123231   6.709   3.388   6.643
 7444SOL    HW223232   6.857   3.386   6.711
 7445SOL     OW23233   5.033   1.916   1.662
 7445SOL    HW123234   4.952   1.860   1.678
 7445SOL    HW223235   5.009   1.994   1.605
 7446SOL     OW23236   6.238   4.123   6.930
 7446SOL    HW123237   6.230   4.056   7.003
 7446SOL    HW223238   6.307   4.092   6.864
 7447SOL     OW23239   1.994   4.916   6.943
 7447SOL    HW123240   2.046   4.999   6.963
 7447SOL    HW223241   2.028   4.875   6.859
 7448SOL     OW23242   5.302   6.867   5.620
 7448SOL    HW123243   5.392   6.825   5.629
 7448SOL    HW223244   5.243   6.807   5.565
 7449SOL     OW23245   4.862   2.450   1.870
 7449SOL    HW123246   4.767   2.468   1.893
 7449SOL    HW223247   4.868   2.371   1.808
 7450SOL     OW23248   5.015   2.821   3.581
 7450SOL    HW123249   5.095   2.776   3.620
 7450SOL    HW223250   5.028   2.833   3.482
 7451SOL     OW23251   1.704   0.675   4.197
 7451SOL    HW123252   1.755   0.639   4.119
 7451SOL    HW223253   1.760   0.744   4.244
 7452SOL     OW23254   1.889   0.592   4.860
 7452SOL    HW123255   1.800   0.581   4.816
 7452SOL    HW223256   1.888   0.546   4.949
 7453SOL     OW23257   5.788   6.156   4.943
 7453SOL    HW123258   5.848   6.212   4.999
 7453SOL    HW223259   5.798   6.180   4.847
 7454SOL     OW23260   0.980   3.722   1.265
 7454SOL    HW123261   1.053   3.763   1.319
 7454SOL    HW223262   0.929   3.794   1.217
 7455SOL     OW23263   5.463   1.931   0.930
 7455SOL    HW123264   5.459   2.031   0.921
 7455SOL    HW223265   5.559   1.903   0.939
 7456SOL     OW23266   1.424   2.547   5.027
 7456SOL    HW123267   1.457   2.485   4.956
 7456SOL    HW223268   1.462   2.638   5.014
 7457SOL     OW23269   5.794   0.783   5.349
 7457SOL    HW123270   5.854   0.727   5.292
 7457SOL    HW223271   5.757   0.858   5.294
 7458SOL     OW23272   2.502   0.018   0.490
 7458SOL    HW123273   2.541   6.985   0.564
 7458SOL    HW223274   2.560   0.010   0.409
 7459SOL     OW23275   4.385   0.353   6.176
 7459SOL    HW123276   4.408   0.330   6.082
 7459SOL    HW223277   4.285   0.352   6.187
 7460SOL     OW23278   2.260   5.371   1.048
 7460SOL    HW123279   2.308   5.459   1.047
 7460SOL    HW223280   2.289   5.319   1.129
 7461SOL     OW23281   5.094   1.404   5.908
 7461SOL    HW123282   5.124   1.498   5.893
 7461SOL    HW223283   5.130   1.345   5.836
 7462SOL     OW23284   1.941   2.018   1.573
 7462SOL    HW123285   1.967   1.988   1.665
 7462SOL    HW223286   2.018   2.066   1.531
 7463SOL     OW23287   3.461   2.769   1.290
 7463SOL    HW123288   3.437   2.810   1.378
 7463SOL    HW223289   3.518   2.834   1.238
 7464SOL     OW23290   3.633   5.720   0.150
 7464SOL    HW123291   3.556   5.776   0.180
 7464SOL    HW223292   3.602   5.657   0.079
 7465SOL     OW23293   1.433   0.250   0.950
 7465SOL    HW123294   1.444   0.254   0.851
 7465SOL    HW223295   1.518   0.278   0.994
 7466SOL     OW23296   0.844   0.738   6.490
 7466SOL    HW123297   0.827   0.836   6.477
 7466SOL    HW223298   0.895   0.724   6.574
 7467SOL     OW23299   6.817   2.142   1.246
 7467SOL    HW123300   6.875   2.126   1.326
 7467SOL    HW223301   6.725   2.106   1.263
 7468SOL     OW23302   4.779   2.347   2.411
 7468SOL    HW123303   4.687   2.385   2.403
 7468SOL    HW223304   4.842   2.397   2.351
 7469SOL     OW23305   0.976   0.072   6.491
 7469SOL    HW123306   0.977   6.995   6.495
 7469SOL    HW223307   1.063   0.108   6.526
 7470SOL     OW23308   0.828   2.448   2.870
 7470SOL    HW123309   0.817   2.509   2.948
 7470SOL    HW223310   0.760   2.471   2.800
 7471SOL     OW23311   6.576   6.551   4.904
 7471SOL    HW123312   6.482   6.560   4.936
 7471SOL    HW223313   6.608   6.458   4.921
 7472SOL     OW23314   4.173   6.936   4.548
 7472SOL    HW123315   4.175   6.991   4.464
 7472SOL    HW223316   4.267   6.913   4.574
 7473SOL     OW23317   0.232   3.850   3.754
 7473SOL    HW123318   0.168   3.913   3.709
 7473SOL    HW223319   0.312   3.837   3.696
 7474SOL     OW23320   2.684   1.175   3.859
 7474SOL    HW123321   2.622   1.104   3.825
 7474SOL    HW223322   2.669   1.260   3.807
 7475SOL     OW23323   4.957   0.373   2.160
 7475SOL    HW123324   4.860   0.394   2.145
 7475SOL    HW223325   5.008   0.388   2.075
 7476SOL     OW23326   4.474   6.010   4.744
 7476SOL    HW123327   4.392   5.956   4.762
 7476SOL    HW223328   4.450   6.089   4.688
 7477SOL     OW23329   4.149   0.887   4.029
 7477SOL    HW123330   4.211   0.809   4.020
 7477SOL    HW223331   4.202   0.972   4.031
 7478SOL     OW23332   3.612   3.888   6.018
 7478SOL    HW123333   3.555   3.808   5.997
 7478SOL    HW223334   3.565   3.946   6.084
 7479SOL     OW23335   4.094   1.457   0.649
 7479SOL    HW123336   4.023   1.527   0.640
 7479SOL    HW223337   4.055   1.368   0.624
 7480SOL     OW23338   5.962   5.829   1.612
 7480SOL    HW123339   6.054   5.836   1.573
 7480SOL    HW223340   5.912   5.754   1.569
 7481SOL     OW23341   5.506   5.367   1.183
 7481SOL    HW123342   5.498   5.424   1.101
 7481SOL    HW223343   5.516   5.425   1.264
 7482SOL     OW23344   4.055   1.076   1.951
 7482SOL    HW123345   3.986   1.132   1.997
 7482SOL    HW223346   4.012   1.026   1.876
 7483SOL     OW23347   3.758   1.710   4.238
 7483SOL    HW123348   3.690   1.642   4.212
 7483SOL    HW223349   3.740   1.742   4.331
 7484SOL     OW23350   0.540   6.764   1.943
 7484SOL    HW123351   0.518   6.843   2.001
 7484SOL    HW223352   0.610   6.791   1.877
 7485SOL     OW23353   2.737   6.411   5.291
 7485SOL    HW123354   2.729   6.317   5.325
 7485SOL    HW223355   2.734   6.411   5.191
 7486SOL     OW23356   2.776   0.063   5.337
 7486SOL    HW123357   2.846   0.038   5.270
 7486SOL    HW223358   2.779   7.021   5.414
 7487SOL     OW23359   1.948   6.612   2.489
 7487SOL    HW123360   1.852   6.603   2.514
 7487SOL    HW223361   1.959   6.684   2.421
 7488SOL     OW23362   2.372   0.158   5.291
 7488SOL    HW123363   2.456   0.207   5.266
 7488SOL    HW223364   2.396   0.076   5.343
 7489SOL     OW23365   4.793   2.437   5.268
 7489SOL    HW123366   4.884   2.402   5.250
 7489SOL    HW223367   4.744   2.451   5.181
 7490SOL     OW23368   0.310   0.538   0.685
 7490SOL    HW123369   0.348   0.628   0.665
 7490SOL    HW223370   0.221   0.528   0.640
 7491SOL     OW23371   0.819   5.268   6.367
 7491SOL    HW123372   0.786   5.302   6.455
 7491SOL    HW223373   0.790   5.330   6.294
 7492SOL     OW23374   2.580   2.103   5.677
 7492SOL    HW123375   2.505   2.080   5.615
 7492SOL    HW223376   2.553   2.082   5.771
 7493SOL     OW23377   6.259   4.665   5.986
 7493SOL    HW123378   6.229   4.732   5.918
 7493SOL    HW223379   6.278   4.711   6.073
 7494SOL     OW23380   5.315   0.869   2.295
 7494SOL    HW123381   5.376   0.864   2.374
 7494SOL    HW223382   5.228   0.911   2.322
 7495SOL     OW23383   1.622   1.482   1.030
 7495SOL    HW123384   1.535   1.440   1.054
 7495SOL    HW223385   1.694   1.413   1.031
 7496SOL     OW23386   1.829   4.620   5.644
 7496SOL    HW123387   1.801   4.571   5.727
 7496SOL    HW223388   1.860   4.554   5.576
 7497SOL     OW23389   2.750   5.261   2.233
 7497SOL    HW123390   2.819   5.235   2.301
 7497SOL    HW223391   2.671   5.200   2.240
 7498SOL     OW23392   2.804   0.865   4.159
 7498SOL    HW123393   2.821   0.858   4.258
 7498SOL    HW223394   2.872   0.812   4.109
 7499SOL     OW23395   6.260   7.017   3.340
 7499SOL    HW123396   6.181   6.990   3.396
 7499SOL    HW223397   6.339   0.012   3.400
 7500SOL     OW23398   4.151   5.988   2.318
 7500SOL    HW123399   4.088   6.058   2.283
 7500SOL    HW223400   4.113   5.947   2.401
 7501SOL     OW23401   0.315   4.092   3.583
 7501SOL    HW123402   0.413   4.076   3.577
 7501SOL    HW223403   0.283   4.135   3.498
 7502SOL     OW23404   1.955   1.502   5.146
 7502SOL    HW123405   1.963   1.407   5.115
 7502SOL    HW223406   1.891   1.507   5.222
 7503SOL     OW23407   2.575   0.740   6.571
 7503SOL    HW123408   2.491   0.688   6.554
 7503SOL    HW223409   2.651   0.697   6.523
 7504SOL     OW23410   4.049   6.608   3.716
 7504SOL    HW123411   4.022   6.559   3.798
 7504SOL    HW223412   4.149   6.613   3.712
 7505SOL     OW23413   3.262   1.342   5.466
 7505SOL    HW123414   3.230   1.332   5.560
 7505SOL    HW223415   3.301   1.433   5.454
 7506SOL     OW23416   3.710   0.917   2.383
 7506SOL    HW123417   3.762   0.907   2.298
 7506SOL    HW223418   3.717   1.011   2.417
 7507SOL     OW23419   0.223   6.720   6.421
 7507SOL    HW123420   0.304   6.662   6.417
 7507SOL    HW223421   0.251   6.816   6.430
 7508SOL     OW23422   5.533   6.488   2.299
 7508SOL    HW123423   5.502   6.395   2.276
 7508SOL    HW223424   5.472   6.527   2.368
 7509SOL     OW23425   4.793   4.213   0.970
 7509SOL    HW123426   4.714   4.156   0.993
 7509SOL    HW223427   4.764   4.308   0.960
 7510SOL     OW23428   3.071   4.046   4.888
 7510SOL    HW123429   3.029   3.956   4.881
 7510SOL    HW223430   3.120   4.067   4.803
 7511SOL     OW23431   1.523   0.181   2.307
 7511SOL    HW123432   1.603   0.151   2.255
 7511SOL    HW223433   1.549   0.201   2.401
 7512SOL     OW23434   3.067   4.098   1.557
 7512SOL    HW123435   3.027   4.145   1.636
 7512SOL    HW223436   3.114   4.015   1.587
 7513SOL     OW23437   1.532   2.945   0.115
 7513SOL    HW123438   1.554   2.906   0.026
 7513SOL    HW223439   1.576   3.035   0.124
 7514SOL     OW23440   3.047   6.528   2.136
 7514SOL    HW123441   2.948   6.543   2.132
 7514SOL    HW223442   3.075   6.475   2.056
 7515SOL     OW23443   0.794   0.288   3.004
 7515SOL    HW123444   0.744   0.359   3.053
 7515SOL    HW223445   0.807   0.317   2.909
 7516SOL     OW23446   6.380   6.222   4.406
 7516SOL    HW123447   6.404   6.240   4.501
 7516SOL    HW223448   6.420   6.135   4.377
 7517SOL     OW23449   6.798   3.870   1.203
 7517SOL    HW123450   6.740   3.795   1.234
 7517SOL    HW223451   6.836   3.918   1.282
 7518SOL     OW23452   3.936   5.710   3.534
 7518SOL    HW123453   3.895   5.717   3.443
 7518SOL    HW223454   3.901   5.628   3.579
 7519SOL     OW23455   0.912   6.440   3.871
 7519SOL    HW123456   0.921   6.433   3.970
 7519SOL    HW223457   0.827   6.488   3.849
 7520SOL     OW23458   2.123   0.553   2.202
 7520SOL    HW123459   2.115   0.623   2.131
 7520SOL    HW223460   2.097   0.464   2.165
 7521SOL     OW23461   4.459   4.464   5.429
 7521SOL    HW123462   4.468   4.373   5.470
 7521SOL    HW223463   4.477   4.533   5.499
 7522SOL     OW23464   2.730   1.113   6.304
 7522SOL    HW123465   2.808   1.060   6.337
 7522SOL    HW223466   2.726   1.108   6.204
 7523SOL     OW23467   6.393   0.522   5.359
 7523SOL    HW123468   6.314   0.532   5.420
 7523SOL    HW223469   6.366   0.545   5.266
 7524SOL     OW23470   6.711   2.013   6.155
 7524SOL    HW123471   6.698   2.062   6.069
 7524SOL    HW223472   6.713   1.915   6.138
 7525SOL     OW23473   2.121   6.833   7.012
 7525SOL    HW123474   2.203   6.830   0.047
 7525SOL    HW223475   2.137   6.895   6.935
 7526SOL     OW23476   3.494   2.947   3.652
 7526SOL    HW123477   3.585   2.978   3.679
 7526SOL    HW223478   3.439   2.933   3.735
 7527SOL     OW23479   4.455   5.031   2.386
 7527SOL    HW123480   4.431   5.060   2.294
 7527SOL    HW223481   4.555   5.034   2.397
 7528SOL     OW23482   4.420   2.215   0.307
 7528SOL    HW123483   4.489   2.220   0.236
 7528SOL    HW223484   4.432   2.131   0.360
 7529SOL     OW23485   5.151   1.459   3.742
 7529SOL    HW123486   5.155   1.520   3.663
 7529SOL    HW223487   5.226   1.392   3.735
 7530SOL     OW23488   7.014   3.053   2.222
 7530SOL    HW123489   7.003   3.061   2.321
 7530SOL    HW223490   6.929   3.080   2.177
 7531SOL     OW23491   4.623   1.861   4.120
 7531SOL    HW123492   4.561   1.936   4.096
 7531SOL    HW223493   4.716   1.897   4.133
 7532SOL     OW23494   5.265   5.502   1.872
 7532SOL    HW123495   5.194   5.438   1.840
 7532SOL    HW223496   5.233   5.549   1.954
 7533SOL     OW23497   1.627   0.799   3.126
 7533SOL    HW123498   1.717   0.762   3.150
 7533SOL    HW223499   1.603   0.872   3.190
 7534SOL     OW23500   3.746   5.919   4.929
 7534SOL    HW123501   3.697   5.999   4.894
 7534SOL    HW223502   3.715   5.899   5.022
 7535SOL     OW23503   2.483   1.320   5.969
 7535SOL    HW123504   2.392   1.287   5.945
 7535SOL    HW223505   2.475   1.412   6.008
 7536SOL     OW23506   5.197   4.877   5.258
 7536SOL    HW123507   5.134   4.813   5.302
 7536SOL    HW223508   5.213   4.849   5.163
 7537SOL     OW23509   1.830   4.476   4.985
 7537SOL    HW123510   1.754   4.535   5.012
 7537SOL    HW223511   1.795   4.398   4.934
 7538SOL     OW23512   3.454   3.493   2.331
 7538SOL    HW123513   3.498   3.507   2.420
 7538SOL    HW223514   3.373   3.434   2.343
 7539SOL     OW23515   2.531   2.623   5.330
 7539SOL    HW123516   2.613   2.680   5.326
 7539SOL    HW223517   2.548   2.543   5.387
 7540SOL     OW23518   3.290   0.609   6.407
 7540SOL    HW123519   3.273   0.689   6.350
 7540SOL    HW223520   3.254   0.626   6.499
 7541SOL     OW23521   6.771   3.740   5.876
 7541SOL    HW123522   6.788   3.815   5.812
 7541SOL    HW223523   6.673   3.723   5.882
 7542SOL     OW23524   1.204   6.825   5.992
 7542SOL    HW123525   1.211   6.913   6.039
 7542SOL    HW223526   1.129   6.772   6.032
 7543SOL     OW23527   3.774   1.611   0.371
 7543SOL    HW123528   3.783   1.558   0.455
 7543SOL    HW223529   3.814   1.702   0.384
 7544SOL     OW23530   6.984   1.817   3.283
 7544SOL    HW123531   6.928   1.734   3.278
 7544SOL    HW223532   0.058   1.794   3.272
 7545SOL     OW23533   4.559   6.447   3.108
 7545SOL    HW123534   4.657   6.464   3.115
 7545SOL    HW223535   4.519   6.506   3.038
 7546SOL     OW23536   4.498   0.603   0.063
 7546SOL    HW123537   4.510   0.558   6.996
 7546SOL    HW223538   4.427   0.673   0.055
 7547SOL     OW23539   3.995   6.821   0.254
 7547SOL    HW123540   4.032   6.733   0.226
 7547SOL    HW223541   4.068   6.889   0.255
 7548SOL     OW23542   2.301   1.855   0.052
 7548SOL    HW123543   2.269   1.849   6.980
 7548SOL    HW223544   2.247   1.925   0.101
 7549SOL     OW23545   5.990   1.832   1.991
 7549SOL    HW123546   5.932   1.763   1.947
 7549SOL    HW223547   5.954   1.853   2.082
 7550SOL     OW23548   2.098   5.787   2.574
 7550SOL    HW123549   2.166   5.859   2.561
 7550SOL    HW223550   2.127   5.728   2.650
 7551SOL     OW23551   4.779   3.745   6.973
 7551SOL    HW123552   4.833   3.703   0.024
 7551SOL    HW223553   4.707   3.682   6.943
 7552SOL     OW23554   2.623   5.496   3.588
 7552SOL    HW123555   2.624   5.593   3.615
 7552SOL    HW223556   2.553   5.482   3.519
 7553SOL     OW23557   3.797   4.800   5.931
 7553SOL    HW123558   3.849   4.795   5.846
 7553SOL    HW223559   3.720   4.862   5.920
 7554SOL     OW23560   5.121   1.988   0.217
 7554SOL    HW123561   5.219   2.011   0.212
 7554SOL    HW223562   5.104   1.904   0.167
 7555SOL     OW23563   0.907   5.707   5.459
 7555SOL    HW123564   0.807   5.714   5.461
 7555SOL    HW223565   0.948   5.786   5.505
 7556SOL     OW23566   0.116   2.939   5.681
 7556SOL    HW123567   0.199   2.914   5.731
 7556SOL    HW223568   0.057   2.993   5.741
 7557SOL     OW23569   5.045   3.766   6.170
 7557SOL    HW123570   5.143   3.785   6.169
 7557SOL    HW223571   5.020   3.718   6.085
 7558SOL     OW23572   2.595   2.429   3.956
 7558SOL    HW123573   2.693   2.410   3.953
 7558SOL    HW223574   2.555   2.384   4.035
 7559SOL     OW23575   6.248   5.628   1.333
 7559SOL    HW123576   6.187   5.648   1.255
 7559SOL    HW223577   6.227   5.691   1.408
 7560SOL     OW23578   4.955   6.938   6.724
 7560SOL    HW123579   4.865   6.973   6.751
 7560SOL    HW223580   4.944   6.846   6.687
 7561SOL     OW23581   0.706   3.805   0.477
 7561SOL    HW123582   0.628   3.746   0.499
 7561SOL    HW223583   0.705   3.825   0.379
 7562SOL     OW23584   5.319   6.083   4.588
 7562SOL    HW123585   5.322   6.121   4.496
 7562SOL    HW223586   5.339   5.985   4.586
 7563SOL     OW23587   2.823   0.003   1.347
 7563SOL    HW123588   2.884   0.023   1.271
 7563SOL    HW223589   2.798   0.089   1.393
 7564SOL     OW23590   4.706   1.038   3.068
 7564SOL    HW123591   4.661   0.949   3.065
 7564SOL    HW223592   4.803   1.025   3.088
 7565SOL     OW23593   4.508   4.691   6.757
 7565SOL    HW123594   4.548   4.640   6.681
 7565SOL    HW223595   4.574   4.757   6.792
 7566SOL     OW23596   1.058   4.786   3.812
 7566SOL    HW123597   1.117   4.739   3.746
 7566SOL    HW223598   1.048   4.882   3.785
 7567SOL     OW23599   1.769   3.560   5.615
 7567SOL    HW123600   1.863   3.565   5.580
 7567SOL    HW223601   1.707   3.535   5.541
 7568SOL     OW23602   5.319   5.395   4.111
 7568SOL    HW123603   5.380   5.456   4.061
 7568SOL    HW223604   5.304   5.312   4.058
 7569SOL     OW23605   4.558   6.069   6.555
 7569SOL    HW123606   4.635   6.011   6.583
 7569SOL    HW223607   4.560   6.080   6.456
 7570SOL     OW23608   5.669   4.491   5.335
 7570SOL    HW123609   5.645   4.577   5.291
 7570SOL    HW223610   5.598   4.423   5.315
 7571SOL     OW23611   5.087   4.420   2.271
 7571SOL    HW123612   5.143   4.423   2.188
 7571SOL    HW223613   5.100   4.332   2.317
 7572SOL     OW23614   4.790   0.392   4.042
 7572SOL    HW123615   4.792   0.318   3.974
 7572SOL    HW223616   4.858   0.374   4.113
 7573SOL     OW23617   5.433   5.858   3.839
 7573SOL    HW123618   5.460   5.785   3.777
 7573SOL    HW223619   5.371   5.921   3.791
 7574SOL     OW23620   5.774   1.243   4.170
 7574SOL    HW123621   5.845   1.292   4.220
 7574SOL    HW223622   5.685   1.284   4.189
 7575SOL     OW23623   4.364   0.808   5.462
 7575SOL    HW123624   4.420   0.735   5.500
 7575SOL    HW223625   4.303   0.843   5.532
 7576SOL     OW23626   5.772   5.524   6.824
 7576SOL    HW123627   5.747   5.469   6.744
 7576SOL    HW223628   5.729   5.486   6.906
 7577SOL     OW23629   6.557   6.971   4.619
 7577SOL    HW123630   6.606   7.006   4.699
 7577SOL    HW223631   6.550   6.872   4.624
 7578SOL     OW23632   1.700   6.456   4.192
 7578SOL    HW123633   1.787   6.408   4.208
 7578SOL    HW223634   1.691   6.477   4.095
 7579SOL     OW23635   4.529   2.448   2.417
 7579SOL    HW123636   4.462   2.440   2.343
 7579SOL    HW223637   4.558   2.543   2.426
 7580SOL     OW23638   1.323   3.830   3.863
 7580SOL    HW123639   1.381   3.756   3.896
 7580SOL    HW223640   1.243   3.793   3.816
 7581SOL     OW23641   4.406   1.520   0.757
 7581SOL    HW123642   4.375   1.518   0.852
 7581SOL    HW223643   4.463   1.601   0.743
 7582SOL     OW23644   3.806   1.497   0.633
 7582SOL    HW123645   3.815   1.476   0.730
 7582SOL    HW223646   3.761   1.586   0.622
 7583SOL     OW23647   6.404   3.852   1.734
 7583SOL    HW123648   6.459   3.899   1.803
 7583SOL    HW223649   6.427   3.755   1.733
 7584SOL     OW23650   2.338   6.838   1.138
 7584SOL    HW123651   2.250   6.875   1.107
 7584SOL    HW223652   2.408   6.908   1.126
 7585SOL     OW23653   1.424   3.702   5.852
 7585SOL    HW123654   1.376   3.785   5.878
 7585SOL    HW223655   1.394   3.673   5.761
 7586SOL     OW23656   2.483   0.704   2.533
 7586SOL    HW123657   2.472   0.771   2.606
 7586SOL    HW223658   2.575   0.712   2.494
 7587SOL     OW23659   2.123   1.458   6.630
 7587SOL    HW123660   2.209   1.506   6.650
 7587SOL    HW223661   2.131   1.412   6.541
 7588SOL     OW23662   0.841   4.442   1.897
 7588SOL    HW123663   0.768   4.487   1.949
 7588SOL    HW223664   0.927   4.490   1.914
 7589SOL     OW23665   6.082   6.130   0.631
 7589SOL    HW123666   5.988   6.156   0.610
 7589SOL    HW223667   6.144   6.199   0.593
 7590SOL     OW23668   2.865   1.689   5.826
 7590SOL    HW123669   2.880   1.786   5.849
 7590SOL    HW223670   2.853   1.680   5.727
 7591SOL     OW23671   0.280   5.668   0.202
 7591SOL    HW123672   0.339   5.706   0.273
 7591SOL    HW223673   0.242   5.581   0.233
 7592SOL     OW23674   6.830   4.742   6.657
 7592SOL    HW123675   6.737   4.779   6.654
 7592SOL    HW223676   6.841   4.684   6.738
 7593SOL     OW23677   6.109   2.519   6.838
 7593SOL    HW123678   6.155   2.517   6.927
 7593SOL    HW223679   6.075   2.427   6.816
 7594SOL     OW23680   0.827   5.025   2.165
 7594SOL    HW123681   0.806   5.061   2.075
 7594SOL    HW223682   0.769   4.944   2.182
 7595SOL     OW23683   0.416   2.627   6.486
 7595SOL    HW123684   0.340   2.563   6.488
 7595SOL    HW223685   0.501   2.577   6.468
 7596SOL     OW23686   5.199   5.388   2.470
 7596SOL    HW123687   5.222   5.444   2.550
 7596SOL    HW223688   5.283   5.349   2.431
 7597SOL     OW23689   2.797   6.251   2.108
 7597SOL    HW123690   2.739   6.176   2.077
 7597SOL    HW223691   2.786   6.329   2.047
 7598SOL     OW23692   6.280   0.629   3.063
 7598SOL    HW123693   6.263   0.694   2.989
 7598SOL    HW223694   6.305   0.540   3.024
 7599SOL     OW23695   5.306   1.207   3.313
 7599SOL    HW123696   5.377   1.139   3.294
 7599SOL    HW223697   5.318   1.284   3.250
 7600SOL     OW23698   1.488   0.779   2.145
 7600SOL    HW123699   1.573   0.797   2.095
 7600SOL    HW223700   1.462   0.861   2.196
 7601SOL     OW23701   1.447   5.551   3.681
 7601SOL    HW123702   1.377   5.480   3.680
 7601SOL    HW223703   1.534   5.512   3.649
 7602SOL     OW23704   1.974   3.949   4.929
 7602SOL    HW123705   1.894   3.942   4.989
 7602SOL    HW223706   2.045   3.886   4.962
 7603SOL     OW23707   1.458   5.952   6.594
 7603SOL    HW123708   1.448   6.024   6.525
 7603SOL    HW223709   1.434   5.864   6.555
 7604SOL     OW23710   2.592   5.936   4.108
 7604SOL    HW123711   2.612   5.859   4.047
 7604SOL    HW223712   2.516   5.990   4.071
 7605SOL     OW23713   1.514   5.991   0.216
 7605SOL    HW123714   1.595   6.045   0.193
 7605SOL    HW223715   1.535   5.930   0.292
 7606SOL     OW23716   0.135   2.830   2.125
 7606SOL    HW123717   0.076   2.759   2.086
 7606SOL    HW223718   0.083   2.913   2.142
 7607SOL     OW23719   4.182   6.610   6.732
 7607SOL    HW123720   4.245   6.633   6.807
 7607SOL    HW223721   4.213   6.656   6.648
 7608SOL     OW23722   3.289   3.804   3.759
 7608SOL    HW123723   3.256   3.720   3.802
 7608SOL    HW223724   3.251   3.883   3.807
 7609SOL     OW23725   6.750   3.389   3.303
 7609SOL    HW123726   6.830   3.448   3.288
 7609SOL    HW223727   6.750   3.316   3.235
 7610SOL     OW23728   6.177   0.694   0.378
 7610SOL    HW123729   6.109   0.761   0.349
 7610SOL    HW223730   6.261   0.741   0.406
 7611SOL     OW23731   0.651   1.903   0.198
 7611SOL    HW123732   0.638   1.833   0.268
 7611SOL    HW223733   0.658   1.992   0.241
 7612SOL     OW23734   4.179   1.998   4.094
 7612SOL    HW123735   4.102   2.042   4.048
 7612SOL    HW223736   4.150   1.966   4.184
 7613SOL     OW23737   4.757   2.466   1.518
 7613SOL    HW123738   4.803   2.452   1.430
 7613SOL    HW223739   4.679   2.528   1.505
 7614SOL     OW23740   4.000   2.677   1.678
 7614SOL    HW123741   3.936   2.681   1.600
 7614SOL    HW223742   4.044   2.766   1.689
 7615SOL     OW23743   5.525   4.852   6.485
 7615SOL    HW123744   5.612   4.866   6.439
 7615SOL    HW223745   5.457   4.818   6.419
 7616SOL     OW23746   0.828   4.661   4.093
 7616SOL    HW123747   0.893   4.618   4.155
 7616SOL    HW223748   0.786   4.590   4.036
 7617SOL     OW23749   2.850   5.663   3.220
 7617SOL    HW123750   2.896   5.716   3.148
 7617SOL    HW223751   2.909   5.660   3.301
 7618SOL     OW23752   1.242   1.854   6.771
 7618SOL    HW123753   1.231   1.927   6.838
 7618SOL    HW223754   1.153   1.835   6.728
 7619SOL     OW23755   5.856   3.330   5.224
 7619SOL    HW123756   5.900   3.241   5.233
 7619SOL    HW223757   5.924   3.403   5.234
 7620SOL     OW23758   3.691   6.313   0.683
 7620SOL    HW123759   3.756   6.239   0.664
 7620SOL    HW223760   3.674   6.317   0.782
 7621SOL     OW23761   0.823   0.810   0.414
 7621SOL    HW123762   0.865   0.822   0.324
 7621SOL    HW223763   0.781   0.720   0.419
 7622SOL     OW23764   5.540   3.765   1.663
 7622SOL    HW123765   5.508   3.731   1.574
 7622SOL    HW223766   5.481   3.729   1.735
 7623SOL     OW23767   4.982   4.681   6.353
 7623SOL    HW123768   4.970   4.609   6.284
 7623SOL    HW223769   4.896   4.694   6.402
 7624SOL     OW23770   0.400   2.301   4.033
 7624SOL    HW123771   0.471   2.306   4.104
 7624SOL    HW223772   0.355   2.390   4.025
 7625SOL     OW23773   4.688   0.456   0.883
 7625SOL    HW123774   4.759   0.410   0.937
 7625SOL    HW223775   4.701   0.555   0.887
 7626SOL     OW23776   6.997   6.305   4.945
 7626SOL    HW123777   0.071   6.298   4.970
 7626SOL    HW223778   6.942   6.323   5.026
 7627SOL     OW23779   6.312   3.024   0.697
 7627SOL    HW123780   6.246   3.098   0.710
 7627SOL    HW223781   6.369   3.016   0.779
 7628SOL     OW23782   3.474   0.832   1.218
 7628SOL    HW123783   3.517   0.743   1.227
 7628SOL    HW223784   3.374   0.821   1.218
 7629SOL     OW23785   6.298   6.547   2.517
 7629SOL    HW123786   6.271   6.584   2.428
 7629SOL    HW223787   6.256   6.601   2.590
 7630SOL     OW23788   6.441   6.096   2.143
 7630SOL    HW123789   6.511   6.051   2.087
 7630SOL    HW223790   6.479   6.180   2.183
 7631SOL     OW23791   1.217   1.403   5.713
 7631SOL    HW123792   1.310   1.439   5.708
 7631SOL    HW223793   1.152   1.478   5.710
 7632SOL     OW23794   3.925   2.261   1.360
 7632SOL    HW123795   3.874   2.175   1.370
 7632SOL    HW223796   3.905   2.320   1.439
 7633SOL     OW23797   5.231   2.473   0.447
 7633SOL    HW123798   5.290   2.392   0.456
 7633SOL    HW223799   5.244   2.533   0.526
 7634SOL     OW23800   1.116   1.335   2.104
 7634SOL    HW123801   1.210   1.338   2.069
 7634SOL    HW223802   1.085   1.427   2.124
 7635SOL     OW23803   2.828   5.146   5.399
 7635SOL    HW123804   2.843   5.066   5.458
 7635SOL    HW223805   2.813   5.227   5.455
 7636SOL     OW23806   0.936   1.522   3.703
 7636SOL    HW123807   0.999   1.511   3.626
 7636SOL    HW223808   0.976   1.483   3.786
 7637SOL     OW23809   2.041   6.337   2.449
 7637SOL    HW123810   2.087   6.292   2.525
 7637SOL    HW223811   2.042   6.436   2.463
 7638SOL     OW23812   5.164   5.655   1.544
 7638SOL    HW123813   5.160   5.704   1.458
 7638SOL    HW223814   5.087   5.682   1.602
 7639SOL     OW23815   1.281   2.038   6.975
 7639SOL    HW123816   1.283   2.117   6.913
 7639SOL    HW223817   1.368   2.032   0.002
 7640SOL     OW23818   2.807   2.241   6.962
 7640SOL    HW123819   2.894   2.259   7.007
 7640SOL    HW223820   2.753   2.178   7.018
 7641SOL     OW23821   0.810   4.189   1.730
 7641SOL    HW123822   0.817   4.134   1.813
 7641SOL    HW223823   0.823   4.285   1.752
 7642SOL     OW23824   2.402   1.716   3.310
 7642SOL    HW123825   2.390   1.650   3.235
 7642SOL    HW223826   2.330   1.785   3.305
 7643SOL     OW23827   4.535   2.308   3.923
 7643SOL    HW123828   4.523   2.404   3.948
 7643SOL    HW223829   4.456   2.278   3.869
 7644SOL     OW23830   6.373   2.047   2.875
 7644SOL    HW123831   6.284   2.009   2.851
 7644SOL    HW223832   6.387   2.133   2.826
 7645SOL     OW23833   4.573   4.755   6.045
 7645SOL    HW123834   4.555   4.853   6.033
 7645SOL    HW223835   4.500   4.702   6.001
 7646SOL     OW23836   2.061   2.301   2.396
 7646SOL    HW123837   2.157   2.292   2.370
 7646SOL    HW223838   2.021   2.210   2.406
 7647SOL     OW23839   1.258   3.348   1.057
 7647SOL    HW123840   1.256   3.400   1.143
 7647SOL    HW223841   1.231   3.253   1.075
 7648SOL     OW23842   3.972   2.109   3.930
 7648SOL    HW123843   3.878   2.134   3.952
 7648SOL    HW223844   3.976   2.075   3.836
 7649SOL     OW23845   1.307   1.141   2.588
 7649SOL    HW123846   1.257   1.073   2.534
 7649SOL    HW223847   1.280   1.233   2.559
 7650SOL     OW23848   6.503   3.166   1.365
 7650SOL    HW123849   6.593   3.127   1.349
 7650SOL    HW223850   6.461   3.122   1.445
 7651SOL     OW23851   2.516   0.258   6.149
 7651SOL    HW123852   2.559   0.334   6.101
 7651SOL    HW223853   2.540   0.172   6.104
 7652SOL     OW23854   0.057   3.749   4.451
 7652SOL    HW123855   0.096   3.672   4.502
 7652SOL    HW223856   6.997   3.782   4.498
 7653SOL     OW23857   1.944   1.610   0.479
 7653SOL    HW123858   1.995   1.542   0.426
 7653SOL    HW223859   1.856   1.571   0.506
 7654SOL     OW23860   5.061   2.973   3.194
 7654SOL    HW123861   5.098   3.056   3.236
 7654SOL    HW223862   5.133   2.928   3.141
 7655SOL     OW23863   3.612   0.693   3.702
 7655SOL    HW123864   3.636   0.702   3.799
 7655SOL    HW223865   3.525   0.741   3.685
 7656SOL     OW23866   1.180   5.775   6.086
 7656SOL    HW123867   1.189   5.679   6.058
 7656SOL    HW223868   1.084   5.803   6.080
 7657SOL     OW23869   2.569   2.391   3.003
 7657SOL    HW123870   2.563   2.304   3.052
 7657SOL    HW223871   2.530   2.463   3.060
 7658SOL     OW23872   4.433   6.624   5.598
 7658SOL    HW123873   4.333   6.631   5.597
 7658SOL    HW223874   4.472   6.704   5.644
 7659SOL     OW23875   5.602   6.618   6.373
 7659SOL    HW123876   5.504   6.618   6.354
 7659SOL    HW223877   5.645   6.540   6.327
 7660SOL     OW23878   6.032   5.902   4.242
 7660SOL    HW123879   5.979   5.921   4.325
 7660SOL    HW223880   6.127   5.928   4.257
 7661SOL     OW23881   6.311   1.873   4.448
 7661SOL    HW123882   6.314   1.814   4.529
 7661SOL    HW223883   6.322   1.817   4.366
 7662SOL     OW23884   1.333   2.221   2.382
 7662SOL    HW123885   1.358   2.206   2.286
 7662SOL    HW223886   1.373   2.306   2.414
 7663SOL     OW23887   6.360   6.567   6.033
 7663SOL    HW123888   6.266   6.576   6.065
 7663SOL    HW223889   6.392   6.655   5.998
 7664SOL     OW23890   3.390   0.097   2.711
 7664SOL    HW123891   3.422   0.039   2.786
 7664SOL    HW223892   3.448   0.178   2.705
 7665SOL     OW23893   3.865   0.490   3.751
 7665SOL    HW123894   3.808   0.440   3.816
 7665SOL    HW223895   3.887   0.581   3.788
 7666SOL     OW23896   6.398   6.988   1.707
 7666SOL    HW123897   6.442   0.020   1.635
 7666SOL    HW223898   6.333   0.023   1.756
 7667SOL     OW23899   5.392   5.616   0.757
 7667SOL    HW123900   5.311   5.572   0.721
 7667SOL    HW223901   5.377   5.715   0.760
 7668SOL     OW23902   2.458   4.167   1.126
 7668SOL    HW123903   2.548   4.144   1.163
 7668SOL    HW223904   2.400   4.086   1.128
 7669SOL     OW23905   5.326   1.884   5.104
 7669SOL    HW123906   5.337   1.979   5.074
 7669SOL    HW223907   5.357   1.874   5.198
 7670SOL     OW23908   1.766   5.641   6.503
 7670SOL    HW123909   1.844   5.658   6.564
 7670SOL    HW223910   1.696   5.589   6.551
 7671SOL     OW23911   4.323   1.209   4.469
 7671SOL    HW123912   4.229   1.243   4.470
 7671SOL    HW223913   4.362   1.221   4.378
 7672SOL     OW23914   5.494   6.308   3.858
 7672SOL    HW123915   5.589   6.294   3.831
 7672SOL    HW223916   5.468   6.239   3.926
 7673SOL     OW23917   1.980   4.820   0.578
 7673SOL    HW123918   2.022   4.880   0.510
 7673SOL    HW223919   2.045   4.805   0.653
 7674SOL     OW23920   6.727   2.286   4.484
 7674SOL    HW123921   6.680   2.323   4.404
 7674SOL    HW223922   6.717   2.186   4.485
 7675SOL     OW23923   5.033   0.769   2.908
 7675SOL    HW123924   5.040   0.697   2.839
 7675SOL    HW223925   4.999   0.730   2.994
 7676SOL     OW23926   0.832   1.794   0.595
 7676SOL    HW123927   0.885   1.877   0.576
 7676SOL    HW223928   0.778   1.769   0.515
 7677SOL     OW23929   1.611   3.762   1.906
 7677SOL    HW123930   1.523   3.761   1.859
 7677SOL    HW223931   1.671   3.693   1.866
 7678SOL     OW23932   1.084   1.221   6.200
 7678SOL    HW123933   1.156   1.192   6.264
 7678SOL    HW223934   1.122   1.287   6.135
 7679SOL     OW23935   1.118   6.502   4.855
 7679SOL    HW123936   1.105   6.601   4.857
 7679SOL    HW223937   1.175   6.477   4.776
 7680SOL     OW23938   2.105   3.038   0.092
 7680SOL    HW123939   2.137   3.048   7.020
 7680SOL    HW223940   2.082   2.943   0.110
 7681SOL     OW23941   3.275   0.362   0.497
 7681SOL    HW123942   3.241   0.297   0.429
 7681SOL    HW223943   3.200   0.388   0.558
 7682SOL     OW23944   2.602   0.406   1.985
 7682SOL    HW123945   2.575   0.491   1.939
 7682SOL    HW223946   2.548   0.330   1.949
 7683SOL     OW23947   6.927   2.067   3.920
 7683SOL    HW123948   7.002   2.014   3.880
 7683SOL    HW223949   6.847   2.061   3.859
 7684SOL     OW23950   5.737   2.155   6.970
 7684SOL    HW123951   5.639   2.141   6.953
 7684SOL    HW223952   5.751   2.180   0.043
 7685SOL     OW23953   3.761   3.026   0.120
 7685SOL    HW123954   3.719   2.937   0.139
 7685SOL    HW223955   3.701   3.080   0.061
 7686SOL     OW23956   4.531   0.503   3.661
 7686SOL    HW123957   4.547   0.509   3.563
 7686SOL    HW223958   4.465   0.574   3.688
 7687SOL     OW23959   6.167   5.435   5.309
 7687SOL    HW123960   6.093   5.470   5.251
 7687SOL    HW223961   6.162   5.479   5.399
 7688SOL     OW23962   0.322   0.573   6.611
 7688SOL    HW123963   0.405   0.619   6.578
 7688SOL    HW223964   0.243   0.607   6.561
 7689SOL     OW23965   5.116   5.611   3.572
 7689SOL    HW123966   5.134   5.694   3.518
 7689SOL    HW223967   5.047   5.556   3.525
 7690SOL     OW23968   5.890   5.297   1.811
 7690SOL    HW123969   5.958   5.343   1.753
 7690SOL    HW223970   5.936   5.249   1.885
 7691SOL     OW23971   4.722   2.862   4.262
 7691SOL    HW123972   4.760   2.855   4.170
 7691SOL    HW223973   4.672   2.948   4.270
 7692SOL     OW23974   0.561   0.204   1.019
 7692SOL    HW123975   0.605   0.252   0.943
 7692SOL    HW223976   0.631   0.157   1.074
 7693SOL     OW23977   4.389   0.192   0.788
 7693SOL    HW123978   4.377   0.179   0.887
 7693SOL    HW223979   4.309   0.241   0.752
 7694SOL     OW23980   0.540   4.417   4.274
 7694SOL    HW123981   0.600   4.370   4.209
 7694SOL    HW223982   0.557   4.515   4.270
 7695SOL     OW23983   3.996   7.016   1.151
 7695SOL    HW123984   3.950   0.031   1.232
 7695SOL    HW223985   4.004   0.065   1.081
 7696SOL     OW23986   7.015   2.087   4.312
 7696SOL    HW123987   0.088   2.096   4.283
 7696SOL    HW223988   7.011   2.076   4.411
 7697SOL     OW23989   2.501   1.062   2.559
 7697SOL    HW123990   2.459   1.056   2.468
 7697SOL    HW223991   2.462   0.992   2.618
 7698SOL     OW23992   0.440   3.195   4.647
 7698SOL    HW123993   0.457   3.256   4.570
 7698SOL    HW223994   0.367   3.233   4.704
 7699SOL     OW23995   3.455   5.498   6.650
 7699SOL    HW123996   3.438   5.482   6.553
 7699SOL    HW223997   3.551   5.480   6.671
 7700SOL     OW23998   4.975   6.922   5.245
 7700SOL    HW123999   5.056   6.944   5.191
 7700SOL    HW224000   4.980   6.969   5.334
 7701SOL     OW24001   5.987   1.509   6.663
 7701SOL    HW124002   5.924   1.450   6.612
 7701SOL    HW224003   5.949   1.526   6.754
 7702SOL     OW24004   3.656   6.080   5.703
 7702SOL    HW124005   3.638   5.985   5.676
 7702SOL    HW224006   3.571   6.132   5.701
 7703SOL     OW24007   6.882   1.278   4.767
 7703SOL    HW124008   6.973   1.316   4.753
 7703SOL    HW224009   6.813   1.348   4.750
 7704SOL     OW24010   4.235   4.794   5.429
 7704SOL    HW124011   4.267   4.729   5.498
 7704SOL    HW224012   4.259   4.887   5.458
 7705SOL     OW24013   3.436   4.588   5.696
 7705SOL    HW124014   3.385   4.524   5.754
 7705SOL    HW224015   3.503   4.537   5.642
 7706SOL     OW24016   4.834   1.392   5.591
 7706SOL    HW124017   4.913   1.341   5.556
 7706SOL    HW224018   4.802   1.457   5.522
 7707SOL     OW24019   0.567   5.594   6.589
 7707SOL    HW124020   0.493   5.611   6.655
 7707SOL    HW224021   0.624   5.676   6.582
 7708SOL     OW24022   4.950   6.177   4.959
 7708SOL    HW124023   4.954   6.171   4.860
 7708SOL    HW224024   4.928   6.271   4.986
 7709SOL     OW24025   5.870   3.469   1.726
 7709SOL    HW124026   5.846   3.399   1.793
 7709SOL    HW224027   5.881   3.557   1.773
 7710SOL     OW24028   1.992   0.560   0.917
 7710SOL    HW124029   2.050   0.515   0.985
 7710SOL    HW224030   1.945   0.638   0.959
 7711SOL     OW24031   6.432   5.831   4.735
 7711SOL    HW124032   6.382   5.917   4.747
 7711SOL    HW224033   6.502   5.844   4.664
 7712SOL     OW24034   6.705   4.915   1.206
 7712SOL    HW124035   6.619   4.965   1.200
 7712SOL    HW224036   6.767   4.960   1.271
 7713SOL     OW24037   1.988   4.324   0.859
 7713SOL    HW124038   2.068   4.272   0.891
 7713SOL    HW224039   1.912   4.308   0.921
 7714SOL     OW24040   6.860   5.252   5.414
 7714SOL    HW124041   6.833   5.174   5.471
 7714SOL    HW224042   6.781   5.284   5.362
 7715SOL     OW24043   5.239   1.381   1.178
 7715SOL    HW124044   5.284   1.429   1.253
 7715SOL    HW224045   5.174   1.442   1.133
 7716SOL     OW24046   5.407   2.935   3.327
 7716SOL    HW124047   5.376   2.939   3.232
 7716SOL    HW224048   5.393   2.843   3.363
 7717SOL     OW24049   2.844   1.157   4.462
 7717SOL    HW124050   2.826   1.183   4.367
 7717SOL    HW224051   2.920   1.211   4.498
 7718SOL     OW24052   1.812   2.409   3.313
 7718SOL    HW124053   1.754   2.490   3.306
 7718SOL    HW224054   1.759   2.328   3.285
 7719SOL     OW24055   6.918   3.491   3.889
 7719SOL    HW124056   6.937   3.472   3.792
 7719SOL    HW224057   6.924   3.590   3.905
 7720SOL     OW24058   0.102   6.714   0.501
 7720SOL    HW124059   0.016   6.751   0.534
 7720SOL    HW224060   0.163   6.789   0.474
 7721SOL     OW24061   1.695   4.114   3.088
 7721SOL    HW124062   1.733   4.129   2.997
 7721SOL    HW224063   1.751   4.162   3.156
 7722SOL     OW24064   0.340   5.216   2.611
 7722SOL    HW124065   0.281   5.152   2.563
 7722SOL    HW224066   0.298   5.241   2.698
 7723SOL     OW24067   6.738   4.354   0.816
 7723SOL    HW124068   6.795   4.333   0.896
 7723SOL    HW224069   6.796   4.390   0.743
 7724SOL     OW24070   2.414   4.637   2.077
 7724SOL    HW124071   2.428   4.582   2.160
 7724SOL    HW224072   2.340   4.702   2.093
 7725SOL     OW24073   5.056   2.621   3.299
 7725SOL    HW124074   5.148   2.638   3.265
 7725SOL    HW224075   5.054   2.535   3.350
 7726SOL     OW24076   6.553   5.079   3.712
 7726SOL    HW124077   6.575   5.127   3.796
 7726SOL    HW224078   6.589   4.986   3.716
 7727SOL     OW24079   5.905   1.964   3.524
 7727SOL    HW124080   5.981   1.899   3.519
 7727SOL    HW224081   5.941   2.057   3.524
 7728SOL     OW24082   1.103   3.735   3.706
 7728SOL    HW124083   1.051   3.739   3.791
 7728SOL    HW224084   1.099   3.643   3.668
 7729SOL     OW24085   6.308   2.555   1.680
 7729SOL    HW124086   6.290   2.457   1.685
 7729SOL    HW224087   6.406   2.572   1.682
 7730SOL     OW24088   5.613   5.844   2.568
 7730SOL    HW124089   5.565   5.864   2.654
 7730SOL    HW224090   5.663   5.758   2.576
 7731SOL     OW24091   5.778   1.028   0.999
 7731SOL    HW124092   5.849   1.046   0.930
 7731SOL    HW224093   5.721   1.109   1.009
 7732SOL     OW24094   4.625   5.879   0.458
 7732SOL    HW124095   4.699   5.936   0.422
 7732SOL    HW224096   4.633   5.872   0.558
 7733SOL     OW24097   4.272   6.469   1.828
 7733SOL    HW124098   4.368   6.444   1.813
 7733SOL    HW224099   4.238   6.424   1.910
 7734SOL     OW24100   1.499   3.803   3.424
 7734SOL    HW124101   1.558   3.790   3.344
 7734SOL    HW224102   1.404   3.783   3.399
 7735SOL     OW24103   3.728   4.882   6.684
 7735SOL    HW124104   3.810   4.939   6.693
 7735SOL    HW224105   3.715   4.830   6.767
 7736SOL     OW24106   5.327   4.324   0.239
 7736SOL    HW124107   5.321   4.299   0.336
 7736SOL    HW224108   5.265   4.400   0.220
 7737SOL     OW24109   4.587   1.137   0.849
 7737SOL    HW124110   4.488   1.129   0.847
 7737SOL    HW224111   4.615   1.225   0.811
 7738SOL     OW24112   2.347   5.830   0.113
 7738SOL    HW124113   2.352   5.846   0.212
 7738SOL    HW224114   2.422   5.878   0.067
 7739SOL     OW24115   0.109   1.579   1.561
 7739SOL    HW124116   0.082   1.675   1.570
 7739SOL    HW224117   0.045   1.522   1.612
 7740SOL     OW24118   0.469   0.595   2.775
 7740SOL    HW124119   0.565   0.610   2.799
 7740SOL    HW224120   0.424   0.544   2.848
 7741SOL     OW24121   1.321   5.829   4.793
 7741SOL    HW124122   1.400   5.889   4.804
 7741SOL    HW224123   1.293   5.827   4.697
 7742SOL     OW24124   6.264   2.104   3.721
 7742SOL    HW124125   6.267   2.192   3.674
 7742SOL    HW224126   6.229   2.116   3.813
 7743SOL     OW24127   4.827   2.972   6.207
 7743SOL    HW124128   4.734   2.937   6.220
 7743SOL    HW224129   4.868   2.930   6.126
 7744SOL     OW24130   0.241   6.430   3.739
 7744SOL    HW124131   0.169   6.494   3.766
 7744SOL    HW224132   0.210   6.336   3.754
 7745SOL     OW24133   3.633   2.222   5.708
 7745SOL    HW124134   3.728   2.195   5.727
 7745SOL    HW224135   3.632   2.303   5.650
 7746SOL     OW24136   2.630   6.972   6.948
 7746SOL    HW124137   2.655   6.956   6.853
 7746SOL    HW224138   2.607   6.885   6.992
 7747SOL     OW24139   4.780   6.337   1.033
 7747SOL    HW124140   4.790   6.371   1.126
 7747SOL    HW224141   4.848   6.267   1.015
 7748SOL     OW24142   3.195   3.903   5.569
 7748SOL    HW124143   3.144   3.957   5.503
 7748SOL    HW224144   3.184   3.805   5.548
 7749SOL     OW24145   4.407   3.777   6.155
 7749SOL    HW124146   4.485   3.740   6.206
 7749SOL    HW224147   4.342   3.703   6.137
 7750SOL     OW24148   0.676   5.918   0.997
 7750SOL    HW124149   0.716   5.915   0.905
 7750SOL    HW224150   0.576   5.922   0.989
 7751SOL     OW24151   1.576   1.625   1.978
 7751SOL    HW124152   1.640   1.549   1.965
 7751SOL    HW224153   1.494   1.610   1.923
 7752SOL     OW24154   5.130   0.505   4.860
 7752SOL    HW124155   5.164   0.497   4.766
 7752SOL    HW224156   5.206   0.534   4.919
 7753SOL     OW24157   1.845   1.492   4.538
 7753SOL    HW124158   1.768   1.534   4.491
 7753SOL    HW224159   1.834   1.392   4.537
 7754SOL     OW24160   3.905   6.154   1.315
 7754SOL    HW124161   3.927   6.131   1.220
 7754SOL    HW224162   3.990   6.173   1.364
 7755SOL     OW24163   1.293   3.507   6.008
 7755SOL    HW124164   1.346   3.588   5.982
 7755SOL    HW224165   1.332   3.468   6.091
 7756SOL     OW24166   2.597   6.672   1.561
 7756SOL    HW124167   2.529   6.669   1.488
 7756SOL    HW224168   2.679   6.622   1.531
 7757SOL     OW24169   6.619   4.645   1.217
 7757SOL    HW124170   6.644   4.632   1.121
 7757SOL    HW224171   6.650   4.736   1.246
 7758SOL     OW24172   1.559   0.317   6.290
 7758SOL    HW124173   1.642   0.265   6.313
 7758SOL    HW224174   1.585   0.403   6.248
 7759SOL     OW24175   2.629   2.344   5.787
 7759SOL    HW124176   2.718   2.377   5.818
 7759SOL    HW224177   2.638   2.251   5.752
 7760SOL     OW24178   4.954   1.653   2.346
 7760SOL    HW124179   4.937   1.712   2.426
 7760SOL    HW224180   4.941   1.706   2.262
 7761SOL     OW24181   5.383   5.417   4.641
 7761SOL    HW124182   5.287   5.395   4.658
 7761SOL    HW224183   5.430   5.428   4.729
 7762SOL     OW24184   0.834   0.789   4.370
 7762SOL    HW124185   0.767   0.838   4.315
 7762SOL    HW224186   0.861   0.705   4.322
 7763SOL     OW24187   2.250   0.408   5.217
 7763SOL    HW124188   2.293   0.321   5.242
 7763SOL    HW224189   2.161   0.415   5.262
 7764SOL     OW24190   3.445   4.102   5.507
 7764SOL    HW124191   3.389   4.019   5.508
 7764SOL    HW224192   3.442   4.145   5.597
 7765SOL     OW24193   6.645   3.491   4.251
 7765SOL    HW124194   6.689   3.502   4.163
 7765SOL    HW224195   6.567   3.429   4.242
 7766SOL     OW24196   0.589   4.460   0.533
 7766SOL    HW124197   0.550   4.528   0.471
 7766SOL    HW224198   0.613   4.503   0.620
 7767SOL     OW24199   3.977   6.896   2.074
 7767SOL    HW124200   4.054   6.858   2.125
 7767SOL    HW224201   3.987   6.873   1.977
 7768SOL     OW24202   4.601   4.372   2.910
 7768SOL    HW124203   4.584   4.361   3.008
 7768SOL    HW224204   4.558   4.456   2.878
 7769SOL     OW24205   3.995   2.384   5.314
 7769SOL    HW124206   3.950   2.324   5.247
 7769SOL    HW224207   4.064   2.440   5.268
 7770SOL     OW24208   0.799   3.543   4.942
 7770SOL    HW124209   0.782   3.612   5.011
 7770SOL    HW224210   0.826   3.587   4.856
 7771SOL     OW24211   2.976   2.551   6.290
 7771SOL    HW124212   2.933   2.618   6.230
 7771SOL    HW224213   2.943   2.460   6.267
 7772SOL     OW24214   5.271   1.003   0.976
 7772SOL    HW124215   5.297   1.033   1.068
 7772SOL    HW224216   5.353   0.982   0.923
 7773SOL     OW24217   3.214   6.020   0.282
 7773SOL    HW124218   3.307   6.006   0.316
 7773SOL    HW224219   3.151   5.963   0.335
 7774SOL     OW24220   4.782   2.333   3.701
 7774SOL    HW124221   4.781   2.285   3.789
 7774SOL    HW224222   4.840   2.414   3.708
 7775SOL     OW24223   3.636   0.561   6.695
 7775SOL    HW124224   3.655   0.660   6.693
 7775SOL    HW224225   3.707   0.513   6.644
 7776SOL     OW24226   0.452   6.637   5.470
 7776SOL    HW124227   0.434   6.635   5.568
 7776SOL    HW224228   0.539   6.591   5.450
 7777SOL     OW24229   5.728   5.220   4.089
 7777SOL    HW124230   5.816   5.194   4.130
 7777SOL    HW224231   5.715   5.319   4.098
 7778SOL     OW24232   6.372   3.668   2.767
 7778SOL    HW124233   6.431   3.657   2.847
 7778SOL    HW224234   6.379   3.587   2.709
 7779SOL     OW24235   3.434   6.502   2.647
 7779SOL    HW124236   3.361   6.571   2.642
 7779SOL    HW224237   3.482   6.512   2.734
 7780SOL     OW24238   0.070   5.479   6.176
 7780SOL    HW124239   0.149   5.516   6.126
 7780SOL    HW224240   0.039   5.546   6.243
 7781SOL     OW24241   1.807   3.612   0.523
 7781SOL    HW124242   1.895   3.600   0.477
 7781SOL    HW224243   1.805   3.554   0.605
 7782SOL     OW24244   6.111   4.953   3.028
 7782SOL    HW124245   6.094   4.855   3.029
 7782SOL    HW224246   6.077   4.994   3.112
 7783SOL     OW24247   0.787   6.751   5.619
 7783SOL    HW124248   0.774   6.733   5.522
 7783SOL    HW224249   0.699   6.767   5.663
 7784SOL     OW24250   2.567   2.157   2.036
 7784SOL    HW124251   2.538   2.077   2.089
 7784SOL    HW224252   2.665   2.152   2.021
 7785SOL     OW24253   1.477   6.563   2.775
 7785SOL    HW124254   1.419   6.482   2.785
 7785SOL    HW224255   1.422   6.640   2.744
 7786SOL     OW24256   4.352   0.511   6.591
 7786SOL    HW124257   4.388   0.516   6.685
 7786SOL    HW224258   4.307   0.597   6.568
 7787SOL     OW24259   2.798   3.321   0.887
 7787SOL    HW124260   2.841   3.258   0.823
 7787SOL    HW224261   2.854   3.328   0.970
 7788SOL     OW24262   1.690   5.402   1.711
 7788SOL    HW124263   1.615   5.449   1.757
 7788SOL    HW224264   1.687   5.421   1.613
 7789SOL     OW24265   3.360   6.941   6.107
 7789SOL    HW124266   3.450   6.983   6.097
 7789SOL    HW224267   3.289   7.010   6.094
 7790SOL     OW24268   6.400   5.016   2.663
 7790SOL    HW124269   6.454   4.937   2.695
 7790SOL    HW224270   6.307   5.010   2.701
 7791SOL     OW24271   2.162   6.177   1.509
 7791SOL    HW124272   2.230   6.185   1.582
 7791SOL    HW224273   2.172   6.090   1.462
 7792SOL     OW24274   0.719   1.316   2.690
 7792SOL    HW124275   0.736   1.407   2.652
 7792SOL    HW224276   0.750   1.313   2.785
 7793SOL     OW24277   4.109   1.933   6.703
 7793SOL    HW124278   4.179   1.862   6.716
 7793SOL    HW224279   4.026   1.891   6.665
 7794SOL     OW24280   0.660   5.376   2.737
 7794SOL    HW124281   0.696   5.290   2.700
 7794SOL    HW224282   0.575   5.358   2.786
 7795SOL     OW24283   3.387   5.647   5.687
 7795SOL    HW124284   3.439   5.562   5.679
 7795SOL    HW224285   3.337   5.648   5.773
 7796SOL     OW24286   3.673   3.277   5.725
 7796SOL    HW124287   3.684   3.193   5.778
 7796SOL    HW224288   3.619   3.259   5.643
 7797SOL     OW24289   0.766   5.165   2.522
 7797SOL    HW124290   0.734   5.072   2.538
 7797SOL    HW224291   0.847   5.163   2.462
 7798SOL     OW24292   0.484   1.322   1.778
 7798SOL    HW124293   0.580   1.293   1.786
 7798SOL    HW224294   0.442   1.277   1.700
 7799SOL     OW24295   2.970   6.329   2.623
 7799SOL    HW124296   3.000   6.409   2.570
 7799SOL    HW224297   2.994   6.342   2.719
 7800SOL     OW24298   1.088   5.949   1.068
 7800SOL    HW124299   1.001   5.935   1.116
 7800SOL    HW224300   1.144   6.014   1.119
 7801SOL     OW24301   1.757   2.341   2.689
 7801SOL    HW124302   1.674   2.331   2.744
 7801SOL    HW224303   1.785   2.251   2.654
 7802SOL     OW24304   0.057   4.572   5.979
 7802SOL    HW124305   0.017   4.482   5.963
 7802SOL    HW224306   0.101   4.574   6.069
 7803SOL     OW24307   5.498   2.599   6.382
 7803SOL    HW124308   5.528   2.694   6.383
 7803SOL    HW224309   5.578   2.539   6.380
 7804SOL     OW24310   2.237   1.929   4.452
 7804SOL    HW124311   2.190   2.010   4.486
 7804SOL    HW224312   2.185   1.888   4.377
 7805SOL     OW24313   5.403   2.930   1.772
 7805SOL    HW124314   5.445   2.929   1.681
 7805SOL    HW224315   5.318   2.878   1.770
 7806SOL     OW24316   6.457   2.625   5.423
 7806SOL    HW124317   6.426   2.559   5.492
 7806SOL    HW224318   6.457   2.717   5.462
 7807SOL     OW24319   2.133   4.988   5.985
 7807SOL    HW124320   2.108   5.004   5.889
 7807SOL    HW224321   2.095   5.061   6.042
 7808SOL     OW24322   5.182   4.450   2.939
 7808SOL    HW124323   5.179   4.360   2.983
 7808SOL    HW224324   5.134   4.447   2.852
 7809SOL     OW24325   4.975   4.980   3.886
 7809SOL    HW124326   5.021   5.037   3.817
 7809SOL    HW224327   4.897   5.030   3.924
 7810SOL     OW24328   4.204   6.308   4.858
 7810SOL    HW124329   4.147   6.279   4.780
 7810SOL    HW224330   4.247   6.228   4.899
 7811SOL     OW24331   1.077   5.699   2.705
 7811SOL    HW124332   1.100   5.773   2.642
 7811SOL    HW224333   0.981   5.675   2.694
 7812SOL     OW24334   2.341   2.732   5.750
 7812SOL    HW124335   2.246   2.730   5.778
 7812SOL    HW224336   2.365   2.824   5.718
 7813SOL     OW24337   4.850   2.842   1.153
 7813SOL    HW124338   4.776   2.909   1.152
 7813SOL    HW224339   4.918   2.868   1.222
 7814SOL     OW24340   6.484   3.244   1.915
 7814SOL    HW124341   6.525   3.329   1.949
 7814SOL    HW224342   6.434   3.199   1.989
 7815SOL     OW24343   6.274   2.407   5.156
 7815SOL    HW124344   6.367   2.445   5.162
 7815SOL    HW224345   6.222   2.459   5.088
 7816SOL     OW24346   0.064   1.809   5.485
 7816SOL    HW124347   0.016   1.745   5.544
 7816SOL    HW224348   0.006   1.889   5.469
 7817SOL     OW24349   3.289   3.717   6.004
 7817SOL    HW124350   3.312   3.777   5.927
 7817SOL    HW224351   3.222   3.649   5.974
 7818SOL     OW24352   5.144   1.465   1.818
 7818SOL    HW124353   5.097   1.468   1.730
 7818SOL    HW224354   5.089   1.512   1.887
 7819SOL     OW24355   0.796   3.516   3.946
 7819SOL    HW124356   0.724   3.508   4.015
 7819SOL    HW224357   0.836   3.607   3.950
 7820SOL     OW24358   1.617   0.713   5.380
 7820SOL    HW124359   1.646   0.620   5.355
 7820SOL    HW224360   1.678   0.779   5.336
 7821SOL     OW24361   6.380   5.753   6.991
 7821SOL    HW124362   6.333   5.800   6.916
 7821SOL    HW224363   6.384   5.655   6.972
 7822SOL     OW24364   1.360   1.261   5.347
 7822SOL    HW124365   1.291   1.330   5.322
 7822SOL    HW224366   1.314   1.176   5.371
 7823SOL     OW24367   1.639   4.147   6.633
 7823SOL    HW124368   1.565   4.080   6.624
 7823SOL    HW224369   1.718   4.103   6.675
 7824SOL     OW24370   5.636   1.927   3.508
 7824SOL    HW124371   5.592   2.008   3.472
 7824SOL    HW224372   5.725   1.951   3.547
 7825SOL     OW24373   1.848   2.961   1.390
 7825SOL    HW124374   1.906   2.890   1.429
 7825SOL    HW224375   1.861   3.047   1.439
 7826SOL     OW24376   5.445   0.616   0.181
 7826SOL    HW124377   5.345   0.626   0.184
 7826SOL    HW224378   5.468   0.529   0.139
 7827SOL     OW24379   4.626   4.699   1.833
 7827SOL    HW124380   4.633   4.728   1.929
 7827SOL    HW224381   4.653   4.603   1.825
 7828SOL     OW24382   0.827   5.799   0.493
 7828SOL    HW124383   0.756   5.858   0.533
 7828SOL    HW224384   0.914   5.816   0.538
 7829SOL     OW24385   2.669   3.087   1.591
 7829SOL    HW124386   2.690   3.079   1.494
 7829SOL    HW224387   2.752   3.113   1.641
 7830SOL     OW24388   5.566   3.443   6.623
 7830SOL    HW124389   5.469   3.454   6.644
 7830SOL    HW224390   5.587   3.346   6.616
 7831SOL     OW24391   1.452   4.010   0.230
 7831SOL    HW124392   1.487   3.922   0.198
 7831SOL    HW224393   1.515   4.049   0.296
 7832SOL     OW24394   2.983   1.756   5.210
 7832SOL    HW124395   2.971   1.687   5.139
 7832SOL    HW224396   2.902   1.758   5.269
 7833SOL     OW24397   0.473   0.034   0.632
 7833SOL    HW124398   0.426   0.025   0.719
 7833SOL    HW224399   0.480   0.130   0.606
 7834SOL     OW24400   0.488   0.940   2.284
 7834SOL    HW124401   0.545   1.008   2.237
 7834SOL    HW224402   0.414   0.911   2.223
 7835SOL     OW24403   2.238   2.832   4.755
 7835SOL    HW124404   2.295   2.750   4.765
 7835SOL    HW224405   2.274   2.904   4.815
 7836SOL     OW24406   3.350   6.860   6.381
 7836SOL    HW124407   3.345   6.945   6.434
 7836SOL    HW224408   3.367   6.882   6.285
 7837SOL     OW24409   6.082   6.726   2.593
 7837SOL    HW124410   6.086   6.702   2.496
 7837SOL    HW224411   6.017   6.800   2.607
 7838SOL     OW24412   4.540   6.606   4.359
 7838SOL    HW124413   4.576   6.616   4.266
 7838SOL    HW224414   4.548   6.693   4.407
 7839SOL     OW24415   5.915   4.007   4.631
 7839SOL    HW124416   5.884   4.099   4.606
 7839SOL    HW224417   5.835   3.947   4.641
 7840SOL     OW24418   5.060   2.726   4.322
 7840SOL    HW124419   5.158   2.742   4.330
 7840SOL    HW224420   5.029   2.665   4.395
 7841SOL     OW24421   5.921   2.324   6.825
 7841SOL    HW124422   5.885   2.269   6.901
 7841SOL    HW224423   5.921   2.270   6.741
 7842SOL     OW24424   1.376   1.592   3.472
 7842SOL    HW124425   1.409   1.673   3.523
 7842SOL    HW224426   1.454   1.544   3.433
 7843SOL     OW24427   5.650   3.967   0.871
 7843SOL    HW124428   5.706   4.036   0.825
 7843SOL    HW224429   5.702   3.882   0.880
 7844SOL     OW24430   4.242   1.058   3.283
 7844SOL    HW124431   4.167   1.065   3.349
 7844SOL    HW224432   4.328   1.046   3.331
 7845SOL     OW24433   0.503   0.665   4.160
 7845SOL    HW124434   0.548   0.754   4.159
 7845SOL    HW224435   0.490   0.634   4.065
 7846SOL     OW24436   2.144   1.159   1.498
 7846SOL    HW124437   2.094   1.124   1.419
 7846SOL    HW224438   2.081   1.171   1.575
 7847SOL     OW24439   0.298   1.019   0.922
 7847SOL    HW124440   0.335   1.097   0.972
 7847SOL    HW224441   0.322   1.026   0.826
 7848SOL     OW24442   4.079   3.981   1.657
 7848SOL    HW124443   4.095   3.913   1.586
 7848SOL    HW224444   4.046   4.066   1.614
 7849SOL     OW24445   4.916   3.508   4.082
 7849SOL    HW124446   4.958   3.444   4.016
 7849SOL    HW224447   4.870   3.456   4.154
 7850SOL     OW24448   0.162   1.311   4.555
 7850SOL    HW124449   0.232   1.240   4.560
 7850SOL    HW224450   0.195   1.395   4.597
 7851SOL     OW24451   6.194   6.665   0.146
 7851SOL    HW124452   6.226   6.722   0.221
 7851SOL    HW224453   6.269   6.608   0.113
 7852SOL     OW24454   2.788   6.502   0.185
 7852SOL    HW124455   2.753   6.419   0.228
 7852SOL    HW224456   2.799   6.486   0.086
 7853SOL     OW24457   2.937   1.575   0.295
 7853SOL    HW124458   2.907   1.483   0.321
 7853SOL    HW224459   2.936   1.584   0.195
 7854SOL     OW24460   3.762   3.486   2.063
 7854SOL    HW124461   3.672   3.515   2.096
 7854SOL    HW224462   3.788   3.541   1.983
 7855SOL     OW24463   4.314   5.275   6.209
 7855SOL    HW124464   4.379   5.326   6.154
 7855SOL    HW224465   4.327   5.177   6.195
 7856SOL     OW24466   6.177   4.098   4.708
 7856SOL    HW124467   6.236   4.029   4.665
 7856SOL    HW224468   6.082   4.077   4.688
 7857SOL     OW24469   6.013   2.315   6.115
 7857SOL    HW124470   6.042   2.391   6.057
 7857SOL    HW224471   5.913   2.313   6.120
 7858SOL     OW24472   5.985   4.198   3.847
 7858SOL    HW124473   5.937   4.258   3.912
 7858SOL    HW224474   5.987   4.241   3.757
 7859SOL     OW24475   1.088   4.304   6.628
 7859SOL    HW124476   1.123   4.225   6.578
 7859SOL    HW224477   1.148   4.382   6.615
 7860SOL     OW24478   4.041   6.461   2.159
 7860SOL    HW124479   4.095   6.386   2.121
 7860SOL    HW224480   3.946   6.452   2.130
 7861SOL     OW24481   4.585   5.363   1.571
 7861SOL    HW124482   4.579   5.336   1.667
 7861SOL    HW224483   4.587   5.282   1.513
 7862SOL     OW24484   2.956   4.228   1.756
 7862SOL    HW124485   2.942   4.326   1.773
 7862SOL    HW224486   2.868   4.185   1.739
 7863SOL     OW24487   6.547   6.289   3.305
 7863SOL    HW124488   6.492   6.261   3.383
 7863SOL    HW224489   6.495   6.276   3.220
 7864SOL     OW24490   0.235   6.094   5.363
 7864SOL    HW124491   0.153   6.041   5.343
 7864SOL    HW224492   0.280   6.056   5.444
 7865SOL     OW24493   3.652   6.497   3.583
 7865SOL    HW124494   3.684   6.546   3.664
 7865SOL    HW224495   3.587   6.426   3.610
 7866SOL     OW24496   2.617   1.350   2.943
 7866SOL    HW124497   2.604   1.324   2.847
 7866SOL    HW224498   2.714   1.347   2.965
 7867SOL     OW24499   6.114   5.960   2.951
 7867SOL    HW124500   6.056   6.011   2.887
 7867SOL    HW224501   6.137   5.871   2.912
 7868SOL     OW24502   5.253   6.184   1.687
 7868SOL    HW124503   5.182   6.237   1.640
 7868SOL    HW224504   5.340   6.196   1.639
 7869SOL     OW24505   6.715   3.538   1.077
 7869SOL    HW124506   6.719   3.574   1.170
 7869SOL    HW224507   6.621   3.544   1.043
 7870SOL     OW24508   6.293   5.129   3.609
 7870SOL    HW124509   6.381   5.136   3.654
 7870SOL    HW224510   6.292   5.187   3.528
 7871SOL     OW24511   5.617   3.077   3.223
 7871SOL    HW124512   5.644   3.170   3.251
 7871SOL    HW224513   5.538   3.048   3.276
 7872SOL     OW24514   0.950   3.975   3.019
 7872SOL    HW124515   0.899   3.964   3.104
 7872SOL    HW224516   0.887   3.994   2.943
 7873SOL     OW24517   6.788   0.490   6.369
 7873SOL    HW124518   6.846   0.569   6.392
 7873SOL    HW224519   6.736   0.511   6.286
 7874SOL     OW24520   6.573   1.175   0.460
 7874SOL    HW124521   6.661   1.196   0.417
 7874SOL    HW224522   6.525   1.260   0.481
 7875SOL     OW24523   5.116   4.473   0.106
 7875SOL    HW124524   5.028   4.442   0.142
 7875SOL    HW224525   5.118   4.573   0.105
 7876SOL     OW24526   6.557   0.378   4.726
 7876SOL    HW124527   6.519   0.403   4.815
 7876SOL    HW224528   6.546   0.280   4.711
 7877SOL     OW24529   0.088   2.297   3.359
 7877SOL    HW124530   0.014   2.235   3.333
 7877SOL    HW224531   0.171   2.244   3.374
 7878SOL     OW24532   4.529   4.659   2.923
 7878SOL    HW124533   4.508   4.756   2.932
 7878SOL    HW224534   4.592   4.632   2.995
 7879SOL     OW24535   4.941   5.935   3.403
 7879SOL    HW124536   4.887   5.864   3.357
 7879SOL    HW224537   5.034   5.902   3.419
 7880SOL     OW24538   0.327   6.439   6.927
 7880SOL    HW124539   0.359   6.345   6.935
 7880SOL    HW224540   0.404   6.502   6.939
 7881SOL     OW24541   6.584   4.195   4.166
 7881SOL    HW124542   6.653   4.136   4.124
 7881SOL    HW224543   6.565   4.164   4.260
 7882SOL     OW24544   0.934   2.595   2.482
 7882SOL    HW124545   0.842   2.555   2.488
 7882SOL    HW224546   0.999   2.537   2.532
 7883SOL     OW24547   2.782   1.008   2.555
 7883SOL    HW124548   2.805   0.914   2.582
 7883SOL    HW224549   2.683   1.022   2.564
 7884SOL     OW24550   1.607   4.416   3.835
 7884SOL    HW124551   1.579   4.422   3.931
 7884SOL    HW224552   1.703   4.442   3.827
 7885SOL     OW24553   6.101   5.389   2.575
 7885SOL    HW124554   6.186   5.435   2.599
 7885SOL    HW224555   6.122   5.302   2.530
 7886SOL     OW24556   5.209   3.440   1.541
 7886SOL    HW124557   5.158   3.518   1.575
 7886SOL    HW224558   5.264   3.401   1.615
 7887SOL     OW24559   3.424   3.067   6.061
 7887SOL    HW124560   3.499   3.075   6.127
 7887SOL    HW224561   3.441   2.990   6.001
 7888SOL     OW24562   6.350   1.731   4.198
 7888SOL    HW124563   6.273   1.744   4.137
 7888SOL    HW224564   6.332   1.654   4.260
 7889SOL     OW24565   6.321   5.611   0.559
 7889SOL    HW124566   6.292   5.516   0.561
 7889SOL    HW224567   6.316   5.650   0.651
 7890SOL     OW24568   1.430   2.756   4.641
 7890SOL    HW124569   1.488   2.685   4.681
 7890SOL    HW224570   1.467   2.783   4.553
 7891SOL     OW24571   0.765   2.624   4.085
 7891SOL    HW124572   0.788   2.696   4.019
 7891SOL    HW224573   0.826   2.630   4.164
 7892SOL     OW24574   1.833   2.482   4.846
 7892SOL    HW124575   1.854   2.398   4.896
 7892SOL    HW224576   1.903   2.551   4.865
 7893SOL     OW24577   6.356   6.993   2.088
 7893SOL    HW124578   6.272   7.018   2.041
 7893SOL    HW224579   6.424   6.962   2.022
 7894SOL     OW24580   2.426   1.610   6.368
 7894SOL    HW124581   2.488   1.577   6.296
 7894SOL    HW224582   2.389   1.700   6.341
 7895SOL     OW24583   3.857   6.061   3.950
 7895SOL    HW124584   3.917   6.082   4.027
 7895SOL    HW224585   3.900   5.992   3.891
 7896SOL     OW24586   4.361   2.898   1.489
 7896SOL    HW124587   4.271   2.883   1.529
 7896SOL    HW224588   4.404   2.977   1.533
 7897SOL     OW24589   3.322   4.824   6.622
 7897SOL    HW124590   3.302   4.820   6.720
 7897SOL    HW224591   3.417   4.852   6.609
 7898SOL     OW24592   5.219   0.475   4.305
 7898SOL    HW124593   5.269   0.444   4.225
 7898SOL    HW224594   5.248   0.568   4.329
 7899SOL     OW24595   5.375   5.495   1.413
 7899SOL    HW124596   5.461   5.518   1.458
 7899SOL    HW224597   5.301   5.548   1.452
 7900SOL     OW24598   0.361   4.292   0.635
 7900SOL    HW124599   0.453   4.307   0.599
 7900SOL    HW224600   0.310   4.233   0.572
 7901SOL     OW24601   5.024   1.094   6.148
 7901SOL    HW124602   4.927   1.101   6.171
 7901SOL    HW224603   5.078   1.091   6.232
 7902SOL     OW24604   0.200   6.595   2.925
 7902SOL    HW124605   0.208   6.527   2.998
 7902SOL    HW224606   0.180   6.548   2.839
 7903SOL     OW24607   3.205   1.886   3.986
 7903SOL    HW124608   3.236   1.958   3.924
 7903SOL    HW224609   3.155   1.817   3.933
 7904SOL     OW24610   5.906   0.896   2.495
 7904SOL    HW124611   6.005   0.883   2.504
 7904SOL    HW224612   5.869   0.928   2.582
 7905SOL     OW24613   5.633   1.285   0.295
 7905SOL    HW124614   5.683   1.347   0.355
 7905SOL    HW224615   5.538   1.315   0.287
 7906SOL     OW24616   1.732   5.099   1.795
 7906SOL    HW124617   1.711   5.071   1.702
 7906SOL    HW224618   1.701   5.193   1.810
 7907SOL     OW24619   5.799   0.918   2.765
 7907SOL    HW124620   5.729   0.856   2.730
 7907SOL    HW224621   5.864   0.866   2.821
 7908SOL     OW24622   0.442   1.721   6.870
 7908SOL    HW124623   0.427   1.633   6.914
 7908SOL    HW224624   0.468   1.790   6.938
 7909SOL     OW24625   5.082   4.898   2.940
 7909SOL    HW124626   5.168   4.913   2.891
 7909SOL    HW224627   5.024   4.836   2.888
 7910SOL     OW24628   1.911   3.367   0.664
 7910SOL    HW124629   1.953   3.398   0.750
 7910SOL    HW224630   1.935   3.271   0.649
 7911SOL     OW24631   1.238   3.821   1.376
 7911SOL    HW124632   1.332   3.837   1.407
 7911SOL    HW224633   1.177   3.890   1.414
 7912SOL     OW24634   5.500   5.510   0.242
 7912SOL    HW124635   5.495   5.555   0.331
 7912SOL    HW224636   5.595   5.485   0.222
 7913SOL     OW24637   1.155   3.986   0.746
 7913SOL    HW124638   1.128   3.896   0.712
 7913SOL    HW224639   1.181   4.045   0.670
 7914SOL     OW24640   6.853   5.132   6.037
 7914SOL    HW124641   6.895   5.089   5.957
 7914SOL    HW224642   6.877   5.080   6.119
 7915SOL     OW24643   4.112   0.910   2.744
 7915SOL    HW124644   4.119   0.884   2.840
 7915SOL    HW224645   4.101   0.828   2.688
 7916SOL     OW24646   0.712   6.958   4.772
 7916SOL    HW124647   0.669   7.011   4.699
 7916SOL    HW224648   0.791   7.008   4.807
 7917SOL     OW24649   4.246   2.622   6.487
 7917SOL    HW124650   4.179   2.656   6.552
 7917SOL    HW224651   4.214   2.536   6.448
 7918SOL     OW24652   1.702   1.285   4.867
 7918SOL    HW124653   1.687   1.209   4.930
 7918SOL    HW224654   1.800   1.293   4.848
 7919SOL     OW24655   1.179   4.698   3.573
 7919SOL    HW124656   1.153   4.605   3.547
 7919SOL    HW224657   1.176   4.757   3.492
 7920SOL     OW24658   4.712   0.777   1.704
 7920SOL    HW124659   4.784   0.777   1.773
 7920SOL    HW224660   4.754   0.772   1.613
 7921SOL     OW24661   5.064   2.130   1.523
 7921SOL    HW124662   5.119   2.213   1.539
 7921SOL    HW224663   5.037   2.127   1.427
 7922SOL     OW24664   0.778   6.406   6.778
 7922SOL    HW124665   0.748   6.435   6.687
 7922SOL    HW224666   0.878   6.400   6.779
 7923SOL     OW24667   3.395   2.156   6.104
 7923SOL    HW124668   3.396   2.058   6.124
 7923SOL    HW224669   3.328   2.201   6.163
 7924SOL     OW24670   5.910   6.691   1.102
 7924SOL    HW124671   5.869   6.617   1.155
 7924SOL    HW224672   5.899   6.672   1.005
 7925SOL     OW24673   2.700   6.573   0.630
 7925SOL    HW124674   2.636   6.600   0.558
 7925SOL    HW224675   2.746   6.488   0.603
 7926SOL     OW24676   5.412   1.148   6.471
 7926SOL    HW124677   5.456   1.133   6.382
 7926SOL    HW224678   5.414   1.245   6.493
 7927SOL     OW24679   5.382   6.723   2.175
 7927SOL    HW124680   5.308   6.770   2.222
 7927SOL    HW224681   5.466   6.730   2.229
 7928SOL     OW24682   0.176   0.929   3.229
 7928SOL    HW124683   0.210   0.875   3.306
 7928SOL    HW224684   0.146   0.868   3.156
 7929SOL     OW24685   4.554   3.953   6.876
 7929SOL    HW124686   4.510   3.891   6.811
 7929SOL    HW224687   4.651   3.961   6.855
 7930SOL     OW24688   3.384   5.488   6.078
 7930SOL    HW124689   3.383   5.584   6.104
 7930SOL    HW224690   3.464   5.469   6.022
 7931SOL     OW24691   3.018   2.416   0.405
 7931SOL    HW124692   2.974   2.378   0.487
 7931SOL    HW224693   2.948   2.434   0.336
 7932SOL     OW24694   6.846   5.538   0.927
 7932SOL    HW124695   6.828   5.450   0.971
 7932SOL    HW224696   6.927   5.531   0.868
 7933SOL     OW24697   6.487   0.662   5.689
 7933SOL    HW124698   6.410   0.601   5.670
 7933SOL    HW224699   6.463   0.756   5.664
 7934SOL     OW24700   1.836   4.835   0.931
 7934SOL    HW124701   1.843   4.740   0.903
 7934SOL    HW224702   1.776   4.884   0.867
 7935SOL     OW24703   5.635   3.939   2.177
 7935SOL    HW124704   5.565   4.007   2.199
 7935SOL    HW224705   5.653   3.941   2.078
 7936SOL     OW24706   2.720   6.094   3.783
 7936SOL    HW124707   2.801   6.049   3.747
 7936SOL    HW224708   2.734   6.114   3.880
 7937SOL     OW24709   1.513   5.997   4.817
 7937SOL    HW124710   1.519   6.089   4.855
 7937SOL    HW224711   1.580   5.987   4.743
 7938SOL     OW24712   5.314   0.505   5.079
 7938SOL    HW124713   5.243   0.450   5.123
 7938SOL    HW224714   5.310   0.599   5.114
 7939SOL     OW24715   0.531   1.931   5.287
 7939SOL    HW124716   0.555   2.011   5.233
 7939SOL    HW224717   0.449   1.951   5.341
 7940SOL     OW24718   4.294   2.092   2.380
 7940SOL    HW124719   4.288   2.019   2.448
 7940SOL    HW224720   4.368   2.154   2.404
 7941SOL     OW24721   4.271   6.390   3.177
 7941SOL    HW124722   4.201   6.406   3.246
 7941SOL    HW224723   4.351   6.349   3.220
 7942SOL     OW24724   1.387   2.820   2.086
 7942SOL    HW124725   1.475   2.783   2.116
 7942SOL    HW224726   1.347   2.759   2.018
 7943SOL     OW24727   2.120   4.657   5.647
 7943SOL    HW124728   2.023   4.659   5.672
 7943SOL    HW224729   2.164   4.578   5.689
 7944SOL     OW24730   0.942   2.290   1.585
 7944SOL    HW124731   0.945   2.363   1.653
 7944SOL    HW224732   0.857   2.295   1.533
 7945SOL     OW24733   6.354   5.332   2.846
 7945SOL    HW124734   6.346   5.243   2.800
 7945SOL    HW224735   6.444   5.371   2.827
 7946SOL     OW24736   3.958   0.121   5.535
 7946SOL    HW124737   4.037   0.095   5.592
 7946SOL    HW224738   3.988   0.139   5.442
 7947SOL     OW24739   2.085   2.481   5.204
 7947SOL    HW124740   2.016   2.544   5.170
 7947SOL    HW224741   2.100   2.496   5.302
 7948SOL     OW24742   1.360   4.675   2.378
 7948SOL    HW124743   1.301   4.717   2.447
 7948SOL    HW224744   1.456   4.689   2.402
 7949SOL     OW24745   4.570   4.678   5.578
 7949SOL    HW124746   4.651   4.736   5.564
 7949SOL    HW224747   4.509   4.723   5.644
 7950SOL     OW24748   5.750   5.738   5.410
 7950SOL    HW124749   5.746   5.705   5.316
 7950SOL    HW224750   5.803   5.823   5.413
 7951SOL     OW24751   2.604   5.264   2.586
 7951SOL    HW124752   2.524   5.283   2.529
 7951SOL    HW224753   2.671   5.338   2.576
 7952SOL     OW24754   6.062   3.751   0.037
 7952SOL    HW124755   6.080   3.654   0.052
 7952SOL    HW224756   6.056   3.769   6.962
 7953SOL     OW24757   4.219   1.289   0.994
 7953SOL    HW124758   4.205   1.379   0.953
 7953SOL    HW224759   4.152   1.274   1.066
 7954SOL     OW24760   3.511   3.807   6.363
 7954SOL    HW124761   3.458   3.734   6.321
 7954SOL    HW224762   3.607   3.780   6.371
 7955SOL     OW24763   2.166   1.687   5.789
 7955SOL    HW124764   2.154   1.772   5.737
 7955SOL    HW224765   2.078   1.640   5.796
 7956SOL     OW24766   5.779   1.649   1.887
 7956SOL    HW124767   5.791   1.582   1.813
 7956SOL    HW224768   5.703   1.620   1.945
 7957SOL     OW24769   4.237   0.528   5.695
 7957SOL    HW124770   4.183   0.509   5.776
 7957SOL    HW224771   4.184   0.505   5.613
 7958SOL     OW24772   5.568   3.734   6.533
 7958SOL    HW124773   5.574   3.636   6.552
 7958SOL    HW224774   5.634   3.758   6.462
 7959SOL     OW24775   4.923   0.520   6.502
 7959SOL    HW124776   4.969   0.557   6.422
 7959SOL    HW224777   4.981   0.533   6.583
 7960SOL     OW24778   0.499   0.889   6.441
 7960SOL    HW124779   0.512   0.853   6.534
 7960SOL    HW224780   0.485   0.988   6.446
 7961SOL     OW24781   6.659   6.684   0.500
 7961SOL    HW124782   6.729   6.716   0.563
 7961SOL    HW224783   6.609   6.762   0.463
 7962SOL     OW24784   6.948   0.702   6.516
 7962SOL    HW124785   6.930   0.700   6.614
 7962SOL    HW224786   0.023   0.723   6.501
 7963SOL     OW24787   6.209   4.304   4.228
 7963SOL    HW124788   6.257   4.383   4.268
 7963SOL    HW224789   6.211   4.311   4.128
 7964SOL     OW24790   6.851   3.087   1.298
 7964SOL    HW124791   6.893   3.166   1.254
 7964SOL    HW224792   6.846   3.102   1.397
 7965SOL     OW24793   4.836   2.466   0.133
 7965SOL    HW124794   4.881   2.417   0.208
 7965SOL    HW224795   4.861   2.425   0.046
 7966SOL     OW24796   4.100   3.886   5.935
 7966SOL    HW124797   4.183   3.835   5.912
 7966SOL    HW224798   4.125   3.970   5.983
 7967SOL     OW24799   1.492   5.260   2.505
 7967SOL    HW124800   1.558   5.309   2.562
 7967SOL    HW224801   1.532   5.244   2.415
 7968SOL     OW24802   6.653   1.794   4.935
 7968SOL    HW124803   6.733   1.745   4.900
 7968SOL    HW224804   6.569   1.750   4.903
 7969SOL     OW24805   4.890   5.697   0.198
 7969SOL    HW124806   4.871   5.625   0.265
 7969SOL    HW224807   4.989   5.716   0.197
 7970SOL     OW24808   5.917   2.649   2.640
 7970SOL    HW124809   5.872   2.650   2.550
 7970SOL    HW224810   5.995   2.587   2.637
 7971SOL     OW24811   3.347   1.936   1.435
 7971SOL    HW124812   3.324   2.018   1.383
 7971SOL    HW224813   3.272   1.913   1.497
 7972SOL     OW24814   3.794   3.272   1.865
 7972SOL    HW124815   3.883   3.228   1.859
 7972SOL    HW224816   3.802   3.355   1.921
 7973SOL     OW24817   6.021   3.804   3.718
 7973SOL    HW124818   5.948   3.867   3.743
 7973SOL    HW224819   6.106   3.855   3.703
 7974SOL     OW24820   6.335   1.355   4.799
 7974SOL    HW124821   6.251   1.328   4.752
 7974SOL    HW224822   6.329   1.332   4.896
 7975SOL     OW24823   4.111   0.979   0.432
 7975SOL    HW124824   4.198   1.026   0.414
 7975SOL    HW224825   4.073   0.945   0.346
 7976SOL     OW24826   0.912   6.989   5.986
 7976SOL    HW124827   0.939   0.019   6.066
 7976SOL    HW224828   0.875   6.901   6.015
 7977SOL     OW24829   5.796   6.383   2.699
 7977SOL    HW124830   5.755   6.471   2.675
 7977SOL    HW224831   5.731   6.310   2.680
 7978SOL     OW24832   0.395   3.926   0.833
 7978SOL    HW124833   0.455   3.950   0.757
 7978SOL    HW224834   0.425   3.839   0.872
 7979SOL     OW24835   1.591   3.717   5.199
 7979SOL    HW124836   1.607   3.723   5.101
 7979SOL    HW224837   1.677   3.729   5.248
 7980SOL     OW24838   3.282   4.725   5.919
 7980SOL    HW124839   3.356   4.693   5.860
 7980SOL    HW224840   3.297   4.821   5.942
 7981SOL     OW24841   1.424   5.016   3.121
 7981SOL    HW124842   1.428   5.115   3.133
 7981SOL    HW224843   1.495   4.987   3.057
 7982SOL     OW24844   0.872   1.080   6.106
 7982SOL    HW124845   0.938   1.135   6.157
 7982SOL    HW224846   0.913   1.050   6.020
 7983SOL     OW24847   5.631   1.380   1.391
 7983SOL    HW124848   5.533   1.388   1.372
 7983SOL    HW224849   5.645   1.330   1.476
 7984SOL     OW24850   0.506   1.843   1.171
 7984SOL    HW124851   0.431   1.787   1.204
 7984SOL    HW224852   0.525   1.823   1.075
 7985SOL     OW24853   2.467   2.234   5.303
 7985SOL    HW124854   2.471   2.146   5.255
 7985SOL    HW224855   2.445   2.306   5.237
 7986SOL     OW24856   4.008   1.847   5.009
 7986SOL    HW124857   3.961   1.880   5.091
 7986SOL    HW224858   3.964   1.763   4.977
 7987SOL     OW24859   1.602   4.079   0.717
 7987SOL    HW124860   1.653   4.028   0.787
 7987SOL    HW224861   1.659   4.153   0.681
 7988SOL     OW24862   0.281   0.826   1.705
 7988SOL    HW124863   0.206   0.881   1.668
 7988SOL    HW224864   0.358   0.885   1.727
 7989SOL     OW24865   1.669   4.205   0.098
 7989SOL    HW124866   1.580   4.203   0.052
 7989SOL    HW224867   1.726   4.132   0.061
 7990SOL     OW24868   2.699   6.320   4.232
 7990SOL    HW124869   2.666   6.250   4.295
 7990SOL    HW224870   2.627   6.388   4.217
 7991SOL     OW24871   5.423   1.979   4.536
 7991SOL    HW124872   5.336   1.980   4.586
 7991SOL    HW224873   5.406   1.966   4.438
 7992SOL     OW24874   2.342   0.518   0.682
 7992SOL    HW124875   2.243   0.507   0.675
 7992SOL    HW224876   2.386   0.462   0.612
 7993SOL     OW24877   0.004   6.993   2.268
 7993SOL    HW124878   0.015   6.903   2.311
 7993SOL    HW224879   0.068   0.036   2.310
 7994SOL     OW24880   5.195   0.420   3.142
 7994SOL    HW124881   5.284   0.421   3.186
 7994SOL    HW224882   5.145   0.338   3.170
 7995SOL     OW24883   5.724   4.766   2.716
 7995SOL    HW124884   5.710   4.681   2.666
 7995SOL    HW224885   5.748   4.746   2.811
 7996SOL     OW24886   4.159   0.319   4.126
 7996SOL    HW124887   4.205   0.384   4.186
 7996SOL    HW224888   4.061   0.336   4.126
 7997SOL     OW24889   0.486   1.952   7.018
 7997SOL    HW124890   0.560   1.939   0.062
 7997SOL    HW224891   0.399   1.960   0.046
 7998SOL     OW24892   3.129   0.224   0.031
 7998SOL    HW124893   3.104   0.130   0.055
 7998SOL    HW224894   3.092   0.246   6.963
 7999SOL     OW24895   0.898   1.781   6.204
 7999SOL    HW124896   0.908   1.692   6.159
 7999SOL    HW224897   0.989   1.822   6.218
 8000SOL     OW24898   6.446   6.808   6.418
 8000SOL    HW124899   6.347   6.807   6.433
 8000SOL    HW224900   6.493   6.786   6.503
 8001SOL     OW24901   4.529   6.809   1.071
 8001SOL    HW124902   4.456   6.874   1.053
 8001SOL    HW224903   4.611   6.837   1.021
 8002SOL     OW24904   0.415   1.286   5.265
 8002SOL    HW124905   0.484   1.337   5.214
 8002SOL    HW224906   0.329   1.338   5.268
 8003SOL     OW24907   1.803   6.637   2.056
 8003SOL    HW124908   1.772   6.705   2.123
 8003SOL    HW224909   1.842   6.558   2.103
 8004SOL     OW24910   2.172   3.134   3.573
 8004SOL    HW124911   2.257   3.118   3.624
 8004SOL    HW224912   2.148   3.051   3.523
 8005SOL     OW24913   3.020   0.079   3.887
 8005SOL    HW124914   2.942   0.117   3.838
 8005SOL    HW224915   3.101   0.135   3.869
 8006SOL     OW24916   3.304   5.741   4.951
 8006SOL    HW124917   3.295   5.776   5.044
 8006SOL    HW224918   3.270   5.647   4.947
 8007SOL     OW24919   5.634   1.976   6.489
 8007SOL    HW124920   5.601   1.894   6.443
 8007SOL    HW224921   5.701   1.949   6.559
 8008SOL     OW24922   3.364   6.746   0.335
 8008SOL    HW124923   3.312   6.663   0.354
 8008SOL    HW224924   3.449   6.722   0.289
 8009SOL     OW24925   5.039   1.064   0.835
 8009SOL    HW124926   5.127   1.058   0.882
 8009SOL    HW224927   5.012   1.160   0.827
 8010SOL     OW24928   3.017   2.707   5.434
 8010SOL    HW124929   3.009   2.665   5.525
 8010SOL    HW224930   3.085   2.781   5.438
 8011SOL     OW24931   3.771   2.016   1.824
 8011SOL    HW124932   3.750   2.076   1.901
 8011SOL    HW224933   3.699   2.024   1.755
 8012SOL     OW24934   0.756   2.598   5.919
 8012SOL    HW124935   0.843   2.586   5.871
 8012SOL    HW224936   0.761   2.677   5.979
 8013SOL     OW24937   1.071   2.555   3.488
 8013SOL    HW124938   1.107   2.513   3.571
 8013SOL    HW224939   1.082   2.492   3.411
 8014SOL     OW24940   1.707   6.847   3.845
 8014SOL    HW124941   1.643   6.788   3.795
 8014SOL    HW224942   1.656   6.921   3.890
 8015SOL     OW24943   1.859   0.348   5.637
 8015SOL    HW124944   1.883   0.265   5.686
 8015SOL    HW224945   1.793   0.326   5.565
 8016SOL     OW24946   3.886   1.946   4.650
 8016SOL    HW124947   3.979   1.934   4.685
 8016SOL    HW224948   3.881   2.028   4.595
 8017SOL     OW24949   6.796   6.909   0.150
 8017SOL    HW124950   6.815   6.831   0.091
 8017SOL    HW224951   6.706   6.946   0.130
 8018SOL     OW24952   3.908   2.306   6.681
 8018SOL    HW124953   3.886   2.289   6.777
 8018SOL    HW224954   4.007   2.313   6.670
 8019SOL     OW24955   2.542   3.867   0.843
 8019SOL    HW124956   2.636   3.859   0.876
 8019SOL    HW224957   2.481   3.815   0.902
 8020SOL     OW24958   6.057   6.925   5.980
 8020SOL    HW124959   6.075   6.929   5.882
 8020SOL    HW224960   6.138   6.954   6.031
 8021SOL     OW24961   2.318   2.504   1.596
 8021SOL    HW124962   2.330   2.458   1.684
 8021SOL    HW224963   2.295   2.600   1.610
 8022SOL     OW24964   5.942   0.269   1.485
 8022SOL    HW124965   5.960   0.177   1.450
 8022SOL    HW224966   5.914   0.263   1.581
 8023SOL     OW24967   5.671   5.528   2.784
 8023SOL    HW124968   5.726   5.453   2.822
 8023SOL    HW224969   5.699   5.545   2.690
 8024SOL     OW24970   1.684   5.875   6.341
 8024SOL    HW124971   1.677   5.856   6.243
 8024SOL    HW224972   1.675   5.789   6.392
 8025SOL     OW24973   1.747   4.831   1.434
 8025SOL    HW124974   1.746   4.930   1.448
 8025SOL    HW224975   1.695   4.787   1.507
 8026SOL     OW24976   0.053   4.488   0.921
 8026SOL    HW124977   0.125   4.431   0.882
 8026SOL    HW224978   0.084   4.583   0.925
 8027SOL     OW24979   3.562   6.564   4.967
 8027SOL    HW124980   3.467   6.594   4.967
 8027SOL    HW224981   3.572   6.486   4.904
 8028SOL     OW24982   2.408   6.117   4.300
 8028SOL    HW124983   2.311   6.107   4.324
 8028SOL    HW224984   2.422   6.092   4.205
 8029SOL     OW24985   4.801   2.241   1.653
 8029SOL    HW124986   4.896   2.224   1.625
 8029SOL    HW224987   4.767   2.322   1.606
 8030SOL     OW24988   6.239   5.290   0.676
 8030SOL    HW124989   6.256   5.202   0.722
 8030SOL    HW224990   6.206   5.273   0.583
 8031SOL     OW24991   5.968   0.032   3.148
 8031SOL    HW124992   6.019   6.993   3.209
 8031SOL    HW224993   6.028   0.105   3.116
 8032SOL     OW24994   5.126   3.695   1.661
 8032SOL    HW124995   5.170   3.713   1.572
 8032SOL    HW224996   5.030   3.675   1.646
 8033SOL     OW24997   4.230   3.709   0.475
 8033SOL    HW124998   4.319   3.665   0.462
 8033SOL    HW224999   4.188   3.675   0.559
 8034SOL     OW25000   5.591   0.482   5.303
 8034SOL    HW125001   5.676   0.524   5.336
 8034SOL    HW225002   5.581   0.500   5.205
 8035SOL     OW25003   4.568   0.933   2.457
 8035SOL    HW125004   4.553   1.005   2.525
 8035SOL    HW225005   4.484   0.916   2.406
 8036SOL     OW25006   6.701   2.972   3.578
 8036SOL    HW125007   6.641   3.051   3.589
 8036SOL    HW225008   6.647   2.892   3.554
 8037SOL     OW25009   1.315   3.080   0.127
 8037SOL    HW125010   1.251   3.045   0.194
 8037SOL    HW225011   1.399   3.025   0.128
 8038SOL     OW25012   5.800   6.164   1.953
 8038SOL    HW125013   5.718   6.194   1.905
 8038SOL    HW225014   5.810   6.215   2.038
 8039SOL     OW25015   0.369   2.609   5.142
 8039SOL    HW125016   0.288   2.660   5.111
 8039SOL    HW225017   0.401   2.649   5.228
 8040SOL     OW25018   2.075   5.991   6.134
 8040SOL    HW125019   1.976   5.977   6.139
 8040SOL    HW225020   2.100   6.072   6.187
 8041SOL     OW25021   3.331   1.508   2.883
 8041SOL    HW125022   3.264   1.438   2.861
 8041SOL    HW225023   3.297   1.565   2.957
 8042SOL     OW25024   4.372   4.397   5.793
 8042SOL    HW125025   4.383   4.470   5.861
 8042SOL    HW225026   4.293   4.340   5.818
 8043SOL     OW25027   4.223   5.461   1.001
 8043SOL    HW125028   4.283   5.432   0.927
 8043SOL    HW225029   4.131   5.477   0.965
 8044SOL     OW25030   4.244   3.610   1.288
 8044SOL    HW125031   4.203   3.648   1.206
 8044SOL    HW225032   4.176   3.556   1.338
 8045SOL     OW25033   6.932   1.630   2.982
 8045SOL    HW125034   6.925   1.711   2.923
 8045SOL    HW225035   6.916   1.548   2.928
 8046SOL     OW25036   0.168   4.870   1.859
 8046SOL    HW125037   0.106   4.947   1.878
 8046SOL    HW225038   0.133   4.788   1.903
 8047SOL     OW25039   3.600   6.781   6.371
 8047SOL    HW125040   3.503   6.785   6.395
 8047SOL    HW225041   3.655   6.800   6.453
 8048SOL     OW25042   4.026   3.001   7.018
 8048SOL    HW125043   3.944   2.980   0.049
 8048SOL    HW225044   4.038   3.100   7.013
 8049SOL     OW25045   1.369   6.460   0.235
 8049SOL    HW125046   1.288   6.515   0.252
 8049SOL    HW225047   1.444   6.519   0.205
 8050SOL     OW25048   1.952   3.982   4.657
 8050SOL    HW125049   2.028   3.917   4.649
 8050SOL    HW225050   1.936   4.003   4.753
 8051SOL     OW25051   4.752   5.763   4.387
 8051SOL    HW125052   4.724   5.734   4.295
 8051SOL    HW225053   4.826   5.704   4.418
 8052SOL     OW25054   2.503   1.754   2.008
 8052SOL    HW125055   2.580   1.713   2.056
 8052SOL    HW225056   2.419   1.705   2.031
 8053SOL     OW25057   2.952   3.026   5.514
 8053SOL    HW125058   2.922   2.972   5.593
 8053SOL    HW225059   2.874   3.043   5.454
 8054SOL     OW25060   6.074   4.174   5.278
 8054SOL    HW125061   6.054   4.179   5.180
 8054SOL    HW225062   6.008   4.229   5.329
 8055SOL     OW25063   0.011   0.687   5.552
 8055SOL    HW125064   6.959   0.697   5.619
 8055SOL    HW225065   0.039   0.592   5.548
 8056SOL     OW25066   2.819   6.554   3.511
 8056SOL    HW125067   2.858   6.468   3.477
 8056SOL    HW225068   2.749   6.586   3.447
 8057SOL     OW25069   2.716   1.887   1.862
 8057SOL    HW125070   2.746   1.968   1.911
 8057SOL    HW225071   2.656   1.832   1.921
 8058SOL     OW25072   2.775   6.512   3.097
 8058SOL    HW125073   2.863   6.530   3.054
 8058SOL    HW225074   2.763   6.574   3.175
 8059SOL     OW25075   3.255   1.096   5.261
 8059SOL    HW125076   3.253   1.165   5.333
 8059SOL    HW225077   3.255   1.141   5.171
 8060SOL     OW25078   6.761   0.952   5.994
 8060SOL    HW125079   6.771   0.955   5.895
 8060SOL    HW225080   6.841   0.908   6.034
 8061SOL     OW25081   0.355   0.858   2.765
 8061SOL    HW125082   0.394   0.768   2.749
 8061SOL    HW225083   0.303   0.887   2.684
 8062SOL     OW25084   3.962   5.220   4.758
 8062SOL    HW125085   3.982   5.124   4.775
 8062SOL    HW225086   3.989   5.244   4.664
 8063SOL     OW25087   3.344   0.994   3.015
 8063SOL    HW125088   3.373   0.984   2.920
 8063SOL    HW225089   3.276   1.067   3.021
 8064SOL     OW25090   6.418   3.078   0.445
 8064SOL    HW125091   6.475   3.156   0.471
 8064SOL    HW225092   6.359   3.053   0.522
 8065SOL     OW25093   3.689   6.969   4.685
 8065SOL    HW125094   3.680   0.003   4.767
 8065SOL    HW225095   3.648   6.879   4.701
 8066SOL     OW25096   6.742   0.754   4.289
 8066SOL    HW125097   6.659   0.802   4.316
 8066SOL    HW225098   6.798   0.735   4.370
 8067SOL     OW25099   5.368   3.034   3.919
 8067SOL    HW125100   5.289   3.019   3.979
 8067SOL    HW225101   5.389   3.132   3.916
 8068SOL     OW25102   0.728   4.820   0.972
 8068SOL    HW125103   0.744   4.776   1.060
 8068SOL    HW225104   0.679   4.757   0.911
 8069SOL     OW25105   2.952   5.018   2.064
 8069SOL    HW125106   2.884   5.000   2.135
 8069SOL    HW225107   2.938   4.955   1.988
 8070SOL     OW25108   3.998   3.921   0.579
 8070SOL    HW125109   3.899   3.931   0.594
 8070SOL    HW225110   4.015   3.898   0.484
 8071SOL     OW25111   4.000   6.961   5.200
 8071SOL    HW125112   3.906   6.976   5.230
 8071SOL    HW225113   4.003   6.954   5.101
 8072SOL     OW25114   3.385   2.689   0.562
 8072SOL    HW125115   3.345   2.599   0.576
 8072SOL    HW225116   3.376   2.714   0.466
 8073SOL     OW25117   2.939   0.106   5.655
 8073SOL    HW125118   3.037   0.128   5.656
 8073SOL    HW225119   2.925   0.014   5.619
 8074SOL     OW25120   2.008   1.037   1.089
 8074SOL    HW125121   1.974   1.097   1.162
 8074SOL    HW225122   2.064   1.091   1.026
 8075SOL     OW25123   0.594   6.643   0.759
 8075SOL    HW125124   0.614   6.730   0.715
 8075SOL    HW225125   0.544   6.584   0.696
 8076SOL     OW25126   0.578   6.883   6.465
 8076SOL    HW125127   0.483   6.912   6.478
 8076SOL    HW225128   0.591   6.793   6.507
 8077SOL     OW25129   4.055   6.065   1.988
 8077SOL    HW125130   3.969   6.084   1.940
 8077SOL    HW225131   4.110   6.002   1.934
 8078SOL     OW25132   0.843   1.703   0.986
 8078SOL    HW125133   0.783   1.637   0.942
 8078SOL    HW225134   0.811   1.796   0.966
 8079SOL     OW25135   0.076   1.810   4.129
 8079SOL    HW125136   7.019   1.760   4.094
 8079SOL    HW225137   0.044   1.886   4.186
 8080SOL     OW25138   1.692   2.757   2.043
 8080SOL    HW125139   1.678   2.673   1.990
 8080SOL    HW225140   1.767   2.744   2.107
 8081SOL     OW25141   6.208   4.805   5.656
 8081SOL    HW125142   6.243   4.897   5.672
 8081SOL    HW225143   6.123   4.792   5.707
 8082SOL     OW25144   3.506   0.537   2.187
 8082SOL    HW125145   3.546   0.461   2.238
 8082SOL    HW225146   3.415   0.558   2.224
 8083SOL     OW25147   5.548   2.960   4.316
 8083SOL    HW125148   5.561   2.873   4.268
 8083SOL    HW225149   5.637   3.004   4.331
 8084SOL     OW25150   2.673   1.026   5.171
 8084SOL    HW125151   2.660   0.954   5.239
 8084SOL    HW225152   2.703   0.986   5.085
 8085SOL     OW25153   6.594   6.563   2.802
 8085SOL    HW125154   6.621   6.577   2.707
 8085SOL    HW225155   6.663   6.507   2.848
 8086SOL     OW25156   6.846   0.956   1.362
 8086SOL    HW125157   6.799   1.044   1.359
 8086SOL    HW225158   6.934   0.964   1.315
 8087SOL     OW25159   1.659   0.614   6.259
 8087SOL    HW125160   1.665   0.689   6.324
 8087SOL    HW225161   1.682   0.647   6.167
 8088SOL     OW25162   5.985   0.079   6.676
 8088SOL    HW125163   6.009   0.150   6.610
 8088SOL    HW225164   6.065   0.025   6.697
 8089SOL     OW25165   6.000   2.814   6.501
 8089SOL    HW125166   6.014   2.911   6.522
 8089SOL    HW225167   5.933   2.805   6.428
 8090SOL     OW25168   3.923   1.394   5.920
 8090SOL    HW125169   3.952   1.466   5.982
 8090SOL    HW225170   3.825   1.404   5.901
 8091SOL     OW25171   1.454   4.319   4.344
 8091SOL    HW125172   1.478   4.223   4.326
 8091SOL    HW225173   1.386   4.323   4.417
 8092SOL     OW25174   4.725   2.140   5.235
 8092SOL    HW125175   4.746   2.064   5.297
 8092SOL    HW225176   4.746   2.226   5.281
 8093SOL     OW25177   3.550   5.681   3.440
 8093SOL    HW125178   3.574   5.747   3.370
 8093SOL    HW225179   3.544   5.590   3.399
 8094SOL     OW25180   0.427   3.557   5.654
 8094SOL    HW125181   0.525   3.536   5.645
 8094SOL    HW225182   0.407   3.578   5.750
 8095SOL     OW25183   0.693   5.296   4.642
 8095SOL    HW125184   0.746   5.293   4.557
 8095SOL    HW225185   0.740   5.352   4.709
 8096SOL     OW25186   1.621   0.633   2.807
 8096SOL    HW125187   1.634   0.731   2.786
 8096SOL    HW225188   1.692   0.580   2.760
 8097SOL     OW25189   4.113   0.271   4.596
 8097SOL    HW125190   4.043   0.291   4.527
 8097SOL    HW225191   4.190   0.333   4.585
 8098SOL     OW25192   1.920   6.801   3.435
 8098SOL    HW125193   1.842   6.837   3.383
 8098SOL    HW225194   1.994   6.778   3.372
 8099SOL     OW25195   4.133   6.335   4.291
 8099SOL    HW125196   4.121   6.241   4.260
 8099SOL    HW225197   4.228   6.362   4.279
 8100SOL     OW25198   6.598   1.443   6.956
 8100SOL    HW125199   6.516   1.445   6.897
 8100SOL    HW225200   6.597   1.360   7.011
 8101SOL     OW25201   1.675   5.213   0.882
 8101SOL    HW125202   1.646   5.197   0.976
 8101SOL    HW225203   1.701   5.126   0.840
 8102SOL     OW25204   0.939   3.766   3.919
 8102SOL    HW125205   0.905   3.853   3.883
 8102SOL    HW225206   0.994   3.782   4.001
 8103SOL     OW25207   3.633   0.331   2.282
 8103SOL    HW125208   3.595   0.239   2.295
 8103SOL    HW225209   3.717   0.340   2.336
 8104SOL     OW25210   1.959   0.029   5.087
 8104SOL    HW125211   2.010   0.049   5.171
 8104SOL    HW225212   1.979   0.097   5.018
 8105SOL     OW25213   0.227   2.367   2.776
 8105SOL    HW125214   0.149   2.429   2.774
 8105SOL    HW225215   0.234   2.326   2.867
 8106SOL     OW25216   2.468   6.389   3.261
 8106SOL    HW125217   2.390   6.355   3.209
 8106SOL    HW225218   2.501   6.317   3.323
 8107SOL     OW25219   1.240   6.138   4.469
 8107SOL    HW125220   1.293   6.058   4.499
 8107SOL    HW225221   1.238   6.142   4.369
 8108SOL     OW25222   6.595   1.715   0.035
 8108SOL    HW125223   6.533   1.778   7.010
 8108SOL    HW225224   6.608   1.633   7.001
 8109SOL     OW25225   0.409   3.904   6.950
 8109SOL    HW125226   0.408   3.901   0.028
 8109SOL    HW225227   0.325   3.945   6.917
 8110SOL     OW25228   4.089   4.623   1.753
 8110SOL    HW125229   4.182   4.606   1.785
 8110SOL    HW225230   4.037   4.667   1.826
 8111SOL     OW25231   4.922   1.162   4.211
 8111SOL    HW125232   5.000   1.192   4.155
 8111SOL    HW225233   4.954   1.099   4.282
 8112SOL     OW25234   1.391   2.843   4.159
 8112SOL    HW125235   1.451   2.852   4.238
 8112SOL    HW225236   1.431   2.891   4.081
 8113SOL     OW25237   6.445   3.378   0.717
 8113SOL    HW125238   6.467   3.443   0.789
 8113SOL    HW225239   6.369   3.320   0.747
 8114SOL     OW25240   1.402   3.261   2.067
 8114SOL    HW125241   1.349   3.177   2.060
 8114SOL    HW225242   1.408   3.305   1.977
 8115SOL     OW25243   2.914   6.445   5.783
 8115SOL    HW125244   2.982   6.505   5.824
 8115SOL    HW225245   2.897   6.474   5.688
 8116SOL     OW25246   4.487   4.771   0.299
 8116SOL    HW125247   4.583   4.769   0.329
 8116SOL    HW225248   4.443   4.685   0.324
 8117SOL     OW25249   2.426   0.003   3.354
 8117SOL    HW125250   2.431   0.004   3.453
 8117SOL    HW225251   2.343   0.050   3.323
 8118SOL     OW25252   5.766   3.995   6.409
 8118SOL    HW125253   5.849   3.964   6.362
 8118SOL    HW225254   5.689   3.995   6.345
 8119SOL     OW25255   4.950   6.301   5.876
 8119SOL    HW125256   4.939   6.367   5.950
 8119SOL    HW225257   4.927   6.344   5.788
 8120SOL     OW25258   2.700   4.525   0.571
 8120SOL    HW125259   2.779   4.536   0.631
 8120SOL    HW225260   2.696   4.430   0.538
 8121SOL     OW25261   0.686   4.811   1.942
 8121SOL    HW125262   0.774   4.838   1.904
 8121SOL    HW225263   0.699   4.735   2.006
 8122SOL     OW25264   0.674   4.385   2.963
 8122SOL    HW125265   0.752   4.325   2.946
 8122SOL    HW225266   0.616   4.345   3.034
 8123SOL     OW25267   6.882   1.350   0.251
 8123SOL    HW125268   6.810   1.348   0.181
 8123SOL    HW225269   6.960   1.296   0.221
 8124SOL     OW25270   5.128   6.328   3.572
 8124SOL    HW125271   5.069   6.280   3.507
 8124SOL    HW225272   5.221   6.293   3.565
 8125SOL     OW25273   1.348   1.418   2.575
 8125SOL    HW125274   1.432   1.455   2.536
 8125SOL    HW225275   1.354   1.417   2.675
 8126SOL     OW25276   4.925   4.840   3.487
 8126SOL    HW125277   4.873   4.816   3.406
 8126SOL    HW225278   5.008   4.890   3.460
 8127SOL     OW25279   3.154   2.958   6.394
 8127SOL    HW125280   3.241   2.940   6.439
 8127SOL    HW225281   3.081   2.908   6.441
 8128SOL     OW25282   3.120   2.113   2.327
 8128SOL    HW125283   3.214   2.086   2.304
 8128SOL    HW225284   3.071   2.136   2.243
 8129SOL     OW25285   3.101   1.869   6.644
 8129SOL    HW125286   3.109   1.771   6.627
 8129SOL    HW225287   3.172   1.918   6.593
 8130SOL     OW25288   1.283   6.258   6.609
 8130SOL    HW125289   1.354   6.319   6.575
 8130SOL    HW225290   1.307   6.228   6.702
 8131SOL     OW25291   2.888   1.732   1.708
 8131SOL    HW125292   2.907   1.763   1.614
 8131SOL    HW225293   2.833   1.801   1.755
 8132SOL     OW25294   5.517   6.347   4.624
 8132SOL    HW125295   5.489   6.344   4.720
 8132SOL    HW225296   5.568   6.264   4.601
 8133SOL     OW25297   3.517   5.610   2.082
 8133SOL    HW125298   3.442   5.674   2.066
 8133SOL    HW225299   3.490   5.546   2.154
 8134SOL     OW25300   6.873   1.297   6.323
 8134SOL    HW125301   6.872   1.382   6.376
 8134SOL    HW225302   6.893   1.319   6.227
 8135SOL     OW25303   1.624   0.924   1.759
 8135SOL    HW125304   1.548   0.925   1.694
 8135SOL    HW225305   1.633   1.015   1.801
 8136SOL     OW25306   5.572   5.458   2.254
 8136SOL    HW125307   5.547   5.553   2.234
 8136SOL    HW225308   5.641   5.428   2.188
 8137SOL     OW25309   2.947   1.234   5.696
 8137SOL    HW125310   2.855   1.248   5.734
 8137SOL    HW225311   2.940   1.178   5.614
 8138SOL     OW25312   5.528   0.884   1.478
 8138SOL    HW125313   5.435   0.913   1.456
 8138SOL    HW225314   5.539   0.788   1.453
 8139SOL     OW25315   0.364   1.093   1.976
 8139SOL    HW125316   0.334   1.163   2.041
 8139SOL    HW225317   0.453   1.119   1.937
 8140SOL     OW25318   5.148   1.219   4.953
 8140SOL    HW125319   5.173   1.174   5.039
 8140SOL    HW225320   5.051   1.201   4.933
 8141SOL     OW25321   4.678   5.280   5.841
 8141SOL    HW125322   4.753   5.242   5.787
 8141SOL    HW225323   4.685   5.380   5.844
 8142SOL     OW25324   6.404   5.193   6.793
 8142SOL    HW125325   6.332   5.255   6.763
 8142SOL    HW225326   6.436   5.220   6.884
 8143SOL     OW25327   6.498   5.090   0.109
 8143SOL    HW125328   6.504   5.022   0.036
 8143SOL    HW225329   6.405   5.126   0.114
 8144SOL     OW25330   5.758   0.037   6.826
 8144SOL    HW125331   5.848   0.065   6.792
 8144SOL    HW225332   5.758   6.960   6.840
 8145SOL     OW25333   5.686   5.553   2.505
 8145SOL    HW125334   5.783   5.561   2.481
 8145SOL    HW225335   5.640   5.500   2.435
 8146SOL     OW25336   3.694   1.435   5.038
 8146SOL    HW125337   3.636   1.432   5.120
 8146SOL    HW225338   3.661   1.366   4.973
 8147SOL     OW25339   5.822   2.301   3.260
 8147SOL    HW125340   5.862   2.301   3.168
 8147SOL    HW225341   5.893   2.325   3.327
 8148SOL     OW25342   5.695   3.904   2.443
 8148SOL    HW125343   5.649   3.956   2.515
 8148SOL    HW225344   5.652   3.923   2.355
 8149SOL     OW25345   2.926   5.715   2.541
 8149SOL    HW125346   2.868   5.747   2.466
 8149SOL    HW225347   2.980   5.637   2.511
 8150SOL     OW25348   6.936   5.031   0.215
 8150SOL    HW125349   6.964   5.040   0.310
 8150SOL    HW225350   6.846   5.072   0.203
 8151SOL     OW25351   0.333   2.582   3.081
 8151SOL    HW125352   0.326   2.608   2.985
 8151SOL    HW225353   0.335   2.482   3.088
 8152SOL     OW25354   1.249   1.863   2.925
 8152SOL    HW125355   1.323   1.929   2.914
 8152SOL    HW225356   1.179   1.879   2.856
 8153SOL     OW25357   3.327   6.849   3.224
 8153SOL    HW125358   3.408   6.820   3.275
 8153SOL    HW225359   3.353   6.913   3.152
 8154SOL     OW25360   2.006   6.037   4.130
 8154SOL    HW125361   2.062   5.968   4.177
 8154SOL    HW225362   2.012   6.023   4.031
 8155SOL     OW25363   2.951   3.445   1.921
 8155SOL    HW125364   2.855   3.422   1.902
 8155SOL    HW225365   2.979   3.521   1.862
 8156SOL     OW25366   5.949   0.110   5.770
 8156SOL    HW125367   5.869   0.050   5.763
 8156SOL    HW225368   5.930   0.183   5.836
 8157SOL     OW25369   5.856   5.935   5.789
 8157SOL    HW125370   5.887   5.997   5.861
 8157SOL    HW225371   5.760   5.910   5.805
 8158SOL     OW25372   0.800   5.623   0.293
 8158SOL    HW125373   0.888   5.625   0.244
 8158SOL    HW225374   0.793   5.703   0.352
 8159SOL     OW25375   2.190   5.528   2.109
 8159SOL    HW125376   2.137   5.598   2.157
 8159SOL    HW225377   2.269   5.570   2.065
 8160SOL     OW25378   4.265   1.578   1.280
 8160SOL    HW125379   4.362   1.598   1.262
 8160SOL    HW225380   4.248   1.584   1.379
 8161SOL     OW25381   5.139   0.836   1.209
 8161SOL    HW125382   5.154   0.737   1.197
 8161SOL    HW225383   5.137   0.880   1.119
 8162SOL     OW25384   6.501   6.407   6.843
 8162SOL    HW125385   6.477   6.410   6.940
 8162SOL    HW225386   6.600   6.395   6.834
 8163SOL     OW25387   2.708   4.401   5.721
 8163SOL    HW125388   2.643   4.469   5.756
 8163SOL    HW225389   2.662   4.343   5.654
 8164SOL     OW25390   5.863   3.144   1.022
 8164SOL    HW125391   5.810   3.060   1.016
 8164SOL    HW225392   5.802   3.223   1.010
 8165SOL     OW25393   1.828   4.567   0.914
 8165SOL    HW125394   1.916   4.521   0.899
 8165SOL    HW225395   1.770   4.509   0.971
 8166SOL     OW25396   2.471   1.057   1.806
 8166SOL    HW125397   2.388   1.109   1.825
 8166SOL    HW225398   2.471   0.972   1.859
 8167SOL     OW25399   5.426   1.999   4.233
 8167SOL    HW125400   5.370   2.039   4.161
 8167SOL    HW225401   5.488   1.931   4.193
 8168SOL     OW25402   3.413   2.133   2.437
 8168SOL    HW125403   3.327   2.177   2.463
 8168SOL    HW225404   3.471   2.124   2.518
 8169SOL     OW25405   4.464   3.279   0.884
 8169SOL    HW125406   4.411   3.322   0.958
 8169SOL    HW225407   4.421   3.193   0.858
 8170SOL     OW25408   1.457   5.803   3.382
 8170SOL    HW125409   1.440   5.836   3.289
 8170SOL    HW225410   1.399   5.724   3.401
 8171SOL     OW25411   0.406   2.094   6.603
 8171SOL    HW125412   0.501   2.116   6.580
 8171SOL    HW225413   0.368   2.168   6.659
 8172SOL     OW25414   6.955   0.746   0.812
 8172SOL    HW125415   6.999   0.672   0.862
 8172SOL    HW225416   6.861   0.721   0.790
 8173SOL     OW25417   3.226   2.342   6.950
 8173SOL    HW125418   3.268   2.423   6.909
 8173SOL    HW225419   3.158   2.371   7.017
 8174SOL     OW25420   5.280   2.131   1.219
 8174SOL    HW125421   5.200   2.161   1.271
 8174SOL    HW225422   5.330   2.211   1.186
 8175SOL     OW25423   6.909   2.365   6.874
 8175SOL    HW125424   6.900   2.422   6.956
 8175SOL    HW225425   6.903   2.423   6.793
 8176SOL     OW25426   3.275   5.729   2.027
 8176SOL    HW125427   3.215   5.660   1.986
 8176SOL    HW225428   3.219   5.798   2.073
 8177SOL     OW25429   1.249   6.284   3.383
 8177SOL    HW125430   1.160   6.280   3.428
 8177SOL    HW225431   1.318   6.243   3.443
 8178SOL     OW25432   1.775   0.165   6.047
 8178SOL    HW125433   1.764   0.067   6.034
 8178SOL    HW225434   1.789   0.184   6.144
 8179SOL     OW25435   3.533   3.300   0.104
 8179SOL    HW125436   3.543   3.264   0.011
 8179SOL    HW225437   3.606   3.367   0.121
 8180SOL     OW25438   6.714   0.043   3.786
 8180SOL    HW125439   6.687   6.987   3.843
 8180SOL    HW225440   6.715   0.017   3.690
 8181SOL     OW25441   2.539   2.075   2.909
 8181SOL    HW125442   2.440   2.069   2.921
 8181SOL    HW225443   2.581   2.109   2.993
 8182SOL     OW25444   2.972   1.946   5.894
 8182SOL    HW125445   2.942   2.040   5.878
 8182SOL    HW225446   3.067   1.936   5.866
 8183SOL     OW25447   0.618   3.073   5.451
 8183SOL    HW125448   0.608   3.172   5.459
 8183SOL    HW225449   0.647   3.050   5.358
 8184SOL     OW25450   6.159   1.096   5.912
 8184SOL    HW125451   6.172   0.997   5.901
 8184SOL    HW225452   6.198   1.124   6.000
 8185SOL     OW25453   2.788   0.519   0.463
 8185SOL    HW125454   2.872   0.565   0.492
 8185SOL    HW225455   2.741   0.481   0.543
 8186SOL     OW25456   3.215   6.116   5.561
 8186SOL    HW125457   3.205   6.028   5.515
 8186SOL    HW225458   3.150   6.121   5.637
 8187SOL     OW25459   1.186   1.564   5.355
 8187SOL    HW125460   1.099   1.612   5.366
 8187SOL    HW225461   1.198   1.539   5.259
 8188SOL     OW25462   4.947   1.854   2.523
 8188SOL    HW125463   4.878   1.924   2.538
 8188SOL    HW225464   5.036   1.897   2.506
 8189SOL     OW25465   4.919   4.612   2.488
 8189SOL    HW125466   4.822   4.601   2.463
 8189SOL    HW225467   4.974   4.550   2.433
 8190SOL     OW25468   5.603   4.327   4.157
 8190SOL    HW125469   5.670   4.361   4.091
 8190SOL    HW225470   5.557   4.247   4.119
 8191SOL     OW25471   1.253   5.775   3.751
 8191SOL    HW125472   1.189   5.768   3.675
 8191SOL    HW225473   1.309   5.692   3.755
 8192SOL     OW25474   2.795   5.559   1.146
 8192SOL    HW125475   2.798   5.475   1.199
 8192SOL    HW225476   2.739   5.547   1.064
 8193SOL     OW25477   6.062   5.848   4.894
 8193SOL    HW125478   5.969   5.860   4.927
 8193SOL    HW225479   6.107   5.774   4.945
 8194SOL     OW25480   6.353   2.237   0.188
 8194SOL    HW125481   6.387   2.270   0.276
 8194SOL    HW225482   6.425   2.246   0.119
 8195SOL     OW25483   0.278   0.318   0.874
 8195SOL    HW125484   0.318   0.327   0.964
 8195SOL    HW225485   0.291   0.403   0.822
 8196SOL     OW25486   3.770   6.534   5.792
 8196SOL    HW125487   3.774   6.492   5.702
 8196SOL    HW225488   3.759   6.463   5.862
 8197SOL     OW25489   6.448   1.101   6.390
 8197SOL    HW125490   6.524   1.036   6.397
 8197SOL    HW225491   6.402   1.107   6.479
 8198SOL     OW25492   2.696   6.805   2.602
 8198SOL    HW125493   2.624   6.834   2.538
 8198SOL    HW225494   2.666   6.824   2.695
 8199SOL     OW25495   0.475   3.668   0.450
 8199SOL    HW125496   0.390   3.709   0.484
 8199SOL    HW225497   0.454   3.590   0.391
 8200SOL     OW25498   4.488   4.612   1.582
 8200SOL    HW125499   4.449   4.530   1.540
 8200SOL    HW225500   4.519   4.590   1.675
 8201SOL     OW25501   5.175   0.966   4.830
 8201SOL    HW125502   5.183   0.921   4.741
 8201SOL    HW225503   5.089   1.017   4.834
 8202SOL     OW25504   1.712   5.146   3.811
 8202SOL    HW125505   1.652   5.216   3.849
 8202SOL    HW225506   1.796   5.142   3.865
 8203SOL     OW25507   4.728   3.339   1.293
 8203SOL    HW125508   4.698   3.403   1.223
 8203SOL    HW225509   4.825   3.353   1.312
 8204SOL     OW25510   3.580   6.765   1.983
 8204SOL    HW125511   3.573   6.705   2.064
 8204SOL    HW225512   3.488   6.792   1.955
 8205SOL     OW25513   5.489   5.539   1.720
 8205SOL    HW125514   5.410   5.533   1.782
 8205SOL    HW225515   5.530   5.449   1.710
 8206SOL     OW25516   3.803   2.315   6.037
 8206SOL    HW125517   3.753   2.374   6.101
 8206SOL    HW225518   3.785   2.219   6.059
 8207SOL     OW25519   3.083   4.653   5.531
 8207SOL    HW125520   2.987   4.638   5.555
 8207SOL    HW225521   3.091   4.665   5.432
 8208SOL     OW25522   2.216   5.915   1.909
 8208SOL    HW125523   2.270   5.998   1.897
 8208SOL    HW225524   2.218   5.860   1.826
 8209SOL     OW25525   1.805   1.158   5.410
 8209SOL    HW125526   1.745   1.167   5.489
 8209SOL    HW225527   1.878   1.226   5.416
 8210SOL     OW25528   2.003   0.776   0.442
 8210SOL    HW125529   2.057   0.847   0.397
 8210SOL    HW225530   1.907   0.786   0.417
 8211SOL     OW25531   3.512   3.425   4.110
 8211SOL    HW125532   3.456   3.351   4.073
 8211SOL    HW225533   3.470   3.513   4.084
 8212SOL     OW25534   2.188   6.962   0.786
 8212SOL    HW125535   2.102   6.964   0.838
 8212SOL    HW225536   2.212   6.867   0.766
 8213SOL     OW25537   4.136   4.878   2.537
 8213SOL    HW125538   4.211   4.819   2.565
 8213SOL    HW225539   4.160   4.974   2.554
 8214SOL     OW25540   2.662   5.709   3.975
 8214SOL    HW125541   2.672   5.615   4.007
 8214SOL    HW225542   2.601   5.711   3.896
 8215SOL     OW25543   3.929   6.637   6.799
 8215SOL    HW125544   4.016   6.624   6.751
 8215SOL    HW225545   3.855   6.639   6.732
 8216SOL     OW25546   5.039   6.170   2.936
 8216SOL    HW125547   5.087   6.256   2.920
 8216SOL    HW225548   4.940   6.185   2.928
 8217SOL     OW25549   2.294   4.245   3.248
 8217SOL    HW125550   2.372   4.301   3.276
 8217SOL    HW225551   2.302   4.222   3.151
 8218SOL     OW25552   1.852   0.368   4.485
 8218SOL    HW125553   1.916   0.442   4.503
 8218SOL    HW225554   1.782   0.399   4.420
 8219SOL     OW25555   3.475   3.765   1.849
 8219SOL    HW125556   3.392   3.818   1.867
 8219SOL    HW225557   3.482   3.690   1.914
 8220SOL     OW25558   3.265   4.034   5.226
 8220SOL    HW125559   3.333   4.067   5.161
 8220SOL    HW225560   3.230   4.111   5.280
 8221SOL     OW25561   6.109   3.585   3.169
 8221SOL    HW125562   6.116   3.557   3.073
 8221SOL    HW225563   6.089   3.682   3.174
 8222SOL     OW25564   6.661   2.841   1.198
 8222SOL    HW125565   6.691   2.865   1.290
 8222SOL    HW225566   6.562   2.828   1.197
 8223SOL     OW25567   0.110   5.755   5.441
 8223SOL    HW125568   0.200   5.795   5.460
 8223SOL    HW225569   0.109   5.660   5.472
 8224SOL     OW25570   4.267   1.859   0.890
 8224SOL    HW125571   4.338   1.822   0.830
 8224SOL    HW225572   4.310   1.914   0.961
 8225SOL     OW25573   4.273   0.802   0.061
 8225SOL    HW125574   4.269   0.771   6.988
 8225SOL    HW225575   4.181   0.801   0.100
 8226SOL     OW25576   3.480   0.859   6.622
 8226SOL    HW125577   3.491   0.872   6.523
 8226SOL    HW225578   3.570   0.844   6.663
 8227SOL     OW25579   5.216   1.695   2.966
 8227SOL    HW125580   5.204   1.678   2.868
 8227SOL    HW225581   5.311   1.676   2.992
 8228SOL     OW25582   0.613   1.233   5.460
 8228SOL    HW125583   0.557   1.192   5.532
 8228SOL    HW225584   0.556   1.255   5.382
 8229SOL     OW25585   3.925   4.816   1.245
 8229SOL    HW125586   3.945   4.900   1.194
 8229SOL    HW225587   3.993   4.805   1.318
 8230SOL     OW25588   4.392   0.265   5.898
 8230SOL    HW125589   4.477   0.229   5.859
 8230SOL    HW225590   4.338   0.308   5.826
 8231SOL     OW25591   3.280   1.115   1.623
 8231SOL    HW125592   3.331   1.099   1.707
 8231SOL    HW225593   3.208   1.183   1.640
 8232SOL     OW25594   4.311   0.630   2.198
 8232SOL    HW125595   4.297   0.728   2.181
 8232SOL    HW225596   4.308   0.612   2.296
 8233SOL     OW25597   0.581   0.796   5.234
 8233SOL    HW125598   0.505   0.847   5.273
 8233SOL    HW225599   0.623   0.739   5.304
 8234SOL     OW25600   2.464   3.578   0.283
 8234SOL    HW125601   2.394   3.562   0.353
 8234SOL    HW225602   2.426   3.635   0.210
 8235SOL     OW25603   6.987   5.021   6.791
 8235SOL    HW125604   0.039   5.073   6.833
 8235SOL    HW225605   7.018   4.985   6.703
 8236SOL     OW25606   0.545   6.283   6.030
 8236SOL    HW125607   0.490   6.205   6.000
 8236SOL    HW225608   0.568   6.341   5.951
 8237SOL     OW25609   4.783   5.569   6.307
 8237SOL    HW125610   4.732   5.648   6.272
 8237SOL    HW225611   4.854   5.545   6.241
 8238SOL     OW25612   2.752   4.771   0.489
 8238SOL    HW125613   2.850   4.790   0.483
 8238SOL    HW225614   2.738   4.676   0.516
 8239SOL     OW25615   0.691   1.477   5.161
 8239SOL    HW125616   0.762   1.544   5.141
 8239SOL    HW225617   0.716   1.426   5.243
 8240SOL     OW25618   4.006   3.175   4.412
 8240SOL    HW125619   4.068   3.187   4.490
 8240SOL    HW225620   3.911   3.179   4.444
 8241SOL     OW25621   0.817   3.800   6.809
 8241SOL    HW125622   0.889   3.754   6.756
 8241SOL    HW225623   0.814   3.897   6.783
 8242SOL     OW25624   1.161   3.571   4.752
 8242SOL    HW125625   1.070   3.611   4.749
 8242SOL    HW225626   1.156   3.480   4.792
 8243SOL     OW25627   0.692   4.544   5.312
 8243SOL    HW125628   0.711   4.460   5.363
 8243SOL    HW225629   0.606   4.533   5.262
 8244SOL     OW25630   0.913   0.435   3.715
 8244SOL    HW125631   0.929   0.338   3.699
 8244SOL    HW225632   1.000   0.485   3.710
 8245SOL     OW25633   5.152   1.260   4.016
 8245SOL    HW125634   5.242   1.293   3.987
 8245SOL    HW225635   5.099   1.336   4.052
 8246SOL     OW25636   0.991   3.951   6.530
 8246SOL    HW125637   0.955   3.982   6.443
 8246SOL    HW225638   1.072   4.005   6.554
 8247SOL     OW25639   3.078   5.015   3.373
 8247SOL    HW125640   3.035   4.966   3.448
 8247SOL    HW225641   3.014   5.021   3.296
 8248SOL     OW25642   0.508   5.783   2.833
 8248SOL    HW125643   0.524   5.716   2.905
 8248SOL    HW225644   0.459   5.740   2.757
 8249SOL     OW25645   1.806   1.886   6.085
 8249SOL    HW125646   1.712   1.858   6.100
 8249SOL    HW225647   1.820   1.978   6.122
 8250SOL     OW25648   1.961   1.990   6.393
 8250SOL    HW125649   1.960   2.066   6.328
 8250SOL    HW225650   1.976   1.904   6.344
 8251SOL     OW25651   7.020   2.993   4.984
 8251SOL    HW125652   7.018   3.083   5.027
 8251SOL    HW225653   0.009   3.004   4.885
 8252SOL     OW25654   2.271   2.474   6.336
 8252SOL    HW125655   2.275   2.572   6.358
 8252SOL    HW225656   2.238   2.462   6.243
 8253SOL     OW25657   3.570   5.588   6.925
 8253SOL    HW125658   3.634   5.637   6.866
 8253SOL    HW225659   3.556   5.496   6.889
 8254SOL     OW25660   5.635   5.103   0.752
 8254SOL    HW125661   5.709   5.037   0.767
 8254SOL    HW225662   5.674   5.192   0.728
 8255SOL     OW25663   0.159   0.000   5.674
 8255SOL    HW125664   0.091   6.971   5.623
 8255SOL    HW225665   0.178   0.087   5.628
 8256SOL     OW25666   1.316   6.320   2.772
 8256SOL    HW125667   1.325   6.281   2.681
 8256SOL    HW225668   1.222   6.347   2.789
 8257SOL     OW25669   5.006   4.284   4.202
 8257SOL    HW125670   4.996   4.320   4.109
 8257SOL    HW225671   4.971   4.190   4.205
 8258SOL     OW25672   6.141   3.352   1.630
 8258SOL    HW125673   6.159   3.407   1.712
 8258SOL    HW225674   6.057   3.383   1.586
 8259SOL     OW25675   4.717   2.581   4.293
 8259SOL    HW125676   4.740   2.679   4.294
 8259SOL    HW225677   4.661   2.559   4.372
 8260SOL     OW25678   2.594   6.909   0.694
 8260SOL    HW125679   2.666   6.886   0.759
 8260SOL    HW225680   2.528   6.969   0.738
 8261SOL     OW25681   5.093   6.863   3.493
 8261SOL    HW125682   5.126   6.801   3.564
 8261SOL    HW225683   5.123   6.956   3.513
 8262SOL     OW25684   0.414   4.061   1.332
 8262SOL    HW125685   0.486   4.082   1.398
 8262SOL    HW225686   0.456   4.027   1.248
 8263SOL     OW25687   6.814   2.253   0.225
 8263SOL    HW125688   6.779   2.251   0.318
 8263SOL    HW225689   6.738   2.253   0.160
 8264SOL     OW25690   1.690   6.596   2.553
 8264SOL    HW125691   1.650   6.582   2.644
 8264SOL    HW225692   1.619   6.583   2.483
 8265SOL     OW25693   5.102   0.752   0.550
 8265SOL    HW125694   5.011   0.721   0.522
 8265SOL    HW225695   5.164   0.751   0.471
 8266SOL     OW25696   2.367   6.740   3.763
 8266SOL    HW125697   2.387   6.668   3.696
 8266SOL    HW225698   2.403   6.713   3.852
 8267SOL     OW25699   1.227   4.075   2.692
 8267SOL    HW125700   1.246   4.139   2.768
 8267SOL    HW225701   1.305   4.075   2.630
 8268SOL     OW25702   3.336   3.798   6.805
 8268SOL    HW125703   3.293   3.812   6.716
 8268SOL    HW225704   3.287   3.852   6.874
 8269SOL     OW25705   4.230   2.235   2.909
 8269SOL    HW125706   4.302   2.288   2.953
 8269SOL    HW225707   4.225   2.259   2.812
 8270SOL     OW25708   3.840   6.901   5.511
 8270SOL    HW125709   3.902   6.977   5.531
 8270SOL    HW225710   3.747   6.937   5.497
 8271SOL     OW25711   4.889   6.339   4.470
 8271SOL    HW125712   4.807   6.319   4.416
 8271SOL    HW225713   4.908   6.262   4.530
 8272SOL     OW25714   0.453   7.018   2.069
 8272SOL    HW125715   0.430   0.038   1.982
 8272SOL    HW225716   0.525   0.048   2.114
 8273SOL     OW25717   2.901   6.667   6.888
 8273SOL    HW125718   2.867   6.722   6.964
 8273SOL    HW225719   2.980   6.614   6.919
 8274SOL     OW25720   5.015   5.552   6.873
 8274SOL    HW125721   5.017   5.517   6.779
 8274SOL    HW225722   5.088   5.619   6.885
 8275SOL     OW25723   6.566   0.555   4.231
 8275SOL    HW125724   6.632   0.627   4.254
 8275SOL    HW225725   6.492   0.555   4.298
 8276SOL     OW25726   0.027   2.891   6.784
 8276SOL    HW125727   0.089   2.861   6.712
 8276SOL    HW225728   6.983   2.819   6.803
 8277SOL     OW25729   1.092   6.178   6.062
 8277SOL    HW125730   1.077   6.104   6.128
 8277SOL    HW225731   1.164   6.238   6.097
 8278SOL     OW25732   3.533   2.033   6.521
 8278SOL    HW125733   3.580   2.078   6.597
 8278SOL    HW225734   3.435   2.029   6.541
 8279SOL     OW25735   4.428   6.132   6.299
 8279SOL    HW125736   4.328   6.124   6.289
 8279SOL    HW225737   4.470   6.141   6.209
 8280SOL     OW25738   5.200   2.545   0.855
 8280SOL    HW125739   5.261   2.515   0.782
 8280SOL    HW225740   5.176   2.641   0.842
 8281SOL     OW25741   1.717   5.128   0.496
 8281SOL    HW125742   1.742   5.220   0.525
 8281SOL    HW225743   1.761   5.107   0.409
 8282SOL     OW25744   2.898   2.808   1.101
 8282SOL    HW125745   2.965   2.858   1.156
 8282SOL    HW225746   2.935   2.793   1.009
 8283SOL     OW25747   0.336   5.190   3.706
 8283SOL    HW125748   0.388   5.110   3.736
 8283SOL    HW225749   0.390   5.273   3.720
 8284SOL     OW25750   2.449   1.970   2.191
 8284SOL    HW125751   2.478   1.886   2.145
 8284SOL    HW225752   2.438   1.952   2.288
 8285SOL     OW25753   3.328   4.403   5.864
 8285SOL    HW125754   3.355   4.437   5.954
 8285SOL    HW225755   3.228   4.402   5.858
 8286SOL     OW25756   5.380   1.111   4.244
 8286SOL    HW125757   5.382   1.062   4.157
 8286SOL    HW225758   5.461   1.169   4.251
 8287SOL     OW25759   1.340   0.581   3.575
 8287SOL    HW125760   1.359   0.553   3.480
 8287SOL    HW225761   1.421   0.561   3.631
 8288SOL     OW25762   1.586   1.532   2.504
 8288SOL    HW125763   1.587   1.613   2.563
 8288SOL    HW225764   1.661   1.471   2.530
 8289SOL     OW25765   6.486   2.058   5.900
 8289SOL    HW125766   6.473   1.989   5.972
 8289SOL    HW225767   6.530   2.016   5.821
 8290SOL     OW25768   3.527   2.537   1.721
 8290SOL    HW125769   3.598   2.486   1.770
 8290SOL    HW225770   3.548   2.540   1.624
 8291SOL     OW25771   5.836   6.875   6.122
 8291SOL    HW125772   5.907   6.883   6.053
 8291SOL    HW225773   5.757   6.930   6.096
 8292SOL     OW25774   1.216   4.227   4.863
 8292SOL    HW125775   1.117   4.230   4.855
 8292SOL    HW225776   1.242   4.154   4.927
 8293SOL     OW25777   2.389   5.321   2.431
 8293SOL    HW125778   2.320   5.265   2.387
 8293SOL    HW225779   2.439   5.374   2.363
 8294SOL     OW25780   6.439   3.442   6.536
 8294SOL    HW125781   6.430   3.476   6.630
 8294SOL    HW225782   6.348   3.427   6.497
 8295SOL     OW25783   5.103   4.037   2.735
 8295SOL    HW125784   5.080   4.094   2.656
 8295SOL    HW225785   5.019   3.998   2.773
 8296SOL     OW25786   3.502   5.983   0.841
 8296SOL    HW125787   3.471   5.897   0.800
 8296SOL    HW225788   3.439   6.056   0.816
 8297SOL     OW25789   6.680   4.503   2.949
 8297SOL    HW125790   6.613   4.465   2.885
 8297SOL    HW225791   6.635   4.523   3.037
 8298SOL     OW25792   0.114   0.751   6.750
 8298SOL    HW125793   0.117   0.851   6.758
 8298SOL    HW225794   0.206   0.714   6.758
 8299SOL     OW25795   0.343   3.916   1.797
 8299SOL    HW125796   0.247   3.926   1.767
 8299SOL    HW225797   0.353   3.951   1.890
 8300SOL     OW25798   6.055   4.962   3.340
 8300SOL    HW125799   6.066   5.060   3.357
 8300SOL    HW225800   6.136   4.913   3.373
 8301SOL     OW25801   3.773   6.545   0.544
 8301SOL    HW125802   3.826   6.596   0.612
 8301SOL    HW225803   3.724   6.470   0.588
 8302SOL     OW25804   3.381   6.105   4.520
 8302SOL    HW125805   3.348   6.105   4.426
 8302SOL    HW225806   3.443   6.183   4.533
 8303SOL     OW25807   6.360   7.020   2.532
 8303SOL    HW125808   6.271   0.027   2.566
 8303SOL    HW225809   6.423   7.011   2.609
 8304SOL     OW25810   6.299   3.640   3.554
 8304SOL    HW125811   6.287   3.730   3.595
 8304SOL    HW225812   6.222   3.581   3.580
 8305SOL     OW25813   4.610   5.391   4.243
 8305SOL    HW125814   4.551   5.382   4.323
 8305SOL    HW225815   4.689   5.331   4.253
 8306SOL     OW25816   5.879   0.943   2.054
 8306SOL    HW125817   5.960   0.906   2.098
 8306SOL    HW225818   5.904   1.027   2.005
 8307SOL     OW25819   1.638   4.710   2.411
 8307SOL    HW125820   1.685   4.782   2.359
 8307SOL    HW225821   1.678   4.621   2.388
 8308SOL     OW25822   0.617   5.081   7.003
 8308SOL    HW125823   0.576   5.082   6.912
 8308SOL    HW225824   0.566   5.018   0.040
 8309SOL     OW25825   6.811   4.475   4.708
 8309SOL    HW125826   6.739   4.479   4.640
 8309SOL    HW225827   6.770   4.473   4.800
 8310SOL     OW25828   0.652   6.745   0.461
 8310SOL    HW125829   0.685   6.798   0.540
 8310SOL    HW225830   0.611   6.660   0.493
 8311SOL     OW25831   5.679   6.687   4.267
 8311SOL    HW125832   5.609   6.661   4.201
 8311SOL    HW225833   5.660   6.778   4.303
 8312SOL     OW25834   4.988   0.648   6.788
 8312SOL    HW125835   4.991   0.673   6.885
 8312SOL    HW225836   4.904   0.682   6.747
 8313SOL     OW25837   4.635   0.891   4.523
 8313SOL    HW125838   4.617   0.988   4.538
 8313SOL    HW225839   4.587   0.837   4.592
 8314SOL     OW25840   5.054   6.119   5.577
 8314SOL    HW125841   4.973   6.176   5.591
 8314SOL    HW225842   5.041   6.031   5.624
 8315SOL     OW25843   3.413   2.886   4.638
 8315SOL    HW125844   3.392   2.973   4.593
 8315SOL    HW225845   3.402   2.897   4.737
 8316SOL     OW25846   1.090   2.695   0.370
 8316SOL    HW125847   1.006   2.673   0.322
 8316SOL    HW225848   1.147   2.613   0.378
 8317SOL     OW25849   1.710   2.065   4.450
 8317SOL    HW125850   1.741   2.147   4.498
 8317SOL    HW225851   1.763   2.052   4.367
 8318SOL     OW25852   3.572   0.093   6.678
 8318SOL    HW125853   3.570   0.186   6.641
 8318SOL    HW225854   3.665   0.070   6.705
 8319SOL     OW25855   2.061   0.248   6.043
 8319SOL    HW125856   2.024   0.304   6.117
 8319SOL    HW225857   1.986   0.218   5.983
 8320SOL     OW25858   3.407   3.634   4.633
 8320SOL    HW125859   3.385   3.654   4.728
 8320SOL    HW225860   3.489   3.685   4.606
 8321SOL     OW25861   6.884   6.980   0.398
 8321SOL    HW125862   6.848   6.946   0.311
 8321SOL    HW225863   6.872   6.910   0.468
 8322SOL     OW25864   6.861   0.963   0.141
 8322SOL    HW125865   6.903   0.875   0.119
 8322SOL    HW225866   6.791   0.951   0.211
 8323SOL     OW25867   4.701   4.483   0.954
 8323SOL    HW125868   4.604   4.491   0.932
 8323SOL    HW225869   4.715   4.502   1.051
 8324SOL     OW25870   6.700   6.312   6.472
 8324SOL    HW125871   6.603   6.304   6.448
 8324SOL    HW225872   6.717   6.402   6.511
 8325SOL     OW25873   1.281   5.607   5.341
 8325SOL    HW125874   1.361   5.576   5.393
 8325SOL    HW225875   1.242   5.529   5.292
 8326SOL     OW25876   2.183   3.555   1.173
 8326SOL    HW125877   2.150   3.499   1.097
 8326SOL    HW225878   2.180   3.501   1.257
 8327SOL     OW25879   0.874   0.471   5.358
 8327SOL    HW125880   0.953   0.420   5.391
 8327SOL    HW225881   0.867   0.462   5.258
 8328SOL     OW25882   0.986   6.755   6.192
 8328SOL    HW125883   0.902   6.717   6.154
 8328SOL    HW225884   0.964   6.834   6.249
 8329SOL     OW25885   0.904   3.013   5.110
 8329SOL    HW125886   0.978   3.033   5.175
 8329SOL    HW225887   0.886   3.094   5.055
 8330SOL     OW25888   3.766   0.826   6.733
 8330SOL    HW125889   3.763   0.830   6.832
 8330SOL    HW225890   3.861   0.830   6.702
 8331SOL     OW25891   1.796   2.331   0.210
 8331SOL    HW125892   1.784   2.234   0.229
 8331SOL    HW225893   1.757   2.385   0.284
 8332SOL     OW25894   5.399   4.595   2.154
 8332SOL    HW125895   5.357   4.526   2.095
 8332SOL    HW225896   5.401   4.683   2.106
 8333SOL     OW25897   2.687   4.933   1.302
 8333SOL    HW125898   2.621   4.858   1.311
 8333SOL    HW225899   2.776   4.904   1.338
 8334SOL     OW25900   3.181   2.219   6.315
 8334SOL    HW125901   3.134   2.267   6.389
 8334SOL    HW225902   3.130   2.230   6.230
 8335SOL     OW25903   5.369   3.077   6.080
 8335SOL    HW125904   5.275   3.100   6.106
 8335SOL    HW225905   5.388   3.115   5.989
 8336SOL     OW25906   0.757   3.633   3.193
 8336SOL    HW125907   0.808   3.547   3.193
 8336SOL    HW225908   0.738   3.662   3.099
 8337SOL     OW25909   1.063   0.893   4.494
 8337SOL    HW125910   1.052   0.910   4.591
 8337SOL    HW225911   0.983   0.845   4.458
 8338SOL     OW25912   3.711   4.856   2.348
 8338SOL    HW125913   3.721   4.758   2.332
 8338SOL    HW225914   3.615   4.882   2.339
 8339SOL     OW25915   6.591   0.522   0.474
 8339SOL    HW125916   6.625   0.529   0.380
 8339SOL    HW225917   6.667   0.537   0.537
 8340SOL     OW25918   5.158   2.282   0.803
 8340SOL    HW125919   5.095   2.228   0.859
 8340SOL    HW225920   5.167   2.374   0.841
 8341SOL     OW25921   3.787   0.286   0.125
 8341SOL    HW125922   3.719   0.296   0.052
 8341SOL    HW225923   3.834   0.373   0.140
 8342SOL     OW25924   4.100   6.477   6.990
 8342SOL    HW125925   4.087   6.546   6.919
 8342SOL    HW225926   4.014   6.428   7.005
 8343SOL     OW25927   6.948   4.093   3.837
 8343SOL    HW125928   6.918   4.017   3.779
 8343SOL    HW225929   7.009   4.153   3.786
 8344SOL     OW25930   0.813   5.431   4.840
 8344SOL    HW125931   0.856   5.343   4.858
 8344SOL    HW225932   0.864   5.504   4.885
 8345SOL     OW25933   4.537   0.654   2.460
 8345SOL    HW125934   4.546   0.742   2.413
 8345SOL    HW225935   4.600   0.651   2.537
 8346SOL     OW25936   4.264   3.210   5.764
 8346SOL    HW125937   4.222   3.260   5.839
 8346SOL    HW225938   4.203   3.211   5.684
 8347SOL     OW25939   2.291   0.400   6.019
 8347SOL    HW125940   2.360   0.363   6.081
 8347SOL    HW225941   2.219   0.332   6.005
 8348SOL     OW25942   3.856   6.363   1.700
 8348SOL    HW125943   3.772   6.366   1.645
 8348SOL    HW225944   3.846   6.423   1.779
 8349SOL     OW25945   1.082   6.618   2.297
 8349SOL    HW125946   1.006   6.562   2.263
 8349SOL    HW225947   1.143   6.562   2.353
 8350SOL     OW25948   2.627   0.276   6.548
 8350SOL    HW125949   2.571   0.214   6.492
 8350SOL    HW225950   2.694   0.322   6.491
 8351SOL     OW25951   0.075   4.664   4.068
 8351SOL    HW125952   0.016   4.584   4.077
 8351SOL    HW225953   0.019   4.745   4.047
 8352SOL     OW25954   2.780   5.616   2.034
 8352SOL    HW125955   2.709   5.614   2.104
 8352SOL    HW225956   2.744   5.581   1.948
 8353SOL     OW25957   1.026   3.631   2.156
 8353SOL    HW125958   1.090   3.601   2.227
 8353SOL    HW225959   0.981   3.551   2.116
 8354SOL     OW25960   3.443   0.186   4.266
 8354SOL    HW125961   3.357   0.217   4.306
 8354SOL    HW225962   3.429   0.100   4.217
 8355SOL     OW25963   1.692   6.687   5.568
 8355SOL    HW125964   1.746   6.604   5.586
 8355SOL    HW225965   1.655   6.722   5.654
 8356SOL     OW25966   1.859   5.599   1.533
 8356SOL    HW125967   1.935   5.536   1.547
 8356SOL    HW225968   1.870   5.679   1.593
 8357SOL     OW25969   3.897   5.642   5.541
 8357SOL    HW125970   3.943   5.553   5.535
 8357SOL    HW225971   3.814   5.640   5.484
 8358SOL     OW25972   0.952   2.357   5.431
 8358SOL    HW125973   0.867   2.400   5.402
 8358SOL    HW225974   1.004   2.420   5.489
 8359SOL     OW25975   3.280   1.504   5.046
 8359SOL    HW125976   3.216   1.531   5.118
 8359SOL    HW225977   3.294   1.405   5.049
 8360SOL     OW25978   5.132   6.072   0.319
 8360SOL    HW125979   5.166   6.055   0.226
 8360SOL    HW225980   5.136   6.170   0.338
 8361SOL     OW25981   2.620   7.008   0.243
 8361SOL    HW125982   2.625   0.053   0.169
 8361SOL    HW225983   2.667   6.924   0.215
 8362SOL     OW25984   6.907   3.299   0.673
 8362SOL    HW125985   6.847   3.315   0.751
 8362SOL    HW225986   6.854   3.259   0.598
 8363SOL     OW25987   3.449   2.141   0.365
 8363SOL    HW125988   3.541   2.171   0.390
 8363SOL    HW225989   3.399   2.217   0.323
 8364SOL     OW25990   0.496   2.974   3.831
 8364SOL    HW125991   0.469   2.880   3.849
 8364SOL    HW225992   0.567   3.002   3.897
 8365SOL     OW25993   2.577   2.491   2.347
 8365SOL    HW125994   2.575   2.532   2.255
 8365SOL    HW225995   2.659   2.435   2.356
 8366SOL     OW25996   4.645   5.596   1.096
 8366SOL    HW125997   4.721   5.531   1.103
 8366SOL    HW225998   4.603   5.588   1.006
 8367SOL     OW25999   4.413   4.931   4.984
 8367SOL    HW126000   4.463   5.010   4.948
 8367SOL    HW226001   4.364   4.958   5.067
 8368SOL     OW26002   1.266   6.198   6.914
 8368SOL    HW126003   1.298   6.201   7.009
 8368SOL    HW226004   1.208   6.118   6.901
 8369SOL     OW26005   1.285   1.510   0.629
 8369SOL    HW126006   1.278   1.426   0.576
 8369SOL    HW226007   1.370   1.557   0.607
 8370SOL     OW26008   2.933   2.066   0.295
 8370SOL    HW126009   2.983   1.999   0.349
 8370SOL    HW226010   2.897   2.023   0.212
 8371SOL     OW26011   1.391   3.358   5.662
 8371SOL    HW126012   1.456   3.292   5.698
 8371SOL    HW226013   1.327   3.385   5.734
 8372SOL     OW26014   1.905   6.414   2.174
 8372SOL    HW126015   1.823   6.359   2.161
 8372SOL    HW226016   1.948   6.389   2.261
 8373SOL     OW26017   0.649   0.954   4.256
 8373SOL    HW126018   0.584   1.004   4.314
 8373SOL    HW226019   0.689   1.016   4.189
 8374SOL     OW26020   1.228   1.157   4.473
 8374SOL    HW126021   1.150   1.215   4.450
 8374SOL    HW226022   1.197   1.080   4.528
 8375SOL     OW26023   4.104   1.079   5.573
 8375SOL    HW126024   4.134   1.112   5.483
 8375SOL    HW226025   4.094   1.156   5.635
 8376SOL     OW26026   1.892   0.722   3.226
 8376SOL    HW126027   1.950   0.664   3.282
 8376SOL    HW226028   1.901   0.817   3.255
 8377SOL     OW26029   5.585   5.685   6.643
 8377SOL    HW126030   5.514   5.627   6.682
 8377SOL    HW226031   5.671   5.670   6.690
 8378SOL     OW26032   5.303   5.626   3.299
 8378SOL    HW126033   5.320   5.544   3.353
 8378SOL    HW226034   5.391   5.663   3.267
 8379SOL     OW26035   5.553   1.872   2.077
 8379SOL    HW126036   5.635   1.868   2.134
 8379SOL    HW226037   5.478   1.823   2.122
 8380SOL     OW26038   6.953   5.433   6.600
 8380SOL    HW126039   6.904   5.420   6.514
 8380SOL    HW226040   7.010   5.514   6.593
 8381SOL     OW26041   0.178   1.989   2.612
 8381SOL    HW126042   0.112   2.001   2.538
 8381SOL    HW226043   0.239   2.068   2.614
 8382SOL     OW26044   2.757   0.139   0.074
 8382SOL    HW126045   2.737   0.084   7.014
 8382SOL    HW226046   2.765   0.235   0.048
 8383SOL     OW26047   2.930   6.833   4.484
 8383SOL    HW126048   2.900   6.826   4.579
 8383SOL    HW226049   2.908   6.749   4.435
 8384SOL     OW26050   0.046   1.894   1.013
 8384SOL    HW126051   7.002   1.824   0.985
 8384SOL    HW226052   0.065   1.884   1.111
 8385SOL     OW26053   4.694   3.332   0.764
 8385SOL    HW126054   4.716   3.248   0.715
 8385SOL    HW226055   4.610   3.319   0.817
 8386SOL     OW26056   2.133   6.501   1.559
 8386SOL    HW126057   2.221   6.525   1.599
 8386SOL    HW226058   2.077   6.453   1.626
 8387SOL     OW26059   2.195   1.574   0.722
 8387SOL    HW126060   2.219   1.514   0.646
 8387SOL    HW226061   2.148   1.655   0.687
 8388SOL     OW26062   2.900   6.761   0.560
 8388SOL    HW126063   2.816   6.711   0.579
 8388SOL    HW226064   2.964   6.749   0.635
 8389SOL     OW26065   1.001   3.039   4.370
 8389SOL    HW126066   1.046   3.001   4.289
 8389SOL    HW226067   1.041   3.128   4.391
 8390SOL     OW26068   2.614   0.795   6.141
 8390SOL    HW126069   2.689   0.812   6.077
 8390SOL    HW226070   2.535   0.849   6.114
 8391SOL     OW26071   5.236   5.507   2.180
 8391SOL    HW126072   5.176   5.559   2.241
 8391SOL    HW226073   5.323   5.556   2.170
 8392SOL     OW26074   6.180   5.665   5.045
 8392SOL    HW126075   6.274   5.632   5.056
 8392SOL    HW226076   6.121   5.589   5.020
 8393SOL     OW26077   6.678   6.573   3.442
 8393SOL    HW126078   6.672   6.492   3.383
 8393SOL    HW226079   6.599   6.575   3.503
 8394SOL     OW26080   1.060   1.558   2.857
 8394SOL    HW126081   0.993   1.584   2.926
 8394SOL    HW226082   1.014   1.542   2.770
 8395SOL     OW26083   0.439   6.033   4.419
 8395SOL    HW126084   0.412   6.123   4.450
 8395SOL    HW226085   0.493   5.987   4.490
 8396SOL     OW26086   4.690   4.123   2.666
 8396SOL    HW126087   4.618   4.055   2.656
 8396SOL    HW226088   4.728   4.145   2.576
 8397SOL     OW26089   1.786   6.339   2.520
 8397SOL    HW126090   1.761   6.436   2.527
 8397SOL    HW226091   1.885   6.331   2.508
 8398SOL     OW26092   3.998   1.578   6.924
 8398SOL    HW126093   3.905   1.574   6.889
 8398SOL    HW226094   3.998   1.622   7.014
 8399SOL     OW26095   5.943   5.814   0.872
 8399SOL    HW126096   5.956   5.716   0.884
 8399SOL    HW226097   6.021   5.853   0.823
 8400SOL     OW26098   0.139   0.777   2.907
 8400SOL    HW126099   0.070   0.849   2.900
 8400SOL    HW226100   0.226   0.811   2.872
 8401SOL     OW26101   4.422   3.541   6.004
 8401SOL    HW126102   4.406   3.543   5.905
 8401SOL    HW226103   4.407   3.448   6.039
 8402SOL     OW26104   3.724   2.079   6.181
 8402SOL    HW126105   3.692   2.014   6.112
 8402SOL    HW226106   3.647   2.136   6.210
 8403SOL     OW26107   1.227   1.590   3.798
 8403SOL    HW126108   1.311   1.556   3.757
 8403SOL    HW226109   1.199   1.675   3.753
 8404SOL     OW26110   4.775   6.278   5.401
 8404SOL    HW126111   4.794   6.308   5.494
 8404SOL    HW226112   4.754   6.358   5.344
 8405SOL     OW26113   1.187   2.189   6.605
 8405SOL    HW126114   1.180   2.262   6.538
 8405SOL    HW226115   1.244   2.115   6.568
 8406SOL     OW26116   4.218   1.593   0.980
 8406SOL    HW126117   4.143   1.582   1.045
 8406SOL    HW226118   4.232   1.690   0.961
 8407SOL     OW26119   5.795   4.465   4.009
 8407SOL    HW126120   5.778   4.500   3.917
 8407SOL    HW226121   5.875   4.509   4.048
 8408SOL     OW26122   4.984   0.314   3.638
 8408SOL    HW126123   4.987   0.400   3.588
 8408SOL    HW226124   4.890   0.281   3.643
 8409SOL     OW26125   0.897   2.114   4.041
 8409SOL    HW126126   0.867   2.021   4.062
 8409SOL    HW226127   0.996   2.122   4.051
 8410SOL     OW26128   5.357   0.060   1.854
 8410SOL    HW126129   5.434   0.027   1.800
 8410SOL    HW226130   5.321   0.144   1.812
 8411SOL     OW26131   1.502   5.400   4.132
 8411SOL    HW126132   1.541   5.477   4.083
 8411SOL    HW226133   1.574   5.336   4.159
 8412SOL     OW26134   4.363   2.331   1.239
 8412SOL    HW126135   4.378   2.356   1.334
 8412SOL    HW226136   4.448   2.342   1.187
 8413SOL     OW26137   4.090   4.924   0.792
 8413SOL    HW126138   4.144   5.004   0.766
 8413SOL    HW226139   4.007   4.920   0.736
 8414SOL     OW26140   3.688   6.841   2.574
 8414SOL    HW126141   3.724   6.931   2.600
 8414SOL    HW226142   3.713   6.774   2.643
 8415SOL     OW26143   7.016   4.845   3.694
 8415SOL    HW126144   0.060   4.906   3.738
 8415SOL    HW226145   0.012   4.751   3.722
 8416SOL     OW26146   5.366   4.465   2.539
 8416SOL    HW126147   5.371   4.417   2.452
 8416SOL    HW226148   5.304   4.542   2.532
 8417SOL     OW26149   2.495   6.284   5.617
 8417SOL    HW126150   2.462   6.207   5.562
 8417SOL    HW226151   2.463   6.370   5.577
 8418SOL     OW26152   5.866   5.990   2.672
 8418SOL    HW126153   5.944   6.029   2.624
 8418SOL    HW226154   5.784   6.000   2.615
 8419SOL     OW26155   5.027   0.185   1.891
 8419SOL    HW126156   4.934   0.184   1.926
 8419SOL    HW226157   5.067   0.276   1.904
 8420SOL     OW26158   4.501   0.248   0.238
 8420SOL    HW126159   4.468   0.241   0.144
 8420SOL    HW226160   4.546   0.163   0.264
 8421SOL     OW26161   2.006   0.287   1.725
 8421SOL    HW126162   2.041   0.261   1.635
 8421SOL    HW226163   2.040   0.221   1.793
 8422SOL     OW26164   5.334   6.320   0.478
 8422SOL    HW126165   5.392   6.249   0.438
 8422SOL    HW226166   5.386   6.371   0.547
 8423SOL     OW26167   3.695   4.858   0.129
 8423SOL    HW126168   3.651   4.884   0.043
 8423SOL    HW226169   3.749   4.934   0.163
 8424SOL     OW26170   3.693   1.894   2.484
 8424SOL    HW126171   3.759   1.895   2.410
 8424SOL    HW226172   3.604   1.865   2.450
 8425SOL     OW26173   6.769   5.335   1.404
 8425SOL    HW126174   6.820   5.399   1.348
 8425SOL    HW226175   6.745   5.378   1.491
 8426SOL     OW26176   3.675   3.189   3.666
 8426SOL    HW126177   3.696   3.177   3.763
 8426SOL    HW226178   3.742   3.139   3.611
 8427SOL     OW26179   1.801   4.472   6.345
 8427SOL    HW126180   1.836   4.535   6.414
 8427SOL    HW226181   1.832   4.502   6.254
 8428SOL     OW26182   6.873   4.279   1.935
 8428SOL    HW126183   6.971   4.297   1.937
 8428SOL    HW226184   6.842   4.273   1.840
 8429SOL     OW26185   2.838   4.821   4.265
 8429SOL    HW126186   2.817   4.755   4.193
 8429SOL    HW226187   2.803   4.787   4.353
 8430SOL     OW26188   4.767   5.436   2.540
 8430SOL    HW126189   4.734   5.459   2.632
 8430SOL    HW226190   4.852   5.383   2.548
 8431SOL     OW26191   3.051   4.800   1.581
 8431SOL    HW126192   2.981   4.767   1.518
 8431SOL    HW226193   3.102   4.722   1.617
 8432SOL     OW26194   4.545   5.379   6.102
 8432SOL    HW126195   4.532   5.476   6.078
 8432SOL    HW226196   4.614   5.339   6.042
 8433SOL     OW26197   0.969   2.471   6.597
 8433SOL    HW126198   0.964   2.552   6.656
 8433SOL    HW226199   1.017   2.495   6.512
 8434SOL     OW26200   3.795   6.670   5.374
 8434SOL    HW126201   3.770   6.673   5.277
 8434SOL    HW226202   3.812   6.763   5.406
 8435SOL     OW26203   4.511   2.132   1.498
 8435SOL    HW126204   4.448   2.061   1.466
 8435SOL    HW226205   4.461   2.218   1.508
 8436SOL     OW26206   3.612   5.089   2.982
 8436SOL    HW126207   3.575   5.027   3.051
 8436SOL    HW226208   3.634   5.037   2.900
 8437SOL     OW26209   0.187   0.768   1.400
 8437SOL    HW126210   0.163   0.832   1.474
 8437SOL    HW226211   0.128   0.687   1.406
 8438SOL     OW26212   2.782   4.746   2.631
 8438SOL    HW126213   2.764   4.825   2.572
 8438SOL    HW226214   2.767   4.662   2.580
 8439SOL     OW26215   6.396   5.519   1.941
 8439SOL    HW126216   6.485   5.474   1.929
 8439SOL    HW226217   6.399   5.610   1.900
 8440SOL     OW26218   0.275   0.839   2.089
 8440SOL    HW126219   0.221   0.796   2.017
 8440SOL    HW226220   0.308   0.928   2.058
 8441SOL     OW26221   5.781   6.178   6.533
 8441SOL    HW126222   5.766   6.126   6.618
 8441SOL    HW226223   5.854   6.134   6.480
 8442SOL     OW26224   3.389   3.548   6.912
 8442SOL    HW126225   3.473   3.523   6.863
 8442SOL    HW226226   3.357   3.637   6.881
 8443SOL     OW26227   1.250   0.513   3.321
 8443SOL    HW126228   1.231   0.513   3.223
 8443SOL    HW226229   1.170   0.548   3.370
 8444SOL     OW26230   3.526   6.307   3.713
 8444SOL    HW126231   3.551   6.225   3.662
 8444SOL    HW226232   3.428   6.306   3.733
 8445SOL     OW26233   3.429   4.904   2.718
 8445SOL    HW126234   3.360   4.834   2.735
 8445SOL    HW226235   3.387   4.995   2.719
 8446SOL     OW26236   5.220   6.077   2.717
 8446SOL    HW126237   5.311   6.118   2.724
 8446SOL    HW226238   5.159   6.120   2.783
 8447SOL     OW26239   5.179   2.375   1.856
 8447SOL    HW126240   5.269   2.331   1.855
 8447SOL    HW226241   5.187   2.467   1.895
 8448SOL     OW26242   6.983   3.578   5.979
 8448SOL    HW126243   6.938   3.668   5.979
 8448SOL    HW226244   6.940   3.520   5.909
 8449SOL     OW26245   0.515   3.471   4.775
 8449SOL    HW126246   0.600   3.418   4.770
 8449SOL    HW226247   0.446   3.419   4.826
 8450SOL     OW26248   1.755   6.568   2.882
 8450SOL    HW126249   1.786   6.659   2.857
 8450SOL    HW226250   1.658   6.558   2.860
 8451SOL     OW26251   3.893   2.700   0.620
 8451SOL    HW126252   3.831   2.712   0.697
 8451SOL    HW226253   3.904   2.787   0.572
 8452SOL     OW26254   6.997   0.079   1.690
 8452SOL    HW126255   6.899   0.097   1.701
 8452SOL    HW226256   0.026   0.162   1.708
 8453SOL     OW26257   0.183   4.669   6.227
 8453SOL    HW126258   0.271   4.623   6.210
 8453SOL    HW226259   0.200   4.765   6.251
 8454SOL     OW26260   1.527   6.533   2.342
 8454SOL    HW126261   1.579   6.552   2.259
 8454SOL    HW226262   1.454   6.467   2.321
 8455SOL     OW26263   5.016   1.534   1.032
 8455SOL    HW126264   5.062   1.590   1.101
 8455SOL    HW226265   4.925   1.507   1.066
 8456SOL     OW26266   5.784   5.750   3.927
 8456SOL    HW126267   5.766   5.834   3.979
 8456SOL    HW226268   5.882   5.743   3.907
 8457SOL     OW26269   6.600   6.836   5.506
 8457SOL    HW126270   6.570   6.869   5.417
 8457SOL    HW226271   6.689   6.876   5.529
 8458SOL     OW26272   1.786   1.314   6.998
 8458SOL    HW126273   1.851   1.241   6.979
 8458SOL    HW226274   1.835   1.391   0.019
 8459SOL     OW26275   3.734   6.503   2.341
 8459SOL    HW126276   3.703   6.598   2.345
 8459SOL    HW226277   3.736   6.473   2.246
 8460SOL     OW26278   4.396   2.920   6.773
 8460SOL    HW126279   4.436   2.889   6.860
 8460SOL    HW226280   4.403   2.847   6.705
 8461SOL     OW26281   0.805   3.525   1.550
 8461SOL    HW126282   0.767   3.617   1.536
 8461SOL    HW226283   0.749   3.458   1.502
 8462SOL     OW26284   4.169   3.304   0.628
 8462SOL    HW126285   4.083   3.296   0.678
 8462SOL    HW226286   4.199   3.214   0.598
 8463SOL     OW26287   6.447   2.290   0.453
 8463SOL    HW126288   6.398   2.228   0.516
 8463SOL    HW226289   6.402   2.380   0.454
 8464SOL     OW26290   6.852   3.348   6.183
 8464SOL    HW126291   6.808   3.283   6.246
 8464SOL    HW226292   6.859   3.306   6.092
 8465SOL     OW26293   2.880   2.470   0.973
 8465SOL    HW126294   2.868   2.518   1.060
 8465SOL    HW226295   2.794   2.472   0.922
 8466SOL     OW26296   5.956   0.339   5.469
 8466SOL    HW126297   6.019   0.344   5.546
 8466SOL    HW226298   5.988   0.400   5.396
 8467SOL     OW26299   4.000   0.475   0.619
 8467SOL    HW126300   4.011   0.572   0.595
 8467SOL    HW226301   3.942   0.468   0.700
 8468SOL     OW26302   6.215   3.631   6.318
 8468SOL    HW126303   6.132   3.634   6.261
 8468SOL    HW226304   6.209   3.556   6.383
 8469SOL     OW26305   3.778   2.666   6.599
 8469SOL    HW126306   3.748   2.735   6.532
 8469SOL    HW226307   3.878   2.666   6.604
 8470SOL     OW26308   0.846   5.027   0.492
 8470SOL    HW126309   0.778   4.957   0.471
 8470SOL    HW226310   0.908   5.039   0.414
 8471SOL     OW26311   3.601   0.452   5.227
 8471SOL    HW126312   3.514   0.424   5.185
 8471SOL    HW226313   3.635   0.379   5.286
 8472SOL     OW26314   6.146   1.765   5.715
 8472SOL    HW126315   6.109   1.673   5.732
 8472SOL    HW226316   6.112   1.827   5.785
 8473SOL     OW26317   4.120   4.445   0.097
 8473SOL    HW126318   4.022   4.429   0.107
 8473SOL    HW226319   4.161   4.374   0.040
 8474SOL     OW26320   2.973   3.899   2.852
 8474SOL    HW126321   2.880   3.919   2.822
 8474SOL    HW226322   2.974   3.814   2.905
 8475SOL     OW26323   0.450   3.470   1.248
 8475SOL    HW126324   0.384   3.529   1.296
 8475SOL    HW226325   0.403   3.391   1.209
 8476SOL     OW26326   6.494   0.729   0.944
 8476SOL    HW126327   6.462   0.756   1.035
 8476SOL    HW226328   6.465   0.798   0.877
 8477SOL     OW26329   5.458   5.861   1.915
 8477SOL    HW126330   5.553   5.886   1.933
 8477SOL    HW226331   5.448   5.840   1.818
 8478SOL     OW26332   0.948   0.970   5.597
 8478SOL    HW126333   0.853   0.985   5.624
 8478SOL    HW226334   0.997   1.058   5.598
 8479SOL     OW26335   1.730   2.542   1.326
 8479SOL    HW126336   1.640   2.542   1.370
 8479SOL    HW226337   1.720   2.525   1.228
 8480SOL     OW26338   5.131   2.818   6.556
 8480SOL    HW126339   5.096   2.730   6.590
 8480SOL    HW226340   5.073   2.892   6.589
 8481SOL     OW26341   3.886   2.190   4.521
 8481SOL    HW126342   3.945   2.209   4.600
 8481SOL    HW226343   3.928   2.228   4.438
 8482SOL     OW26344   4.328   1.136   0.388
 8482SOL    HW126345   4.364   1.204   0.452
 8482SOL    HW226346   4.404   1.096   0.336
 8483SOL     OW26347   3.014   6.220   3.718
 8483SOL    HW126348   2.930   6.272   3.711
 8483SOL    HW226349   3.051   6.203   3.627
 8484SOL     OW26350   6.561   5.937   4.958
 8484SOL    HW126351   6.615   5.998   4.900
 8484SOL    HW226352   6.507   5.876   4.901
 8485SOL     OW26353   4.165   2.410   6.905
 8485SOL    HW126354   4.236   2.399   6.835
 8485SOL    HW226355   4.208   2.417   6.995
 8486SOL     OW26356   1.805   1.388   2.592
 8486SOL    HW126357   1.892   1.341   2.609
 8486SOL    HW226358   1.730   1.335   2.632
 8487SOL     OW26359   4.907   1.513   6.115
 8487SOL    HW126360   4.958   1.458   6.049
 8487SOL    HW226361   4.856   1.452   6.176
 8488SOL     OW26362   5.767   5.589   3.365
 8488SOL    HW126363   5.707   5.665   3.391
 8488SOL    HW226364   5.768   5.521   3.438
 8489SOL     OW26365   6.024   0.278   1.821
 8489SOL    HW126366   5.933   0.246   1.795
 8489SOL    HW226367   6.016   0.362   1.875
 8490SOL     OW26368   3.579   6.765   5.553
 8490SOL    HW126369   3.556   6.733   5.645
 8490SOL    HW226370   3.668   6.729   5.526
 8491SOL     OW26371   2.125   5.833   2.970
 8491SOL    HW126372   2.034   5.851   2.934
 8491SOL    HW226373   2.193   5.846   2.897
 8492SOL     OW26374   6.127   4.542   3.630
 8492SOL    HW126375   6.049   4.486   3.603
 8492SOL    HW226376   6.194   4.486   3.679
 8493SOL     OW26377   2.538   1.330   0.202
 8493SOL    HW126378   2.608   1.361   0.265
 8493SOL    HW226379   2.464   1.285   0.252
 8494SOL     OW26380   5.114   4.643   2.004
 8494SOL    HW126381   5.105   4.737   2.036
 8494SOL    HW226382   5.095   4.639   1.906
 8495SOL     OW26383   0.074   5.747   0.654
 8495SOL    HW126384   0.156   5.787   0.695
 8495SOL    HW226385   7.020   5.812   0.661
 8496SOL     OW26386   5.107   1.038   2.292
 8496SOL    HW126387   5.089   1.029   2.194
 8496SOL    HW226388   5.064   1.121   2.326
 8497SOL     OW26389   0.803   0.137   3.526
 8497SOL    HW126390   0.726   0.154   3.587
 8497SOL    HW226391   0.868   0.075   3.570
 8498SOL     OW26392   5.798   0.390   3.343
 8498SOL    HW126393   5.816   0.345   3.431
 8498SOL    HW226394   5.707   0.364   3.311
 8499SOL     OW26395   0.735   5.262   0.521
 8499SOL    HW126396   0.652   5.268   0.466
 8499SOL    HW226397   0.784   5.178   0.498
 8500SOL     OW26398   1.764   6.940   5.984
 8500SOL    HW126399   1.708   6.887   5.921
 8500SOL    HW226400   1.823   6.878   6.036
 8501SOL     OW26401   0.551   2.374   0.135
 8501SOL    HW126402   0.612   2.375   0.056
 8501SOL    HW226403   0.538   2.468   0.167
 8502SOL     OW26404   0.572   2.557   0.545
 8502SOL    HW126405   0.495   2.494   0.536
 8502SOL    HW226406   0.555   2.639   0.490
 8503SOL     OW26407   6.780   5.388   5.158
 8503SOL    HW126408   6.846   5.359   5.089
 8503SOL    HW226409   6.809   5.475   5.199
 8504SOL     OW26410   1.786   5.553   2.482
 8504SOL    HW126411   1.732   5.637   2.472
 8504SOL    HW226412   1.860   5.553   2.414
 8505SOL     OW26413   5.310   3.912   2.305
 8505SOL    HW126414   5.356   3.829   2.274
 8505SOL    HW226415   5.302   3.909   2.405
 8506SOL     OW26416   1.597   1.292   6.627
 8506SOL    HW126417   1.638   1.275   6.716
 8506SOL    HW226418   1.561   1.206   6.590
 8507SOL     OW26419   4.508   0.440   4.529
 8507SOL    HW126420   4.497   0.380   4.450
 8507SOL    HW226421   4.433   0.506   4.532
 8508SOL     OW26422   4.042   1.747   5.892
 8508SOL    HW126423   3.956   1.711   5.858
 8508SOL    HW226424   4.099   1.777   5.815
 8509SOL     OW26425   5.317   6.727   3.638
 8509SOL    HW126426   5.381   6.731   3.561
 8509SOL    HW226427   5.358   6.675   3.712
 8510SOL     OW26428   5.380   2.916   3.672
 8510SOL    HW126429   5.433   2.964   3.601
 8510SOL    HW226430   5.385   2.967   3.758
 8511SOL     OW26431   6.167   3.339   2.239
 8511SOL    HW126432   6.213   3.413   2.190
 8511SOL    HW226433   6.115   3.377   2.316
 8512SOL     OW26434   2.168   0.185   3.007
 8512SOL    HW126435   2.105   0.109   2.990
 8512SOL    HW226436   2.220   0.205   2.924
 8513SOL     OW26437   6.368   6.467   0.057
 8513SOL    HW126438   6.437   6.524   0.100
 8513SOL    HW226439   6.347   6.389   0.115
 8514SOL     OW26440   3.534   6.259   2.880
 8514SOL    HW126441   3.560   6.354   2.865
 8514SOL    HW226442   3.439   6.245   2.849
 8515SOL     OW26443   5.278   2.805   1.107
 8515SOL    HW126444   5.357   2.744   1.110
 8515SOL    HW226445   5.300   2.892   1.151
 8516SOL     OW26446   6.474   1.786   2.880
 8516SOL    HW126447   6.497   1.754   2.789
 8516SOL    HW226448   6.435   1.878   2.875
 8517SOL     OW26449   0.582   2.323   6.728
 8517SOL    HW126450   0.626   2.250   6.780
 8517SOL    HW226451   0.483   2.312   6.732
 8518SOL     OW26452   4.262   5.160   0.722
 8518SOL    HW126453   4.320   5.158   0.804
 8518SOL    HW226454   4.273   5.248   0.676
 8519SOL     OW26455   1.984   5.661   2.314
 8519SOL    HW126456   1.987   5.698   2.407
 8519SOL    HW226457   2.015   5.730   2.249
 8520SOL     OW26458   3.948   0.891   0.809
 8520SOL    HW126459   3.856   0.918   0.838
 8520SOL    HW226460   4.015   0.951   0.851
 8521SOL     OW26461   0.721   6.154   6.401
 8521SOL    HW126462   0.709   6.211   6.320
 8521SOL    HW226463   0.654   6.181   6.471
 8522SOL     OW26464   1.330   6.854   2.637
 8522SOL    HW126465   1.240   6.841   2.679
 8522SOL    HW226466   1.326   6.824   2.542
 8523SOL     OW26467   2.339   0.159   5.629
 8523SOL    HW126468   2.260   0.098   5.630
 8523SOL    HW226469   2.394   0.142   5.547
 8524SOL     OW26470   1.496   3.308   4.412
 8524SOL    HW126471   1.490   3.383   4.477
 8524SOL    HW226472   1.591   3.294   4.385
 8525SOL     OW26473   6.024   3.115   2.894
 8525SOL    HW126474   6.092   3.087   2.962
 8525SOL    HW226475   6.040   3.210   2.868
 8526SOL     OW26476   2.593   2.818   1.701
 8526SOL    HW126477   2.621   2.907   1.665
 8526SOL    HW226478   2.548   2.765   1.629
 8527SOL     OW26479   4.468   0.771   4.093
 8527SOL    HW126480   4.536   0.786   4.165
 8527SOL    HW226481   4.500   0.697   4.033
 8528SOL     OW26482   4.982   3.716   6.438
 8528SOL    HW126483   4.979   3.616   6.447
 8528SOL    HW226484   4.970   3.741   6.342
 8529SOL     OW26485   1.889   5.806   0.047
 8529SOL    HW126486   1.848   5.889   0.011
 8529SOL    HW226487   1.973   5.785   7.018
 8530SOL     OW26488   1.760   4.993   5.380
 8530SOL    HW126489   1.693   4.930   5.342
 8530SOL    HW226490   1.807   4.949   5.457
 8531SOL     OW26491   5.475   3.815   3.057
 8531SOL    HW126492   5.381   3.792   3.084
 8531SOL    HW226493   5.498   3.767   2.972
 8532SOL     OW26494   3.818   4.827   5.230
 8532SOL    HW126495   3.800   4.876   5.145
 8532SOL    HW226496   3.910   4.789   5.228
 8533SOL     OW26497   2.393   0.989   4.864
 8533SOL    HW126498   2.462   1.060   4.859
 8533SOL    HW226499   2.380   0.961   4.959
 8534SOL     OW26500   0.829   3.650   2.574
 8534SOL    HW126501   0.914   3.605   2.547
 8534SOL    HW226502   0.822   3.739   2.527
 8535SOL     OW26503   0.924   2.478   4.826
 8535SOL    HW126504   0.942   2.437   4.737
 8535SOL    HW226505   1.006   2.475   4.883
 8536SOL     OW26506   6.683   2.464   5.349
 8536SOL    HW126507   6.736   2.450   5.265
 8536SOL    HW226508   6.597   2.509   5.327
 8537SOL     OW26509   5.901   0.635   0.735
 8537SOL    HW126510   5.955   0.650   0.818
 8537SOL    HW226511   5.963   0.611   0.659
 8538SOL     OW26512   6.866   0.268   5.019
 8538SOL    HW126513   6.920   0.318   5.086
 8538SOL    HW226514   6.922   0.249   4.938
 8539SOL     OW26515   6.921   2.212   2.050
 8539SOL    HW126516   6.976   2.129   2.059
 8539SOL    HW226517   6.946   2.277   2.122
 8540SOL     OW26518   2.676   1.139   0.569
 8540SOL    HW126519   2.614   1.066   0.596
 8540SOL    HW226520   2.756   1.139   0.629
 8541SOL     OW26521   2.932   1.533   5.041
 8541SOL    HW126522   2.934   1.470   5.119
 8541SOL    HW226523   2.986   1.494   4.965
 8542SOL     OW26524   2.614   4.372   6.725
 8542SOL    HW126525   2.595   4.286   6.772
 8542SOL    HW226526   2.587   4.449   6.783
 8543SOL     OW26527   2.948   2.197   5.775
 8543SOL    HW126528   2.924   2.238   5.687
 8543SOL    HW226529   2.930   2.264   5.848
 8544SOL     OW26530   4.717   3.983   5.221
 8544SOL    HW126531   4.701   3.947   5.313
 8544SOL    HW226532   4.701   4.081   5.220
 8545SOL     OW26533   3.576   6.704   4.732
 8545SOL    HW126534   3.645   6.679   4.663
 8545SOL    HW226535   3.587   6.647   4.813
 8546SOL     OW26536   5.787   0.155   1.783
 8546SOL    HW126537   5.714   0.215   1.819
 8546SOL    HW226538   5.750   0.099   1.709
 8547SOL     OW26539   6.849   6.914   5.898
 8547SOL    HW126540   6.858   6.989   5.963
 8547SOL    HW226541   6.940   6.885   5.867
 8548SOL     OW26542   0.423   2.857   6.315
 8548SOL    HW126543   0.447   2.950   6.342
 8548SOL    HW226544   0.435   2.795   6.392
 8549SOL     OW26545   1.479   0.971   3.730
 8549SOL    HW126546   1.435   1.045   3.781
 8549SOL    HW226547   1.578   0.989   3.725
 8550SOL     OW26548   0.700   4.461   6.815
 8550SOL    HW126549   0.640   4.515   6.875
 8550SOL    HW226550   0.647   4.388   6.773
 8551SOL     OW26551   1.753   2.348   6.496
 8551SOL    HW126552   1.664   2.301   6.501
 8551SOL    HW226553   1.822   2.293   6.543
 8552SOL     OW26554   3.067   1.047   2.238
 8552SOL    HW126555   3.008   1.123   2.267
 8552SOL    HW226556   3.074   0.980   2.312
 8553SOL     OW26557   4.461   2.731   1.016
 8553SOL    HW126558   4.521   2.802   0.979
 8553SOL    HW226559   4.366   2.758   1.003
 8554SOL     OW26560   0.987   6.846   1.076
 8554SOL    HW126561   0.953   6.753   1.090
 8554SOL    HW226562   1.082   6.842   1.044
 8555SOL     OW26563   4.310   1.454   3.635
 8555SOL    HW126564   4.245   1.514   3.588
 8555SOL    HW226565   4.381   1.425   3.572
 8556SOL     OW26566   2.163   6.200   6.290
 8556SOL    HW126567   2.146   6.195   6.389
 8556SOL    HW226568   2.122   6.283   6.253
 8557SOL     OW26569   6.694   0.886   0.323
 8557SOL    HW126570   6.702   0.887   0.423
 8557SOL    HW226571   6.598   0.897   0.297
 8558SOL     OW26572   2.707   5.239   3.114
 8558SOL    HW126573   2.612   5.209   3.121
 8558SOL    HW226574   2.710   5.331   3.075
 8559SOL     OW26575   0.936   5.285   1.896
 8559SOL    HW126576   1.032   5.257   1.895
 8559SOL    HW226577   0.878   5.203   1.894
 8560SOL     OW26578   2.391   5.051   1.466
 8560SOL    HW126579   2.296   5.061   1.495
 8560SOL    HW226580   2.452   5.084   1.538
 8561SOL     OW26581   3.433   0.547   2.908
 8561SOL    HW126582   3.385   0.503   2.832
 8561SOL    HW226583   3.449   0.480   2.980
 8562SOL     OW26584   3.651   1.223   0.158
 8562SOL    HW126585   3.616   1.310   0.194
 8562SOL    HW226586   3.578   1.155   0.160
 8563SOL     OW26587   1.648   5.416   2.654
 8563SOL    HW126588   1.701   5.466   2.587
 8563SOL    HW226589   1.583   5.479   2.698
 8564SOL     OW26590   3.583   6.625   0.220
 8564SOL    HW126591   3.662   6.639   0.159
 8564SOL    HW226592   3.594   6.538   0.269
 8565SOL     OW26593   3.815   5.642   1.451
 8565SOL    HW126594   3.796   5.662   1.355
 8565SOL    HW226595   3.890   5.577   1.458
 8566SOL     OW26596   2.858   1.056   2.949
 8566SOL    HW126597   2.867   1.106   2.863
 8566SOL    HW226598   2.872   0.958   2.932
 8567SOL     OW26599   1.421   1.843   1.474
 8567SOL    HW126600   1.391   1.929   1.432
 8567SOL    HW226601   1.474   1.863   1.557
 8568SOL     OW26602   0.296   1.362   0.494
 8568SOL    HW126603   0.209   1.351   0.541
 8568SOL    HW226604   0.280   1.370   0.395
 8569SOL     OW26605   5.519   2.649   5.889
 8569SOL    HW126606   5.424   2.656   5.922
 8569SOL    HW226607   5.519   2.606   5.798
 8570SOL     OW26608   1.157   2.220   5.295
 8570SOL    HW126609   1.086   2.262   5.352
 8570SOL    HW226610   1.223   2.174   5.354
 8571SOL     OW26611   1.513   0.919   4.380
 8571SOL    HW126612   1.507   0.944   4.283
 8571SOL    HW226613   1.571   0.985   4.428
 8572SOL     OW26614   3.325   3.945   5.790
 8572SOL    HW126615   3.414   3.903   5.773
 8572SOL    HW226616   3.270   3.940   5.707
 8573SOL     OW26617   3.124   5.822   0.711
 8573SOL    HW126618   3.136   5.896   0.777
 8573SOL    HW226619   3.143   5.734   0.755
 8574SOL     OW26620   0.030   6.640   5.867
 8574SOL    HW126621   0.014   6.633   5.965
 8574SOL    HW226622   0.076   6.557   5.834
 8575SOL     OW26623   3.772   0.207   2.843
 8575SOL    HW126624   3.682   0.165   2.838
 8575SOL    HW226625   3.777   0.266   2.923
 8576SOL     OW26626   1.026   3.952   4.265
 8576SOL    HW126627   1.080   3.963   4.182
 8576SOL    HW226628   1.051   3.866   4.309
 8577SOL     OW26629   1.832   0.976   5.999
 8577SOL    HW126630   1.806   0.881   6.019
 8577SOL    HW226631   1.894   1.008   6.070
 8578SOL     OW26632   6.174   6.137   5.196
 8578SOL    HW126633   6.172   6.039   5.216
 8578SOL    HW226634   6.177   6.188   5.282
 8579SOL     OW26635   2.593   6.306   2.543
 8579SOL    HW126636   2.570   6.386   2.598
 8579SOL    HW226637   2.685   6.317   2.506
 8580SOL     OW26638   1.445   6.205   1.492
 8580SOL    HW126639   1.494   6.239   1.411
 8580SOL    HW226640   1.482   6.117   1.519
 8581SOL     OW26641   3.723   4.948   1.376
 8581SOL    HW126642   3.798   4.889   1.345
 8581SOL    HW226643   3.721   4.948   1.476
 8582SOL     OW26644   4.240   4.579   5.602
 8582SOL    HW126645   4.155   4.582   5.655
 8582SOL    HW226646   4.314   4.546   5.661
 8583SOL     OW26647   4.104   0.894   3.018
 8583SOL    HW126648   4.172   0.943   3.073
 8583SOL    HW226649   4.028   0.866   3.076
 8584SOL     OW26650   6.201   1.584   4.752
 8584SOL    HW126651   6.246   1.495   4.766
 8584SOL    HW226652   6.256   1.656   4.794
 8585SOL     OW26653   5.788   2.145   1.295
 8585SOL    HW126654   5.713   2.108   1.351
 8585SOL    HW226655   5.864   2.172   1.354
 8586SOL     OW26656   5.768   6.168   1.269
 8586SOL    HW126657   5.784   6.159   1.171
 8586SOL    HW226658   5.730   6.082   1.305
 8587SOL     OW26659   0.946   1.624   5.452
 8587SOL    HW126660   0.879   1.562   5.495
 8587SOL    HW226661   0.899   1.680   5.383
 8588SOL     OW26662   3.761   1.544   6.778
 8588SOL    HW126663   3.719   1.569   6.691
 8588SOL    HW226664   3.728   1.455   6.808
 8589SOL     OW26665   6.788   3.354   5.376
 8589SOL    HW126666   6.837   3.281   5.423
 8589SOL    HW226667   6.725   3.399   5.440
 8590SOL     OW26668   6.641   1.373   2.975
 8590SOL    HW126669   6.588   1.439   3.028
 8590SOL    HW226670   6.675   1.301   3.035
 8591SOL     OW26671   6.582   4.932   0.395
 8591SOL    HW126672   6.519   4.926   0.317
 8591SOL    HW226673   6.645   5.008   0.381
 8592SOL     OW26674   0.713   2.468   6.952
 8592SOL    HW126675   0.790   2.528   6.975
 8592SOL    HW226676   0.731   2.425   6.863
 8593SOL     OW26677   3.155   0.756   6.606
 8593SOL    HW126678   3.133   0.838   6.553
 8593SOL    HW226679   3.215   0.780   6.682
 8594SOL     OW26680   6.190   2.748   6.172
 8594SOL    HW126681   6.254   2.680   6.208
 8594SOL    HW226682   6.148   2.713   6.088
 8595SOL     OW26683   5.397   0.166   2.960
 8595SOL    HW126684   5.297   0.156   2.957
 8595SOL    HW226685   5.424   0.245   2.905
 8596SOL     OW26686   0.849   3.153   3.480
 8596SOL    HW126687   0.814   3.186   3.567
 8596SOL    HW226688   0.948   3.160   3.478
 8597SOL     OW26689   6.660   2.828   0.859
 8597SOL    HW126690   6.698   2.918   0.881
 8597SOL    HW226691   6.697   2.760   0.923
 8598SOL     OW26692   5.834   0.858   4.902
 8598SOL    HW126693   5.873   0.779   4.950
 8598SOL    HW226694   5.736   0.864   4.922
 8599SOL     OW26695   1.383   3.431   3.332
 8599SOL    HW126696   1.320   3.359   3.300
 8599SOL    HW226697   1.349   3.520   3.301
 8600SOL     OW26698   4.677   3.936   1.176
 8600SOL    HW126699   4.765   3.901   1.207
 8600SOL    HW226700   4.674   3.937   1.076
 8601SOL     OW26701   0.688   1.406   3.900
 8601SOL    HW126702   0.612   1.348   3.932
 8601SOL    HW226703   0.652   1.479   3.842
 8602SOL     OW26704   2.721   6.860   3.495
 8602SOL    HW126705   2.663   6.884   3.573
 8602SOL    HW226706   2.664   6.819   3.423
 8603SOL     OW26707   6.123   1.064   0.158
 8603SOL    HW126708   6.061   1.003   0.108
 8603SOL    HW226709   6.070   1.136   0.201
 8604SOL     OW26710   0.402   3.477   6.291
 8604SOL    HW126711   0.352   3.560   6.267
 8604SOL    HW226712   0.374   3.402   6.231
 8605SOL     OW26713   0.416   4.610   4.462
 8605SOL    HW126714   0.482   4.595   4.387
 8605SOL    HW226715   0.416   4.530   4.521
 8606SOL     OW26716   2.705   2.050   6.478
 8606SOL    HW126717   2.668   2.062   6.570
 8606SOL    HW226718   2.637   2.078   6.411
 8607SOL     OW26719   2.241   5.002   1.120
 8607SOL    HW126720   2.279   4.942   1.190
 8607SOL    HW226721   2.271   5.096   1.135
 8608SOL     OW26722   2.495   4.465   2.572
 8608SOL    HW126723   2.532   4.514   2.493
 8608SOL    HW226724   2.510   4.519   2.655
 8609SOL     OW26725   4.728   1.323   3.704
 8609SOL    HW126726   4.807   1.271   3.736
 8609SOL    HW226727   4.759   1.411   3.668
 8610SOL     OW26728   6.958   0.006   2.952
 8610SOL    HW126729   0.000   0.039   3.021
 8610SOL    HW226730   6.876   6.992   2.996
 8611SOL     OW26731   3.125   1.393   3.733
 8611SOL    HW126732   3.207   1.448   3.722
 8611SOL    HW226733   3.145   1.312   3.788
 8612SOL     OW26734   2.984   3.170   2.724
 8612SOL    HW126735   2.959   3.142   2.632
 8612SOL    HW226736   3.042   3.251   2.721
 8613SOL     OW26737   3.012   2.838   1.608
 8613SOL    HW126738   2.995   2.772   1.681
 8613SOL    HW226739   3.017   2.789   1.520
 8614SOL     OW26740   1.506   2.518   2.084
 8614SOL    HW126741   1.530   2.422   2.094
 8614SOL    HW226742   1.535   2.551   1.994
 8615SOL     OW26743   4.903   2.279   4.461
 8615SOL    HW126744   4.910   2.214   4.385
 8615SOL    HW226745   4.974   2.258   4.529
 8616SOL     OW26746   3.502   5.205   2.452
 8616SOL    HW126747   3.495   5.112   2.417
 8616SOL    HW226748   3.444   5.214   2.532
 8617SOL     OW26749   5.720   0.051   3.855
 8617SOL    HW126750   5.654   0.114   3.815
 8617SOL    HW226751   5.725   0.066   3.954
 8618SOL     OW26752   6.667   3.948   0.886
 8618SOL    HW126753   6.691   3.852   0.900
 8618SOL    HW226754   6.750   4.004   0.882
 8619SOL     OW26755   5.039   4.897   2.096
 8619SOL    HW126756   4.946   4.893   2.132
 8619SOL    HW226757   5.039   4.949   2.010
 8620SOL     OW26758   2.132   0.560   4.677
 8620SOL    HW126759   2.088   0.531   4.762
 8620SOL    HW226760   2.062   0.582   4.609
 8621SOL     OW26761   4.825   2.880   2.240
 8621SOL    HW126762   4.738   2.831   2.243
 8621SOL    HW226763   4.816   2.960   2.180
 8622SOL     OW26764   6.353   5.299   2.322
 8622SOL    HW126765   6.444   5.267   2.294
 8622SOL    HW226766   6.354   5.398   2.330
 8623SOL     OW26767   0.016   3.439   4.888
 8623SOL    HW126768   0.007   3.528   4.932
 8623SOL    HW226769   0.041   3.452   4.792
 8624SOL     OW26770   3.111   3.506   5.946
 8624SOL    HW126771   3.106   3.413   5.981
 8624SOL    HW226772   3.105   3.504   5.846
 8625SOL     OW26773   3.798   1.228   5.322
 8625SOL    HW126774   3.704   1.252   5.294
 8625SOL    HW226775   3.821   1.137   5.287
 8626SOL     OW26776   4.462   2.688   0.585
 8626SOL    HW126777   4.529   2.685   0.660
 8626SOL    HW226778   4.476   2.609   0.525
 8627SOL     OW26779   1.951   1.502   2.346
 8627SOL    HW126780   1.935   1.440   2.422
 8627SOL    HW226781   1.954   1.596   2.379
 8628SOL     OW26782   6.817   6.640   0.064
 8628SOL    HW126783   6.883   6.625   0.138
 8628SOL    HW226784   6.855   6.608   7.000
 8629SOL     OW26785   0.953   0.073   4.862
 8629SOL    HW126786   1.052   0.087   4.867
 8629SOL    HW226787   0.912   0.089   4.951
 8630SOL     OW26788   5.067   3.452   3.521
 8630SOL    HW126789   5.142   3.472   3.459
 8630SOL    HW226790   5.088   3.369   3.573
 8631SOL     OW26791   2.449   5.585   0.420
 8631SOL    HW126792   2.384   5.515   0.390
 8631SOL    HW226793   2.531   5.541   0.456
 8632SOL     OW26794   4.136   4.420   5.418
 8632SOL    HW126795   4.188   4.480   5.479
 8632SOL    HW226796   4.174   4.427   5.325
 8633SOL     OW26797   5.630   4.182   5.501
 8633SOL    HW126798   5.696   4.256   5.498
 8633SOL    HW226799   5.653   4.113   5.432
 8634SOL     OW26800   5.520   4.916   0.508
 8634SOL    HW126801   5.479   4.826   0.493
 8634SOL    HW226802   5.462   4.968   0.570
 8635SOL     OW26803   6.040   2.789   7.002
 8635SOL    HW126804   6.080   2.802   0.071
 8635SOL    HW226805   6.105   2.820   6.933
 8636SOL     OW26806   4.138   5.981   0.538
 8636SOL    HW126807   4.211   5.971   0.470
 8636SOL    HW226808   4.178   5.981   0.630
 8637SOL     OW26809   1.711   1.455   6.421
 8637SOL    HW126810   1.680   1.396   6.495
 8637SOL    HW226811   1.632   1.493   6.373
 8638SOL     OW26812   4.202   3.006   5.351
 8638SOL    HW126813   4.124   3.047   5.306
 8638SOL    HW226814   4.245   3.073   5.412
 8639SOL     OW26815   5.221   3.397   0.144
 8639SOL    HW126816   5.198   3.484   0.188
 8639SOL    HW226817   5.185   3.396   0.051
 8640SOL     OW26818   3.601   2.947   1.109
 8640SOL    HW126819   3.652   3.030   1.131
 8640SOL    HW226820   3.517   2.972   1.060
 8641SOL     OW26821   4.137   5.544   3.065
 8641SOL    HW126822   4.226   5.499   3.065
 8641SOL    HW226823   4.067   5.477   3.091
 8642SOL     OW26824   1.044   6.602   3.554
 8642SOL    HW126825   1.092   6.634   3.472
 8642SOL    HW226826   1.080   6.513   3.581
 8643SOL     OW26827   2.860   0.049   0.408
 8643SOL    HW126828   2.779   0.076   0.357
 8643SOL    HW226829   2.867   6.971   0.409
 8644SOL     OW26830   6.067   1.974   6.377
 8644SOL    HW126831   5.982   1.968   6.324
 8644SOL    HW226832   6.088   1.884   6.417
 8645SOL     OW26833   5.720   4.661   1.312
 8645SOL    HW126834   5.721   4.580   1.253
 8645SOL    HW226835   5.630   4.706   1.306
 8646SOL     OW26836   0.074   2.369   5.943
 8646SOL    HW126837   6.998   2.354   5.934
 8646SOL    HW226838   0.121   2.282   5.954
 8647SOL     OW26839   3.228   5.255   1.287
 8647SOL    HW126840   3.309   5.288   1.335
 8647SOL    HW226841   3.149   5.311   1.312
 8648SOL     OW26842   5.567   6.747   0.995
 8648SOL    HW126843   5.616   6.807   1.058
 8648SOL    HW226844   5.472   6.737   1.025
 8649SOL     OW26845   4.367   6.427   6.852
 8649SOL    HW126846   4.314   6.357   6.900
 8649SOL    HW226847   4.308   6.473   6.785
 8650SOL     OW26848   1.986   0.217   3.998
 8650SOL    HW126849   1.974   0.229   4.096
 8650SOL    HW226850   1.906   0.171   3.960
 8651SOL     OW26851   2.711   1.523   0.923
 8651SOL    HW126852   2.721   1.426   0.903
 8651SOL    HW226853   2.652   1.565   0.853
 8652SOL     OW26854   0.765   5.084   4.064
 8652SOL    HW126855   0.767   5.182   4.045
 8652SOL    HW226856   0.853   5.043   4.038
 8653SOL     OW26857   6.652   1.711   6.067
 8653SOL    HW126858   6.724   1.703   5.999
 8653SOL    HW226859   6.647   1.626   6.120
 8654SOL     OW26860   1.076   4.594   1.935
 8654SOL    HW126861   1.046   4.569   2.027
 8654SOL    HW226862   1.068   4.694   1.924
 8655SOL     OW26863   6.398   1.168   5.247
 8655SOL    HW126864   6.407   1.264   5.218
 8655SOL    HW226865   6.484   1.137   5.286
 8656SOL     OW26866   5.687   6.768   2.044
 8656SOL    HW126867   5.720   6.689   2.096
 8656SOL    HW226868   5.622   6.738   1.975
 8657SOL     OW26869   5.595   6.616   0.756
 8657SOL    HW126870   5.634   6.696   0.710
 8657SOL    HW226871   5.550   6.645   0.841
 8658SOL     OW26872   6.050   5.692   1.141
 8658SOL    HW126873   6.058   5.790   1.123
 8658SOL    HW226874   5.959   5.673   1.178
 8659SOL     OW26875   4.641   2.564   2.812
 8659SOL    HW126876   4.588   2.488   2.776
 8659SOL    HW226877   4.662   2.628   2.738
 8660SOL     OW26878   0.422   2.609   1.803
 8660SOL    HW126879   0.440   2.705   1.781
 8660SOL    HW226880   0.508   2.558   1.804
 8661SOL     OW26881   6.337   3.123   3.412
 8661SOL    HW126882   6.240   3.122   3.389
 8661SOL    HW226883   6.373   3.215   3.401
 8662SOL     OW26884   3.576   5.851   2.308
 8662SOL    HW126885   3.534   5.834   2.219
 8662SOL    HW226886   3.593   5.949   2.318
 8663SOL     OW26887   3.112   5.571   3.030
 8663SOL    HW126888   3.121   5.520   3.116
 8663SOL    HW226889   3.198   5.618   3.010
 8664SOL     OW26890   1.862   5.647   2.861
 8664SOL    HW126891   1.802   5.676   2.936
 8664SOL    HW226892   1.883   5.726   2.803
 8665SOL     OW26893   6.295   5.036   5.780
 8665SOL    HW126894   6.340   5.099   5.717
 8665SOL    HW226895   6.201   5.066   5.795
 8666SOL     OW26896   5.375   0.367   4.117
 8666SOL    HW126897   5.470   0.375   4.087
 8666SOL    HW226898   5.339   0.278   4.089
 8667SOL     OW26899   5.298   1.413   4.627
 8667SOL    HW126900   5.318   1.336   4.686
 8667SOL    HW226901   5.250   1.484   4.680
 8668SOL     OW26902   5.294   2.928   4.625
 8668SOL    HW126903   5.310   2.858   4.694
 8668SOL    HW226904   5.211   2.978   4.647
 8669SOL     OW26905   6.699   6.105   6.094
 8669SOL    HW126906   6.610   6.101   6.139
 8669SOL    HW226907   6.766   6.143   6.158
 8670SOL     OW26908   5.342   4.721   6.043
 8670SOL    HW126909   5.411   4.772   5.991
 8670SOL    HW226910   5.384   4.638   6.082
 8671SOL     OW26911   0.241   1.785   2.319
 8671SOL    HW126912   0.243   1.875   2.274
 8671SOL    HW226913   0.164   1.732   2.285
 8672SOL     OW26914   0.091   0.409   3.776
 8672SOL    HW126915   0.169   0.469   3.759
 8672SOL    HW226916   0.007   0.455   3.747
 8673SOL     OW26917   0.027   1.549   0.384
 8673SOL    HW126918   6.996   1.482   0.333
 8673SOL    HW226919   0.124   1.537   0.364
 8674SOL     OW26920   0.397   4.567   3.452
 8674SOL    HW126921   0.309   4.520   3.447
 8674SOL    HW226922   0.470   4.499   3.453
 8675SOL     OW26923   3.432   1.469   5.784
 8675SOL    HW126924   3.524   1.483   5.747
 8675SOL    HW226925   3.368   1.527   5.735
 8676SOL     OW26926   5.802   0.953   1.496
 8676SOL    HW126927   5.805   0.966   1.397
 8676SOL    HW226928   5.708   0.935   1.525
 8677SOL     OW26929   1.862   6.227   5.640
 8677SOL    HW126930   1.764   6.205   5.636
 8677SOL    HW226931   1.914   6.157   5.592
 8678SOL     OW26932   1.247   6.799   0.476
 8678SOL    HW126933   1.277   6.737   0.548
 8678SOL    HW226934   1.246   6.750   0.388
 8679SOL     OW26935   2.163   1.098   3.833
 8679SOL    HW126936   2.172   1.000   3.851
 8679SOL    HW226937   2.201   1.118   3.743
 8680SOL     OW26938   6.401   2.561   6.252
 8680SOL    HW126939   6.414   2.552   6.351
 8680SOL    HW226940   6.481   2.525   6.204
 8681SOL     OW26941   4.732   6.084   1.275
 8681SOL    HW126942   4.735   6.005   1.214
 8681SOL    HW226943   4.823   6.099   1.314
 8682SOL     OW26944   6.638   0.372   1.154
 8682SOL    HW126945   6.733   0.341   1.157
 8682SOL    HW226946   6.582   0.301   1.111
 8683SOL     OW26947   1.785   3.392   4.916
 8683SOL    HW126948   1.766   3.304   4.960
 8683SOL    HW226949   1.719   3.460   4.948
 8684SOL     OW26950   0.458   3.602   4.330
 8684SOL    HW126951   0.506   3.688   4.310
 8684SOL    HW226952   0.401   3.577   4.251
 8685SOL     OW26953   5.479   2.379   6.205
 8685SOL    HW126954   5.520   2.470   6.210
 8685SOL    HW226955   5.533   2.314   6.258
 8686SOL     OW26956   6.421   6.703   2.962
 8686SOL    HW126957   6.466   6.634   2.905
 8686SOL    HW226958   6.384   6.775   2.905
 8687SOL     OW26959   6.517   3.657   3.077
 8687SOL    HW126960   6.465   3.588   3.129
 8687SOL    HW226961   6.471   3.745   3.084
 8688SOL     OW26962   1.576   3.668   6.535
 8688SOL    HW126963   1.641   3.649   6.608
 8688SOL    HW226964   1.508   3.594   6.531
 8689SOL     OW26965   4.764   3.174   0.533
 8689SOL    HW126966   4.758   3.075   0.549
 8689SOL    HW226967   4.684   3.204   0.481
 8690SOL     OW26968   1.057   2.030   2.804
 8690SOL    HW126969   1.038   2.079   2.719
 8690SOL    HW226970   1.145   2.060   2.841
 8691SOL     OW26971   3.191   1.707   4.869
 8691SOL    HW126972   3.234   1.645   4.935
 8691SOL    HW226973   3.260   1.770   4.833
 8692SOL     OW26974   4.277   1.988   5.657
 8692SOL    HW126975   4.327   2.075   5.656
 8692SOL    HW226976   4.179   2.005   5.652
 8693SOL     OW26977   6.670   1.216   6.650
 8693SOL    HW126978   6.717   1.181   6.731
 8693SOL    HW226979   6.709   1.175   6.568
 8694SOL     OW26980   6.379   2.864   4.411
 8694SOL    HW126981   6.422   2.954   4.419
 8694SOL    HW226982   6.319   2.848   4.489
 8695SOL     OW26983   3.954   3.283   6.194
 8695SOL    HW126984   3.886   3.338   6.242
 8695SOL    HW226985   4.013   3.342   6.139
 8696SOL     OW26986   2.499   5.840   5.319
 8696SOL    HW126987   2.446   5.859   5.402
 8696SOL    HW226988   2.512   5.925   5.267
 8697SOL     OW26989   1.891   4.184   5.599
 8697SOL    HW126990   1.829   4.255   5.566
 8697SOL    HW226991   1.838   4.103   5.626
 8698SOL     OW26992   4.941   5.897   6.104
 8698SOL    HW126993   4.995   5.968   6.059
 8698SOL    HW226994   4.919   5.927   6.197
 8699SOL     OW26995   2.686   2.941   6.150
 8699SOL    HW126996   2.596   2.901   6.130
 8699SOL    HW226997   2.682   2.989   6.238
 8700SOL     OW26998   1.091   0.331   5.412
 8700SOL    HW126999   1.115   0.301   5.320
 8700SOL    HW227000   1.107   0.257   5.477
 8701SOL     OW27001   1.435   1.630   0.131
 8701SOL    HW127002   1.466   1.537   0.112
 8701SOL    HW227003   1.340   1.628   0.161
 8702SOL     OW27004   5.130   4.736   1.420
 8702SOL    HW127005   5.148   4.638   1.431
 8702SOL    HW227006   5.070   4.751   1.342
 8703SOL     OW27007   2.555   4.577   6.916
 8703SOL    HW127008   2.628   4.632   6.955
 8703SOL    HW227009   2.520   4.514   6.985
 8704SOL     OW27010   0.316   2.542   4.060
 8704SOL    HW127011   0.233   2.566   4.010
 8704SOL    HW227012   0.292   2.499   4.147
 8705SOL     OW27013   4.826   2.697   6.631
 8705SOL    HW127014   4.897   2.633   6.601
 8705SOL    HW227015   4.769   2.723   6.553
 8706SOL     OW27016   5.557   2.848   6.895
 8706SOL    HW127017   5.471   2.890   6.920
 8706SOL    HW227018   5.618   2.845   6.975
 8707SOL     OW27019   1.319   1.926   4.385
 8707SOL    HW127020   1.350   1.931   4.290
 8707SOL    HW227021   1.347   2.009   4.434
 8708SOL     OW27022   4.830   2.293   4.023
 8708SOL    HW127023   4.868   2.382   4.048
 8708SOL    HW227024   4.734   2.304   3.997
 8709SOL     OW27025   0.012   0.068   6.899
 8709SOL    HW127026   7.012   7.022   6.970
 8709SOL    HW227027   6.993   0.155   6.924
 8710SOL     OW27028   1.931   1.665   3.951
 8710SOL    HW127029   1.961   1.611   3.872
 8710SOL    HW227030   1.860   1.729   3.922
 8711SOL     OW27031   0.763   1.352   1.950
 8711SOL    HW127032   0.721   1.427   2.002
 8711SOL    HW227033   0.806   1.389   1.868
 8712SOL     OW27034   2.569   2.372   5.514
 8712SOL    HW127035   2.549   2.328   5.601
 8712SOL    HW227036   2.534   2.316   5.439
 8713SOL     OW27037   1.113   4.137   2.214
 8713SOL    HW127038   1.044   4.197   2.254
 8713SOL    HW227039   1.113   4.049   2.262
 8714SOL     OW27040   0.084   6.316   0.283
 8714SOL    HW127041   0.170   6.265   0.273
 8714SOL    HW227042   0.014   6.274   0.226
 8715SOL     OW27043   2.523   1.759   0.132
 8715SOL    HW127044   2.541   1.664   0.104
 8715SOL    HW227045   2.433   1.786   0.100
 8716SOL     OW27046   6.999   6.329   1.574
 8716SOL    HW127047   7.002   6.257   1.504
 8716SOL    HW227048   6.928   6.395   1.550
 8717SOL     OW27049   2.540   3.802   6.301
 8717SOL    HW127050   2.472   3.825   6.232
 8717SOL    HW227051   2.505   3.827   6.391
 8718SOL     OW27052   1.450   3.488   6.233
 8718SOL    HW127053   1.423   3.469   6.328
 8718SOL    HW227054   1.483   3.404   6.191
 8719SOL     OW27055   3.819   1.117   6.966
 8719SOL    HW127056   3.814   1.020   6.988
 8719SOL    HW227057   3.762   1.169   0.007
 8720SOL     OW27058   6.422   4.520   5.202
 8720SOL    HW127059   6.475   4.549   5.122
 8720SOL    HW227060   6.416   4.420   5.203
 8721SOL     OW27061   0.094   5.983   6.645
 8721SOL    HW127062   0.143   6.045   6.584
 8721SOL    HW227063   0.029   6.034   6.700
 8722SOL     OW27064   3.342   0.273   0.847
 8722SOL    HW127065   3.387   0.255   0.760
 8722SOL    HW227066   3.399   0.335   0.901
 8723SOL     OW27067   5.569   0.044   2.298
 8723SOL    HW127068   5.656   7.022   2.276
 8723SOL    HW227069   5.520   0.065   2.213
 8724SOL     OW27070   4.438   0.300   4.284
 8724SOL    HW127071   4.372   0.375   4.297
 8724SOL    HW227072   4.458   0.291   4.186
 8725SOL     OW27073   0.203   6.481   5.045
 8725SOL    HW127074   0.232   6.519   5.133
 8725SOL    HW227075   0.280   6.482   4.981
 8726SOL     OW27076   0.214   1.396   0.226
 8726SOL    HW127077   0.246   1.430   0.138
 8726SOL    HW227078   0.170   1.307   0.214
 8727SOL     OW27079   6.265   6.325   6.364
 8727SOL    HW127080   6.212   6.382   6.427
 8727SOL    HW227081   6.355   6.367   6.350
 8728SOL     OW27082   5.290   1.128   2.954
 8728SOL    HW127083   5.385   1.102   2.940
 8728SOL    HW227084   5.244   1.059   3.010
 8729SOL     OW27085   3.425   5.119   5.534
 8729SOL    HW127086   3.494   5.048   5.545
 8729SOL    HW227087   3.336   5.083   5.562
 8730SOL     OW27088   5.415   4.082   3.386
 8730SOL    HW127089   5.328   4.125   3.407
 8730SOL    HW227090   5.472   4.081   3.468
 8731SOL     OW27091   0.315   2.198   2.983
 8731SOL    HW127092   0.252   2.125   2.958
 8731SOL    HW227093   0.340   2.188   3.079
 8732SOL     OW27094   5.507   4.816   1.112
 8732SOL    HW127095   5.579   4.786   1.050
 8732SOL    HW227096   5.525   4.910   1.140
 8733SOL     OW27097   0.807   5.211   0.783
 8733SOL    HW127098   0.890   5.157   0.765
 8733SOL    HW227099   0.765   5.238   0.696
 8734SOL     OW27100   6.998   3.412   2.294
 8734SOL    HW127101   0.042   3.353   2.250
 8734SOL    HW227102   7.003   3.504   2.254
 8735SOL     OW27103   1.443   3.491   5.163
 8735SOL    HW127104   1.351   3.523   5.140
 8735SOL    HW227105   1.502   3.570   5.183
 8736SOL     OW27106   0.680   5.689   1.910
 8736SOL    HW127107   0.711   5.693   2.005
 8736SOL    HW227108   0.580   5.693   1.907
 8737SOL     OW27109   2.244   5.519   6.591
 8737SOL    HW127110   2.239   5.420   6.606
 8737SOL    HW227111   2.233   5.539   6.494
 8738SOL     OW27112   1.009   3.420   3.582
 8738SOL    HW127113   1.062   3.336   3.572
 8738SOL    HW227114   0.919   3.399   3.620
 8739SOL     OW27115   5.220   4.092   5.050
 8739SOL    HW127116   5.183   4.032   4.979
 8739SOL    HW227117   5.312   4.121   5.024
 8740SOL     OW27118   3.843   2.110   3.332
 8740SOL    HW127119   3.924   2.167   3.346
 8740SOL    HW227120   3.854   2.057   3.248
 8741SOL     OW27121   2.119   6.864   2.354
 8741SOL    HW127122   2.154   6.869   2.261
 8741SOL    HW227123   2.066   6.946   2.375
 8742SOL     OW27124   3.814   0.669   2.544
 8742SOL    HW127125   3.753   0.674   2.623
 8742SOL    HW227126   3.794   0.745   2.481
 8743SOL     OW27127   1.261   0.960   1.852
 8743SOL    HW127128   1.168   0.975   1.819
 8743SOL    HW227129   1.287   0.865   1.839
 8744SOL     OW27130   4.487   3.260   6.685
 8744SOL    HW127131   4.552   3.336   6.688
 8744SOL    HW227132   4.430   3.260   6.767
 8745SOL     OW27133   6.805   2.168   6.699
 8745SOL    HW127134   6.824   2.199   6.793
 8745SOL    HW227135   6.837   2.238   6.634
 8746SOL     OW27136   4.787   5.150   3.976
 8746SOL    HW127137   4.709   5.146   4.038
 8746SOL    HW227138   4.753   5.155   3.882
 8747SOL     OW27139   6.652   1.044   2.266
 8747SOL    HW127140   6.631   1.127   2.214
 8747SOL    HW227141   6.669   0.968   2.203
 8748SOL     OW27142   0.851   1.830   4.120
 8748SOL    HW127143   0.853   1.844   4.021
 8748SOL    HW227144   0.936   1.787   4.149
 8749SOL     OW27145   2.184   1.138   5.275
 8749SOL    HW127146   2.250   1.196   5.227
 8749SOL    HW227147   2.216   1.121   5.369
 8750SOL     OW27148   4.367   2.759   5.599
 8750SOL    HW127149   4.286   2.704   5.583
 8750SOL    HW227150   4.373   2.783   5.696
 8751SOL     OW27151   6.810   6.870   1.003
 8751SOL    HW127152   6.850   6.781   1.025
 8751SOL    HW227153   6.753   6.862   0.922
 8752SOL     OW27154   5.110   2.802   0.519
 8752SOL    HW127155   5.179   2.739   0.483
 8752SOL    HW227156   5.139   2.897   0.503
 8753SOL     OW27157   1.536   3.439   0.227
 8753SOL    HW127158   1.557   3.436   0.325
 8753SOL    HW227159   1.443   3.407   0.212
 8754SOL     OW27160   2.825   5.029   6.320
 8754SOL    HW127161   2.814   4.931   6.339
 8754SOL    HW227162   2.904   5.042   6.259
 8755SOL     OW27163   0.612   1.331   1.454
 8755SOL    HW127164   0.672   1.379   1.390
 8755SOL    HW227165   0.539   1.393   1.484
 8756SOL     OW27166   2.207   2.862   4.036
 8756SOL    HW127167   2.224   2.935   3.969
 8756SOL    HW227168   2.283   2.797   4.033
 8757SOL     OW27169   5.091   5.960   5.376
 8757SOL    HW127170   5.185   5.966   5.344
 8757SOL    HW227171   5.080   6.016   5.458
 8758SOL     OW27172   3.673   0.142   3.246
 8758SOL    HW127173   3.666   0.172   3.341
 8758SOL    HW227174   3.753   0.186   3.203
 8759SOL     OW27175   6.389   1.100   6.682
 8759SOL    HW127176   6.429   1.012   6.707
 8759SOL    HW227177   6.460   1.171   6.686
 8760SOL     OW27178   1.696   1.810   4.209
 8760SOL    HW127179   1.713   1.813   4.308
 8760SOL    HW227180   1.737   1.891   4.167
 8761SOL     OW27181   5.391   1.405   1.837
 8761SOL    HW127182   5.413   1.326   1.779
 8761SOL    HW227183   5.291   1.412   1.845
 8762SOL     OW27184   1.856   5.815   3.992
 8762SOL    HW127185   1.889   5.811   4.086
 8762SOL    HW227186   1.779   5.878   3.986
 8763SOL     OW27187   6.857   0.700   5.304
 8763SOL    HW127188   6.789   0.772   5.319
 8763SOL    HW227189   6.926   0.703   5.377
 8764SOL     OW27190   4.101   5.483   5.924
 8764SOL    HW127191   4.145   5.526   6.003
 8764SOL    HW227192   4.040   5.549   5.880
 8765SOL     OW27193   5.637   0.625   5.604
 8765SOL    HW127194   5.644   0.531   5.636
 8765SOL    HW227195   5.726   0.654   5.568
 8766SOL     OW27196   4.677   4.350   5.991
 8766SOL    HW127197   4.591   4.324   6.036
 8766SOL    HW227198   4.753   4.301   6.033
 8767SOL     OW27199   3.228   0.544   3.674
 8767SOL    HW127200   3.309   0.503   3.634
 8767SOL    HW227201   3.146   0.510   3.628
 8768SOL     OW27202   0.300   2.286   6.805
 8768SOL    HW127203   0.224   2.230   6.772
 8768SOL    HW227204   0.299   2.288   6.905
 8769SOL     OW27205   6.183   1.004   1.545
 8769SOL    HW127206   6.257   0.947   1.582
 8769SOL    HW227207   6.110   1.012   1.613
 8770SOL     OW27208   5.536   3.993   1.855
 8770SOL    HW127209   5.445   4.034   1.860
 8770SOL    HW227210   5.531   3.908   1.802
 8771SOL     OW27211   0.319   3.811   6.636
 8771SOL    HW127212   0.405   3.771   6.668
 8771SOL    HW227213   0.291   3.885   6.697
 8772SOL     OW27214   5.551   0.426   4.700
 8772SOL    HW127215   5.515   0.371   4.625
 8772SOL    HW227216   5.592   0.510   4.664
 8773SOL     OW27217   6.639   2.322   4.082
 8773SOL    HW127218   6.632   2.348   3.986
 8773SOL    HW227219   6.604   2.229   4.093
 8774SOL     OW27220   1.031   6.639   0.013
 8774SOL    HW127221   1.079   6.587   6.965
 8774SOL    HW227222   1.067   6.733   0.014
 8775SOL     OW27223   5.657   1.892   4.679
 8775SOL    HW127224   5.666   1.958   4.754
 8775SOL    HW227225   5.570   1.905   4.633
 8776SOL     OW27226   4.572   2.995   0.951
 8776SOL    HW127227   4.567   3.034   1.043
 8776SOL    HW227228   4.661   3.019   0.910
 8777SOL     OW27229   1.087   3.333   2.740
 8777SOL    HW127230   1.090   3.233   2.735
 8777SOL    HW227231   1.099   3.371   2.649
 8778SOL     OW27232   4.118   4.265   5.831
 8778SOL    HW127233   4.108   4.193   5.899
 8778SOL    HW227234   4.028   4.285   5.791
 8779SOL     OW27235   3.012   5.123   2.655
 8779SOL    HW127236   3.011   5.188   2.731
 8779SOL    HW227237   3.048   5.035   2.687
 8780SOL     OW27238   0.328   5.643   2.190
 8780SOL    HW127239   0.231   5.619   2.184
 8780SOL    HW227240   0.360   5.629   2.283
 8781SOL     OW27241   4.295   0.117   2.474
 8781SOL    HW127242   4.288   0.186   2.402
 8781SOL    HW227243   4.252   0.032   2.445
 8782SOL     OW27244   5.391   0.869   1.733
 8782SOL    HW127245   5.451   0.945   1.706
 8782SOL    HW227246   5.296   0.900   1.727
 8783SOL     OW27247   5.339   3.442   4.463
 8783SOL    HW127248   5.263   3.448   4.527
 8783SOL    HW227249   5.323   3.366   4.399
 8784SOL     OW27250   6.195   6.441   0.649
 8784SOL    HW127251   6.213   6.506   0.575
 8784SOL    HW227252   6.275   6.383   0.662
 8785SOL     OW27253   0.737   5.452   6.141
 8785SOL    HW127254   0.734   5.541   6.185
 8785SOL    HW227255   0.719   5.463   6.043
 8786SOL     OW27256   4.334   2.395   2.196
 8786SOL    HW127257   4.353   2.416   2.100
 8786SOL    HW227258   4.270   2.318   2.201
 8787SOL     OW27259   3.465   0.777   1.531
 8787SOL    HW127260   3.433   0.716   1.604
 8787SOL    HW227261   3.388   0.829   1.495
 8788SOL     OW27262   0.220   0.220   5.494
 8788SOL    HW127263   0.315   0.251   5.503
 8788SOL    HW227264   0.202   0.195   5.400
 8789SOL     OW27265   0.241   3.926   5.477
 8789SOL    HW127266   0.304   3.945   5.552
 8789SOL    HW227267   0.214   4.013   5.434
 8790SOL     OW27268   6.100   2.311   0.492
 8790SOL    HW127269   6.118   2.337   0.397
 8790SOL    HW227270   6.072   2.215   0.496
 8791SOL     OW27271   4.578   6.292   5.107
 8791SOL    HW127272   4.600   6.368   5.046
 8791SOL    HW227273   4.656   6.272   5.166
 8792SOL     OW27274   4.327   4.932   1.507
 8792SOL    HW127275   4.371   4.926   1.597
 8792SOL    HW227276   4.299   5.027   1.490
 8793SOL     OW27277   1.264   5.660   4.035
 8793SOL    HW127278   1.227   5.718   3.962
 8793SOL    HW227279   1.360   5.685   4.051
 8794SOL     OW27280   6.094   1.093   2.959
 8794SOL    HW127281   6.174   1.055   3.006
 8794SOL    HW227282   6.056   1.167   3.014
 8795SOL     OW27283   1.226   5.152   5.223
 8795SOL    HW127284   1.310   5.194   5.189
 8795SOL    HW227285   1.153   5.220   5.225
 8796SOL     OW27286   6.363   3.563   3.294
 8796SOL    HW127287   6.267   3.566   3.265
 8796SOL    HW227288   6.371   3.602   3.386
 8797SOL     OW27289   6.955   6.562   3.494
 8797SOL    HW127290   6.861   6.561   3.461
 8797SOL    HW227291   6.978   6.653   3.526
 8798SOL     OW27292   4.540   6.742   4.936
 8798SOL    HW127293   4.546   6.800   4.854
 8798SOL    HW227294   4.591   6.785   5.011
 8799SOL     OW27295   2.190   5.028   1.994
 8799SOL    HW127296   2.198   4.981   1.907
 8799SOL    HW227297   2.154   5.120   1.979
 8800SOL     OW27298   6.698   6.315   5.603
 8800SOL    HW127299   6.754   6.306   5.685
 8800SOL    HW227300   6.748   6.278   5.524
 8801SOL     OW27301   6.190   2.033   5.213
 8801SOL    HW127302   6.120   1.974   5.172
 8801SOL    HW227303   6.264   1.976   5.249
 8802SOL     OW27304   1.539   5.529   6.224
 8802SOL    HW127305   1.473   5.514   6.297
 8802SOL    HW227306   1.585   5.617   6.237
 8803SOL     OW27307   6.277   0.764   7.013
 8803SOL    HW127308   6.193   0.817   6.999
 8803SOL    HW227309   6.313   0.735   6.924
 8804SOL     OW27310   1.756   6.051   0.933
 8804SOL    HW127311   1.803   6.135   0.960
 8804SOL    HW227312   1.671   6.041   0.985
 8805SOL     OW27313   4.593   5.764   3.343
 8805SOL    HW127314   4.608   5.670   3.310
 8805SOL    HW227315   4.498   5.790   3.329
 8806SOL     OW27316   2.781   6.309   0.502
 8806SOL    HW127317   2.773   6.211   0.520
 8806SOL    HW227318   2.719   6.334   0.428
 8807SOL     OW27319   4.496   2.059   0.571
 8807SOL    HW127320   4.586   2.036   0.535
 8807SOL    HW227321   4.473   1.996   0.645
 8808SOL     OW27322   1.875   2.927   0.819
 8808SOL    HW127323   1.902   2.835   0.790
 8808SOL    HW227324   1.803   2.961   0.758
 8809SOL     OW27325   2.071   3.842   3.466
 8809SOL    HW127326   2.038   3.908   3.534
 8809SOL    HW227327   1.992   3.800   3.421
 8810SOL     OW27328   6.355   1.473   5.635
 8810SOL    HW127329   6.398   1.491   5.723
 8810SOL    HW227330   6.272   1.419   5.650
 8811SOL     OW27331   4.638   0.042   2.665
 8811SOL    HW127332   4.609   0.122   2.717
 8811SOL    HW227333   4.738   0.041   2.659
 8812SOL     OW27334   3.581   0.852   6.354
 8812SOL    HW127335   3.482   0.860   6.343
 8812SOL    HW227336   3.622   0.829   6.266
 8813SOL     OW27337   2.248   4.066   2.797
 8813SOL    HW127338   2.250   3.980   2.746
 8813SOL    HW227339   2.251   4.143   2.733
 8814SOL     OW27340   5.688   6.838   0.146
 8814SOL    HW127341   5.633   6.888   0.213
 8814SOL    HW227342   5.784   6.867   0.153
 8815SOL     OW27343   5.466   0.739   0.520
 8815SOL    HW127344   5.477   0.640   0.513
 8815SOL    HW227345   5.395   0.760   0.587
 8816SOL     OW27346   0.096   6.354   5.840
 8816SOL    HW127347   0.072   6.320   5.749
 8816SOL    HW227348   0.109   6.277   5.902
 8817SOL     OW27349   1.019   3.188   4.689
 8817SOL    HW127350   0.984   3.264   4.633
 8817SOL    HW227351   1.032   3.107   4.632
 8818SOL     OW27352   2.046   6.576   3.920
 8818SOL    HW127353   2.047   6.660   3.974
 8818SOL    HW227354   2.049   6.599   3.823
 8819SOL     OW27355   5.626   4.429   5.916
 8819SOL    HW127356   5.547   4.387   5.872
 8819SOL    HW227357   5.693   4.358   5.939
 8820SOL     OW27358   3.898   0.978   5.177
 8820SOL    HW127359   3.914   0.885   5.143
 8820SOL    HW227360   3.985   1.026   5.184
 8821SOL     OW27361   0.949   4.971   0.965
 8821SOL    HW127362   0.853   4.946   0.959
 8821SOL    HW227363   0.983   4.996   0.874
 8822SOL     OW27364   6.707   6.863   4.032
 8822SOL    HW127365   6.619   6.894   4.067
 8822SOL    HW227366   6.781   6.895   4.092
 8823SOL     OW27367   2.848   1.225   2.734
 8823SOL    HW127368   2.865   1.322   2.713
 8823SOL    HW227369   2.842   1.173   2.649
 8824SOL     OW27370   1.648   0.525   0.964
 8824SOL    HW127371   1.694   0.595   1.018
 8824SOL    HW227372   1.551   0.546   0.958
 8825SOL     OW27373   0.355   0.383   1.178
 8825SOL    HW127374   0.426   0.318   1.150
 8825SOL    HW227375   0.383   0.429   1.262
 8826SOL     OW27376   1.045   3.728   0.727
 8826SOL    HW127377   1.069   3.632   0.745
 8826SOL    HW227378   0.979   3.759   0.795
 8827SOL     OW27379   4.051   0.294   2.544
 8827SOL    HW127380   4.104   0.349   2.608
 8827SOL    HW227381   4.104   0.213   2.518
 8828SOL     OW27382   4.386   4.010   6.307
 8828SOL    HW127383   4.384   3.945   6.231
 8828SOL    HW227384   4.481   4.031   6.330
 8829SOL     OW27385   0.346   1.266   2.193
 8829SOL    HW127386   0.283   1.199   2.232
 8829SOL    HW227387   0.414   1.291   2.261
 8830SOL     OW27388   2.442   1.457   2.688
 8830SOL    HW127389   2.500   1.417   2.617
 8830SOL    HW227390   2.489   1.534   2.731
 8831SOL     OW27391   0.392   2.201   2.629
 8831SOL    HW127392   0.458   2.153   2.686
 8831SOL    HW227393   0.343   2.268   2.684
 8832SOL     OW27394   6.399   6.785   3.883
 8832SOL    HW127395   6.400   6.736   3.970
 8832SOL    HW227396   6.470   6.747   3.822
 8833SOL     OW27397   4.206   2.249   0.877
 8833SOL    HW127398   4.213   2.202   0.965
 8833SOL    HW227399   4.135   2.319   0.882
 8834SOL     OW27400   5.808   3.677   5.387
 8834SOL    HW127401   5.824   3.632   5.298
 8834SOL    HW227402   5.868   3.757   5.395
 8835SOL     OW27403   5.560   0.564   6.171
 8835SOL    HW127404   5.552   0.624   6.251
 8835SOL    HW227405   5.525   0.611   6.090
 8836SOL     OW27406   5.428   2.582   0.106
 8836SOL    HW127407   5.478   2.604   0.022
 8836SOL    HW227408   5.474   2.509   0.154
 8837SOL     OW27409   0.052   6.434   2.156
 8837SOL    HW127410   0.144   6.463   2.183
 8837SOL    HW227411   7.017   6.425   2.237
 8838SOL     OW27412   0.482   4.111   2.800
 8838SOL    HW127413   0.507   4.033   2.857
 8838SOL    HW227414   0.564   4.165   2.781
 8839SOL     OW27415   5.373   5.626   2.519
 8839SOL    HW127416   5.420   5.559   2.577
 8839SOL    HW227417   5.420   5.714   2.525
 8840SOL     OW27418   0.044   0.494   1.419
 8840SOL    HW127419   0.137   0.474   1.390
 8840SOL    HW227420   7.005   0.495   1.340
 8841SOL     OW27421   4.153   0.849   2.069
 8841SOL    HW127422   4.131   0.761   2.028
 8841SOL    HW227423   4.104   0.922   2.020
 8842SOL     OW27424   3.584   3.934   4.119
 8842SOL    HW127425   3.544   3.958   4.031
 8842SOL    HW227426   3.678   3.965   4.123
 8843SOL     OW27427   1.862   3.306   5.746
 8843SOL    HW127428   1.950   3.301   5.795
 8843SOL    HW227429   1.843   3.401   5.722
 8844SOL     OW27430   6.104   1.813   4.981
 8844SOL    HW127431   6.007   1.791   4.974
 8844SOL    HW227432   6.155   1.733   5.014
 8845SOL     OW27433   2.108   5.538   1.249
 8845SOL    HW127434   2.115   5.622   1.195
 8845SOL    HW227435   2.118   5.459   1.190
 8846SOL     OW27436   4.975   4.410   3.942
 8846SOL    HW127437   5.024   4.410   3.855
 8846SOL    HW227438   4.891   4.356   3.933
 8847SOL     OW27439   1.749   2.028   2.589
 8847SOL    HW127440   1.678   1.987   2.533
 8847SOL    HW227441   1.735   2.002   2.685
 8848SOL     OW27442   3.274   2.104   1.218
 8848SOL    HW127443   3.315   2.096   1.127
 8848SOL    HW227444   3.183   2.145   1.210
 8849SOL     OW27445   2.860   5.851   4.204
 8849SOL    HW127446   2.922   5.800   4.144
 8849SOL    HW227447   2.780   5.880   4.152
 8850SOL     OW27448   2.721   1.961   0.549
 8850SOL    HW127449   2.708   1.887   0.483
 8850SOL    HW227450   2.814   1.997   0.539
 8851SOL     OW27451   0.967   4.215   3.231
 8851SOL    HW127452   0.903   4.146   3.264
 8851SOL    HW227453   1.022   4.176   3.157
 8852SOL     OW27454   5.238   2.702   5.985
 8852SOL    HW127455   5.205   2.657   6.069
 8852SOL    HW227456   5.239   2.801   5.999
 8853SOL     OW27457   3.557   1.456   5.284
 8853SOL    HW127458   3.612   1.474   5.366
 8853SOL    HW227459   3.474   1.511   5.287
 8854SOL     OW27460   1.751   0.532   5.809
 8854SOL    HW127461   1.812   0.479   5.749
 8854SOL    HW227462   1.690   0.470   5.858
 8855SOL     OW27463   6.054   5.722   6.573
 8855SOL    HW127464   5.970   5.774   6.563
 8855SOL    HW227465   6.109   5.730   6.490
 8856SOL     OW27466   6.740   0.412   4.506
 8856SOL    HW127467   6.806   0.487   4.515
 8856SOL    HW227468   6.689   0.402   4.591
 8857SOL     OW27469   6.627   1.845   3.336
 8857SOL    HW127470   6.677   1.831   3.250
 8857SOL    HW227471   6.575   1.762   3.358
 8858SOL     OW27472   1.048   4.233   5.823
 8858SOL    HW127473   1.097   4.286   5.753
 8858SOL    HW227474   1.104   4.224   5.905
 8859SOL     OW27475   0.596   6.696   5.173
 8859SOL    HW127476   0.499   6.720   5.179
 8859SOL    HW227477   0.611   6.606   5.215
 8860SOL     OW27478   1.578   2.510   2.373
 8860SOL    HW127479   1.639   2.546   2.303
 8860SOL    HW227480   1.484   2.512   2.339
 8861SOL     OW27481   3.264   3.202   0.087
 8861SOL    HW127482   3.275   3.103   0.073
 8861SOL    HW227483   3.349   3.240   0.124
 8862SOL     OW27484   5.912   1.582   4.736
 8862SOL    HW127485   5.856   1.604   4.816
 8862SOL    HW227486   6.009   1.580   4.762
 8863SOL     OW27487   2.009   5.416   4.649
 8863SOL    HW127488   2.059   5.489   4.602
 8863SOL    HW227489   1.930   5.389   4.594
 8864SOL     OW27490   2.455   3.375   6.536
 8864SOL    HW127491   2.398   3.419   6.466
 8864SOL    HW227492   2.527   3.438   6.565
 8865SOL     OW27493   3.069   1.405   4.438
 8865SOL    HW127494   3.057   1.504   4.447
 8865SOL    HW227495   3.043   1.377   4.345
 8866SOL     OW27496   4.145   6.386   3.423
 8866SOL    HW127497   4.229   6.386   3.476
 8866SOL    HW227498   4.073   6.431   3.475
 8867SOL     OW27499   6.026   2.204   2.626
 8867SOL    HW127500   6.060   2.114   2.596
 8867SOL    HW227501   5.928   2.198   2.645
 8868SOL     OW27502   5.298   3.490   0.427
 8868SOL    HW127503   5.373   3.554   0.409
 8868SOL    HW227504   5.219   3.517   0.372
 8869SOL     OW27505   4.903   4.132   3.178
 8869SOL    HW127506   4.917   4.197   3.103
 8869SOL    HW227507   4.811   4.146   3.217
 8870SOL     OW27508   3.875   0.958   1.157
 8870SOL    HW127509   3.815   0.949   1.077
 8870SOL    HW227510   3.953   1.015   1.133
 8871SOL     OW27511   2.002   1.284   3.962
 8871SOL    HW127512   1.913   1.286   3.917
 8871SOL    HW227513   2.058   1.211   3.922
 8872SOL     OW27514   1.884   4.402   3.969
 8872SOL    HW127515   1.974   4.360   3.981
 8872SOL    HW227516   1.853   4.440   4.057
 8873SOL     OW27517   0.173   5.805   2.918
 8873SOL    HW127518   0.127   5.755   2.844
 8873SOL    HW227519   0.196   5.897   2.887
 8874SOL     OW27520   1.823   6.807   1.046
 8874SOL    HW127521   1.792   6.885   1.100
 8874SOL    HW227522   1.831   6.835   0.950
 8875SOL     OW27523   1.178   2.516   4.969
 8875SOL    HW127524   1.276   2.519   4.990
 8875SOL    HW227525   1.130   2.586   5.023
 8876SOL     OW27526   6.864   0.680   4.508
 8876SOL    HW127527   6.851   0.768   4.553
 8876SOL    HW227528   6.954   0.644   4.530
 8877SOL     OW27529   3.019   0.760   3.984
 8877SOL    HW127530   2.954   0.749   3.908
 8877SOL    HW227531   3.091   0.691   3.976
 8878SOL     OW27532   6.912   4.996   0.792
 8878SOL    HW127533   6.893   4.924   0.859
 8878SOL    HW227534   6.950   5.076   0.839
 8879SOL     OW27535   5.100   5.351   0.312
 8879SOL    HW127536   5.189   5.319   0.345
 8879SOL    HW227537   5.108   5.383   0.218
 8880SOL     OW27538   0.044   5.588   4.742
 8880SOL    HW127539   0.077   5.681   4.759
 8880SOL    HW227540   0.117   5.523   4.760
 8881SOL     OW27541   6.319   0.975   3.046
 8881SOL    HW127542   6.335   1.054   2.988
 8881SOL    HW227543   6.389   0.906   3.028
 8882SOL     OW27544   5.227   0.985   6.724
 8882SOL    HW127545   5.327   0.991   6.715
 8882SOL    HW227546   5.204   0.960   6.818
 8883SOL     OW27547   0.531   1.232   5.913
 8883SOL    HW127548   0.558   1.180   5.994
 8883SOL    HW227549   0.465   1.303   5.940
 8884SOL     OW27550   5.927   6.461   6.294
 8884SOL    HW127551   5.951   6.558   6.287
 8884SOL    HW227552   6.000   6.406   6.254
 8885SOL     OW27553   6.648   3.678   1.322
 8885SOL    HW127554   6.698   3.663   1.406
 8885SOL    HW227555   6.579   3.749   1.336
 8886SOL     OW27556   2.700   6.164   5.441
 8886SOL    HW127557   2.795   6.131   5.442
 8886SOL    HW227558   2.670   6.180   5.534
 8887SOL     OW27559   2.909   1.101   0.713
 8887SOL    HW127560   2.952   1.140   0.794
 8887SOL    HW227561   2.970   1.034   0.671
 8888SOL     OW27562   0.935   2.136   1.289
 8888SOL    HW127563   0.887   2.217   1.323
 8888SOL    HW227564   0.900   2.113   1.198
 8889SOL     OW27565   5.812   6.795   4.928
 8889SOL    HW127566   5.784   6.722   4.990
 8889SOL    HW227567   5.855   6.869   4.980
 8890SOL     OW27568   6.520   5.997   4.342
 8890SOL    HW127569   6.467   5.934   4.286
 8890SOL    HW227570   6.571   5.945   4.411
 8891SOL     OW27571   6.091   3.230   6.672
 8891SOL    HW127572   6.066   3.211   6.767
 8891SOL    HW227573   6.030   3.301   6.635
 8892SOL     OW27574   2.922   6.810   3.035
 8892SOL    HW127575   2.938   6.822   3.133
 8892SOL    HW227576   2.879   6.893   2.999
 8893SOL     OW27577   0.144   1.227   1.784
 8893SOL    HW127578   0.243   1.232   1.795
 8893SOL    HW227579   0.112   1.135   1.806
 8894SOL     OW27580   4.437   3.306   6.138
 8894SOL    HW127581   4.509   3.305   6.206
 8894SOL    HW227582   4.384   3.222   6.144
 8895SOL     OW27583   0.336   0.092   1.837
 8895SOL    HW127584   0.334   0.182   1.795
 8895SOL    HW227585   0.353   0.022   1.768
 8896SOL     OW27586   1.122   3.647   5.389
 8896SOL    HW127587   1.036   3.660   5.438
 8896SOL    HW227588   1.149   3.733   5.346
 8897SOL     OW27589   1.647   1.269   2.132
 8897SOL    HW127590   1.577   1.340   2.140
 8897SOL    HW227591   1.606   1.187   2.093
 8898SOL     OW27592   6.465   3.154   4.454
 8898SOL    HW127593   6.545   3.145   4.513
 8898SOL    HW227594   6.443   3.251   4.442
 8899SOL     OW27595   2.168   4.231   6.652
 8899SOL    HW127596   2.170   4.325   6.685
 8899SOL    HW227597   2.201   4.228   6.558
 8900SOL     OW27598   5.223   3.160   3.352
 8900SOL    HW127599   5.193   3.171   3.447
 8900SOL    HW227600   5.298   3.094   3.347
 8901SOL     OW27601   2.044   0.812   2.876
 8901SOL    HW127602   2.013   0.723   2.907
 8901SOL    HW227603   2.141   0.806   2.850
 8902SOL     OW27604   3.137   5.645   6.497
 8902SOL    HW127605   3.134   5.650   6.597
 8902SOL    HW227606   3.050   5.677   6.460
 8903SOL     OW27607   2.355   1.408   4.001
 8903SOL    HW127608   2.271   1.353   3.995
 8903SOL    HW227609   2.417   1.368   4.068
 8904SOL     OW27610   6.837   5.248   3.507
 8904SOL    HW127611   6.737   5.248   3.506
 8904SOL    HW227612   6.870   5.338   3.536
 8905SOL     OW27613   2.236   3.395   5.106
 8905SOL    HW127614   2.285   3.478   5.133
 8905SOL    HW227615   2.239   3.329   5.181
 8906SOL     OW27616   6.845   6.738   6.665
 8906SOL    HW127617   6.840   6.671   6.592
 8906SOL    HW227618   6.937   6.778   6.668
 8907SOL     OW27619   3.364   2.665   5.276
 8907SOL    HW127620   3.319   2.588   5.230
 8907SOL    HW227621   3.377   2.643   5.372
 8908SOL     OW27622   1.578   2.649   0.466
 8908SOL    HW127623   1.675   2.650   0.439
 8908SOL    HW227624   1.527   2.712   0.408
 8909SOL     OW27625   2.659   0.388   5.615
 8909SOL    HW127626   2.570   0.405   5.656
 8909SOL    HW227627   2.714   0.331   5.676
 8910SOL     OW27628   2.790   3.200   6.073
 8910SOL    HW127629   2.742   3.257   6.140
 8910SOL    HW227630   2.752   3.108   6.073
 8911SOL     OW27631   3.171   2.174   4.426
 8911SOL    HW127632   3.206   2.181   4.333
 8911SOL    HW227633   3.247   2.171   4.491
 8912SOL     OW27634   3.858   1.464   6.251
 8912SOL    HW127635   3.877   1.437   6.345
 8912SOL    HW227636   3.792   1.400   6.211
 8913SOL     OW27637   5.571   4.341   1.455
 8913SOL    HW127638   5.539   4.347   1.361
 8913SOL    HW227639   5.509   4.391   1.515
 8914SOL     OW27640   4.703   1.454   5.143
 8914SOL    HW127641   4.622   1.405   5.175
 8914SOL    HW227642   4.748   1.498   5.220
 8915SOL     OW27643   1.715   2.757   3.826
 8915SOL    HW127644   1.780   2.814   3.776
 8915SOL    HW227645   1.675   2.810   3.901
 8916SOL     OW27646   0.368   3.933   2.078
 8916SOL    HW127647   0.394   4.020   2.119
 8916SOL    HW227648   0.403   3.858   2.134
 8917SOL     OW27649   6.073   5.136   6.818
 8917SOL    HW127650   6.140   5.072   6.782
 8917SOL    HW227651   6.113   5.227   6.823
 8918SOL     OW27652   6.123   6.356   6.971
 8918SOL    HW127653   6.092   6.383   0.040
 8918SOL    HW227654   6.207   6.405   6.949
 8919SOL     OW27655   3.695   3.702   0.758
 8919SOL    HW127656   3.659   3.750   0.678
 8919SOL    HW227657   3.683   3.604   0.746
 8920SOL     OW27658   6.454   5.898   6.082
 8920SOL    HW127659   6.527   5.892   6.013
 8920SOL    HW227660   6.466   5.981   6.135
 8921SOL     OW27661   1.312   1.407   3.156
 8921SOL    HW127662   1.311   1.431   3.253
 8921SOL    HW227663   1.368   1.325   3.143
 8922SOL     OW27664   2.653   5.183   1.178
 8922SOL    HW127665   2.644   5.186   1.079
 8922SOL    HW227666   2.657   5.087   1.208
 8923SOL     OW27667   1.738   3.653   6.760
 8923SOL    HW127668   1.673   3.610   6.822
 8923SOL    HW227669   1.819   3.681   6.810
 8924SOL     OW27670   2.749   5.302   5.604
 8924SOL    HW127671   2.758   5.234   5.677
 8924SOL    HW227672   2.789   5.389   5.634
 8925SOL     OW27673   0.631   0.190   2.154
 8925SOL    HW127674   0.552   0.251   2.158
 8925SOL    HW227675   0.715   0.245   2.150
 8926SOL     OW27676   5.778   2.536   1.780
 8926SOL    HW127677   5.678   2.537   1.777
 8926SOL    HW227678   5.811   2.617   1.828
 8927SOL     OW27679   2.468   2.460   5.096
 8927SOL    HW127680   2.477   2.555   5.126
 8927SOL    HW227681   2.556   2.414   5.105
 8928SOL     OW27682   0.073   0.912   5.402
 8928SOL    HW127683   0.097   0.860   5.484
 8928SOL    HW227684   0.089   0.856   5.321
 8929SOL     OW27685   0.211   3.561   3.709
 8929SOL    HW127686   0.197   3.660   3.721
 8929SOL    HW227687   0.259   3.524   3.789
 8930SOL     OW27688   1.528   5.176   5.318
 8930SOL    HW127689   1.557   5.228   5.238
 8930SOL    HW227690   1.608   5.137   5.363
 8931SOL     OW27691   4.620   2.381   1.117
 8931SOL    HW127692   4.610   2.422   1.027
 8931SOL    HW227693   4.703   2.417   1.161
 8932SOL     OW27694   5.350   6.816   6.438
 8932SOL    HW127695   5.357   6.727   6.394
 8932SOL    HW227696   5.404   6.883   6.387
 8933SOL     OW27697   1.101   0.785   5.462
 8933SOL    HW127698   1.103   0.689   5.490
 8933SOL    HW227699   1.036   0.834   5.521
 8934SOL     OW27700   3.334   5.161   2.693
 8934SOL    HW127701   3.400   5.214   2.746
 8934SOL    HW227702   3.242   5.194   2.711
 8935SOL     OW27703   4.944   3.248   2.373
 8935SOL    HW127704   4.956   3.276   2.278
 8935SOL    HW227705   4.846   3.234   2.391
 8936SOL     OW27706   0.836   3.841   0.870
 8936SOL    HW127707   0.829   3.940   0.877
 8936SOL    HW227708   0.776   3.809   0.796
 8937SOL     OW27709   0.462   0.432   4.305
 8937SOL    HW127710   0.475   0.518   4.256
 8937SOL    HW227711   0.546   0.378   4.299
 8938SOL     OW27712   5.662   0.732   0.337
 8938SOL    HW127713   5.599   0.756   0.412
 8938SOL    HW227714   5.619   0.665   0.277
 8939SOL     OW27715   6.602   3.111   4.713
 8939SOL    HW127716   6.686   3.149   4.749
 8939SOL    HW227717   6.617   3.015   4.687
 8940SOL     OW27718   6.262   2.754   0.625
 8940SOL    HW127719   6.308   2.711   0.702
 8940SOL    HW227720   6.283   2.852   0.623
 8941SOL     OW27721   5.077   2.144   1.994
 8941SOL    HW127722   5.087   2.239   1.968
 8941SOL    HW227723   4.980   2.123   2.010
 8942SOL     OW27724   6.949   4.907   4.021
 8942SOL    HW127725   0.013   4.957   4.034
 8942SOL    HW227726   6.904   4.941   3.939
 8943SOL     OW27727   4.494   3.880   0.115
 8943SOL    HW127728   4.572   3.855   0.059
 8943SOL    HW227729   4.517   3.960   0.172
 8944SOL     OW27730   4.670   5.200   4.499
 8944SOL    HW127731   4.749   5.254   4.469
 8944SOL    HW227732   4.701   5.130   4.563
 8945SOL     OW27733   6.070   3.465   5.395
 8945SOL    HW127734   6.117   3.542   5.351
 8945SOL    HW227735   6.067   3.481   5.494
 8946SOL     OW27736   4.799   0.857   4.054
 8946SOL    HW127737   4.770   0.815   4.140
 8946SOL    HW227738   4.726   0.916   4.019
 8947SOL     OW27739   1.304   4.525   6.641
 8947SOL    HW127740   1.230   4.586   6.615
 8947SOL    HW227741   1.387   4.579   6.659
 8948SOL     OW27742   6.344   6.565   4.060
 8948SOL    HW127743   6.359   6.515   4.146
 8948SOL    HW227744   6.412   6.537   3.993
 8949SOL     OW27745   3.596   6.355   0.309
 8949SOL    HW127746   3.546   6.324   0.228
 8949SOL    HW227747   3.670   6.291   0.329
 8950SOL     OW27748   4.614   3.895   1.469
 8950SOL    HW127749   4.676   3.972   1.451
 8950SOL    HW227750   4.545   3.891   1.397
 8951SOL     OW27751   2.275   1.176   4.258
 8951SOL    HW127752   2.369   1.206   4.245
 8951SOL    HW227753   2.264   1.083   4.224
 8952SOL     OW27754   2.526   5.017   3.250
 8952SOL    HW127755   2.435   5.058   3.245
 8952SOL    HW227756   2.563   5.031   3.342
 8953SOL     OW27757   2.473   5.107   2.160
 8953SOL    HW127758   2.386   5.058   2.157
 8953SOL    HW227759   2.523   5.092   2.075
 8954SOL     OW27760   0.984   5.548   4.523
 8954SOL    HW127761   0.922   5.474   4.498
 8954SOL    HW227762   0.931   5.630   4.544
 8955SOL     OW27763   6.240   3.004   2.733
 8955SOL    HW127764   6.297   2.949   2.672
 8955SOL    HW227765   6.160   2.950   2.761
 8956SOL     OW27766   0.610   6.613   6.606
 8956SOL    HW127767   0.512   6.599   6.596
 8956SOL    HW227768   0.628   6.680   6.677
 8957SOL     OW27769   1.697   5.299   2.316
 8957SOL    HW127770   1.771   5.238   2.346
 8957SOL    HW227771   1.730   5.357   2.242
 8958SOL     OW27772   1.347   3.695   5.547
 8958SOL    HW127773   1.318   3.657   5.459
 8958SOL    HW227774   1.269   3.698   5.610
 8959SOL     OW27775   0.874   3.391   2.339
 8959SOL    HW127776   0.796   3.405   2.277
 8959SOL    HW227777   0.959   3.395   2.286
 8960SOL     OW27778   6.289   3.648   4.115
 8960SOL    HW127779   6.380   3.665   4.078
 8960SOL    HW227780   6.265   3.552   4.101
 8961SOL     OW27781   2.877   6.650   4.281
 8961SOL    HW127782   2.781   6.647   4.308
 8961SOL    HW227783   2.884   6.663   4.182
 8962SOL     OW27784   1.452   5.853   1.210
 8962SOL    HW127785   1.526   5.786   1.209
 8962SOL    HW227786   1.364   5.806   1.216
 8963SOL     OW27787   3.652   5.945   4.287
 8963SOL    HW127788   3.592   5.873   4.323
 8963SOL    HW227789   3.656   5.937   4.187
 8964SOL     OW27790   6.060   3.841   3.189
 8964SOL    HW127791   6.049   3.891   3.275
 8964SOL    HW227792   5.972   3.840   3.140
 8965SOL     OW27793   4.396   4.736   0.613
 8965SOL    HW127794   4.342   4.723   0.529
 8965SOL    HW227795   4.343   4.703   0.691
 8966SOL     OW27796   5.333   5.204   6.026
 8966SOL    HW127797   5.285   5.160   5.951
 8966SOL    HW227798   5.335   5.142   6.105
 8967SOL     OW27799   3.473   0.866   2.515
 8967SOL    HW127800   3.448   0.962   2.532
 8967SOL    HW227801   3.555   0.863   2.457
 8968SOL     OW27802   2.771   5.077   1.652
 8968SOL    HW127803   2.858   5.110   1.615
 8968SOL    HW227804   2.782   4.981   1.679
 8969SOL     OW27805   0.102   0.088   3.195
 8969SOL    HW127806   0.042   0.135   3.260
 8969SOL    HW227807   0.084   7.012   3.199
 8970SOL     OW27808   1.217   1.380   6.007
 8970SOL    HW127809   1.316   1.370   6.019
 8970SOL    HW227810   1.196   1.380   5.909
 8971SOL     OW27811   4.192   6.441   0.940
 8971SOL    HW127812   4.105   6.485   0.961
 8971SOL    HW227813   4.264   6.510   0.935
 8972SOL     OW27814   5.786   5.293   0.367
 8972SOL    HW127815   5.815   5.264   0.458
 8972SOL    HW227816   5.708   5.237   0.339
 8973SOL     OW27817   1.082   2.362   2.002
 8973SOL    HW127818   1.025   2.297   2.054
 8973SOL    HW227819   1.136   2.311   1.934
 8974SOL     OW27820   2.280   4.173   4.604
 8974SOL    HW127821   2.334   4.243   4.651
 8974SOL    HW227822   2.239   4.112   4.673
 8975SOL     OW27823   0.738   0.230   6.869
 8975SOL    HW127824   0.659   0.291   6.875
 8975SOL    HW227825   0.741   0.188   6.778
 8976SOL     OW27826   6.195   6.780   1.526
 8976SOL    HW127827   6.137   6.707   1.489
 8976SOL    HW227828   6.273   6.739   1.573
 8977SOL     OW27829   0.518   5.060   6.308
 8977SOL    HW127830   0.502   5.110   6.393
 8977SOL    HW227831   0.549   5.125   6.238
 8978SOL     OW27832   5.943   5.914   5.398
 8978SOL    HW127833   5.993   5.885   5.479
 8978SOL    HW227834   5.987   5.877   5.316
 8979SOL     OW27835   1.122   5.411   6.229
 8979SOL    HW127836   1.045   5.445   6.282
 8979SOL    HW227837   1.120   5.311   6.226
 8980SOL     OW27838   4.161   1.778   5.203
 8980SOL    HW127839   4.115   1.796   5.116
 8980SOL    HW227840   4.260   1.780   5.189
 8981SOL     OW27841   4.297   1.872   6.078
 8981SOL    HW127842   4.221   1.814   6.107
 8981SOL    HW227843   4.297   1.956   6.133
 8982SOL     OW27844   6.398   0.904   1.997
 8982SOL    HW127845   6.385   1.000   1.969
 8982SOL    HW227846   6.494   0.891   2.023
 8983SOL     OW27847   1.011   4.789   2.296
 8983SOL    HW127848   1.105   4.797   2.265
 8983SOL    HW227849   0.962   4.874   2.276
 8984SOL     OW27850   6.432   0.534   4.485
 8984SOL    HW127851   6.483   0.473   4.545
 8984SOL    HW227852   6.426   0.625   4.527
 8985SOL     OW27853   4.521   1.809   0.762
 8985SOL    HW127854   4.593   1.865   0.802
 8985SOL    HW227855   4.555   1.766   0.679
 8986SOL     OW27856   6.114   4.415   1.966
 8986SOL    HW127857   6.210   4.442   1.975
 8986SOL    HW227858   6.107   4.316   1.961
 8987SOL     OW27859   2.574   0.269   1.237
 8987SOL    HW127860   2.513   0.333   1.284
 8987SOL    HW227861   2.666   0.277   1.274
 8988SOL     OW27862   2.417   5.587   1.035
 8988SOL    HW127863   2.404   5.668   0.977
 8988SOL    HW227864   2.484   5.526   0.992
 8989SOL     OW27865   5.087   2.535   2.595
 8989SOL    HW127866   5.105   2.628   2.626
 8989SOL    HW227867   5.000   2.503   2.634
 8990SOL     OW27868   3.582   6.271   0.931
 8990SOL    HW127869   3.502   6.318   0.969
 8990SOL    HW227870   3.556   6.179   0.903
 8991SOL     OW27871   2.007   2.635   0.821
 8991SOL    HW127872   2.056   2.614   0.906
 8991SOL    HW227873   2.063   2.607   0.743
 8992SOL     OW27874   0.714   2.897   0.137
 8992SOL    HW127875   0.810   2.918   0.124
 8992SOL    HW227876   0.660   2.941   0.065
 8993SOL     OW27877   5.094   2.212   3.717
 8993SOL    HW127878   5.002   2.211   3.679
 8993SOL    HW227879   5.149   2.141   3.674
 8994SOL     OW27880   1.556   5.627   3.968
 8994SOL    HW127881   1.542   5.629   3.869
 8994SOL    HW227882   1.576   5.719   4.001
 8995SOL     OW27883   1.500   3.204   5.151
 8995SOL    HW127884   1.419   3.150   5.175
 8995SOL    HW227885   1.477   3.301   5.149
 8996SOL     OW27886   0.647   3.829   1.745
 8996SOL    HW127887   0.564   3.839   1.799
 8996SOL    HW227888   0.631   3.861   1.651
 8997SOL     OW27889   4.503   1.123   6.184
 8997SOL    HW127890   4.552   1.147   6.100
 8997SOL    HW227891   4.417   1.175   6.187
 8998SOL     OW27892   1.250   2.814   5.258
 8998SOL    HW127893   1.254   2.910   5.231
 8998SOL    HW227894   1.212   2.807   5.350
 8999SOL     OW27895   4.731   1.788   6.070
 8999SOL    HW127896   4.751   1.790   6.168
 8999SOL    HW227897   4.697   1.697   6.045
 9000SOL     OW27898   3.050   3.344   0.081
 9000SOL    HW127899   3.086   3.415   0.141
 9000SOL    HW227900   3.124   3.281   0.057
 9001SOL     OW27901   2.000   4.672   3.369
 9001SOL    HW127902   2.069   4.732   3.409
 9001SOL    HW227903   1.925   4.727   3.331
 9002SOL     OW27904   6.026   5.049   5.896
 9002SOL    HW127905   5.991   5.132   5.940
 9002SOL    HW227906   5.950   5.001   5.851
 9003SOL     OW27907   6.009   2.570   0.561
 9003SOL    HW127908   6.051   2.491   0.515
 9003SOL    HW227909   6.075   2.644   0.568
 9004SOL     OW27910   5.304   6.674   1.057
 9004SOL    HW127911   5.208   6.689   1.082
 9004SOL    HW227912   5.341   6.598   1.110
 9005SOL     OW27913   4.582   2.166   3.585
 9005SOL    HW127914   4.657   2.228   3.605
 9005SOL    HW227915   4.615   2.071   3.589
 9006SOL     OW27916   1.570   4.861   1.037
 9006SOL    HW127917   1.650   4.835   0.983
 9006SOL    HW227918   1.541   4.784   1.094
 9007SOL     OW27919   3.175   5.617   3.911
 9007SOL    HW127920   3.162   5.520   3.892
 9007SOL    HW227921   3.116   5.671   3.851
 9008SOL     OW27922   0.401   4.192   2.180
 9008SOL    HW127923   0.316   4.233   2.212
 9008SOL    HW227924   0.467   4.188   2.255
 9009SOL     OW27925   2.240   6.674   0.731
 9009SOL    HW127926   2.326   6.690   0.780
 9009SOL    HW227927   2.180   6.616   0.787
 9010SOL     OW27928   0.786   6.436   4.710
 9010SOL    HW127929   0.886   6.432   4.708
 9010SOL    HW227930   0.748   6.355   4.666
 9011SOL     OW27931   3.812   1.958   0.944
 9011SOL    HW127932   3.800   1.859   0.946
 9011SOL    HW227933   3.833   1.991   1.036
 9012SOL     OW27934   0.845   4.905   1.355
 9012SOL    HW127935   0.892   4.843   1.417
 9012SOL    HW227936   0.911   4.967   1.312
 9013SOL     OW27937   6.061   6.220   4.432
 9013SOL    HW127938   6.038   6.172   4.517
 9013SOL    HW227939   6.153   6.258   4.438
 9014SOL     OW27940   1.166   0.790   0.605
 9014SOL    HW127941   1.134   0.709   0.655
 9014SOL    HW227942   1.126   0.791   0.514
 9015SOL     OW27943   0.068   1.172   5.860
 9015SOL    HW127944   0.126   1.132   5.931
 9015SOL    HW227945   0.124   1.203   5.784
 9016SOL     OW27946   6.847   6.249   5.816
 9016SOL    HW127947   6.827   6.231   5.912
 9016SOL    HW227948   6.905   6.176   5.779
 9017SOL     OW27949   5.687   2.221   4.119
 9017SOL    HW127950   5.742   2.294   4.079
 9017SOL    HW227951   5.743   2.140   4.132
 9018SOL     OW27952   3.564   1.147   5.050
 9018SOL    HW127953   3.568   1.080   5.123
 9018SOL    HW227954   3.591   1.104   4.963
 9019SOL     OW27955   3.088   6.257   0.280
 9019SOL    HW127956   3.092   6.302   0.370
 9019SOL    HW227957   3.139   6.172   0.284
 9020SOL     OW27958   2.082   4.448   2.864
 9020SOL    HW127959   2.136   4.461   2.781
 9020SOL    HW227960   2.025   4.529   2.879
 9021SOL     OW27961   7.012   5.957   4.313
 9021SOL    HW127962   7.000   6.042   4.263
 9021SOL    HW227963   6.966   5.883   4.264
 9022SOL     OW27964   2.788   0.424   0.223
 9022SOL    HW127965   2.691   0.421   0.200
 9022SOL    HW227966   2.799   0.443   0.321
 9023SOL     OW27967   3.452   3.372   3.719
 9023SOL    HW127968   3.407   3.357   3.631
 9023SOL    HW227969   3.528   3.308   3.730
 9024SOL     OW27970   1.751   6.106   6.096
 9024SOL    HW127971   1.791   6.015   6.089
 9024SOL    HW227972   1.676   6.115   6.030
 9025SOL     OW27973   6.178   5.018   1.772
 9025SOL    HW127974   6.269   5.008   1.733
 9025SOL    HW227975   6.131   4.930   1.770
 9026SOL     OW27976   3.604   2.871   4.468
 9026SOL    HW127977   3.521   2.854   4.521
 9026SOL    HW227978   3.679   2.817   4.506
 9027SOL     OW27979   2.358   1.901   3.050
 9027SOL    HW127980   2.269   1.925   3.088
 9027SOL    HW227981   2.347   1.867   2.957
 9028SOL     OW27982   2.520   4.531   5.857
 9028SOL    HW127983   2.548   4.592   5.932
 9028SOL    HW227984   2.468   4.454   5.894
 9029SOL     OW27985   4.328   5.312   3.866
 9029SOL    HW127986   4.320   5.230   3.810
 9029SOL    HW227987   4.393   5.296   3.940
 9030SOL     OW27988   2.074   1.010   2.625
 9030SOL    HW127989   2.071   1.007   2.725
 9030SOL    HW227990   2.062   0.918   2.588
 9031SOL     OW27991   2.838   6.017   5.792
 9031SOL    HW127992   2.817   6.103   5.838
 9031SOL    HW227993   2.754   5.966   5.776
 9032SOL     OW27994   2.598   2.268   1.747
 9032SOL    HW127995   2.602   2.367   1.739
 9032SOL    HW227996   2.690   2.231   1.752
 9033SOL     OW27997   2.120   3.369   4.353
 9033SOL    HW127998   2.027   3.390   4.384
 9033SOL    HW227999   2.176   3.452   4.357
 9034SOL     OW28000   2.467   6.130   4.927
 9034SOL    HW128001   2.503   6.081   5.006
 9034SOL    HW228002   2.378   6.169   4.950
 9035SOL     OW28003   6.733   0.096   4.822
 9035SOL    HW128004   6.797   0.028   4.785
 9035SOL    HW228005   6.784   0.164   4.876
 9036SOL     OW28006   1.845   2.457   5.496
 9036SOL    HW128007   1.902   2.522   5.545
 9036SOL    HW228008   1.803   2.503   5.417
 9037SOL     OW28009   2.337   3.895   6.132
 9037SOL    HW128010   2.254   3.950   6.124
 9037SOL    HW228011   2.394   3.910   6.051
 9038SOL     OW28012   5.121   0.621   5.539
 9038SOL    HW128013   5.032   0.611   5.496
 9038SOL    HW228014   5.185   0.556   5.498
 9039SOL     OW28015   2.198   4.634   5.392
 9039SOL    HW128016   2.168   4.646   5.486
 9039SOL    HW228017   2.279   4.691   5.375
 9040SOL     OW28018   2.963   1.408   2.574
 9040SOL    HW128019   2.974   1.501   2.608
 9040SOL    HW228020   3.048   1.357   2.587
 9041SOL     OW28021   0.904   2.484   1.790
 9041SOL    HW128022   0.804   2.478   1.796
 9041SOL    HW228023   0.944   2.449   1.874
 9042SOL     OW28024   2.814   5.475   2.974
 9042SOL    HW128025   2.901   5.472   3.023
 9042SOL    HW228026   2.824   5.530   2.891
 9043SOL     OW28027   1.050   2.398   6.155
 9043SOL    HW128028   0.975   2.396   6.220
 9043SOL    HW228029   1.092   2.307   6.149
 9044SOL     OW28030   5.830   0.289   0.527
 9044SOL    HW128031   5.751   0.336   0.487
 9044SOL    HW228032   5.914   0.336   0.499
 9045SOL     OW28033   3.480   0.673   3.318
 9045SOL    HW128034   3.447   0.580   3.308
 9045SOL    HW228035   3.515   0.706   3.230
 9046SOL     OW28036   3.278   4.295   5.341
 9046SOL    HW128037   3.325   4.240   5.410
 9046SOL    HW228038   3.304   4.391   5.352
 9047SOL     OW28039   1.824   4.045   4.360
 9047SOL    HW128040   1.726   4.026   4.355
 9047SOL    HW228041   1.860   4.008   4.446
 9048SOL     OW28042   1.603   3.849   5.515
 9048SOL    HW128043   1.526   3.786   5.527
 9048SOL    HW228044   1.688   3.800   5.534
 9049SOL     OW28045   5.506   6.015   6.064
 9049SOL    HW128046   5.442   6.091   6.049
 9049SOL    HW228047   5.466   5.949   6.127
 9050SOL     OW28048   0.579   5.352   6.878
 9050SOL    HW128049   0.590   5.438   6.927
 9050SOL    HW228050   0.597   5.276   6.940
 9051SOL     OW28051   4.869   6.316   0.342
 9051SOL    HW128052   4.789   6.366   0.377
 9051SOL    HW228053   4.949   6.341   0.396
 9052SOL     OW28054   2.720   4.744   4.494
 9052SOL    HW128055   2.635   4.796   4.491
 9052SOL    HW228056   2.748   4.732   4.589
 9053SOL     OW28057   1.980   2.841   3.698
 9053SOL    HW128058   2.009   2.868   3.606
 9053SOL    HW228059   2.006   2.745   3.715
 9054SOL     OW28060   1.711   0.677   1.532
 9054SOL    HW128061   1.788   0.670   1.469
 9054SOL    HW228062   1.732   0.627   1.616
 9055SOL     OW28063   0.929   2.855   3.970
 9055SOL    HW128064   1.003   2.843   4.036
 9055SOL    HW228065   0.967   2.854   3.877
 9056SOL     OW28066   5.325   0.316   1.711
 9056SOL    HW128067   5.313   0.286   1.616
 9056SOL    HW228068   5.268   0.396   1.728
 9057SOL     OW28069   6.196   5.373   6.836
 9057SOL    HW128070   6.251   5.405   6.913
 9057SOL    HW228071   6.143   5.449   6.799
 9058SOL     OW28072   2.030   2.655   4.896
 9058SOL    HW128073   2.000   2.731   4.839
 9058SOL    HW228074   2.081   2.690   4.975
 9059SOL     OW28075   6.608   1.125   3.547
 9059SOL    HW128076   6.583   1.205   3.494
 9059SOL    HW228077   6.677   1.150   3.615
 9060SOL     OW28078   6.559   3.583   2.176
 9060SOL    HW128079   6.622   3.516   2.213
 9060SOL    HW228080   6.541   3.654   2.245
 9061SOL     OW28081   4.563   6.094   3.159
 9061SOL    HW128082   4.532   6.174   3.210
 9061SOL    HW228083   4.531   6.011   3.204
 9062SOL     OW28084   1.222   4.774   2.730
 9062SOL    HW128085   1.136   4.749   2.686
 9062SOL    HW228086   1.247   4.868   2.704
 9063SOL     OW28087   3.051   1.665   2.659
 9063SOL    HW128088   3.113   1.724   2.607
 9063SOL    HW228089   3.058   1.688   2.756
 9064SOL     OW28090   6.851   4.440   3.632
 9064SOL    HW128091   6.888   4.506   3.567
 9064SOL    HW228092   6.925   4.382   3.666
 9065SOL     OW28093   2.756   5.970   5.036
 9065SOL    HW128094   2.744   5.875   5.065
 9065SOL    HW228095   2.854   5.992   5.036
 9066SOL     OW28096   6.501   6.418   6.294
 9066SOL    HW128097   6.503   6.354   6.217
 9066SOL    HW228098   6.529   6.509   6.262
 9067SOL     OW28099   6.748   6.439   4.420
 9067SOL    HW128100   6.768   6.381   4.499
 9067SOL    HW228101   6.756   6.535   4.447
 9068SOL     OW28102   4.881   0.498   5.405
 9068SOL    HW128103   4.784   0.519   5.406
 9068SOL    HW228104   4.896   0.405   5.439
 9069SOL     OW28105   4.666   2.691   2.425
 9069SOL    HW128106   4.662   2.752   2.504
 9069SOL    HW228107   4.760   2.659   2.413
 9070SOL     OW28108   1.388   1.992   6.562
 9070SOL    HW128109   1.332   1.941   6.627
 9070SOL    HW228110   1.411   1.934   6.484
 9071SOL     OW28111   4.119   1.243   5.774
 9071SOL    HW128112   4.192   1.309   5.755
 9071SOL    HW228113   4.050   1.286   5.832
 9072SOL     OW28114   5.463   6.739   1.889
 9072SOL    HW128115   5.431   6.668   1.825
 9072SOL    HW228116   5.421   6.724   1.978
 9073SOL     OW28117   4.634   7.010   0.159
 9073SOL    HW128118   4.714   0.021   0.209
 9073SOL    HW228119   4.600   6.926   0.202
 9074SOL     OW28120   1.408   0.210   1.241
 9074SOL    HW128121   1.403   0.196   1.142
 9074SOL    HW228122   1.474   0.284   1.260
 9075SOL     OW28123   6.644   0.996   2.528
 9075SOL    HW128124   6.640   0.896   2.530
 9075SOL    HW228125   6.625   1.027   2.435
 9076SOL     OW28126   4.904   1.605   3.108
 9076SOL    HW128127   4.833   1.596   3.177
 9076SOL    HW228128   4.880   1.679   3.045
 9077SOL     OW28129   4.855   1.251   5.866
 9077SOL    HW128130   4.936   1.307   5.883
 9077SOL    HW228131   4.835   1.248   5.768
 9078SOL     OW28132   5.326   5.155   6.567
 9078SOL    HW128133   5.338   5.222   6.641
 9078SOL    HW228134   5.232   5.157   6.535
 9079SOL     OW28135   1.355   0.616   5.064
 9079SOL    HW128136   1.326   0.654   4.977
 9079SOL    HW228137   1.324   0.675   5.139
 9080SOL     OW28138   6.209   3.352   0.180
 9080SOL    HW128139   6.171   3.311   0.263
 9080SOL    HW228140   6.240   3.279   0.118
 9081SOL     OW28141   4.023   1.262   1.186
 9081SOL    HW128142   4.080   1.238   1.265
 9081SOL    HW228143   3.937   1.302   1.217
 9082SOL     OW28144   2.435   6.927   5.415
 9082SOL    HW128145   2.389   6.843   5.388
 9082SOL    HW228146   2.521   6.905   5.461
 9083SOL     OW28147   4.677   4.519   6.205
 9083SOL    HW128148   4.700   4.479   6.116
 9083SOL    HW228149   4.634   4.608   6.191
 9084SOL     OW28150   0.468   2.543   5.567
 9084SOL    HW128151   0.418   2.457   5.574
 9084SOL    HW228152   0.478   2.583   5.658
 9085SOL     OW28153   2.922   5.133   0.570
 9085SOL    HW128154   2.871   5.191   0.507
 9085SOL    HW228155   2.924   5.176   0.661
 9086SOL     OW28156   6.061   4.442   0.907
 9086SOL    HW128157   6.153   4.426   0.942
 9086SOL    HW228158   6.031   4.365   0.852
 9087SOL     OW28159   5.785   3.141   2.776
 9087SOL    HW128160   5.874   3.123   2.817
 9087SOL    HW228161   5.789   3.120   2.678
 9088SOL     OW28162   6.084   0.099   2.274
 9088SOL    HW128163   6.181   0.120   2.270
 9088SOL    HW228164   6.042   0.118   2.185
 9089SOL     OW28165   4.132   5.322   4.097
 9089SOL    HW128166   4.188   5.340   4.016
 9089SOL    HW228167   4.091   5.408   4.128
 9090SOL     OW28168   4.844   6.431   4.748
 9090SOL    HW128169   4.786   6.476   4.680
 9090SOL    HW228170   4.885   6.349   4.708
 9091SOL     OW28171   3.409   2.386   0.573
 9091SOL    HW128172   3.329   2.359   0.626
 9091SOL    HW228173   3.389   2.378   0.475
 9092SOL     OW28174   1.408   0.685   5.934
 9092SOL    HW128175   1.416   0.637   6.021
 9092SOL    HW228176   1.326   0.654   5.886
 9093SOL     OW28177   1.514   6.479   6.802
 9093SOL    HW128178   1.568   6.443   6.878
 9093SOL    HW228179   1.541   6.433   6.718
 9094SOL     OW28180   0.632   6.029   2.057
 9094SOL    HW128181   0.576   5.962   2.008
 9094SOL    HW228182   0.582   6.116   2.063
 9095SOL     OW28183   5.680   3.735   6.275
 9095SOL    HW128184   5.626   3.762   6.196
 9095SOL    HW228185   5.639   3.655   6.319
 9096SOL     OW28186   5.384   3.445   2.466
 9096SOL    HW128187   5.354   3.422   2.373
 9096SOL    HW228188   5.443   3.525   2.463
 9097SOL     OW28189   0.651   3.838   0.208
 9097SOL    HW128190   0.724   3.905   0.194
 9097SOL    HW228191   0.681   3.748   0.177
 9098SOL     OW28192   4.256   3.289   1.072
 9098SOL    HW128193   4.177   3.303   1.131
 9098SOL    HW228194   4.246   3.203   1.022
 9099SOL     OW28195   3.591   3.446   0.717
 9099SOL    HW128196   3.641   3.440   0.631
 9099SOL    HW228197   3.595   3.357   0.764
 9100SOL     OW28198   1.132   2.599   2.085
 9100SOL    HW128199   1.052   2.654   2.059
 9100SOL    HW228200   1.122   2.506   2.050
 9101SOL     OW28201   2.158   3.058   2.494
 9101SOL    HW128202   2.059   3.075   2.491
 9101SOL    HW228203   2.176   2.960   2.482
 9102SOL     OW28204   3.661   6.546   1.824
 9102SOL    HW128205   3.633   6.558   1.729
 9102SOL    HW228206   3.656   6.634   1.871
 9103SOL     OW28207   6.939   3.449   0.309
 9103SOL    HW128208   6.902   3.366   0.269
 9103SOL    HW228209   6.982   3.504   0.237
 9104SOL     OW28210   4.259   6.311   2.046
 9104SOL    HW128211   4.357   6.314   2.061
 9104SOL    HW228212   4.228   6.215   2.044
 9105SOL     OW28213   1.590   0.672   0.083
 9105SOL    HW128214   1.534   0.657   0.164
 9105SOL    HW228215   1.547   0.742   0.025
 9106SOL     OW28216   5.743   3.360   0.316
 9106SOL    HW128217   5.729   3.277   0.370
 9106SOL    HW228218   5.723   3.440   0.372
 9107SOL     OW28219   4.154   6.976   6.495
 9107SOL    HW128220   4.208   6.901   6.535
 9107SOL    HW228221   4.124   6.949   6.403
 9108SOL     OW28222   4.867   4.536   5.569
 9108SOL    HW128223   4.815   4.556   5.652
 9108SOL    HW228224   4.965   4.539   5.590
 9109SOL     OW28225   1.520   2.362   2.831
 9109SOL    HW128226   1.505   2.425   2.908
 9109SOL    HW228227   1.480   2.401   2.748
 9110SOL     OW28228   2.137   4.304   3.985
 9110SOL    HW128229   2.204   4.284   3.913
 9110SOL    HW228230   2.128   4.224   4.045
 9111SOL     OW28231   4.340   3.495   0.661
 9111SOL    HW128232   4.423   3.471   0.611
 9111SOL    HW228233   4.268   3.430   0.638
 9112SOL     OW28234   0.276   4.353   4.596
 9112SOL    HW128235   0.250   4.258   4.611
 9112SOL    HW228236   0.194   4.410   4.593
 9113SOL     OW28237   4.527   6.961   0.648
 9113SOL    HW128238   4.595   6.985   0.578
 9113SOL    HW228239   4.477   0.021   0.675
 9114SOL     OW28240   1.383   5.057   2.630
 9114SOL    HW128241   1.451   4.988   2.654
 9114SOL    HW228242   1.428   5.138   2.592
 9115SOL     OW28243   0.584   5.718   5.465
 9115SOL    HW128244   0.607   5.752   5.374
 9115SOL    HW228245   0.535   5.631   5.456
 9116SOL     OW28246   6.534   1.898   0.504
 9116SOL    HW128247   6.553   1.901   0.602
 9116SOL    HW228248   6.580   1.975   0.459
 9117SOL     OW28249   5.848   2.606   6.986
 9117SOL    HW128250   5.845   2.558   6.899
 9117SOL    HW228251   5.933   2.657   6.993
 9118SOL     OW28252   5.772   6.099   0.618
 9118SOL    HW128253   5.730   6.082   0.708
 9118SOL    HW228254   5.700   6.113   0.550
 9119SOL     OW28255   5.516   1.304   2.750
 9119SOL    HW128256   5.485   1.336   2.661
 9119SOL    HW228257   5.549   1.381   2.804
 9120SOL     OW28258   5.355   3.143   5.438
 9120SOL    HW128259   5.379   3.059   5.487
 9120SOL    HW228260   5.256   3.159   5.447
 9121SOL     OW28261   0.807   2.946   6.355
 9121SOL    HW128262   0.731   2.997   6.394
 9121SOL    HW228263   0.801   2.850   6.385
 9122SOL     OW28264   1.712   2.741   1.635
 9122SOL    HW128265   1.805   2.774   1.653
 9122SOL    HW228266   1.715   2.643   1.616
 9123SOL     OW28267   3.822   0.568   4.611
 9123SOL    HW128268   3.812   0.592   4.515
 9123SOL    HW228269   3.752   0.501   4.637
 9124SOL     OW28270   5.923   6.667   5.300
 9124SOL    HW128271   6.010   6.619   5.288
 9124SOL    HW228272   5.863   6.648   5.222
 9125SOL     OW28273   4.869   3.964   2.813
 9125SOL    HW128274   4.862   3.904   2.893
 9125SOL    HW228275   4.786   4.019   2.805
 9126SOL     OW28276   5.562   2.142   1.988
 9126SOL    HW128277   5.551   2.053   2.034
 9126SOL    HW228278   5.658   2.170   1.993
 9127SOL     OW28279   6.061   1.157   6.557
 9127SOL    HW128280   6.074   1.193   6.649
 9127SOL    HW228281   6.145   1.112   6.526
 9128SOL     OW28282   3.573   2.108   4.919
 9128SOL    HW128283   3.537   2.190   4.965
 9128SOL    HW228284   3.658   2.131   4.871
 9129SOL     OW28285   1.599   2.915   1.282
 9129SOL    HW128286   1.602   2.906   1.182
 9129SOL    HW228287   1.690   2.936   1.316
 9130SOL     OW28288   6.850   3.215   0.197
 9130SOL    HW128289   6.935   3.169   0.170
 9130SOL    HW228290   6.782   3.206   0.124
 9131SOL     OW28291   0.224   3.778   5.759
 9131SOL    HW128292   0.169   3.861   5.751
 9131SOL    HW228293   0.175   3.709   5.811
 9132SOL     OW28294   0.490   4.884   4.521
 9132SOL    HW128295   0.553   4.917   4.451
 9132SOL    HW228296   0.462   4.791   4.500
 9133SOL     OW28297   3.415   5.496   1.369
 9133SOL    HW128298   3.481   5.425   1.343
 9133SOL    HW228299   3.413   5.505   1.469
 9134SOL     OW28300   3.327   6.204   0.788
 9134SOL    HW128301   3.341   6.235   0.694
 9134SOL    HW228302   3.323   6.284   0.848
 9135SOL     OW28303   6.507   6.321   2.284
 9135SOL    HW128304   6.578   6.317   2.354
 9135SOL    HW228305   6.481   6.417   2.269
 9136SOL     OW28306   5.024   5.381   5.481
 9136SOL    HW128307   4.969   5.311   5.525
 9136SOL    HW228308   4.983   5.471   5.497
 9137SOL     OW28309   4.738   1.849   1.175
 9137SOL    HW128310   4.746   1.940   1.136
 9137SOL    HW228311   4.766   1.851   1.272
 9138SOL     OW28312   6.070   5.389   5.693
 9138SOL    HW128313   6.008   5.356   5.764
 9138SOL    HW228314   6.163   5.357   5.714
 9139SOL     OW28315   2.224   1.205   4.713
 9139SOL    HW128316   2.282   1.216   4.632
 9139SOL    HW228317   2.236   1.112   4.749
 9140SOL     OW28318   6.051   3.110   2.533
 9140SOL    HW128319   6.128   3.068   2.580
 9140SOL    HW228320   6.059   3.210   2.538
 9141SOL     OW28321   5.619   0.458   6.594
 9141SOL    HW128322   5.704   0.502   6.622
 9141SOL    HW228323   5.565   0.435   6.675
 9142SOL     OW28324   0.617   2.164   0.297
 9142SOL    HW128325   0.700   2.187   0.347
 9142SOL    HW228326   0.581   2.246   0.252
 9143SOL     OW28327   5.071   3.651   1.203
 9143SOL    HW128328   5.086   3.714   1.128
 9143SOL    HW228329   4.986   3.675   1.251
 9144SOL     OW28330   2.454   5.581   5.412
 9144SOL    HW128331   2.431   5.496   5.460
 9144SOL    HW228332   2.394   5.654   5.443
 9145SOL     OW28333   6.607   5.346   6.992
 9145SOL    HW128334   6.686   5.321   0.025
 9145SOL    HW228335   6.635   5.360   6.897
 9146SOL     OW28336   5.322   2.322   2.746
 9146SOL    HW128337   5.259   2.306   2.670
 9146SOL    HW228338   5.395   2.384   2.716
 9147SOL     OW28339   5.665   0.346   4.059
 9147SOL    HW128340   5.720   0.423   4.028
 9147SOL    HW228341   5.714   0.297   4.132
 9148SOL     OW28342   4.798   6.599   0.568
 9148SOL    HW128343   4.852   6.611   0.651
 9148SOL    HW228344   4.727   6.530   0.583
 9149SOL     OW28345   5.152   3.168   3.614
 9149SOL    HW128346   5.109   3.078   3.622
 9149SOL    HW228347   5.239   3.167   3.664
 9150SOL     OW28348   3.328   5.035   3.460
 9150SOL    HW128349   3.238   5.036   3.416
 9150SOL    HW228350   3.323   5.085   3.546
 9151SOL     OW28351   1.601   4.132   3.786
 9151SOL    HW128352   1.602   4.228   3.816
 9151SOL    HW228353   1.639   4.126   3.694
 9152SOL     OW28354   2.477   4.885   4.861
 9152SOL    HW128355   2.455   4.912   4.954
 9152SOL    HW228356   2.408   4.820   4.828
 9153SOL     OW28357   1.061   3.122   0.867
 9153SOL    HW128358   1.119   3.067   0.927
 9153SOL    HW228359   1.119   3.169   0.800
 9154SOL     OW28360   4.498   5.172   6.547
 9154SOL    HW128361   4.404   5.139   6.538
 9154SOL    HW228362   4.557   5.097   6.575
 9155SOL     OW28363   0.706   3.333   1.107
 9155SOL    HW128364   0.762   3.273   1.050
 9155SOL    HW228365   0.609   3.312   1.093
 9156SOL     OW28366   1.947   2.550   0.060
 9156SOL    HW128367   1.872   2.614   0.077
 9156SOL    HW228368   1.936   2.510   6.991
 9157SOL     OW28369   6.209   4.413   6.540
 9157SOL    HW128370   6.131   4.351   6.545
 9157SOL    HW228371   6.250   4.408   6.448
 9158SOL     OW28372   5.830   3.610   4.512
 9158SOL    HW128373   5.749   3.593   4.456
 9158SOL    HW228374   5.804   3.609   4.609
 9159SOL     OW28375   1.560   0.165   2.784
 9159SOL    HW128376   1.603   0.234   2.841
 9159SOL    HW228377   1.471   0.140   2.823
 9160SOL     OW28378   6.370   0.161   4.660
 9160SOL    HW128379   6.289   0.145   4.604
 9160SOL    HW228380   6.445   0.103   4.627
 9161SOL     OW28381   4.762   4.304   4.799
 9161SOL    HW128382   4.679   4.355   4.781
 9161SOL    HW228383   4.817   4.300   4.716
 9162SOL     OW28384   4.712   1.133   3.995
 9162SOL    HW128385   4.782   1.127   4.066
 9162SOL    HW228386   4.659   1.216   4.008
 9163SOL     OW28387   2.131   3.274   4.645
 9163SOL    HW128388   2.172   3.208   4.583
 9163SOL    HW228389   2.158   3.254   4.739
 9164SOL     OW28390   2.341   0.675   6.851
 9164SOL    HW128391   2.424   0.665   6.906
 9164SOL    HW228392   2.268   0.619   6.890
 9165SOL     OW28393   6.030   1.801   5.452
 9165SOL    HW128394   6.065   1.789   5.545
 9165SOL    HW228395   6.023   1.899   5.432
 9166SOL     OW28396   4.347   6.249   0.753
 9166SOL    HW128397   4.330   6.288   0.843
 9166SOL    HW228398   4.373   6.153   0.762
 9167SOL     OW28399   2.006   2.743   6.576
 9167SOL    HW128400   1.998   2.659   6.523
 9167SOL    HW228401   2.102   2.774   6.576
 9168SOL     OW28402   1.017   0.306   6.939
 9168SOL    HW128403   0.920   0.318   6.959
 9168SOL    HW228404   1.069   0.379   6.983
 9169SOL     OW28405   5.976   1.223   5.455
 9169SOL    HW128406   6.066   1.181   5.467
 9169SOL    HW228407   5.940   1.199   5.364
 9170SOL     OW28408   1.406   5.087   0.039
 9170SOL    HW128409   1.429   5.182   0.057
 9170SOL    HW228410   1.450   5.028   0.107
 9171SOL     OW28411   3.884   4.904   0.586
 9171SOL    HW128412   3.788   4.914   0.613
 9171SOL    HW228413   3.908   4.976   0.521
 9172SOL     OW28414   3.576   0.555   4.332
 9172SOL    HW128415   3.548   0.500   4.411
 9172SOL    HW228416   3.497   0.570   4.273
 9173SOL     OW28417   6.425   3.875   4.931
 9173SOL    HW128418   6.462   3.949   4.875
 9173SOL    HW228419   6.468   3.789   4.905
 9174SOL     OW28420   6.094   4.325   1.462
 9174SOL    HW128421   6.092   4.304   1.559
 9174SOL    HW228422   6.008   4.367   1.434
 9175SOL     OW28423   0.256   6.851   3.969
 9175SOL    HW128424   0.264   6.832   3.871
 9175SOL    HW228425   0.192   6.927   3.982
 9176SOL     OW28426   3.072   1.397   5.253
 9176SOL    HW128427   3.010   1.322   5.232
 9176SOL    HW228428   3.141   1.366   5.318
 9177SOL     OW28429   0.520   5.153   4.793
 9177SOL    HW128430   0.433   5.146   4.743
 9177SOL    HW228431   0.592   5.184   4.731
 9178SOL     OW28432   2.080   5.461   0.402
 9178SOL    HW128433   2.008   5.504   0.347
 9178SOL    HW228434   2.142   5.410   0.342
 9179SOL     OW28435   2.701   5.419   4.583
 9179SOL    HW128436   2.784   5.467   4.612
 9179SOL    HW228437   2.727   5.334   4.537
 9180SOL     OW28438   5.917   2.585   3.042
 9180SOL    HW128439   5.824   2.619   3.030
 9180SOL    HW228440   5.917   2.485   3.034
 9181SOL     OW28441   4.057   2.236   4.337
 9181SOL    HW128442   4.101   2.148   4.356
 9181SOL    HW228443   4.079   2.264   4.243
 9182SOL     OW28444   2.255   6.551   2.169
 9182SOL    HW128445   2.265   6.651   2.161
 9182SOL    HW228446   2.170   6.522   2.127
 9183SOL     OW28447   5.095   5.779   0.473
 9183SOL    HW128448   5.109   5.726   0.389
 9183SOL    HW228449   5.126   5.873   0.458
 9184SOL     OW28450   5.041   1.862   0.664
 9184SOL    HW128451   5.086   1.862   0.753
 9184SOL    HW228452   4.999   1.951   0.648
 9185SOL     OW28453   4.288   6.611   4.471
 9185SOL    HW128454   4.233   6.533   4.445
 9185SOL    HW228455   4.377   6.607   4.425
 9186SOL     OW28456   5.722   0.023   4.125
 9186SOL    HW128457   5.662   6.974   4.160
 9186SOL    HW228458   5.733   0.095   4.193
 9187SOL     OW28459   2.455   1.616   1.155
 9187SOL    HW128460   2.532   1.680   1.163
 9187SOL    HW228461   2.422   1.593   1.246
 9188SOL     OW28462   1.448   6.420   1.843
 9188SOL    HW128463   1.396   6.419   1.758
 9188SOL    HW228464   1.441   6.331   1.888
 9189SOL     OW28465   4.740   6.565   1.242
 9189SOL    HW128466   4.839   6.575   1.242
 9189SOL    HW228467   4.716   6.468   1.255
 9190SOL     OW28468   2.266   4.501   6.637
 9190SOL    HW128469   2.228   4.550   6.558
 9190SOL    HW228470   2.349   4.453   6.610
 9191SOL     OW28471   6.439   2.074   5.491
 9191SOL    HW128472   6.523   2.092   5.439
 9191SOL    HW228473   6.425   1.976   5.499
 9192SOL     OW28474   0.328   3.749   6.364
 9192SOL    HW128475   0.228   3.754   6.359
 9192SOL    HW228476   0.356   3.736   6.459
 9193SOL     OW28477   4.889   4.327   0.174
 9193SOL    HW128478   4.908   4.279   0.259
 9193SOL    HW228479   4.893   4.263   0.098
 9194SOL     OW28480   2.879   0.213   3.502
 9194SOL    HW128481   2.932   0.255   3.427
 9194SOL    HW228482   2.788   0.188   3.469
 9195SOL     OW28483   1.442   1.596   4.009
 9195SOL    HW128484   1.410   1.655   3.935
 9195SOL    HW228485   1.423   1.501   3.987
 9196SOL     OW28486   4.457   6.528   3.376
 9196SOL    HW128487   4.445   6.622   3.344
 9196SOL    HW228488   4.489   6.471   3.300
 9197SOL     OW28489   1.803   4.910   2.280
 9197SOL    HW128490   1.845   4.996   2.305
 9197SOL    HW228491   1.743   4.923   2.201
 9198SOL     OW28492   6.457   5.072   6.489
 9198SOL    HW128493   6.368   5.117   6.476
 9198SOL    HW228494   6.503   5.064   6.401
 9199SOL     OW28495   1.161   4.398   5.625
 9199SOL    HW128496   1.120   4.379   5.536
 9199SOL    HW228497   1.183   4.496   5.631
 9200SOL     OW28498   2.458   0.272   0.606
 9200SOL    HW128499   2.473   0.173   0.601
 9200SOL    HW228500   2.542   0.317   0.635
 9201SOL     OW28501   0.929   2.547   0.990
 9201SOL    HW128502   0.974   2.637   0.994
 9201SOL    HW228503   0.847   2.554   0.933
 9202SOL     OW28504   1.329   6.997   2.318
 9202SOL    HW128505   1.363   6.904   2.326
 9202SOL    HW228506   1.391   0.038   2.366
 9203SOL     OW28507   0.984   4.463   6.832
 9203SOL    HW128508   1.033   4.393   6.779
 9203SOL    HW228509   0.886   4.446   6.827
 9204SOL     OW28510   5.054   3.159   6.166
 9204SOL    HW128511   4.974   3.103   6.187
 9204SOL    HW228512   5.087   3.136   6.074
 9205SOL     OW28513   6.318   4.634   3.271
 9205SOL    HW128514   6.268   4.649   3.185
 9205SOL    HW228515   6.331   4.721   3.318
 9206SOL     OW28516   3.890   5.235   2.077
 9206SOL    HW128517   3.889   5.231   2.177
 9206SOL    HW228518   3.924   5.324   2.047
 9207SOL     OW28519   4.913   4.002   6.261
 9207SOL    HW128520   4.945   3.932   6.197
 9207SOL    HW228521   4.978   4.011   6.336
 9208SOL     OW28522   6.225   4.033   3.913
 9208SOL    HW128523   6.135   4.076   3.917
 9208SOL    HW228524   6.231   3.961   3.982
 9209SOL     OW28525   3.461   0.376   6.625
 9209SOL    HW128526   3.503   0.466   6.633
 9209SOL    HW228527   3.378   0.383   6.569
 9210SOL     OW28528   7.015   1.298   2.948
 9210SOL    HW128529   6.966   1.357   2.884
 9210SOL    HW228530   7.015   1.204   2.913
 9211SOL     OW28531   0.195   2.314   5.628
 9211SOL    HW128532   0.267   2.273   5.572
 9211SOL    HW228533   0.234   2.343   5.716
 9212SOL     OW28534   5.104   5.310   4.255
 9212SOL    HW128535   5.080   5.214   4.240
 9212SOL    HW228536   5.195   5.328   4.217
 9213SOL     OW28537   5.226   3.676   5.749
 9213SOL    HW128538   5.290   3.751   5.730
 9213SOL    HW228539   5.241   3.603   5.683
 9214SOL     OW28540   6.496   3.618   6.755
 9214SOL    HW128541   6.556   3.649   6.828
 9214SOL    HW228542   6.401   3.620   6.786
 9215SOL     OW28543   0.749   2.382   1.440
 9215SOL    HW128544   0.650   2.373   1.443
 9215SOL    HW228545   0.777   2.419   1.351
 9216SOL     OW28546   2.982   0.523   2.186
 9216SOL    HW128547   2.949   0.617   2.179
 9216SOL    HW228548   2.905   0.460   2.176
 9217SOL     OW28549   0.652   2.109   6.871
 9217SOL    HW128550   0.610   2.093   6.961
 9217SOL    HW228551   0.638   2.029   6.813
 9218SOL     OW28552   2.576   6.589   0.378
 9218SOL    HW128553   2.542   6.635   0.296
 9218SOL    HW228554   2.590   6.492   0.358
 9219SOL     OW28555   7.020   2.617   1.621
 9219SOL    HW128556   6.994   2.541   1.680
 9219SOL    HW228557   0.022   2.583   1.531
 9220SOL     OW28558   1.626   6.733   1.217
 9220SOL    HW128559   1.711   6.742   1.166
 9220SOL    HW228560   1.568   6.813   1.201
 9221SOL     OW28561   2.868   0.818   3.441
 9221SOL    HW128562   2.945   0.809   3.380
 9221SOL    HW228563   2.896   0.869   3.523
 9222SOL     OW28564   2.013   0.289   6.370
 9222SOL    HW128565   1.923   0.252   6.348
 9222SOL    HW228566   2.004   0.384   6.399
 9223SOL     OW28567   0.825   1.155   4.120
 9223SOL    HW128568   0.853   1.187   4.030
 9223SOL    HW228569   0.903   1.115   4.168
 9224SOL     OW28570   1.806   4.984   4.748
 9224SOL    HW128571   1.789   4.902   4.693
 9224SOL    HW228572   1.731   4.996   4.813
 9225SOL     OW28573   3.197   6.505   5.855
 9225SOL    HW128574   3.259   6.552   5.918
 9225SOL    HW228575   3.243   6.491   5.768
 9226SOL     OW28576   6.250   6.629   1.119
 9226SOL    HW128577   6.166   6.661   1.164
 9226SOL    HW228578   6.249   6.657   1.023
 9227SOL     OW28579   1.021   5.048   0.702
 9227SOL    HW128580   1.105   5.095   0.674
 9227SOL    HW228581   0.973   5.014   0.621
 9228SOL     OW28582   1.666   1.174   5.616
 9228SOL    HW128583   1.589   1.110   5.619
 9228SOL    HW228584   1.632   1.266   5.597
 9229SOL     OW28585   0.563   5.754   4.484
 9229SOL    HW128586   0.513   5.797   4.559
 9229SOL    HW228587   0.545   5.655   4.485
 9230SOL     OW28588   4.797   1.848   3.307
 9230SOL    HW128589   4.887   1.805   3.309
 9230SOL    HW228590   4.782   1.898   3.393
 9231SOL     OW28591   0.646   4.289   4.700
 9231SOL    HW128592   0.601   4.271   4.613
 9231SOL    HW228593   0.734   4.334   4.683
 9232SOL     OW28594   3.801   5.466   0.476
 9232SOL    HW128595   3.810   5.553   0.427
 9232SOL    HW228596   3.855   5.396   0.430
 9233SOL     OW28597   5.217   5.260   2.053
 9233SOL    HW128598   5.295   5.236   1.994
 9233SOL    HW228599   5.237   5.346   2.100
 9234SOL     OW28600   3.636   5.469   5.855
 9234SOL    HW128601   3.683   5.401   5.910
 9234SOL    HW228602   3.703   5.533   5.817
 9235SOL     OW28603   1.728   3.012   3.272
 9235SOL    HW128604   1.690   3.101   3.298
 9235SOL    HW228605   1.823   3.024   3.242
 9236SOL     OW28606   2.965   4.007   5.444
 9236SOL    HW128607   2.918   4.091   5.418
 9236SOL    HW228608   2.984   3.952   5.363
 9237SOL     OW28609   1.602   5.304   4.826
 9237SOL    HW128610   1.609   5.379   4.759
 9237SOL    HW228611   1.518   5.252   4.809
 9238SOL     OW28612   3.859   1.829   6.608
 9238SOL    HW128613   3.822   1.756   6.664
 9238SOL    HW228614   3.896   1.791   6.523
 9239SOL     OW28615   6.865   4.659   0.705
 9239SOL    HW128616   6.947   4.653   0.762
 9239SOL    HW228617   6.860   4.578   0.646
 9240SOL     OW28618   4.778   1.509   1.148
 9240SOL    HW128619   4.741   1.419   1.172
 9240SOL    HW228620   4.770   1.570   1.227
 9241SOL     OW28621   0.666   5.279   5.671
 9241SOL    HW128622   0.576   5.280   5.712
 9241SOL    HW228623   0.684   5.189   5.631
 9242SOL     OW28624   0.038   5.443   0.708
 9242SOL    HW128625   0.044   5.537   0.676
 9242SOL    HW228626   0.003   5.385   0.635
 9243SOL     OW28627   6.101   6.819   2.083
 9243SOL    HW128628   6.063   6.903   2.046
 9243SOL    HW228629   6.049   6.741   2.049
 9244SOL     OW28630   4.676   4.953   6.610
 9244SOL    HW128631   4.755   4.895   6.631
 9244SOL    HW228632   4.631   4.981   6.695
 9245SOL     OW28633   1.448   4.751   3.391
 9245SOL    HW128634   1.532   4.706   3.420
 9245SOL    HW228635   1.469   4.845   3.362
 9246SOL     OW28636   0.292   4.318   2.851
 9246SOL    HW128637   0.352   4.240   2.871
 9246SOL    HW228638   0.198   4.294   2.875
 9247SOL     OW28639   0.905   0.029   2.825
 9247SOL    HW128640   0.892   0.127   2.817
 9247SOL    HW228641   0.888   7.022   2.919
 9248SOL     OW28642   1.654   2.518   5.272
 9248SOL    HW128643   1.631   2.423   5.255
 9248SOL    HW228644   1.570   2.572   5.277
 9249SOL     OW28645   4.745   3.438   6.891
 9249SOL    HW128646   4.715   3.443   6.986
 9249SOL    HW228647   4.844   3.425   6.888
 9250SOL     OW28648   5.273   3.182   4.952
 9250SOL    HW128649   5.363   3.183   4.908
 9250SOL    HW228650   5.255   3.271   4.994
 9251SOL     OW28651   4.100   2.251   3.287
 9251SOL    HW128652   4.068   2.292   3.202
 9251SOL    HW228653   4.199   2.261   3.294
 9252SOL     OW28654   5.839   0.508   4.342
 9252SOL    HW128655   5.869   0.479   4.251
 9252SOL    HW228656   5.764   0.574   4.332
 9253SOL     OW28657   5.771   6.604   5.516
 9253SOL    HW128658   5.740   6.509   5.514
 9253SOL    HW228659   5.833   6.620   5.439
 9254SOL     OW28660   6.446   4.158   3.011
 9254SOL    HW128661   6.519   4.132   2.948
 9254SOL    HW228662   6.362   4.177   2.960
 9255SOL     OW28663   4.981   4.170   0.417
 9255SOL    HW128664   4.997   4.216   0.504
 9255SOL    HW228665   4.912   4.099   0.429
 9256SOL     OW28666   3.954   6.776   2.478
 9256SOL    HW128667   3.953   6.874   2.455
 9256SOL    HW228668   3.980   6.724   2.397
 9257SOL     OW28669   0.577   3.849   3.266
 9257SOL    HW128670   0.487   3.817   3.293
 9257SOL    HW228671   0.642   3.773   3.267
 9258SOL     OW28672   3.240   3.539   3.503
 9258SOL    HW128673   3.266   3.443   3.492
 9258SOL    HW228674   3.287   3.595   3.435
 9259SOL     OW28675   1.230   2.229   0.616
 9259SOL    HW128676   1.199   2.194   0.528
 9259SOL    HW228677   1.236   2.329   0.612
 9260SOL     OW28678   5.012   1.785   5.648
 9260SOL    HW128679   5.005   1.731   5.564
 9260SOL    HW228680   4.960   1.870   5.637
 9261SOL     OW28681   4.479   0.458   6.846
 9261SOL    HW128682   4.554   0.441   6.782
 9261SOL    HW228683   4.454   0.373   6.891
 9262SOL     OW28684   6.380   3.352   5.247
 9262SOL    HW128685   6.301   3.303   5.282
 9262SOL    HW228686   6.416   3.414   5.317
 9263SOL     OW28687   5.539   5.155   1.952
 9263SOL    HW128688   5.588   5.149   2.039
 9263SOL    HW228689   5.590   5.214   1.890
 9264SOL     OW28690   5.513   3.997   0.256
 9264SOL    HW128691   5.610   4.014   0.274
 9264SOL    HW228692   5.494   4.014   0.159
 9265SOL     OW28693   2.853   1.688   6.719
 9265SOL    HW128694   2.882   1.779   6.689
 9265SOL    HW228695   2.929   1.643   6.767
 9266SOL     OW28696   1.660   6.293   2.094
 9266SOL    HW128697   1.697   6.235   2.021
 9266SOL    HW228698   1.565   6.317   2.072
 9267SOL     OW28699   0.281   3.944   6.152
 9267SOL    HW128700   0.281   4.037   6.187
 9267SOL    HW228701   0.315   3.882   6.223
 9268SOL     OW28702   1.692   5.113   1.512
 9268SOL    HW128703   1.769   5.144   1.456
 9268SOL    HW228704   1.609   5.164   1.485
 9269SOL     OW28705   3.393   2.107   5.802
 9269SOL    HW128706   3.481   2.151   5.786
 9269SOL    HW228707   3.373   2.107   5.900
 9270SOL     OW28708   4.541   0.001   5.921
 9270SOL    HW128709   4.524   0.026   6.016
 9270SOL    HW228710   4.606   0.065   5.880
 9271SOL     OW28711   2.205   5.957   6.545
 9271SOL    HW128712   2.130   5.893   6.528
 9271SOL    HW228713   2.169   6.050   6.553
 9272SOL     OW28714   1.768   5.846   5.791
 9272SOL    HW128715   1.673   5.871   5.773
 9272SOL    HW228716   1.810   5.810   5.707
 9273SOL     OW28717   4.986   5.884   4.192
 9273SOL    HW128718   4.957   5.977   4.212
 9273SOL    HW228719   4.931   5.847   4.117
 9274SOL     OW28720   6.667   2.592   0.442
 9274SOL    HW128721   6.716   2.636   0.367
 9274SOL    HW228722   6.725   2.520   0.481
 9275SOL     OW28723   6.974   1.904   0.383
 9275SOL    HW128724   6.914   1.917   0.304
 9275SOL    HW228725   0.031   1.965   0.376
 9276SOL     OW28726   2.185   4.810   2.985
 9276SOL    HW128727   2.173   4.717   3.021
 9276SOL    HW228728   2.209   4.806   2.888
 9277SOL     OW28729   5.443   3.241   0.459
 9277SOL    HW128730   5.399   3.330   0.462
 9277SOL    HW228731   5.456   3.207   0.552
 9278SOL     OW28732   1.278   0.719   4.804
 9278SOL    HW128733   1.214   0.792   4.779
 9278SOL    HW228734   1.231   0.631   4.800
 9279SOL     OW28735   4.683   0.623   2.055
 9279SOL    HW128736   4.658   0.561   2.130
 9279SOL    HW228737   4.712   0.711   2.092
 9280SOL     OW28738   1.589   1.262   2.724
 9280SOL    HW128739   1.541   1.224   2.804
 9280SOL    HW228740   1.557   1.216   2.641
 9281SOL     OW28741   3.071   4.263   1.141
 9281SOL    HW128742   3.105   4.338   1.085
 9281SOL    HW228743   3.002   4.211   1.090
 9282SOL     OW28744   4.708   1.562   4.870
 9282SOL    HW128745   4.792   1.611   4.847
 9282SOL    HW228746   4.721   1.515   4.958
 9283SOL     OW28747   5.505   0.609   3.906
 9283SOL    HW128748   5.589   0.584   3.858
 9283SOL    HW228749   5.432   0.544   3.883
 9284SOL     OW28750   3.312   4.794   5.577
 9284SOL    HW128751   3.219   4.757   5.582
 9284SOL    HW228752   3.373   4.736   5.631
 9285SOL     OW28753   5.367   3.051   1.213
 9285SOL    HW128754   5.310   3.121   1.255
 9285SOL    HW228755   5.463   3.079   1.218
 9286SOL     OW28756   5.342   6.598   6.305
 9286SOL    HW128757   5.281   6.672   6.275
 9286SOL    HW228758   5.310   6.512   6.266
 9287SOL     OW28759   3.371   5.420   0.825
 9287SOL    HW128760   3.392   5.361   0.903
 9287SOL    HW228761   3.436   5.401   0.751
 9288SOL     OW28762   4.055   1.302   4.458
 9288SOL    HW128763   4.015   1.264   4.541
 9288SOL    HW228764   4.004   1.384   4.431
 9289SOL     OW28765   3.528   2.084   2.690
 9289SOL    HW128766   3.546   2.044   2.780
 9289SOL    HW228767   3.471   2.165   2.701
 9290SOL     OW28768   4.682   1.905   3.585
 9290SOL    HW128769   4.745   1.904   3.662
 9290SOL    HW228770   4.632   1.818   3.581
 9291SOL     OW28771   2.393   0.089   4.799
 9291SOL    HW128772   2.331   0.024   4.844
 9291SOL    HW228773   2.391   0.176   4.848
 9292SOL     OW28774   0.433   3.042   6.742
 9292SOL    HW128775   0.395   3.045   6.649
 9292SOL    HW228776   0.385   2.971   6.794
 9293SOL     OW28777   5.624   3.711   0.083
 9293SOL    HW128778   5.630   3.633   0.022
 9293SOL    HW228779   5.553   3.774   0.050
 9294SOL     OW28780   3.279   6.575   4.953
 9294SOL    HW128781   3.183   6.570   4.980
 9294SOL    HW228782   3.292   6.522   4.869
 9295SOL     OW28783   4.934   2.556   4.496
 9295SOL    HW128784   4.909   2.460   4.481
 9295SOL    HW228785   4.936   2.575   4.594
 9296SOL     OW28786   0.478   6.700   6.226
 9296SOL    HW128787   0.410   6.756   6.179
 9296SOL    HW228788   0.568   6.741   6.215
 9297SOL     OW28789   6.072   1.187   0.571
 9297SOL    HW128790   5.983   1.147   0.549
 9297SOL    HW228791   6.144   1.139   0.521
 9298SOL     OW28792   1.637   0.564   4.732
 9298SOL    HW128793   1.547   0.524   4.711
 9298SOL    HW228794   1.647   0.651   4.684
 9299SOL     OW28795   0.644   2.812   4.580
 9299SOL    HW128796   0.689   2.857   4.503
 9299SOL    HW228797   0.618   2.719   4.553
 9300SOL     OW28798   0.391   4.436   5.278
 9300SOL    HW128799   0.345   4.437   5.367
 9300SOL    HW228800   0.343   4.497   5.215
 9301SOL     OW28801   5.040   4.112   3.698
 9301SOL    HW128802   5.058   4.202   3.659
 9301SOL    HW228803   5.088   4.103   3.785
 9302SOL     OW28804   2.182   3.106   4.433
 9302SOL    HW128805   2.138   3.047   4.366
 9302SOL    HW228806   2.180   3.201   4.401
 9303SOL     OW28807   4.004   5.900   0.315
 9303SOL    HW128808   4.064   5.917   0.393
 9303SOL    HW228809   3.944   5.980   0.302
 9304SOL     OW28810   4.786   4.117   1.501
 9304SOL    HW128811   4.776   4.090   1.597
 9304SOL    HW228812   4.883   4.120   1.478
 9305SOL     OW28813   3.512   1.440   2.182
 9305SOL    HW128814   3.433   1.440   2.244
 9305SOL    HW228815   3.594   1.413   2.233
 9306SOL     OW28816   0.153   4.313   4.869
 9306SOL    HW128817   0.095   4.278   4.942
 9306SOL    HW228818   0.171   4.241   4.802
 9307SOL     OW28819   1.510   3.425   0.977
 9307SOL    HW128820   1.528   3.484   1.056
 9307SOL    HW228821   1.424   3.375   0.992
 9308SOL     OW28822   0.999   4.207   0.748
 9308SOL    HW128823   1.061   4.129   0.751
 9308SOL    HW228824   0.954   4.210   0.658
 9309SOL     OW28825   3.615   4.952   5.623
 9309SOL    HW128826   3.630   4.934   5.720
 9309SOL    HW228827   3.626   4.867   5.571
 9310SOL     OW28828   4.254   5.268   5.837
 9310SOL    HW128829   4.265   5.283   5.739
 9310SOL    HW228830   4.217   5.351   5.880
 9311SOL     OW28831   4.963   5.553   1.702
 9311SOL    HW128832   4.908   5.565   1.620
 9311SOL    HW228833   4.997   5.459   1.706
 9312SOL     OW28834   1.307   3.586   1.225
 9312SOL    HW128835   1.262   3.639   1.297
 9312SOL    HW228836   1.300   3.634   1.138
 9313SOL     OW28837   6.675   0.541   0.957
 9313SOL    HW128838   6.636   0.471   1.017
 9313SOL    HW228839   6.617   0.622   0.959
 9314SOL     OW28840   4.649   5.818   6.208
 9314SOL    HW128841   4.566   5.874   6.217
 9314SOL    HW228842   4.672   5.809   6.112
 9315SOL     OW28843   6.331   0.832   5.267
 9315SOL    HW128844   6.235   0.843   5.293
 9315SOL    HW228845   6.345   0.864   5.174
 9316SOL     OW28846   4.390   6.141   5.199
 9316SOL    HW128847   4.416   6.080   5.274
 9316SOL    HW228848   4.470   6.196   5.172
 9317SOL     OW28849   6.597   5.161   3.257
 9317SOL    HW128850   6.547   5.098   3.198
 9317SOL    HW228851   6.587   5.254   3.223
 9318SOL     OW28852   6.107   0.327   5.689
 9318SOL    HW128853   6.070   0.242   5.651
 9318SOL    HW228854   6.118   0.318   5.788
 9319SOL     OW28855   1.039   2.553   0.023
 9319SOL    HW128856   1.009   2.510   6.960
 9319SOL    HW228857   0.967   2.546   0.091
 9320SOL     OW28858   3.656   1.316   6.123
 9320SOL    HW128859   3.575   1.262   6.146
 9320SOL    HW228860   3.734   1.256   6.110
 9321SOL     OW28861   6.282   0.236   3.214
 9321SOL    HW128862   6.218   0.250   3.139
 9321SOL    HW228863   6.262   0.149   3.259
 9322SOL     OW28864   1.059   4.793   6.394
 9322SOL    HW128865   1.039   4.771   6.490
 9322SOL    HW228866   1.133   4.734   6.362
 9323SOL     OW28867   1.661   0.212   5.453
 9323SOL    HW128868   1.581   0.195   5.395
 9323SOL    HW228869   1.632   0.216   5.548
 9324SOL     OW28870   1.494   4.783   0.674
 9324SOL    HW128871   1.450   4.835   0.747
 9324SOL    HW228872   1.519   4.692   0.707
 9325SOL     OW28873   4.940   0.940   6.660
 9325SOL    HW128874   4.920   0.895   6.573
 9325SOL    HW228875   5.038   0.960   6.665
 9326SOL     OW28876   2.062   6.509   0.845
 9326SOL    HW128877   1.990   6.528   0.778
 9326SOL    HW228878   2.021   6.497   0.935
 9327SOL     OW28879   4.809   6.796   2.804
 9327SOL    HW128880   4.897   6.805   2.851
 9327SOL    HW228881   4.824   6.789   2.705
 9328SOL     OW28882   3.341   0.636   5.554
 9328SOL    HW128883   3.286   0.702   5.503
 9328SOL    HW228884   3.435   0.669   5.560
 9329SOL     OW28885   6.822   4.199   2.634
 9329SOL    HW128886   6.785   4.218   2.543
 9329SOL    HW228887   6.898   4.261   2.653
 9330SOL     OW28888   6.856   6.221   6.263
 9330SOL    HW128889   6.952   6.240   6.283
 9330SOL    HW228890   6.799   6.293   6.302
 9331SOL     OW28891   1.352   1.187   6.327
 9331SOL    HW128892   1.407   1.109   6.298
 9331SOL    HW228893   1.408   1.270   6.324
 9332SOL     OW28894   3.916   3.873   1.857
 9332SOL    HW128895   3.988   3.901   1.793
 9332SOL    HW228896   3.830   3.861   1.806
 9333SOL     OW28897   4.416   3.402   1.436
 9333SOL    HW128898   4.370   3.367   1.518
 9333SOL    HW228899   4.362   3.475   1.395
 9334SOL     OW28900   4.798   5.600   3.924
 9334SOL    HW128901   4.754   5.580   3.837
 9334SOL    HW228902   4.832   5.515   3.965
 9335SOL     OW28903   0.933   1.536   6.081
 9335SOL    HW128904   0.891   1.497   5.999
 9335SOL    HW228905   1.032   1.540   6.070
 9336SOL     OW28906   2.996   5.151   5.179
 9336SOL    HW128907   2.958   5.149   5.271
 9336SOL    HW228908   3.079   5.096   5.176
 9337SOL     OW28909   5.598   1.869   3.809
 9337SOL    HW128910   5.567   1.799   3.746
 9337SOL    HW228911   5.597   1.833   3.903
 9338SOL     OW28912   3.867   0.364   2.046
 9338SOL    HW128913   3.848   0.419   1.965
 9338SOL    HW228914   3.783   0.318   2.075
 9339SOL     OW28915   5.614   0.276   1.487
 9339SOL    HW128916   5.657   0.353   1.535
 9339SOL    HW228917   5.574   0.309   1.401
 9340SOL     OW28918   5.626   3.630   4.008
 9340SOL    HW128919   5.679   3.662   4.086
 9340SOL    HW228920   5.539   3.592   4.040
 9341SOL     OW28921   0.280   6.145   0.200
 9341SOL    HW128922   0.366   6.194   0.185
 9341SOL    HW228923   0.287   6.054   0.157
 9342SOL     OW28924   1.782   0.081   3.276
 9342SOL    HW128925   1.792   7.006   3.254
 9342SOL    HW228926   1.685   0.101   3.291
 9343SOL     OW28927   5.979   4.247   2.735
 9343SOL    HW128928   5.956   4.150   2.741
 9343SOL    HW228929   5.951   4.294   2.819
 9344SOL     OW28930   4.551   6.425   1.820
 9344SOL    HW128931   4.552   6.466   1.728
 9344SOL    HW228932   4.594   6.335   1.816
 9345SOL     OW28933   6.519   4.683   2.552
 9345SOL    HW128934   6.537   4.711   2.647
 9345SOL    HW228935   6.486   4.589   2.551
 9346SOL     OW28936   5.955   0.658   1.024
 9346SOL    HW128937   5.873   0.708   0.997
 9346SOL    HW228938   6.030   0.723   1.040
 9347SOL     OW28939   0.822   4.185   0.512
 9347SOL    HW128940   0.728   4.178   0.477
 9347SOL    HW228941   0.887   4.171   0.438
 9348SOL     OW28942   4.208   5.915   1.808
 9348SOL    HW128943   4.143   5.876   1.743
 9348SOL    HW228944   4.255   5.992   1.766
 9349SOL     OW28945   0.947   6.388   2.487
 9349SOL    HW128946   0.882   6.458   2.457
 9349SOL    HW228947   0.967   6.326   2.412
 9350SOL     OW28948   0.109   3.399   5.316
 9350SOL    HW128949   0.060   3.444   5.392
 9350SOL    HW228950   0.182   3.342   5.353
 9351SOL     OW28951   2.837   0.133   6.665
 9351SOL    HW128952   2.774   0.202   6.631
 9351SOL    HW228953   2.789   0.046   6.676
 9352SOL     OW28954   3.321   2.122   6.856
 9352SOL    HW128955   3.417   2.125   6.828
 9352SOL    HW228956   3.288   2.214   6.874
 9353SOL     OW28957   0.543   4.921   0.586
 9353SOL    HW128958   0.619   4.863   0.614
 9353SOL    HW228959   0.464   4.903   0.645
 9354SOL     OW28960   6.447   1.830   6.450
 9354SOL    HW128961   6.373   1.809   6.386
 9354SOL    HW228962   6.506   1.900   6.411
 9355SOL     OW28963   0.487   2.626   4.893
 9355SOL    HW128964   0.447   2.607   4.982
 9355SOL    HW228965   0.584   2.649   4.904
 9356SOL     OW28966   4.591   0.085   1.544
 9356SOL    HW128967   4.580   0.104   1.447
 9356SOL    HW228968   4.675   0.033   1.558
 9357SOL     OW28969   0.765   3.576   6.374
 9357SOL    HW128970   0.785   3.540   6.284
 9357SOL    HW228971   0.694   3.646   6.367
 9358SOL     OW28972   0.136   3.784   2.393
 9358SOL    HW128973   0.078   3.770   2.473
 9358SOL    HW228974   0.097   3.734   2.315
 9359SOL     OW28975   1.608   4.965   0.185
 9359SOL    HW128976   1.657   4.904   0.123
 9359SOL    HW228977   1.597   4.920   0.274
 9360SOL     OW28978   1.916   5.165   6.097
 9360SOL    HW128979   1.863   5.166   6.012
 9360SOL    HW228980   1.872   5.223   6.165
 9361SOL     OW28981   1.675   5.204   3.171
 9361SOL    HW128982   1.666   5.289   3.118
 9361SOL    HW228983   1.716   5.134   3.114
 9362SOL     OW28984   1.130   0.933   2.457
 9362SOL    HW128985   1.115   0.969   2.365
 9362SOL    HW228986   1.119   0.834   2.457
 9363SOL     OW28987   3.966   5.060   1.750
 9363SOL    HW128988   4.013   5.035   1.835
 9363SOL    HW228989   3.867   5.059   1.766
 9364SOL     OW28990   2.408   2.072   0.320
 9364SOL    HW128991   2.327   2.097   0.268
 9364SOL    HW228992   2.418   1.972   0.322
 9365SOL     OW28993   2.924   1.761   3.613
 9365SOL    HW128994   2.919   1.715   3.524
 9365SOL    HW228995   2.890   1.699   3.684
 9366SOL     OW28996   3.308   5.170   0.622
 9366SOL    HW128997   3.394   5.203   0.586
 9366SOL    HW228998   3.326   5.109   0.700
 9367SOL     OW28999   6.211   0.237   1.604
 9367SOL    HW129000   6.218   0.150   1.554
 9367SOL    HW229001   6.145   0.228   1.678
 9368SOL     OW29002   3.767   6.414   2.075
 9368SOL    HW129003   3.746   6.317   2.059
 9368SOL    HW229004   3.715   6.469   2.009
 9369SOL     OW29005   0.069   5.984   4.961
 9369SOL    HW129006   0.134   6.006   5.034
 9369SOL    HW229007   0.117   5.935   4.888
 9370SOL     OW29008   5.195   0.112   3.487
 9370SOL    HW129009   5.172   0.144   3.579
 9370SOL    HW229010   5.294   0.112   3.475
 9371SOL     OW29011   2.648   5.784   1.157
 9371SOL    HW129012   2.693   5.695   1.162
 9371SOL    HW229013   2.601   5.792   1.069
 9372SOL     OW29014   5.093   6.953   1.675
 9372SOL    HW129015   5.112   6.876   1.736
 9372SOL    HW229016   5.090   0.016   1.729
 9373SOL     OW29017   5.531   2.033   0.576
 9373SOL    HW129018   5.578   2.090   0.644
 9373SOL    HW229019   5.571   1.941   0.577
 9374SOL     OW29020   6.545   3.131   5.528
 9374SOL    HW129021   6.494   3.213   5.554
 9374SOL    HW229022   6.606   3.152   5.452
 9375SOL     OW29023   6.883   1.712   0.984
 9375SOL    HW129024   6.836   1.688   1.069
 9375SOL    HW229025   6.816   1.721   0.910
 9376SOL     OW29026   2.404   3.545   1.619
 9376SOL    HW129027   2.313   3.574   1.590
 9376SOL    HW229028   2.399   3.502   1.709
 9377SOL     OW29029   1.972   5.023   3.344
 9377SOL    HW129030   1.915   5.044   3.424
 9377SOL    HW229031   1.994   5.107   3.296
 9378SOL     OW29032   2.975   1.222   3.931
 9378SOL    HW129033   2.897   1.197   3.872
 9378SOL    HW229034   3.003   1.142   3.984
 9379SOL     OW29035   5.470   0.280   5.076
 9379SOL    HW129036   5.560   0.283   5.033
 9379SOL    HW229037   5.414   0.356   5.043
 9380SOL     OW29038   3.607   5.809   5.635
 9380SOL    HW129039   3.652   5.773   5.553
 9380SOL    HW229040   3.516   5.769   5.644
 9381SOL     OW29041   5.041   2.798   4.951
 9381SOL    HW129042   5.127   2.835   4.915
 9381SOL    HW229043   5.058   2.757   5.041
 9382SOL     OW29044   3.784   1.193   3.779
 9382SOL    HW129045   3.723   1.141   3.719
 9382SOL    HW229046   3.875   1.195   3.740
 9383SOL     OW29047   5.110   4.439   4.394
 9383SOL    HW129048   5.060   4.407   4.313
 9383SOL    HW229049   5.184   4.499   4.366
 9384SOL     OW29050   3.092   6.849   2.099
 9384SOL    HW129051   3.167   6.869   2.036
 9384SOL    HW229052   3.127   6.795   2.175
 9385SOL     OW29053   4.441   1.674   4.071
 9385SOL    HW129054   4.393   1.681   4.159
 9385SOL    HW229055   4.517   1.739   4.070
 9386SOL     OW29056   2.757   5.733   5.185
 9386SOL    HW129057   2.743   5.634   5.178
 9386SOL    HW229058   2.682   5.774   5.237
 9387SOL     OW29059   3.718   2.241   0.381
 9387SOL    HW129060   3.818   2.240   0.386
 9387SOL    HW229061   3.686   2.336   0.378
 9388SOL     OW29062   2.078   6.649   3.230
 9388SOL    HW129063   2.019   6.573   3.204
 9388SOL    HW229064   2.148   6.663   3.160
 9389SOL     OW29065   3.228   6.081   2.658
 9389SOL    HW129066   3.175   6.161   2.630
 9389SOL    HW229067   3.315   6.081   2.608
 9390SOL     OW29068   5.711   5.032   5.875
 9390SOL    HW129069   5.680   5.066   5.787
 9390SOL    HW229070   5.678   5.092   5.948
 9391SOL     OW29071   0.534   7.002   5.005
 9391SOL    HW129072   0.589   6.985   4.924
 9391SOL    HW229073   0.512   6.916   5.050
 9392SOL     OW29074   4.640   4.344   4.030
 9392SOL    HW129075   4.663   4.426   3.978
 9392SOL    HW229076   4.682   4.264   3.987
 9393SOL     OW29077   2.839   0.051   6.106
 9393SOL    HW129078   2.776   0.049   6.184
 9393SOL    HW229079   2.933   0.048   6.139
 9394SOL     OW29080   5.845   0.509   1.342
 9394SOL    HW129081   5.887   0.559   1.418
 9394SOL    HW229082   5.867   0.412   1.349
 9395SOL     OW29083   2.265   1.424   0.924
 9395SOL    HW129084   2.280   1.479   1.006
 9395SOL    HW229085   2.212   1.477   0.858
 9396SOL     OW29086   2.157   5.105   5.397
 9396SOL    HW129087   2.137   5.079   5.302
 9396SOL    HW229088   2.075   5.146   5.438
 9397SOL     OW29089   2.918   6.769   5.554
 9397SOL    HW129090   3.001   6.786   5.502
 9397SOL    HW229091   2.899   6.671   5.556
 9398SOL     OW29092   6.150   1.301   5.733
 9398SOL    HW129093   6.135   1.275   5.638
 9398SOL    HW229094   6.131   1.223   5.792
 9399SOL     OW29095   0.930   2.632   4.517
 9399SOL    HW129096   0.904   2.721   4.556
 9399SOL    HW229097   0.850   2.572   4.516
 9400SOL     OW29098   4.937   0.591   0.299
 9400SOL    HW129099   4.924   0.516   0.364
 9400SOL    HW229100   4.848   0.624   0.268
 9401SOL     OW29101   0.056   2.852   1.741
 9401SOL    HW129102   0.031   2.779   1.676
 9401SOL    HW229103   0.050   2.817   1.834
 9402SOL     OW29104   1.800   5.123   3.550
 9402SOL    HW129105   1.790   5.220   3.526
 9402SOL    HW229106   1.779   5.111   3.648
 9403SOL     OW29107   0.354   1.380   2.561
 9403SOL    HW129108   0.414   1.318   2.611
 9403SOL    HW229109   0.404   1.464   2.539
 9404SOL     OW29110   0.264   2.194   1.212
 9404SOL    HW129111   0.224   2.283   1.190
 9404SOL    HW229112   0.202   2.143   1.272
 9405SOL     OW29113   0.883   4.464   4.712
 9405SOL    HW129114   0.949   4.463   4.638
 9405SOL    HW229115   0.800   4.510   4.682
 9406SOL     OW29116   1.050   3.169   6.469
 9406SOL    HW129117   1.012   3.102   6.532
 9406SOL    HW229118   1.052   3.131   6.377
 9407SOL     OW29119   2.894   5.045   4.721
 9407SOL    HW129120   2.856   5.102   4.648
 9407SOL    HW229121   2.823   4.984   4.756
 9408SOL     OW29122   6.903   2.807   5.843
 9408SOL    HW129123   6.984   2.766   5.801
 9408SOL    HW229124   6.905   2.792   5.942
 9409SOL     OW29125   6.378   5.558   2.322
 9409SOL    HW129126   6.461   5.585   2.274
 9409SOL    HW229127   6.298   5.595   2.274
 9410SOL     OW29128   5.040   1.176   1.662
 9410SOL    HW129129   5.026   1.218   1.572
 9410SOL    HW229130   4.992   1.231   1.731
 9411SOL     OW29131   3.137   3.261   3.005
 9411SOL    HW129132   3.190   3.269   2.921
 9411SOL    HW229133   3.138   3.166   3.036
 9412SOL     OW29134   0.759   0.471   1.305
 9412SOL    HW129135   0.817   0.391   1.325
 9412SOL    HW229136   0.678   0.468   1.362
 9413SOL     OW29137   4.950   4.668   4.920
 9413SOL    HW129138   4.876   4.660   4.987
 9413SOL    HW229139   4.981   4.576   4.893
 9414SOL     OW29140   2.428   2.265   4.903
 9414SOL    HW129141   2.425   2.292   4.807
 9414SOL    HW229142   2.445   2.345   4.960
 9415SOL     OW29143   2.651   0.188   1.511
 9415SOL    HW129144   2.552   0.174   1.515
 9415SOL    HW229145   2.673   0.279   1.546
 9416SOL     OW29146   0.420   0.329   5.258
 9416SOL    HW129147   0.478   0.332   5.340
 9416SOL    HW229148   0.396   0.422   5.230
 9417SOL     OW29149   3.199   6.412   1.620
 9417SOL    HW129150   3.217   6.509   1.604
 9417SOL    HW229151   3.156   6.372   1.539
 9418SOL     OW29152   2.915   1.481   2.900
 9418SOL    HW129153   2.936   1.578   2.889
 9418SOL    HW229154   2.890   1.463   2.995
 9419SOL     OW29155   2.621   2.675   6.332
 9419SOL    HW129156   2.524   2.696   6.329
 9419SOL    HW229157   2.668   2.741   6.391
 9420SOL     OW29158   5.987   4.705   0.584
 9420SOL    HW129159   5.944   4.615   0.595
 9420SOL    HW229160   5.917   4.772   0.560
 9421SOL     OW29161   3.221   5.646   4.400
 9421SOL    HW129162   3.135   5.598   4.417
 9421SOL    HW229163   3.275   5.648   4.484
 9422SOL     OW29164   2.552   6.399   3.925
 9422SOL    HW129165   2.647   6.430   3.919
 9422SOL    HW229166   2.515   6.422   4.015
 9423SOL     OW29167   4.025   6.158   2.638
 9423SOL    HW129168   4.028   6.221   2.560
 9423SOL    HW229169   3.930   6.142   2.663
 9424SOL     OW29170   5.268   1.719   4.825
 9424SOL    HW129171   5.267   1.775   4.908
 9424SOL    HW229172   5.266   1.622   4.850
 9425SOL     OW29173   6.048   4.772   1.716
 9425SOL    HW129174   6.030   4.804   1.623
 9425SOL    HW229175   6.013   4.679   1.727
 9426SOL     OW29176   1.441   1.851   6.323
 9426SOL    HW129177   1.344   1.833   6.306
 9426SOL    HW229178   1.496   1.782   6.277
 9427SOL     OW29179   2.360   5.906   3.108
 9427SOL    HW129180   2.288   5.857   3.058
 9427SOL    HW229181   2.449   5.870   3.081
 9428SOL     OW29182   6.326   6.265   0.230
 9428SOL    HW129183   6.227   6.259   0.239
 9428SOL    HW229184   6.368   6.271   0.320
 9429SOL     OW29185   1.463   2.168   4.103
 9429SOL    HW129186   1.474   2.076   4.140
 9429SOL    HW229187   1.442   2.232   4.177
 9430SOL     OW29188   0.217   2.404   4.596
 9430SOL    HW129189   0.130   2.388   4.550
 9430SOL    HW229190   0.254   2.493   4.570
 9431SOL     OW29191   6.713   4.580   0.983
 9431SOL    HW129192   6.675   4.550   0.895
 9431SOL    HW229193   6.759   4.504   1.028
 9432SOL     OW29194   6.695   1.772   4.266
 9432SOL    HW129195   6.601   1.805   4.261
 9432SOL    HW229196   6.758   1.845   4.239
 9433SOL     OW29197   4.279   5.793   2.665
 9433SOL    HW129198   4.356   5.740   2.629
 9433SOL    HW229199   4.217   5.817   2.590
 9434SOL     OW29200   5.670   5.525   3.790
 9434SOL    HW129201   5.586   5.500   3.838
 9434SOL    HW229202   5.710   5.607   3.831
 9435SOL     OW29203   0.384   2.377   2.409
 9435SOL    HW129204   0.369   2.313   2.484
 9435SOL    HW229205   0.332   2.347   2.329
 9436SOL     OW29206   1.122   1.082   2.213
 9436SOL    HW129207   1.048   1.026   2.173
 9436SOL    HW229208   1.124   1.171   2.169
 9437SOL     OW29209   0.700   5.309   3.134
 9437SOL    HW129210   0.646   5.332   3.215
 9437SOL    HW229211   0.790   5.351   3.141
 9438SOL     OW29212   1.297   0.077   1.852
 9438SOL    HW129213   1.302   0.171   1.820
 9438SOL    HW229214   1.274   0.017   1.775
 9439SOL     OW29215   0.507   3.217   0.938
 9439SOL    HW129216   0.479   3.281   0.867
 9439SOL    HW229217   0.514   3.125   0.899
 9440SOL     OW29218   2.683   4.813   3.179
 9440SOL    HW129219   2.635   4.902   3.175
 9440SOL    HW229220   2.620   4.744   3.213
 9441SOL     OW29221   6.910   5.500   5.515
 9441SOL    HW129222   6.817   5.529   5.537
 9441SOL    HW229223   6.907   5.426   5.448
 9442SOL     OW29224   4.861   3.741   1.371
 9442SOL    HW129225   4.849   3.661   1.429
 9442SOL    HW229226   4.810   3.818   1.410
 9443SOL     OW29227   2.861   5.804   1.859
 9443SOL    HW129228   2.841   5.750   1.941
 9443SOL    HW229229   2.776   5.834   1.818
 9444SOL     OW29230   1.797   3.960   0.868
 9444SOL    HW129231   1.765   3.932   0.958
 9444SOL    HW229232   1.876   3.904   0.841
 9445SOL     OW29233   0.092   1.830   3.751
 9445SOL    HW129234   0.165   1.770   3.786
 9445SOL    HW229235   0.133   1.906   3.700
 9446SOL     OW29236   6.100   5.053   4.404
 9446SOL    HW129237   6.021   5.008   4.361
 9446SOL    HW229238   6.075   5.146   4.430
 9447SOL     OW29239   4.897   5.205   2.852
 9447SOL    HW129240   4.858   5.292   2.884
 9447SOL    HW229241   4.978   5.223   2.797
 9448SOL     OW29242   6.119   6.609   5.849
 9448SOL    HW129243   6.208   6.654   5.839
 9448SOL    HW229244   6.047   6.671   5.816
 9449SOL     OW29245   5.312   6.699   6.747
 9449SOL    HW129246   5.330   6.754   6.666
 9449SOL    HW229247   5.309   6.602   6.722
 9450SOL     OW29248   1.768   5.582   4.392
 9450SOL    HW129249   1.763   5.485   4.414
 9450SOL    HW229250   1.864   5.609   4.380
 9451SOL     OW29251   3.610   5.681   6.453
 9451SOL    HW129252   3.521   5.725   6.445
 9451SOL    HW229253   3.636   5.640   6.365
 9452SOL     OW29254   0.556   4.340   0.972
 9452SOL    HW129255   0.601   4.372   1.056
 9452SOL    HW229256   0.519   4.248   0.987
 9453SOL     OW29257   2.866   5.037   3.189
 9453SOL    HW129258   2.816   5.120   3.164
 9453SOL    HW229259   2.805   4.958   3.183
 9454SOL     OW29260   4.494   4.127   1.189
 9454SOL    HW129261   4.431   4.100   1.262
 9454SOL    HW229262   4.571   4.063   1.187
 9455SOL     OW29263   2.459   2.111   2.647
 9455SOL    HW129264   2.378   2.170   2.652
 9455SOL    HW229265   2.522   2.135   2.720
 9456SOL     OW29266   6.357   3.982   2.469
 9456SOL    HW129267   6.301   4.051   2.423
 9456SOL    HW229268   6.453   3.995   2.443
 9457SOL     OW29269   0.823   5.274   4.406
 9457SOL    HW129270   0.899   5.213   4.431
 9457SOL    HW229271   0.856   5.344   4.343
 9458SOL     OW29272   6.865   4.430   0.576
 9458SOL    HW129273   6.808   4.394   0.502
 9458SOL    HW229274   6.959   4.397   0.564
 9459SOL     OW29275   5.168   3.973   4.208
 9459SOL    HW129276   5.069   3.966   4.225
 9459SOL    HW229277   5.208   4.036   4.275
 9460SOL     OW29278   1.768   3.250   4.309
 9460SOL    HW129279   1.772   3.153   4.287
 9460SOL    HW229280   1.811   3.266   4.398
 9461SOL     OW29281   1.170   1.602   1.260
 9461SOL    HW129282   1.168   1.558   1.171
 9461SOL    HW229283   1.233   1.554   1.320
 9462SOL     OW29284   1.598   3.234   3.369
 9462SOL    HW129285   1.655   3.294   3.425
 9462SOL    HW229286   1.564   3.285   3.289
 9463SOL     OW29287   5.025   6.562   1.261
 9463SOL    HW129288   5.092   6.596   1.326
 9463SOL    HW229289   5.057   6.476   1.222
 9464SOL     OW29290   6.382   0.478   1.656
 9464SOL    HW129291   6.326   0.396   1.667
 9464SOL    HW229292   6.459   0.458   1.595
 9465SOL     OW29293   0.411   4.251   1.657
 9465SOL    HW129294   0.448   4.263   1.749
 9465SOL    HW229295   0.313   4.273   1.658
 9466SOL     OW29296   4.480   5.647   6.473
 9466SOL    HW129297   4.491   5.700   6.558
 9466SOL    HW229298   4.569   5.611   6.446
 9467SOL     OW29299   1.609   2.914   1.004
 9467SOL    HW129300   1.531   2.866   0.964
 9467SOL    HW229301   1.693   2.888   0.955
 9468SOL     OW29302   6.226   3.616   6.827
 9468SOL    HW129303   6.180   3.654   6.746
 9468SOL    HW229304   6.164   3.550   6.871
 9469SOL     OW29305   6.732   6.397   0.149
 9469SOL    HW129306   6.744   6.492   0.120
 9469SOL    HW229307   6.733   6.337   0.069
 9470SOL     OW29308   4.871   3.626   0.184
 9470SOL    HW129309   4.887   3.661   0.277
 9470SOL    HW229310   4.816   3.543   0.189
 9471SOL     OW29311   5.905   2.470   5.728
 9471SOL    HW129312   6.002   2.452   5.712
 9471SOL    HW229313   5.856   2.383   5.739
 9472SOL     OW29314   1.372   4.245   6.331
 9472SOL    HW129315   1.316   4.319   6.294
 9472SOL    HW229316   1.447   4.284   6.386
 9473SOL     OW29317   3.151   3.724   6.563
 9473SOL    HW129318   3.229   3.661   6.559
 9473SOL    HW229319   3.080   3.693   6.501
 9474SOL     OW29320   6.184   3.700   1.873
 9474SOL    HW129321   6.270   3.698   1.822
 9474SOL    HW229322   6.109   3.722   1.810
 9475SOL     OW29323   4.301   3.554   6.638
 9475SOL    HW129324   4.353   3.509   6.566
 9475SOL    HW229325   4.316   3.507   6.725
 9476SOL     OW29326   3.869   4.341   5.709
 9476SOL    HW129327   3.852   4.318   5.613
 9476SOL    HW229328   3.830   4.269   5.767
 9477SOL     OW29329   1.659   3.515   0.776
 9477SOL    HW129330   1.588   3.468   0.828
 9477SOL    HW229331   1.729   3.450   0.748
 9478SOL     OW29332   4.148   2.549   1.121
 9478SOL    HW129333   4.174   2.552   1.025
 9478SOL    HW229334   4.208   2.485   1.170
 9479SOL     OW29335   3.808   0.495   1.396
 9479SOL    HW129336   3.894   0.447   1.414
 9479SOL    HW229337   3.800   0.572   1.458
 9480SOL     OW29338   5.720   5.957   6.798
 9480SOL    HW129339   5.743   6.048   6.834
 9480SOL    HW229340   5.629   5.931   6.828
 9481SOL     OW29341   4.897   2.364   3.079
 9481SOL    HW129342   4.803   2.351   3.047
 9481SOL    HW229343   4.897   2.378   3.178
 9482SOL     OW29344   5.760   0.029   1.548
 9482SOL    HW129345   5.741   6.961   1.509
 9482SOL    HW229346   5.692   0.095   1.514
 9483SOL     OW29347   1.446   0.741   6.737
 9483SOL    HW129348   1.460   0.642   6.739
 9483SOL    HW229349   1.402   0.770   6.823
 9484SOL     OW29350   2.736   6.937   4.300
 9484SOL    HW129351   2.818   6.974   4.342
 9484SOL    HW229352   2.694   6.870   4.361
 9485SOL     OW29353   5.738   1.788   1.549
 9485SOL    HW129354   5.683   1.781   1.632
 9485SOL    HW229355   5.681   1.818   1.473
 9486SOL     OW29356   4.946   5.579   0.813
 9486SOL    HW129357   4.940   5.565   0.912
 9486SOL    HW229358   5.010   5.513   0.774
 9487SOL     OW29359   3.106   3.599   4.564
 9487SOL    HW129360   3.092   3.546   4.481
 9487SOL    HW229361   3.038   3.673   4.568
 9488SOL     OW29362   1.797   1.478   1.572
 9488SOL    HW129363   1.792   1.473   1.472
 9488SOL    HW229364   1.781   1.573   1.600
 9489SOL     OW29365   5.619   4.435   1.160
 9489SOL    HW129366   5.552   4.360   1.158
 9489SOL    HW229367   5.678   4.429   1.080
 9490SOL     OW29368   6.652   5.837   3.863
 9490SOL    HW129369   6.555   5.842   3.840
 9490SOL    HW229370   6.668   5.887   3.948
 9491SOL     OW29371   5.445   5.639   4.013
 9491SOL    HW129372   5.423   5.701   3.938
 9491SOL    HW229373   5.468   5.693   4.094
 9492SOL     OW29374   4.724   3.260   5.503
 9492SOL    HW129375   4.699   3.169   5.467
 9492SOL    HW229376   4.745   3.252   5.600
 9493SOL     OW29377   3.225   6.445   3.715
 9493SOL    HW129378   3.267   6.465   3.803
 9493SOL    HW229379   3.142   6.391   3.729
 9494SOL     OW29380   5.769   2.929   2.039
 9494SOL    HW129381   5.809   3.016   2.069
 9494SOL    HW229382   5.724   2.885   2.117
 9495SOL     OW29383   6.881   1.246   2.456
 9495SOL    HW129384   6.953   1.269   2.523
 9495SOL    HW229385   6.905   1.161   2.410
 9496SOL     OW29386   4.628   2.306   2.122
 9496SOL    HW129387   4.631   2.394   2.075
 9496SOL    HW229388   4.563   2.311   2.198
 9497SOL     OW29389   5.437   5.956   5.407
 9497SOL    HW129390   5.400   6.011   5.332
 9497SOL    HW229391   5.441   5.860   5.380
 9498SOL     OW29392   0.132   4.797   4.650
 9498SOL    HW129393   0.093   4.737   4.719
 9498SOL    HW229394   0.155   4.743   4.568
 9499SOL     OW29395   0.014   5.156   5.207
 9499SOL    HW129396   6.949   5.159   5.255
 9499SOL    HW229397   0.010   5.217   5.127
 9500SOL     OW29398   3.938   6.472   1.052
 9500SOL    HW129399   3.842   6.487   1.028
 9500SOL    HW229400   3.965   6.538   1.122
 9501SOL     OW29401   1.531   1.540   4.374
 9501SOL    HW129402   1.600   1.539   4.302
 9501SOL    HW229403   1.520   1.633   4.409
 9502SOL     OW29404   5.647   4.278   4.740
 9502SOL    HW129405   5.637   4.365   4.789
 9502SOL    HW229406   5.709   4.291   4.662
 9503SOL     OW29407   0.723   2.286   0.765
 9503SOL    HW129408   0.792   2.358   0.774
 9503SOL    HW229409   0.757   2.214   0.704
 9504SOL     OW29410   6.793   3.883   1.881
 9504SOL    HW129411   6.794   3.942   1.800
 9504SOL    HW229412   6.877   3.829   1.883
 9505SOL     OW29413   5.114   5.117   5.575
 9505SOL    HW129414   5.189   5.055   5.553
 9505SOL    HW229415   5.049   5.118   5.499
 9506SOL     OW29416   2.342   2.492   0.287
 9506SOL    HW129417   2.400   2.525   0.213
 9506SOL    HW229418   2.392   2.423   0.340
 9507SOL     OW29419   6.445   0.379   0.646
 9507SOL    HW129420   6.484   0.437   0.574
 9507SOL    HW229421   6.434   0.433   0.729
 9508SOL     OW29422   5.558   1.915   2.381
 9508SOL    HW129423   5.535   2.010   2.356
 9508SOL    HW229424   5.503   1.852   2.326
 9509SOL     OW29425   6.569   0.406   3.326
 9509SOL    HW129426   6.493   0.347   3.299
 9509SOL    HW229427   6.563   0.426   3.424
 9510SOL     OW29428   1.008   3.589   3.352
 9510SOL    HW129429   0.911   3.607   3.334
 9510SOL    HW229430   1.017   3.542   3.440
 9511SOL     OW29431   1.000   1.062   1.717
 9511SOL    HW129432   0.953   1.098   1.797
 9511SOL    HW229433   0.933   1.027   1.651
 9512SOL     OW29434   6.959   2.593   0.860
 9512SOL    HW129435   6.997   2.500   0.866
 9512SOL    HW229436   6.869   2.595   0.902
 9513SOL     OW29437   3.317   5.000   5.928
 9513SOL    HW129438   3.332   5.062   6.005
 9513SOL    HW229439   3.238   5.031   5.875
 9514SOL     OW29440   2.755   3.552   6.941
 9514SOL    HW129441   2.834   3.503   6.904
 9514SOL    HW229442   2.743   3.638   6.892
 9515SOL     OW29443   2.659   5.126   3.489
 9515SOL    HW129444   2.620   5.163   3.573
 9515SOL    HW229445   2.738   5.069   3.511
 9516SOL     OW29446   5.651   4.485   0.612
 9516SOL    HW129447   5.619   4.580   0.607
 9516SOL    HW229448   5.573   4.423   0.603
 9517SOL     OW29449   1.009   4.357   1.552
 9517SOL    HW129450   1.052   4.313   1.631
 9517SOL    HW229451   1.080   4.388   1.489
 9518SOL     OW29452   2.712   1.434   0.441
 9518SOL    HW129453   2.733   1.356   0.499
 9518SOL    HW229454   2.645   1.493   0.487
 9519SOL     OW29455   1.219   1.927   5.953
 9519SOL    HW129456   1.206   2.022   5.983
 9519SOL    HW229457   1.190   1.919   5.858
 9520SOL     OW29458   2.964   0.278   2.443
 9520SOL    HW129459   2.998   0.184   2.449
 9520SOL    HW229460   3.017   0.329   2.376
 9521SOL     OW29461   5.445   5.971   3.459
 9521SOL    HW129462   5.489   5.996   3.373
 9521SOL    HW229463   5.434   6.053   3.516
 9522SOL     OW29464   3.468   5.897   1.145
 9522SOL    HW129465   3.555   5.904   1.193
 9522SOL    HW229466   3.483   5.854   1.056
 9523SOL     OW29467   3.394   5.674   4.037
 9523SOL    HW129468   3.359   5.720   4.119
 9523SOL    HW229469   3.319   5.652   3.976
 9524SOL     OW29470   3.806   2.721   1.445
 9524SOL    HW129471   3.731   2.657   1.461
 9524SOL    HW229472   3.845   2.704   1.354
 9525SOL     OW29473   2.268   1.052   6.089
 9525SOL    HW129474   2.229   1.107   6.016
 9525SOL    HW229475   2.319   1.112   6.152
 9526SOL     OW29476   5.549   5.761   3.201
 9526SOL    HW129477   5.605   5.758   3.118
 9526SOL    HW229478   5.531   5.857   3.225
 9527SOL     OW29479   0.959   0.840   2.154
 9527SOL    HW129480   0.920   0.781   2.083
 9527SOL    HW229481   1.051   0.809   2.177
 9528SOL     OW29482   6.538   0.140   0.768
 9528SOL    HW129483   6.497   0.208   0.707
 9528SOL    HW229484   6.515   0.163   0.862
 9529SOL     OW29485   1.142   3.136   6.171
 9529SOL    HW129486   1.128   3.230   6.202
 9529SOL    HW229487   1.239   3.114   6.170
 9530SOL     OW29488   1.526   2.900   3.097
 9530SOL    HW129489   1.547   2.837   3.023
 9530SOL    HW229490   1.610   2.926   3.144
 9531SOL     OW29491   4.283   6.072   2.680
 9531SOL    HW129492   4.287   5.974   2.701
 9531SOL    HW229493   4.189   6.097   2.657
 9532SOL     OW29494   1.738   5.984   1.306
 9532SOL    HW129495   1.812   6.050   1.292
 9532SOL    HW229496   1.770   5.893   1.283
 9533SOL     OW29497   0.216   1.462   5.242
 9533SOL    HW129498   0.198   1.559   5.226
 9533SOL    HW229499   0.129   1.414   5.252
 9534SOL     OW29500   5.529   2.410   5.091
 9534SOL    HW129501   5.628   2.406   5.083
 9534SOL    HW229502   5.503   2.467   5.169
 9535SOL     OW29503   2.690   0.892   5.591
 9535SOL    HW129504   2.701   0.794   5.605
 9535SOL    HW229505   2.623   0.908   5.518
 9536SOL     OW29506   2.180   5.991   5.360
 9536SOL    HW129507   2.189   6.088   5.336
 9536SOL    HW229508   2.105   5.980   5.424
 9537SOL     OW29509   3.276   0.302   2.448
 9537SOL    HW129510   3.275   0.202   2.446
 9537SOL    HW229511   3.299   0.336   2.357
 9538SOL     OW29512   6.805   1.859   4.526
 9538SOL    HW129513   6.769   1.776   4.569
 9538SOL    HW229514   6.729   1.916   4.494
 9539SOL     OW29515   2.133   4.648   6.019
 9539SOL    HW129516   2.189   4.721   5.979
 9539SOL    HW229517   2.188   4.595   6.082
 9540SOL     OW29518   4.791   4.773   5.369
 9540SOL    HW129519   4.719   4.826   5.325
 9540SOL    HW229520   4.793   4.794   5.467
 9541SOL     OW29521   1.440   2.230   5.132
 9541SOL    HW129522   1.514   2.200   5.071
 9541SOL    HW229523   1.418   2.326   5.113
 9542SOL     OW29524   4.977   3.468   4.884
 9542SOL    HW129525   5.058   3.456   4.943
 9542SOL    HW229526   4.915   3.534   4.926
 9543SOL     OW29527   4.687   0.757   4.292
 9543SOL    HW129528   4.659   0.824   4.362
 9543SOL    HW229529   4.734   0.681   4.337
 9544SOL     OW29530   5.819   6.942   2.229
 9544SOL    HW129531   5.804   6.895   2.142
 9544SOL    HW229532   5.836   0.017   2.212
 9545SOL     OW29533   6.807   6.723   3.218
 9545SOL    HW129534   6.729   6.785   3.208
 9545SOL    HW229535   6.793   6.643   3.160
 9546SOL     OW29536   2.909   3.870   6.593
 9546SOL    HW129537   2.903   3.890   6.495
 9546SOL    HW229538   3.003   3.842   6.616
 9547SOL     OW29539   1.918   6.294   4.210
 9547SOL    HW129540   1.932   6.196   4.194
 9547SOL    HW229541   1.995   6.345   4.172
 9548SOL     OW29542   6.211   5.412   4.481
 9548SOL    HW129543   6.269   5.493   4.485
 9548SOL    HW229544   6.248   5.347   4.415
 9549SOL     OW29545   3.912   5.443   0.922
 9549SOL    HW129546   3.942   5.447   0.827
 9549SOL    HW229547   3.885   5.349   0.944
 9550SOL     OW29548   0.474   1.512   0.070
 9550SOL    HW129549   0.444   1.593   0.120
 9550SOL    HW229550   0.569   1.523   0.043
 9551SOL     OW29551   0.027   0.269   4.811
 9551SOL    HW129552   0.072   0.184   4.784
 9551SOL    HW229553   0.096   0.334   4.843
 9552SOL     OW29554   1.113   6.924   3.310
 9552SOL    HW129555   1.159   7.000   3.264
 9552SOL    HW229556   1.138   6.924   3.407
 9553SOL     OW29557   6.332   4.549   6.787
 9553SOL    HW129558   6.265   4.542   6.860
 9553SOL    HW229559   6.300   4.497   6.707
 9554SOL     OW29560   2.701   0.746   1.978
 9554SOL    HW129561   2.606   0.726   1.999
 9554SOL    HW229562   2.711   0.764   1.880
 9555SOL     OW29563   6.536   2.374   1.431
 9555SOL    HW129564   6.482   2.292   1.444
 9555SOL    HW229565   6.542   2.395   1.333
 9556SOL     OW29566   2.705   1.174   1.323
 9556SOL    HW129567   2.761   1.246   1.364
 9556SOL    HW229568   2.646   1.214   1.252
 9557SOL     OW29569   6.177   0.701   2.781
 9557SOL    HW129570   6.125   0.642   2.719
 9557SOL    HW229571   6.269   0.715   2.744
 9558SOL     OW29572   6.957   5.073   3.013
 9558SOL    HW129573   6.975   5.144   3.081
 9558SOL    HW229574   6.859   5.071   2.992
 9559SOL     OW29575   0.548   3.474   1.830
 9559SOL    HW129576   0.626   3.412   1.832
 9559SOL    HW229577   0.555   3.539   1.905
 9560SOL     OW29578   2.277   1.370   3.405
 9560SOL    HW129579   2.356   1.402   3.457
 9560SOL    HW229580   2.196   1.422   3.432
 9561SOL     OW29581   3.355   6.411   0.970
 9561SOL    HW129582   3.374   6.507   0.953
 9561SOL    HW229583   3.291   6.402   1.046
 9562SOL     OW29584   4.354   5.848   3.301
 9562SOL    HW129585   4.310   5.934   3.277
 9562SOL    HW229586   4.288   5.788   3.346
 9563SOL     OW29587   0.131   6.413   6.111
 9563SOL    HW129588   0.104   6.499   6.153
 9563SOL    HW229589   0.127   6.421   6.012
 9564SOL     OW29590   3.010   6.387   6.782
 9564SOL    HW129591   2.968   6.457   6.724
 9564SOL    HW229592   3.050   6.316   6.724
 9565SOL     OW29593   3.753   5.877   4.585
 9565SOL    HW129594   3.817   5.954   4.584
 9565SOL    HW229595   3.803   5.793   4.607
 9566SOL     OW29596   3.299   4.696   6.270
 9566SOL    HW129597   3.210   4.728   6.238
 9566SOL    HW229598   3.311   4.600   6.246
 9567SOL     OW29599   5.978   6.069   6.375
 9567SOL    HW129600   5.911   6.001   6.406
 9567SOL    HW229601   6.054   6.074   6.440
 9568SOL     OW29602   5.351   3.854   6.417
 9568SOL    HW129603   5.418   3.785   6.445
 9568SOL    HW229604   5.396   3.922   6.358
 9569SOL     OW29605   6.362   1.493   0.454
 9569SOL    HW129606   6.438   1.476   0.516
 9569SOL    HW229607   6.359   1.591   0.431
 9570SOL     OW29608   0.076   1.404   0.696
 9570SOL    HW129609   0.046   1.484   0.748
 9570SOL    HW229610   0.092   1.328   0.759
 9571SOL     OW29611   2.479   3.806   0.581
 9571SOL    HW129612   2.551   3.790   0.513
 9571SOL    HW229613   2.519   3.851   0.661
 9572SOL     OW29614   0.934   4.485   0.767
 9572SOL    HW129615   0.999   4.554   0.733
 9572SOL    HW229616   0.983   4.400   0.784
 9573SOL     OW29617   1.313   1.347   0.050
 9573SOL    HW129618   1.407   1.350   0.085
 9573SOL    HW229619   1.315   1.344   6.972
 9574SOL     OW29620   3.616   3.664   5.473
 9574SOL    HW129621   3.586   3.575   5.439
 9574SOL    HW229622   3.716   3.669   5.467
 9575SOL     OW29623   5.607   0.716   1.825
 9575SOL    HW129624   5.602   0.749   1.919
 9575SOL    HW229625   5.536   0.759   1.770
 9576SOL     OW29626   3.185   1.584   4.035
 9576SOL    HW129627   3.282   1.601   4.049
 9576SOL    HW229628   3.162   1.493   4.071
 9577SOL     OW29629   0.077   6.746   2.347
 9577SOL    HW129630   0.087   6.754   2.446
 9577SOL    HW229631   0.162   6.710   2.308
 9578SOL     OW29632   6.368   2.670   2.631
 9578SOL    HW129633   6.293   2.673   2.696
 9578SOL    HW229634   6.386   2.762   2.596
 9579SOL     OW29635   1.716   7.007   1.511
 9579SOL    HW129636   1.617   0.002   1.512
 9579SOL    HW229637   1.738   6.940   1.583
 9580SOL     OW29638   4.881   3.643   0.445
 9580SOL    HW129639   4.843   3.671   0.533
 9580SOL    HW229640   4.919   3.551   0.453
 9581SOL     OW29641   1.335   4.800   6.104
 9581SOL    HW129642   1.407   4.863   6.131
 9581SOL    HW229643   1.305   4.748   6.184
 9582SOL     OW29644   4.407   4.980   4.200
 9582SOL    HW129645   4.351   5.047   4.248
 9582SOL    HW229646   4.355   4.895   4.189
 9583SOL     OW29647   2.008   3.602   2.055
 9583SOL    HW129648   1.981   3.518   2.100
 9583SOL    HW229649   2.104   3.596   2.027
 9584SOL     OW29650   6.181   5.101   6.388
 9584SOL    HW129651   6.185   5.004   6.413
 9584SOL    HW229652   6.213   5.112   6.294
 9585SOL     OW29653   5.860   6.968   2.912
 9585SOL    HW129654   5.909   6.976   2.998
 9585SOL    HW229655   5.778   6.913   2.925
 9586SOL     OW29656   4.986   3.157   2.922
 9586SOL    HW129657   4.949   3.247   2.901
 9586SOL    HW229658   5.019   3.155   3.016
 9587SOL     OW29659   5.869   0.169   2.107
 9587SOL    HW129660   5.868   0.156   2.008
 9587SOL    HW229661   5.810   0.246   2.131
 9588SOL     OW29662   6.698   0.616   1.649
 9588SOL    HW129663   6.664   0.596   1.557
 9588SOL    HW229664   6.696   0.715   1.664
 9589SOL     OW29665   2.331   7.008   5.860
 9589SOL    HW129666   2.418   7.003   5.909
 9589SOL    HW229667   2.344   0.038   5.775
 9590SOL     OW29668   0.254   4.462   3.176
 9590SOL    HW129669   0.270   4.552   3.135
 9590SOL    HW229670   0.191   4.410   3.118
 9591SOL     OW29671   2.568   6.043   0.998
 9591SOL    HW129672   2.654   6.006   0.963
 9591SOL    HW229673   2.568   6.143   0.988
 9592SOL     OW29674   4.444   5.235   2.628
 9592SOL    HW129675   4.451   5.305   2.699
 9592SOL    HW229676   4.502   5.259   2.551
 9593SOL     OW29677   6.706   2.661   4.448
 9593SOL    HW129678   6.652   2.604   4.386
 9593SOL    HW229679   6.802   2.659   4.420
 9594SOL     OW29680   6.621   6.664   2.552
 9594SOL    HW129681   6.526   6.632   2.551
 9594SOL    HW229682   6.649   6.686   2.459
 9595SOL     OW29683   1.843   6.093   4.449
 9595SOL    HW129684   1.827   6.191   4.439
 9595SOL    HW229685   1.940   6.074   4.433
 9596SOL     OW29686   6.387   6.004   5.462
 9596SOL    HW129687   6.389   6.104   5.461
 9596SOL    HW229688   6.336   5.972   5.542
 9597SOL     OW29689   1.163   4.225   1.738
 9597SOL    HW129690   1.242   4.261   1.788
 9597SOL    HW229691   1.117   4.157   1.794
 9598SOL     OW29692   0.135   4.519   6.457
 9598SOL    HW129693   0.124   4.593   6.391
 9598SOL    HW229694   0.103   4.549   6.547
 9599SOL     OW29695   3.801   0.525   5.576
 9599SOL    HW129696   3.826   0.585   5.500
 9599SOL    HW229697   3.884   0.486   5.616
 9600SOL     OW29698   1.248   6.913   5.730
 9600SOL    HW129699   1.238   6.884   5.826
 9600SOL    HW229700   1.175   6.872   5.675
 9601SOL     OW29701   0.712   4.568   5.744
 9601SOL    HW129702   0.618   4.560   5.777
 9601SOL    HW229703   0.719   4.532   5.651
 9602SOL     OW29704   0.934   4.905   6.703
 9602SOL    HW129705   0.851   4.961   6.708
 9602SOL    HW229706   1.006   4.955   6.655
 9603SOL     OW29707   1.781   6.383   4.493
 9603SOL    HW129708   1.756   6.461   4.549
 9603SOL    HW229709   1.848   6.411   4.424
 9604SOL     OW29710   4.785   1.384   6.332
 9604SOL    HW129711   4.742   1.415   6.416
 9604SOL    HW229712   4.875   1.346   6.353
 9605SOL     OW29713   2.302   5.850   6.073
 9605SOL    HW129714   2.222   5.910   6.076
 9605SOL    HW229715   2.382   5.901   6.103
 9606SOL     OW29716   0.307   6.049   3.430
 9606SOL    HW129717   0.246   5.971   3.446
 9606SOL    HW229718   0.272   6.104   3.354
 9607SOL     OW29719   0.988   1.622   2.091
 9607SOL    HW129720   0.985   1.614   1.991
 9607SOL    HW229721   1.071   1.671   2.118
 9608SOL     OW29722   0.221   0.255   2.693
 9608SOL    HW129723   0.218   0.318   2.616
 9608SOL    HW229724   0.128   0.227   2.717
 9609SOL     OW29725   1.975   4.261   4.604
 9609SOL    HW129726   2.037   4.298   4.672
 9609SOL    HW229727   1.981   4.161   4.604
 9610SOL     OW29728   2.321   1.870   6.337
 9610SOL    HW129729   2.239   1.877   6.394
 9610SOL    HW229730   2.366   1.959   6.332
 9611SOL     OW29731   6.384   0.507   0.870
 9611SOL    HW129732   6.419   0.598   0.892
 9611SOL    HW229733   6.366   0.456   0.954
 9612SOL     OW29734   6.031   3.090   1.327
 9612SOL    HW129735   6.082   3.176   1.339
 9612SOL    HW229736   5.942   3.099   1.371
 9613SOL     OW29737   6.329   6.264   4.984
 9613SOL    HW129738   6.410   6.320   5.002
 9613SOL    HW229739   6.305   6.213   5.067
 9614SOL     OW29740   3.586   3.848   2.135
 9614SOL    HW129741   3.656   3.797   2.186
 9614SOL    HW229742   3.496   3.828   2.173
 9615SOL     OW29743   1.334   6.279   2.449
 9615SOL    HW129744   1.272   6.205   2.422
 9615SOL    HW229745   1.425   6.241   2.468
 9616SOL     OW29746   3.598   2.391   0.766
 9616SOL    HW129747   3.633   2.297   0.766
 9616SOL    HW229748   3.532   2.403   0.692
 9617SOL     OW29749   1.112   3.105   3.793
 9617SOL    HW129750   1.115   3.133   3.889
 9617SOL    HW229751   1.020   3.075   3.770
 9618SOL     OW29752   3.614   6.141   6.287
 9618SOL    HW129753   3.624   6.066   6.221
 9618SOL    HW229754   3.534   6.197   6.262
 9619SOL     OW29755   2.461   6.030   0.468
 9619SOL    HW129756   2.468   6.093   0.546
 9619SOL    HW229757   2.443   5.938   0.501
 9620SOL     OW29758   3.260   0.918   0.032
 9620SOL    HW129759   3.273   0.910   6.955
 9620SOL    HW229760   3.229   0.831   0.069
 9621SOL     OW29761   0.483   1.029   2.552
 9621SOL    HW129762   0.514   1.006   2.460
 9621SOL    HW229763   0.563   1.043   2.611
 9622SOL     OW29764   5.450   0.320   6.790
 9622SOL    HW129765   5.457   0.367   6.879
 9622SOL    HW229766   5.507   0.238   6.792
 9623SOL     OW29767   4.809   5.996   6.345
 9623SOL    HW129768   4.789   6.089   6.314
 9623SOL    HW229769   4.751   5.931   6.295
 9624SOL     OW29770   4.669   5.784   4.889
 9624SOL    HW129771   4.627   5.849   4.826
 9624SOL    HW229772   4.597   5.735   4.939
 9625SOL     OW29773   5.252   4.225   6.646
 9625SOL    HW129774   5.313   4.261   6.717
 9625SOL    HW229775   5.161   4.265   6.656
 9626SOL     OW29776   2.115   4.259   5.825
 9626SOL    HW129777   2.156   4.300   5.744
 9626SOL    HW229778   2.049   4.189   5.796
 9627SOL     OW29779   1.347   4.901   6.538
 9627SOL    HW129780   1.316   4.869   6.627
 9627SOL    HW229781   1.409   4.834   6.498
 9628SOL     OW29782   5.472   3.980   6.727
 9628SOL    HW129783   5.388   4.021   6.690
 9628SOL    HW229784   5.482   3.887   6.691
 9629SOL     OW29785   0.164   5.873   2.531
 9629SOL    HW129786   0.064   5.883   2.522
 9629SOL    HW229787   0.196   5.927   2.608
 9630SOL     OW29788   6.296   6.196   5.780
 9630SOL    HW129789   6.197   6.206   5.792
 9630SOL    HW229790   6.337   6.287   5.774
 9631SOL     OW29791   4.467   1.162   1.194
 9631SOL    HW129792   4.474   1.246   1.140
 9631SOL    HW229793   4.380   1.162   1.244
 9632SOL     OW29794   3.055   6.044   1.252
 9632SOL    HW129795   2.997   6.000   1.183
 9632SOL    HW229796   2.998   6.084   1.323
 9633SOL     OW29797   4.041   3.097   2.386
 9633SOL    HW129798   4.008   3.068   2.296
 9633SOL    HW229799   4.139   3.082   2.392
 9634SOL     OW29800   5.274   4.978   2.776
 9634SOL    HW129801   5.318   4.909   2.719
 9634SOL    HW229802   5.343   5.041   2.812
 9635SOL     OW29803   1.542   4.084   4.286
 9635SOL    HW129804   1.520   4.103   4.190
 9635SOL    HW229805   1.522   3.988   4.306
 9636SOL     OW29806   4.312   2.238   4.917
 9636SOL    HW129807   4.335   2.170   4.986
 9636SOL    HW229808   4.304   2.328   4.960
 9637SOL     OW29809   2.060   2.934   1.053
 9637SOL    HW129810   2.026   2.848   1.092
 9637SOL    HW229811   1.994   2.969   0.986
 9638SOL     OW29812   0.361   4.464   6.175
 9638SOL    HW129813   0.422   4.411   6.117
 9638SOL    HW229814   0.293   4.404   6.217
 9639SOL     OW29815   4.702   2.009   1.761
 9639SOL    HW129816   4.712   2.062   1.677
 9639SOL    HW229817   4.754   1.923   1.753
 9640SOL     OW29818   3.891   0.876   2.174
 9640SOL    HW129819   3.936   0.962   2.150
 9640SOL    HW229820   3.960   0.806   2.192
 9641SOL     OW29821   5.408   4.844   2.581
 9641SOL    HW129822   5.484   4.851   2.516
 9641SOL    HW229823   5.341   4.778   2.547
 9642SOL     OW29824   1.307   0.492   3.921
 9642SOL    HW129825   1.277   0.555   3.850
 9642SOL    HW229826   1.356   0.542   3.992
 9643SOL     OW29827   5.193   3.676   4.034
 9643SOL    HW129828   5.111   3.728   4.057
 9643SOL    HW229829   5.199   3.665   3.934
 9644SOL     OW29830   1.159   5.834   5.205
 9644SOL    HW129831   1.170   5.767   5.278
 9644SOL    HW229832   1.157   5.788   5.117
 9645SOL     OW29833   1.542   5.133   6.355
 9645SOL    HW129834   1.443   5.148   6.361
 9645SOL    HW229835   1.582   5.135   6.446
 9646SOL     OW29836   2.738   6.779   4.988
 9646SOL    HW129837   2.697   6.694   5.020
 9646SOL    HW229838   2.686   6.857   5.023
 9647SOL     OW29839   6.317   6.219   3.494
 9647SOL    HW129840   6.318   6.307   3.541
 9647SOL    HW229841   6.224   6.183   3.491
 9648SOL     OW29842   5.003   2.199   1.252
 9648SOL    HW129843   4.961   2.286   1.278
 9648SOL    HW229844   4.991   2.185   1.153
 9649SOL     OW29845   2.329   3.546   0.706
 9649SOL    HW129846   2.291   3.559   0.614
 9649SOL    HW229847   2.345   3.635   0.749
 9650SOL     OW29848   6.434   4.883   4.116
 9650SOL    HW129849   6.375   4.941   4.060
 9650SOL    HW229850   6.395   4.872   4.207
 9651SOL     OW29851   2.510   1.505   7.017
 9651SOL    HW129852   2.411   1.520   7.019
 9651SOL    HW229853   2.531   1.420   0.044
 9652SOL     OW29854   0.152   3.923   1.105
 9652SOL    HW129855   0.150   3.982   1.024
 9652SOL    HW229856   0.204   3.840   1.084
 9653SOL     OW29857   4.473   4.209   6.104
 9653SOL    HW129858   4.486   4.215   6.203
 9653SOL    HW229859   4.528   4.134   6.067
 9654SOL     OW29860   3.866   2.983   3.607
 9654SOL    HW129861   3.854   2.921   3.685
 9654SOL    HW229862   3.951   3.035   3.619
 9655SOL     OW29863   5.892   0.738   1.807
 9655SOL    HW129864   5.799   0.723   1.840
 9655SOL    HW229865   5.953   0.667   1.843
 9656SOL     OW29866   5.893   3.682   0.683
 9656SOL    HW129867   5.910   3.774   0.648
 9656SOL    HW229868   5.973   3.625   0.668
 9657SOL     OW29869   5.839   3.768   3.038
 9657SOL    HW129870   5.796   3.741   2.952
 9657SOL    HW229871   5.820   3.699   3.108
 9658SOL     OW29872   4.204   1.554   2.662
 9658SOL    HW129873   4.191   1.456   2.676
 9658SOL    HW229874   4.119   1.602   2.685
 9659SOL     OW29875   3.626   2.661   0.754
 9659SOL    HW129876   3.616   2.564   0.777
 9659SOL    HW229877   3.546   2.692   0.703
 9660SOL     OW29878   0.553   6.006   0.525
 9660SOL    HW129879   0.556   5.994   0.426
 9660SOL    HW229880   0.469   5.966   0.561
 9661SOL     OW29881   5.216   4.927   1.592
 9661SOL    HW129882   5.263   5.001   1.544
 9661SOL    HW229883   5.186   4.859   1.526
 9662SOL     OW29884   5.500   4.924   0.070
 9662SOL    HW129885   5.566   4.920   7.017
 9662SOL    HW229886   5.450   5.010   0.067
 9663SOL     OW29887   1.190   4.262   4.075
 9663SOL    HW129888   1.235   4.244   4.162
 9663SOL    HW229889   1.237   4.336   4.027
 9664SOL     OW29890   5.410   3.767   3.451
 9664SOL    HW129891   5.461   3.833   3.395
 9664SOL    HW229892   5.314   3.794   3.455
 9665SOL     OW29893   6.603   0.016   6.283
 9665SOL    HW129894   6.588   0.114   6.294
 9665SOL    HW229895   6.554   6.988   6.355
 9666SOL     OW29896   6.360   4.666   1.348
 9666SOL    HW129897   6.285   4.644   1.285
 9666SOL    HW229898   6.444   4.680   1.295
 9667SOL     OW29899   4.242   5.695   0.404
 9667SOL    HW129900   4.331   5.651   0.412
 9667SOL    HW229901   4.251   5.780   0.353
 9668SOL     OW29902   1.180   6.386   5.692
 9668SOL    HW129903   1.231   6.457   5.740
 9668SOL    HW229904   1.207   6.386   5.595
 9669SOL     OW29905   2.523   0.028   1.127
 9669SOL    HW129906   2.523   0.108   1.187
 9669SOL    HW229907   2.599   6.990   1.152
 9670SOL     OW29908   0.628   0.302   6.072
 9670SOL    HW129909   0.723   0.320   6.098
 9670SOL    HW229910   0.619   0.208   6.040
 9671SOL     OW29911   1.258   4.802   6.776
 9671SOL    HW129912   1.222   4.870   6.841
 9671SOL    HW229913   1.184   4.743   6.745
 9672SOL     OW29914   0.484   4.382   3.792
 9672SOL    HW129915   0.400   4.346   3.833
 9672SOL    HW229916   0.516   4.320   3.721
 9673SOL     OW29917   3.375   4.103   1.593
 9673SOL    HW129918   3.474   4.115   1.589
 9673SOL    HW229919   3.331   4.159   1.522
 9674SOL     OW29920   3.592   6.536   2.900
 9674SOL    HW129921   3.659   6.604   2.871
 9674SOL    HW229922   3.583   6.539   2.999
 9675SOL     OW29923   4.647   3.933   0.885
 9675SOL    HW129924   4.631   3.958   0.790
 9675SOL    HW229925   4.580   3.864   0.913
 9676SOL     OW29926   1.239   2.550   6.246
 9676SOL    HW129927   1.159   2.498   6.215
 9676SOL    HW229928   1.219   2.648   6.243
 9677SOL     OW29929   6.119   5.199   0.376
 9677SOL    HW129930   6.160   5.125   0.323
 9677SOL    HW229931   6.093   5.274   0.315
 9678SOL     OW29932   3.220   3.801   4.763
 9678SOL    HW129933   3.221   3.735   4.688
 9678SOL    HW229934   3.131   3.797   4.809
 9679SOL     OW29935   2.790   1.776   4.365
 9679SOL    HW129936   2.699   1.740   4.382
 9679SOL    HW229937   2.814   1.764   4.269
 9680SOL     OW29938   4.429   6.357   3.998
 9680SOL    HW129939   4.461   6.269   4.034
 9680SOL    HW229940   4.355   6.341   3.933
 9681SOL     OW29941   2.449   0.951   1.159
 9681SOL    HW129942   2.408   0.894   1.088
 9681SOL    HW229943   2.378   1.008   1.201
 9682SOL     OW29944   5.424   5.149   4.412
 9682SOL    HW129945   5.436   5.246   4.431
 9682SOL    HW229946   5.398   5.136   4.317
 9683SOL     OW29947   1.735   6.470   0.920
 9683SOL    HW129948   1.784   6.392   0.959
 9683SOL    HW229949   1.772   6.491   0.830
 9684SOL     OW29950   1.595   4.135   5.096
 9684SOL    HW129951   1.537   4.212   5.071
 9684SOL    HW229952   1.568   4.101   5.186
 9685SOL     OW29953   4.526   3.685   0.933
 9685SOL    HW129954   4.432   3.698   0.965
 9685SOL    HW229955   4.525   3.633   0.848
 9686SOL     OW29956   0.024   1.951   6.922
 9686SOL    HW129957   0.103   1.974   6.979
 9686SOL    HW229958   7.010   1.862   6.950
 9687SOL     OW29959   6.429   6.626   1.328
 9687SOL    HW129960   6.356   6.605   1.262
 9687SOL    HW229961   6.510   6.657   1.279
 9688SOL     OW29962   1.322   4.751   1.252
 9688SOL    HW129963   1.397   4.685   1.251
 9688SOL    HW229964   1.288   4.765   1.159
 9689SOL     OW29965   1.366   5.715   6.513
 9689SOL    HW129966   1.302   5.781   6.473
 9689SOL    HW229967   1.344   5.623   6.480
 9690SOL     OW29968   4.797   5.497   4.769
 9690SOL    HW129969   4.872   5.431   4.767
 9690SOL    HW229970   4.722   5.461   4.824
 9691SOL     OW29971   3.353   4.123   2.088
 9691SOL    HW129972   3.313   4.148   2.176
 9691SOL    HW229973   3.314   4.179   2.016
 9692SOL     OW29974   4.331   5.146   0.131
 9692SOL    HW129975   4.366   5.068   0.080
 9692SOL    HW229976   4.293   5.115   0.218
 9693SOL     OW29977   6.027   3.489   4.311
 9693SOL    HW129978   5.947   3.515   4.366
 9693SOL    HW229979   6.104   3.547   4.335
 9694SOL     OW29980   2.736   0.126   1.918
 9694SOL    HW129981   2.767   0.080   2.001
 9694SOL    HW229982   2.806   0.190   1.886
 9695SOL     OW29983   0.044   3.851   3.304
 9695SOL    HW129984   6.970   3.863   3.329
 9695SOL    HW229985   0.090   3.939   3.304
 9696SOL     OW29986   6.034   1.525   3.362
 9696SOL    HW129987   6.006   1.595   3.296
 9696SOL    HW229988   6.127   1.495   3.341
 9697SOL     OW29989   7.017   6.114   0.050
 9697SOL    HW129990   6.948   6.060   0.003
 9697SOL    HW229991   0.046   6.055   0.114
 9698SOL     OW29992   6.017   3.440   6.908
 9698SOL    HW129993   6.000   3.459   7.005
 9698SOL    HW229994   5.941   3.477   6.854
 9699SOL     OW29995   1.238   5.449   0.081
 9699SOL    HW129996   1.243   5.450   7.003
 9699SOL    HW229997   1.148   5.417   0.109
 9700SOL     OW29998   6.081   6.652   4.042
 9700SOL    HW129999   6.180   6.638   4.038
 9700SOL    HW230000   6.046   6.618   4.129
 9701SOL     OW30001   5.032   3.271   6.571
 9701SOL    HW130002   5.117   3.259   6.519
 9701SOL    HW230003   4.995   3.362   6.552
 9702SOL     OW30004   3.642   3.143   0.380
 9702SOL    HW130005   3.740   3.144   0.364
 9702SOL    HW230006   3.598   3.078   0.318
 9703SOL     OW30007   6.301   3.845   4.615
 9703SOL    HW130008   6.386   3.832   4.564
 9703SOL    HW230009   6.276   3.760   4.661
 9704SOL     OW30010   3.034   4.848   2.666
 9704SOL    HW130011   2.943   4.810   2.649
 9704SOL    HW230012   3.056   4.839   2.763
 9705SOL     OW30013   6.228   4.059   5.479
 9705SOL    HW130014   6.311   4.031   5.430
 9705SOL    HW230015   6.179   4.128   5.427
 9706SOL     OW30016   1.790   1.471   1.879
 9706SOL    HW130017   1.801   1.504   1.785
 9706SOL    HW230018   1.782   1.371   1.878
 9707SOL     OW30019   5.925   4.724   2.248
 9707SOL    HW130020   5.844   4.690   2.296
 9707SOL    HW230021   5.977   4.784   2.309
 9708SOL     OW30022   1.866   1.106   2.224
 9708SOL    HW130023   1.951   1.152   2.200
 9708SOL    HW230024   1.789   1.163   2.198
 9709SOL     OW30025   5.679   3.400   1.964
 9709SOL    HW130026   5.750   3.375   2.029
 9709SOL    HW230027   5.638   3.487   1.992
 9710SOL     OW30028   6.264   7.002   6.600
 9710SOL    HW130029   6.289   6.927   6.661
 9710SOL    HW230030   6.332   0.053   6.607
 9711SOL     OW30031   3.945   6.214   6.338
 9711SOL    HW130032   3.871   6.255   6.285
 9711SOL    HW230033   3.955   6.262   6.425
 9712SOL     OW30034   6.203   2.960   1.144
 9712SOL    HW130035   6.124   2.999   1.190
 9712SOL    HW230036   6.203   2.988   1.048
 9713SOL     OW30037   2.162   6.291   3.392
 9713SOL    HW130038   2.210   6.267   3.308
 9713SOL    HW230039   2.109   6.213   3.425
 9714SOL     OW30040   3.702   5.374   4.670
 9714SOL    HW130041   3.651   5.315   4.608
 9714SOL    HW230042   3.781   5.325   4.706
 9715SOL     OW30043   6.063   4.859   1.437
 9715SOL    HW130044   6.033   4.814   1.353
 9715SOL    HW230045   6.163   4.867   1.437
 9716SOL     OW30046   3.929   3.933   6.525
 9716SOL    HW130047   4.019   3.964   6.497
 9716SOL    HW230048   3.930   3.908   6.622
 9717SOL     OW30049   4.352   6.748   6.213
 9717SOL    HW130050   4.398   6.835   6.230
 9717SOL    HW230051   4.305   6.752   6.125
 9718SOL     OW30052   3.634   1.940   0.491
 9718SOL    HW130053   3.572   2.000   0.441
 9718SOL    HW230054   3.709   1.912   0.431
 9719SOL     OW30055   5.105   6.548   5.096
 9719SOL    HW130056   5.083   6.484   5.023
 9719SOL    HW230057   5.180   6.608   5.067
 9720SOL     OW30058   1.665   4.117   2.705
 9720SOL    HW130059   1.687   4.210   2.677
 9720SOL    HW230060   1.744   4.075   2.750
 9721SOL     OW30061   0.265   1.646   0.823
 9721SOL    HW130062   0.203   1.598   0.885
 9721SOL    HW230063   0.212   1.688   0.749
 9722SOL     OW30064   3.635   2.438   5.525
 9722SOL    HW130065   3.539   2.429   5.501
 9722SOL    HW230066   3.666   2.532   5.507
 9723SOL     OW30067   5.885   4.809   4.858
 9723SOL    HW130068   5.963   4.832   4.800
 9723SOL    HW230069   5.877   4.877   4.931
 9724SOL     OW30070   2.172   5.375   6.218
 9724SOL    HW130071   2.121   5.340   6.139
 9724SOL    HW230072   2.236   5.445   6.188
 9725SOL     OW30073   4.086   5.456   4.800
 9725SOL    HW130074   4.059   5.518   4.727
 9725SOL    HW230075   4.031   5.373   4.796
 9726SOL     OW30076   5.380   1.023   3.973
 9726SOL    HW130077   5.295   0.986   3.936
 9726SOL    HW230078   5.380   1.122   3.964
 9727SOL     OW30079   0.489   2.655   0.077
 9727SOL    HW130080   0.441   2.736   0.045
 9727SOL    HW230081   0.569   2.639   0.019
 9728SOL     OW30082   5.906   1.185   5.913
 9728SOL    HW130083   5.880   1.176   5.817
 9728SOL    HW230084   6.001   1.153   5.925
 9729SOL     OW30085   1.543   3.695   3.988
 9729SOL    HW130086   1.629   3.741   4.010
 9729SOL    HW230087   1.519   3.632   4.063
 9730SOL     OW30088   0.461   4.217   4.448
 9730SOL    HW130089   0.393   4.265   4.504
 9730SOL    HW230090   0.502   4.281   4.383
 9731SOL     OW30091   4.841   4.542   2.196
 9731SOL    HW130092   4.790   4.458   2.218
 9731SOL    HW230093   4.935   4.518   2.174
 9732SOL     OW30094   0.925   3.086   1.734
 9732SOL    HW130095   0.861   3.020   1.775
 9732SOL    HW230096   0.955   3.150   1.804
 9733SOL     OW30097   6.053   5.793   2.358
 9733SOL    HW130098   5.970   5.816   2.308
 9733SOL    HW230099   6.127   5.774   2.292
 9734SOL     OW30100   6.304   6.801   6.770
 9734SOL    HW130101   6.394   6.824   6.733
 9734SOL    HW230102   6.300   6.704   6.793
 9735SOL     OW30103   1.543   2.125   3.590
 9735SOL    HW130104   1.629   2.114   3.640
 9735SOL    HW230105   1.522   2.222   3.582
 9736SOL     OW30106   5.084   1.840   6.125
 9736SOL    HW130107   5.018   1.889   6.182
 9736SOL    HW230108   5.176   1.856   6.158
 9737SOL     OW30109   5.726   2.254   2.596
 9737SOL    HW130110   5.730   2.207   2.507
 9737SOL    HW230111   5.692   2.190   2.665
 9738SOL     OW30112   1.855   6.518   0.663
 9738SOL    HW130113   1.869   6.611   0.631
 9738SOL    HW230114   1.790   6.471   0.603
 9739SOL     OW30115   4.431   6.131   6.773
 9739SOL    HW130116   4.423   6.044   6.821
 9739SOL    HW230117   4.471   6.115   6.683
 9740SOL     OW30118   5.750   0.872   2.286
 9740SOL    HW130119   5.779   0.912   2.199
 9740SOL    HW230120   5.829   0.859   2.345
 9741SOL     OW30121   2.772   1.162   4.179
 9741SOL    HW130122   2.774   1.213   4.093
 9741SOL    HW230123   2.759   1.064   4.160
 9742SOL     OW30124   4.509   1.430   6.744
 9742SOL    HW130125   4.479   1.425   6.840
 9742SOL    HW230126   4.489   1.342   6.699
 9743SOL     OW30127   0.470   3.267   3.448
 9743SOL    HW130128   0.473   3.363   3.479
 9743SOL    HW230129   0.490   3.263   3.350
 9744SOL     OW30130   2.450   6.863   2.478
 9744SOL    HW130131   2.395   6.780   2.487
 9744SOL    HW230132   2.420   6.931   2.545
 9745SOL     OW30133   5.363   1.970   6.209
 9745SOL    HW130134   5.435   1.977   6.277
 9745SOL    HW230135   5.343   2.061   6.172
 9746SOL     OW30136   5.019   6.682   6.620
 9746SOL    HW130137   5.002   6.684   6.522
 9746SOL    HW230138   5.028   6.586   6.650
 9747SOL     OW30139   2.735   1.916   1.497
 9747SOL    HW130140   2.685   1.959   1.572
 9747SOL    HW230141   2.680   1.918   1.413
 9748SOL     OW30142   0.171   0.630   3.145
 9748SOL    HW130143   0.155   0.672   3.056
 9748SOL    HW230144   0.147   0.533   3.141
 9749SOL     OW30145   0.341   2.033   2.164
 9749SOL    HW130146   0.427   2.048   2.213
 9749SOL    HW230147   0.291   2.119   2.159
 9750SOL     OW30148   6.067   4.681   3.856
 9750SOL    HW130149   6.078   4.664   3.758
 9750SOL    HW230150   6.078   4.779   3.873
 9751SOL     OW30151   2.841   0.297   1.304
 9751SOL    HW130152   2.920   0.314   1.246
 9751SOL    HW230153   2.871   0.261   1.392
 9752SOL     OW30154   4.327   2.441   6.685
 9752SOL    HW130155   4.293   2.531   6.658
 9752SOL    HW230156   4.372   2.397   6.607
 9753SOL     OW30157   1.118   5.498   5.974
 9753SOL    HW130158   1.047   5.542   5.919
 9753SOL    HW230159   1.079   5.473   6.063
 9754SOL     OW30160   4.013   0.265   0.449
 9754SOL    HW130161   4.016   0.172   0.486
 9754SOL    HW230162   3.998   0.330   0.523
 9755SOL     OW30163   2.996   4.080   5.144
 9755SOL    HW130164   3.056   4.063   5.066
 9755SOL    HW230165   2.998   4.178   5.166
 9756SOL     OW30166   5.379   1.610   5.939
 9756SOL    HW130167   5.386   1.526   5.993
 9756SOL    HW230168   5.285   1.622   5.909
 9757SOL     OW30169   5.732   4.796   3.908
 9757SOL    HW130170   5.746   4.711   3.856
 9757SOL    HW230171   5.708   4.773   4.002
 9758SOL     OW30172   1.218   1.091   0.425
 9758SOL    HW130173   1.292   1.026   0.442
 9758SOL    HW230174   1.251   1.184   0.441
 9759SOL     OW30175   0.937   1.543   0.643
 9759SOL    HW130176   0.984   1.533   0.555
 9759SOL    HW230177   0.890   1.631   0.646
 9760SOL     OW30178   5.092   2.650   6.861
 9760SOL    HW130179   5.113   2.584   6.934
 9760SOL    HW230180   5.036   2.724   6.899
 9761SOL     OW30181   1.368   1.351   2.018
 9761SOL    HW130182   1.359   1.366   1.920
 9761SOL    HW230183   1.404   1.259   2.035
 9762SOL     OW30184   3.010   1.660   4.500
 9762SOL    HW130185   3.040   1.704   4.585
 9762SOL    HW230186   2.917   1.691   4.478
 9763SOL     OW30187   6.154   1.529   2.725
 9763SOL    HW130188   6.217   1.505   2.798
 9763SOL    HW230189   6.182   1.484   2.640
 9764SOL     OW30190   6.236   2.327   2.760
 9764SOL    HW130191   6.170   2.261   2.724
 9764SOL    HW230192   6.204   2.420   2.741
 9765SOL     OW30193   6.421   1.281   2.254
 9765SOL    HW130194   6.346   1.263   2.317
 9765SOL    HW230195   6.396   1.354   2.192
 9766SOL     OW30196   2.214   0.158   3.289
 9766SOL    HW130197   2.136   0.174   3.350
 9766SOL    HW230198   2.189   0.185   3.196
 9767SOL     OW30199   2.162   3.035   5.498
 9767SOL    HW130200   2.068   3.004   5.515
 9767SOL    HW230201   2.215   2.960   5.458
 9768SOL     OW30202   5.676   2.214   0.708
 9768SOL    HW130203   5.648   2.286   0.772
 9768SOL    HW230204   5.765   2.178   0.735
 9769SOL     OW30205   3.459   0.697   5.134
 9769SOL    HW130206   3.519   0.625   5.171
 9769SOL    HW230207   3.366   0.661   5.126
 9770SOL     OW30208   3.664   1.969   5.603
 9770SOL    HW130209   3.660   2.064   5.634
 9770SOL    HW230210   3.659   1.966   5.503
 9771SOL     OW30211   2.236   6.945   1.770
 9771SOL    HW130212   2.332   6.917   1.781
 9771SOL    HW230213   2.194   6.890   1.698
 9772SOL     OW30214   1.956   6.413   1.774
 9772SOL    HW130215   1.883   6.482   1.766
 9772SOL    HW230216   1.915   6.322   1.782
 9773SOL     OW30217   5.659   5.107   3.305
 9773SOL    HW130218   5.682   5.200   3.276
 9773SOL    HW230219   5.605   5.110   3.389
 9774SOL     OW30220   0.976   5.066   3.722
 9774SOL    HW130221   0.880   5.039   3.717
 9774SOL    HW230222   0.982   5.156   3.765
 9775SOL     OW30223   2.859   0.782   3.106
 9775SOL    HW130224   2.951   0.822   3.103
 9775SOL    HW230225   2.830   0.759   3.013
 9776SOL     OW30226   1.799   4.822   6.188
 9776SOL    HW130227   1.845   4.753   6.132
 9776SOL    HW230228   1.862   4.855   6.259
 9777SOL     OW30229   5.337   6.437   6.664
 9777SOL    HW130230   5.421   6.385   6.682
 9777SOL    HW230231   5.298   6.406   6.577
 9778SOL     OW30232   0.304   2.139   4.693
 9778SOL    HW130233   0.218   2.179   4.660
 9778SOL    HW230234   0.333   2.067   4.630
 9779SOL     OW30235   0.490   2.719   3.899
 9779SOL    HW130236   0.542   2.653   3.844
 9779SOL    HW230237   0.428   2.670   3.960
 9780SOL     OW30238   1.800   1.463   1.307
 9780SOL    HW130239   1.748   1.506   1.234
 9780SOL    HW230240   1.897   1.460   1.281
 9781SOL     OW30241   2.108   3.550   4.587
 9781SOL    HW130242   2.034   3.573   4.651
 9781SOL    HW230243   2.133   3.453   4.598
 9782SOL     OW30244   0.698   1.963   0.850
 9782SOL    HW130245   0.761   1.990   0.777
 9782SOL    HW230246   0.621   1.912   0.810
 9783SOL     OW30247   4.574   1.660   3.295
 9783SOL    HW130248   4.598   1.586   3.233
 9783SOL    HW230249   4.655   1.716   3.314
 9784SOL     OW30250   3.662   1.139   6.445
 9784SOL    HW130251   3.649   1.041   6.435
 9784SOL    HW230252   3.714   1.158   6.529
 9785SOL     OW30253   6.306   2.288   5.429
 9785SOL    HW130254   6.278   2.299   5.334
 9785SOL    HW230255   6.360   2.204   5.439
 9786SOL     OW30256   2.637   4.281   0.482
 9786SOL    HW130257   2.638   4.221   0.562
 9786SOL    HW230258   2.640   4.226   0.398
 9787SOL     OW30259   3.768   3.585   4.487
 9787SOL    HW130260   3.729   3.671   4.521
 9787SOL    HW230261   3.855   3.604   4.440
 9788SOL     OW30262   1.282   5.836   2.163
 9788SOL    HW130263   1.329   5.751   2.138
 9788SOL    HW230264   1.183   5.821   2.159
 9789SOL     OW30265   3.005   7.017   0.118
 9789SOL    HW130266   2.922   0.050   0.116
 9789SOL    HW230267   3.006   6.960   0.200
 9790SOL     OW30268   6.431   4.488   5.811
 9790SOL    HW130269   6.424   4.544   5.728
 9790SOL    HW230270   6.369   4.526   5.881
 9791SOL     OW30271   0.759   0.326   0.152
 9791SOL    HW130272   0.802   0.289   0.235
 9791SOL    HW230273   0.712   0.253   0.103
 9792SOL     OW30274   3.960   5.051   1.079
 9792SOL    HW130275   3.945   5.050   0.980
 9792SOL    HW230276   4.052   5.086   1.098
 9793SOL     OW30277   3.866   0.191   1.506
 9793SOL    HW130278   3.928   0.113   1.510
 9793SOL    HW230279   3.891   0.258   1.575
 9794SOL     OW30280   5.040   4.430   4.848
 9794SOL    HW130281   5.119   4.386   4.804
 9794SOL    HW230282   4.961   4.369   4.843
 9795SOL     OW30283   1.091   3.117   4.092
 9795SOL    HW130284   1.163   3.163   4.144
 9795SOL    HW230285   1.083   3.023   4.123
 9796SOL     OW30286   4.027   3.878   4.063
 9796SOL    HW130287   4.121   3.895   4.093
 9796SOL    HW230288   4.014   3.779   4.049
 9797SOL     OW30289   2.615   6.294   0.301
 9797SOL    HW130290   2.627   6.195   0.300
 9797SOL    HW230291   2.520   6.316   0.277
 9798SOL     OW30292   1.892   1.782   1.132
 9798SOL    HW130293   1.952   1.759   1.208
 9798SOL    HW230294   1.947   1.805   1.051
 9799SOL     OW30295   3.158   4.020   6.253
 9799SOL    HW130296   3.254   3.999   6.235
 9799SOL    HW230297   3.152   4.107   6.303
 9800SOL     OW30298   5.665   3.404   4.187
 9800SOL    HW130299   5.740   3.342   4.163
 9800SOL    HW230300   5.633   3.452   4.106
 9801SOL     OW30301   5.136   4.736   0.250
 9801SOL    HW130302   5.128   4.737   0.350
 9801SOL    HW230303   5.232   4.725   0.224
 9802SOL     OW30304   4.305   4.519   0.300
 9802SOL    HW130305   4.311   4.438   0.357
 9802SOL    HW230306   4.237   4.504   0.228
 9803SOL     OW30307   1.940   3.347   6.605
 9803SOL    HW130308   1.980   3.325   6.516
 9803SOL    HW230309   1.962   3.442   6.628
 9804SOL     OW30310   6.943   6.151   2.984
 9804SOL    HW130311   6.949   6.201   3.070
 9804SOL    HW230312   6.979   6.207   2.909
 9805SOL     OW30313   1.250   0.069   3.122
 9805SOL    HW130314   1.236   0.163   3.092
 9805SOL    HW230315   1.253   0.008   3.043
 9806SOL     OW30316   2.833   2.685   6.086
 9806SOL    HW130317   2.776   2.622   6.034
 9806SOL    HW230318   2.777   2.758   6.125
 9807SOL     OW30319   3.263   2.898   2.423
 9807SOL    HW130320   3.297   2.887   2.329
 9807SOL    HW230321   3.169   2.932   2.420
 9808SOL     OW30322   4.066   5.568   3.822
 9808SOL    HW130323   4.018   5.505   3.761
 9808SOL    HW230324   4.162   5.574   3.795
 9809SOL     OW30325   1.020   3.266   0.111
 9809SOL    HW130326   1.022   3.236   0.016
 9809SOL    HW230327   0.983   3.358   0.117
 9810SOL     OW30328   2.761   2.359   5.188
 9810SOL    HW130329   2.763   2.261   5.169
 9810SOL    HW230330   2.844   2.386   5.236
 9811SOL     OW30331   5.953   3.565   3.400
 9811SOL    HW130332   6.027   3.582   3.335
 9811SOL    HW230333   5.992   3.549   3.491
 9812SOL     OW30334   2.959   0.389   4.052
 9812SOL    HW130335   2.892   0.316   4.064
 9812SOL    HW230336   2.920   0.462   3.996
 9813SOL     OW30337   5.952   2.121   0.783
 9813SOL    HW130338   6.038   2.145   0.828
 9813SOL    HW230339   5.971   2.084   0.692
 9814SOL     OW30340   5.293   1.368   0.003
 9814SOL    HW130341   5.217   1.428   6.999
 9814SOL    HW230342   5.323   1.316   6.945
 9815SOL     OW30343   4.947   2.523   4.134
 9815SOL    HW130344   4.992   2.608   4.108
 9815SOL    HW230345   4.898   2.537   4.220
 9816SOL     OW30346   1.208   0.241   6.588
 9816SOL    HW130347   1.240   0.332   6.561
 9816SOL    HW230348   1.274   0.200   6.651
 9817SOL     OW30349   0.683   6.876   2.993
 9817SOL    HW130350   0.720   6.815   2.923
 9817SOL    HW230351   0.592   6.845   3.020
 9818SOL     OW30352   6.244   2.142   4.761
 9818SOL    HW130353   6.274   2.153   4.855
 9818SOL    HW230354   6.174   2.071   4.757
 9819SOL     OW30355   4.542   2.492   3.285
 9819SOL    HW130356   4.571   2.558   3.216
 9819SOL    HW230357   4.525   2.539   3.371
 9820SOL     OW30358   3.604   3.125   6.919
 9820SOL    HW130359   3.518   3.093   6.881
 9820SOL    HW230360   3.677   3.111   6.852
 9821SOL     OW30361   5.623   0.245   6.373
 9821SOL    HW130362   5.587   0.301   6.448
 9821SOL    HW230363   5.683   0.175   6.410
 9822SOL     OW30364   0.683   6.997   2.623
 9822SOL    HW130365   0.617   0.034   2.670
 9822SOL    HW230366   0.763   6.984   2.681
 9823SOL     OW30367   3.377   0.120   1.494
 9823SOL    HW130368   3.389   0.219   1.498
 9823SOL    HW230369   3.327   0.096   1.411
 9824SOL     OW30370   2.140   4.245   5.497
 9824SOL    HW130371   2.047   4.210   5.507
 9824SOL    HW230372   2.148   4.295   5.411
 9825SOL     OW30373   3.354   5.482   5.317
 9825SOL    HW130374   3.417   5.418   5.360
 9825SOL    HW230375   3.320   5.443   5.231
 9826SOL     OW30376   4.411   5.629   6.068
 9826SOL    HW130377   4.414   5.686   5.986
 9826SOL    HW230378   4.380   5.683   6.146
 9827SOL     OW30379   2.104   4.360   4.340
 9827SOL    HW130380   2.084   4.279   4.285
 9827SOL    HW230381   2.070   4.347   4.433
 9828SOL     OW30382   3.130   2.831   6.888
 9828SOL    HW130383   3.103   2.875   6.802
 9828SOL    HW230384   3.098   2.736   6.888
 9829SOL     OW30385   3.001   6.378   0.847
 9829SOL    HW130386   2.902   6.362   0.845
 9829SOL    HW230387   3.021   6.459   0.901
 9830SOL     OW30388   5.500   2.608   1.824
 9830SOL    HW130389   5.458   2.517   1.817
 9830SOL    HW230390   5.439   2.668   1.876
 9831SOL     OW30391   1.978   6.373   0.462
 9831SOL    HW130392   2.040   6.432   0.410
 9831SOL    HW230393   2.000   6.378   0.559
 9832SOL     OW30394   4.943   5.287   2.063
 9832SOL    HW130395   4.939   5.379   2.024
 9832SOL    HW230396   5.032   5.246   2.042
 9833SOL     OW30397   3.297   2.855   5.094
 9833SOL    HW130398   3.329   2.784   5.156
 9833SOL    HW230399   3.199   2.870   5.109
 9834SOL     OW30400   2.638   3.662   5.933
 9834SOL    HW130401   2.649   3.637   6.029
 9834SOL    HW230402   2.675   3.589   5.875
 9835SOL     OW30403   3.817   2.596   5.789
 9835SOL    HW130404   3.726   2.557   5.783
 9835SOL    HW230405   3.838   2.616   5.885
 9836SOL     OW30406   6.306   4.363   3.714
 9836SOL    HW130407   6.370   4.408   3.651
 9836SOL    HW230408   6.355   4.294   3.766
 9837SOL     OW30409   2.334   0.190   2.482
 9837SOL    HW130410   2.296   0.282   2.474
 9837SOL    HW230411   2.422   0.185   2.435
 9838SOL     OW30412   0.753   6.688   6.042
 9838SOL    HW130413   0.809   6.605   6.049
 9838SOL    HW230414   0.674   6.670   5.983
 9839SOL     OW30415   5.813   1.318   3.002
 9839SOL    HW130416   5.867   1.267   3.069
 9839SOL    HW230417   5.866   1.397   2.969
 9840SOL     OW30418   0.080   0.981   1.253
 9840SOL    HW130419   0.160   0.971   1.312
 9840SOL    HW230420   0.074   0.903   1.190
 9841SOL     OW30421   1.251   4.921   4.617
 9841SOL    HW130422   1.324   4.859   4.646
 9841SOL    HW230423   1.264   4.945   4.521
 9842SOL     OW30424   3.620   4.047   3.380
 9842SOL    HW130425   3.523   4.046   3.404
 9842SOL    HW230426   3.631   4.015   3.286
 9843SOL     OW30427   6.900   1.701   2.150
 9843SOL    HW130428   6.958   1.642   2.207
 9843SOL    HW230429   6.930   1.693   2.054
 9844SOL     OW30430   5.035   0.384   2.668
 9844SOL    HW130431   5.081   0.447   2.731
 9844SOL    HW230432   4.993   0.435   2.594
 9845SOL     OW30433   2.595   1.467   4.853
 9845SOL    HW130434   2.578   1.420   4.766
 9845SOL    HW230435   2.663   1.539   4.839
 9846SOL     OW30436   3.833   3.277   2.395
 9846SOL    HW130437   3.758   3.229   2.350
 9846SOL    HW230438   3.907   3.213   2.417
 9847SOL     OW30439   3.543   2.574   5.855
 9847SOL    HW130440   3.473   2.521   5.903
 9847SOL    HW230441   3.515   2.586   5.760
 9848SOL     OW30442   3.487   2.359   6.395
 9848SOL    HW130443   3.535   2.400   6.473
 9848SOL    HW230444   3.469   2.263   6.414
 9849SOL     OW30445   5.875   0.528   0.203
 9849SOL    HW130446   5.884   0.617   0.158
 9849SOL    HW230447   5.888   0.455   0.136
 9850SOL     OW30448   5.601   6.221   2.566
 9850SOL    HW130449   5.569   6.219   2.661
 9850SOL    HW230450   5.541   6.280   2.512
 9851SOL     OW30451   4.543   2.137   5.556
 9851SOL    HW130452   4.470   2.179   5.502
 9851SOL    HW230453   4.543   2.038   5.541
 9852SOL     OW30454   4.392   1.875   3.315
 9852SOL    HW130455   4.454   1.797   3.313
 9852SOL    HW230456   4.381   1.907   3.409
 9853SOL     OW30457   4.662   4.209   3.316
 9853SOL    HW130458   4.620   4.124   3.346
 9853SOL    HW230459   4.725   4.242   3.387
 9854SOL     OW30460   6.397   4.977   5.101
 9854SOL    HW130461   6.441   4.947   5.016
 9854SOL    HW230462   6.314   5.028   5.078
 9855SOL     OW30463   2.052   4.492   2.315
 9855SOL    HW130464   1.995   4.423   2.270
 9855SOL    HW230465   2.128   4.446   2.361
 9856SOL     OW30466   5.341   3.791   0.094
 9856SOL    HW130467   5.290   3.873   0.121
 9856SOL    HW230468   5.302   3.711   0.139
 9857SOL     OW30469   4.454   2.030   4.028
 9857SOL    HW130470   4.467   2.066   3.936
 9857SOL    HW230471   4.356   2.028   4.049
 9858SOL     OW30472   6.575   0.999   1.670
 9858SOL    HW130473   6.556   1.067   1.599
 9858SOL    HW230474   6.600   1.046   1.755
 9859SOL     OW30475   6.421   6.954   1.181
 9859SOL    HW130476   6.463   6.865   1.161
 9859SOL    HW230477   6.325   6.940   1.205
 9860SOL     OW30478   6.798   1.051   2.734
 9860SOL    HW130479   6.742   1.049   2.651
 9860SOL    HW230480   6.750   1.002   2.807
 9861SOL     OW30481   2.638   0.199   3.407
 9861SOL    HW130482   2.571   0.134   3.371
 9861SOL    HW230483   2.591   0.274   3.453
 9862SOL     OW30484   2.412   4.517   0.651
 9862SOL    HW130485   2.371   4.505   0.561
 9862SOL    HW230486   2.507   4.486   0.649
 9863SOL     OW30487   3.029   0.330   3.306
 9863SOL    HW130488   3.071   0.297   3.221
 9863SOL    HW230489   2.963   0.402   3.283
 9864SOL     OW30490   4.094   5.610   4.089
 9864SOL    HW130491   4.100   5.589   3.991
 9864SOL    HW230492   4.016   5.670   4.106
 9865SOL     OW30493   1.181   1.481   4.395
 9865SOL    HW130494   1.127   1.436   4.467
 9865SOL    HW230495   1.264   1.520   4.435
 9866SOL     OW30496   5.496   4.180   5.151
 9866SOL    HW130497   5.526   4.155   5.059
 9866SOL    HW230498   5.555   4.136   5.218
 9867SOL     OW30499   6.256   0.364   1.066
 9867SOL    HW130500   6.224   0.343   1.158
 9867SOL    HW230501   6.178   0.368   1.003
 9868SOL     OW30502   1.439   4.535   5.519
 9868SOL    HW130503   1.428   4.437   5.533
 9868SOL    HW230504   1.421   4.583   5.605
 9869SOL     OW30505   1.814   3.431   2.456
 9869SOL    HW130506   1.765   3.401   2.538
 9869SOL    HW230507   1.755   3.491   2.402
 9870SOL     OW30508   4.476   5.634   2.511
 9870SOL    HW130509   4.559   5.688   2.497
 9870SOL    HW230510   4.488   5.544   2.469
 9871SOL     OW30511   1.023   6.868   5.566
 9871SOL    HW130512   1.007   6.950   5.510
 9871SOL    HW230513   0.935   6.834   5.600
 9872SOL     OW30514   3.084   5.163   4.054
 9872SOL    HW130515   3.126   5.084   4.010
 9872SOL    HW230516   3.064   5.142   4.149
 9873SOL     OW30517   2.947   2.262   1.245
 9873SOL    HW130518   2.901   2.343   1.280
 9873SOL    HW230519   3.004   2.286   1.167
 9874SOL     OW30520   0.650   3.806   4.237
 9874SOL    HW130521   0.689   3.860   4.162
 9874SOL    HW230522   0.641   3.863   4.319
 9875SOL     OW30523   0.303   6.524   2.235
 9875SOL    HW130524   0.342   6.479   2.314
 9875SOL    HW230525   0.347   6.613   2.221
 9876SOL     OW30526   6.510   0.756   2.795
 9876SOL    HW130527   6.562   0.752   2.710
 9876SOL    HW230528   6.538   0.837   2.847
 9877SOL     OW30529   0.181   6.372   3.070
 9877SOL    HW130530   0.101   6.351   3.126
 9877SOL    HW230531   0.245   6.295   3.075
 9878SOL     OW30532   2.255   5.532   4.819
 9878SOL    HW130533   2.195   5.536   4.899
 9878SOL    HW230534   2.350   5.526   4.848
 9879SOL     OW30535   5.726   5.332   4.511
 9879SOL    HW130536   5.802   5.397   4.508
 9879SOL    HW230537   5.651   5.366   4.454
 9880SOL     OW30538   2.749   1.878   5.656
 9880SOL    HW130539   2.657   1.843   5.674
 9880SOL    HW230540   2.748   1.978   5.659
 9881SOL     OW30541   1.929   1.101   4.856
 9881SOL    HW130542   1.963   1.008   4.845
 9881SOL    HW230543   1.959   1.137   4.944
 9882SOL     OW30544   1.142   2.342   4.043
 9882SOL    HW130545   1.155   2.366   4.140
 9882SOL    HW230546   1.171   2.248   4.028
 9883SOL     OW30547   2.062   5.384   0.023
 9883SOL    HW130548   2.067   5.473   0.069
 9883SOL    HW230549   2.154   5.356   7.017
 9884SOL     OW30550   4.087   1.670   3.033
 9884SOL    HW130551   4.101   1.571   3.036
 9884SOL    HW230552   4.173   1.715   3.009
 9885SOL     OW30553   6.515   2.861   5.536
 9885SOL    HW130554   6.584   2.833   5.602
 9885SOL    HW230555   6.507   2.961   5.535
 9886SOL     OW30556   0.765   4.582   1.671
 9886SOL    HW130557   0.715   4.513   1.619
 9886SOL    HW230558   0.808   4.540   1.751
 9887SOL     OW30559   3.533   0.836   5.906
 9887SOL    HW130560   3.488   0.754   5.943
 9887SOL    HW230561   3.512   0.845   5.809
 9888SOL     OW30562   6.283   3.993   2.062
 9888SOL    HW130563   6.217   3.924   2.090
 9888SOL    HW230564   6.372   3.949   2.047
 9889SOL     OW30565   0.175   5.587   1.762
 9889SOL    HW130566   0.113   5.539   1.699
 9889SOL    HW230567   0.263   5.540   1.764
 9890SOL     OW30568   1.766   2.047   0.256
 9890SOL    HW130569   1.830   1.972   0.238
 9890SOL    HW230570   1.719   2.029   0.343
 9891SOL     OW30571   5.502   2.935   1.512
 9891SOL    HW130572   5.456   2.979   1.435
 9891SOL    HW230573   5.548   2.853   1.480
 9892SOL     OW30574   7.014   5.191   0.949
 9892SOL    HW130575   0.067   5.204   0.885
 9892SOL    HW230576   0.029   5.171   1.040
 9893SOL     OW30577   1.140   6.982   1.315
 9893SOL    HW130578   1.101   6.982   1.407
 9893SOL    HW230579   1.079   6.932   1.253
 9894SOL     OW30580   2.398   2.669   1.904
 9894SOL    HW130581   2.472   2.634   1.962
 9894SOL    HW230582   2.438   2.712   1.823
 9895SOL     OW30583   6.687   3.662   5.233
 9895SOL    HW130584   6.760   3.713   5.186
 9895SOL    HW230585   6.673   3.701   5.324
 9896SOL     OW30586   6.061   0.526   6.702
 9896SOL    HW130587   6.089   0.585   6.778
 9896SOL    HW230588   6.137   0.516   6.638
 9897SOL     OW30589   6.357   5.866   3.245
 9897SOL    HW130590   6.412   5.825   3.318
 9897SOL    HW230591   6.416   5.885   3.166
 9898SOL     OW30592   1.671   5.964   4.600
 9898SOL    HW130593   1.626   5.904   4.534
 9898SOL    HW230594   1.755   6.000   4.559
 9899SOL     OW30595   1.003   5.531   6.887
 9899SOL    HW130596   1.001   5.498   6.792
 9899SOL    HW230597   0.970   5.459   6.948
 9900SOL     OW30598   1.583   3.754   3.698
 9900SOL    HW130599   1.561   3.805   3.781
 9900SOL    HW230600   1.539   3.797   3.619
 9901SOL     OW30601   3.082   0.731   6.104
 9901SOL    HW130602   2.993   0.728   6.059
 9901SOL    HW230603   3.140   0.799   6.059
 9902SOL     OW30604   3.016   4.770   0.842
 9902SOL    HW130605   2.966   4.847   0.801
 9902SOL    HW230606   3.093   4.805   0.896
 9903SOL     OW30607   5.274   1.304   2.106
 9903SOL    HW130608   5.235   1.223   2.062
 9903SOL    HW230609   5.354   1.277   2.159
 9904SOL     OW30610   1.427   4.287   6.744
 9904SOL    HW130611   1.510   4.279   6.688
 9904SOL    HW230612   1.363   4.350   6.700
 9905SOL     OW30613   2.463   0.150   6.382
 9905SOL    HW130614   2.476   0.209   6.303
 9905SOL    HW230615   2.365   0.147   6.406
 9906SOL     OW30616   2.687   3.359   1.835
 9906SOL    HW130617   2.594   3.395   1.843
 9906SOL    HW230618   2.684   3.259   1.834
 9907SOL     OW30619   6.422   0.285   1.390
 9907SOL    HW130620   6.327   0.316   1.400
 9907SOL    HW230621   6.465   0.334   1.314
 9908SOL     OW30622   5.648   2.131   4.830
 9908SOL    HW130623   5.552   2.154   4.840
 9908SOL    HW230624   5.694   2.139   4.919
 9909SOL     OW30625   4.112   0.843   3.607
 9909SOL    HW130626   4.208   0.857   3.631
 9909SOL    HW230627   4.064   0.800   3.684
 9910SOL     OW30628   1.391   4.271   3.104
 9910SOL    HW130629   1.443   4.226   3.176
 9910SOL    HW230630   1.324   4.333   3.145
 9911SOL     OW30631   3.151   5.971   2.090
 9911SOL    HW130632   3.182   6.066   2.079
 9911SOL    HW230633   3.063   5.970   2.137
 9912SOL     OW30634   4.040   0.728   1.212
 9912SOL    HW130635   3.968   0.795   1.226
 9912SOL    HW230636   4.074   0.735   1.118
 9913SOL     OW30637   6.240   4.251   1.206
 9913SOL    HW130638   6.150   4.259   1.251
 9913SOL    HW230639   6.239   4.172   1.144
 9914SOL     OW30640   5.767   1.685   4.523
 9914SOL    HW130641   5.738   1.778   4.548
 9914SOL    HW230642   5.828   1.650   4.594
 9915SOL     OW30643   4.888   0.560   3.560
 9915SOL    HW130644   4.812   0.602   3.609
 9915SOL    HW230645   4.912   0.615   3.480
 9916SOL     OW30646   2.119   2.646   3.372
 9916SOL    HW130647   2.076   2.565   3.331
 9916SOL    HW230648   2.152   2.623   3.464
 9917SOL     OW30649   5.579   3.994   6.996
 9917SOL    HW130650   5.535   4.018   6.909
 9917SOL    HW230651   5.668   4.037   7.001
 9918SOL     OW30652   3.297   1.737   3.404
 9918SOL    HW130653   3.245   1.669   3.455
 9918SOL    HW230654   3.381   1.758   3.453
 9919SOL     OW30655   6.415   5.055   1.653
 9919SOL    HW130656   6.512   5.058   1.678
 9919SOL    HW230657   6.394   5.134   1.595
 9920SOL     OW30658   4.872   1.612   1.981
 9920SOL    HW130659   4.844   1.538   2.041
 9920SOL    HW230660   4.892   1.693   2.036
 9921SOL     OW30661   4.172   0.025   5.671
 9921SOL    HW130662   4.161   6.948   5.671
 9921SOL    HW230663   4.258   0.049   5.626
 9922SOL     OW30664   2.947   4.023   0.359
 9922SOL    HW130665   2.871   3.962   0.336
 9922SOL    HW230666   2.998   3.986   0.437
 9923SOL     OW30667   5.231   4.782   6.665
 9923SOL    HW130668   5.294   4.839   6.611
 9923SOL    HW230669   5.223   4.692   6.623
 9924SOL     OW30670   6.650   2.037   4.839
 9924SOL    HW130671   6.714   2.096   4.888
 9924SOL    HW230672   6.651   1.946   4.880
 9925SOL     OW30673   0.147   2.870   4.409
 9925SOL    HW130674   0.147   2.927   4.492
 9925SOL    HW230675   0.107   2.781   4.430
 9926SOL     OW30676   4.001   2.253   0.437
 9926SOL    HW130677   4.029   2.331   0.492
 9926SOL    HW230678   4.043   2.170   0.474
 9927SOL     OW30679   7.008   6.599   0.278
 9927SOL    HW130680   0.025   6.637   0.362
 9927SOL    HW230681   0.011   6.502   0.271
 9928SOL     OW30682   4.989   4.471   2.738
 9928SOL    HW130683   4.939   4.503   2.819
 9928SOL    HW230684   4.984   4.541   2.666
 9929SOL     OW30685   3.118   4.386   5.645
 9929SOL    HW130686   3.142   4.475   5.605
 9929SOL    HW230687   3.064   4.333   5.580
 9930SOL     OW30688   6.638   6.287   5.002
 9930SOL    HW130689   6.665   6.270   5.097
 9930SOL    HW230690   6.685   6.223   4.942
 9931SOL     OW30691   0.186   5.784   4.078
 9931SOL    HW130692   0.097   5.790   4.033
 9931SOL    HW230693   0.176   5.736   4.165
 9932SOL     OW30694   3.274   4.049   6.927
 9932SOL    HW130695   3.181   4.042   6.891
 9932SOL    HW230696   3.284   4.134   6.978
 9933SOL     OW30697   0.195   5.794   3.515
 9933SOL    HW130698   0.246   5.708   3.510
 9933SOL    HW230699   0.130   5.799   3.438
 9934SOL     OW30700   5.754   2.234   5.762
 9934SOL    HW130701   5.731   2.139   5.743
 9934SOL    HW230702   5.762   2.247   5.861
 9935SOL     OW30703   2.550   6.481   6.979
 9935SOL    HW130704   2.479   6.411   6.972
 9935SOL    HW230705   2.640   6.439   6.968
 9936SOL     OW30706   6.580   5.346   6.516
 9936SOL    HW130707   6.527   5.266   6.542
 9936SOL    HW230708   6.579   5.357   6.417
 9937SOL     OW30709   6.388   1.172   0.918
 9937SOL    HW130710   6.310   1.197   0.976
 9937SOL    HW230711   6.355   1.147   0.827
 9938SOL     OW30712   6.614   5.151   2.638
 9938SOL    HW130713   6.678   5.091   2.590
 9938SOL    HW230714   6.525   5.106   2.646
 9939SOL     OW30715   4.256   2.525   0.438
 9939SOL    HW130716   4.178   2.496   0.494
 9939SOL    HW230717   4.340   2.485   0.474
 9940SOL     OW30718   1.145   0.472   1.199
 9940SOL    HW130719   1.061   0.526   1.189
 9940SOL    HW230720   1.144   0.423   1.286
 9941SOL     OW30721   2.883   3.808   5.640
 9941SOL    HW130722   2.887   3.847   5.732
 9941SOL    HW230723   2.883   3.881   5.572
 9942SOL     OW30724   2.562   5.480   2.205
 9942SOL    HW130725   2.651   5.436   2.211
 9942SOL    HW230726   2.511   5.442   2.128
 9943SOL     OW30727   0.275   4.417   5.521
 9943SOL    HW130728   0.350   4.448   5.580
 9943SOL    HW230729   0.194   4.402   5.576
 9944SOL     OW30730   1.582   4.544   6.752
 9944SOL    HW130731   1.598   4.466   6.812
 9944SOL    HW230732   1.615   4.628   6.796
 9945SOL     OW30733   5.894   5.712   6.254
 9945SOL    HW130734   5.965   5.751   6.195
 9945SOL    HW230735   5.821   5.779   6.269
 9946SOL     OW30736   4.984   0.985   3.555
 9946SOL    HW130737   4.991   1.055   3.626
 9946SOL    HW230738   5.007   1.026   3.466
 9947SOL     OW30739   1.773   2.865   5.020
 9947SOL    HW130740   1.818   2.953   5.035
 9947SOL    HW230741   1.832   2.792   5.055
 9948SOL     OW30742   5.484   4.086   4.903
 9948SOL    HW130743   5.558   4.114   4.842
 9948SOL    HW230744   5.480   3.986   4.906
 9949SOL     OW30745   6.750   4.848   4.199
 9949SOL    HW130746   6.832   4.863   4.143
 9949SOL    HW230747   6.676   4.814   4.141
 9950SOL     OW30748   5.770   5.872   4.968
 9950SOL    HW130749   5.766   5.971   4.978
 9950SOL    HW230750   5.686   5.839   4.926
 9951SOL     OW30751   0.052   0.524   4.601
 9951SOL    HW130752   0.151   0.537   4.593
 9951SOL    HW230753   0.031   0.426   4.596
 9952SOL     OW30754   1.337   3.743   0.970
 9952SOL    HW130755   1.294   3.832   0.958
 9952SOL    HW230756   1.374   3.711   0.882
 9953SOL     OW30757   5.595   2.953   4.704
 9953SOL    HW130758   5.513   2.980   4.654
 9953SOL    HW230759   5.577   2.956   4.803
 9954SOL     OW30760   6.441   0.765   6.536
 9954SOL    HW130761   6.511   0.817   6.586
 9954SOL    HW230762   6.464   0.766   6.438
 9955SOL     OW30763   6.410   3.519   5.445
 9955SOL    HW130764   6.477   3.592   5.455
 9955SOL    HW230765   6.322   3.549   5.482
 9956SOL     OW30766   1.589   6.979   2.609
 9956SOL    HW130767   1.508   6.922   2.617
 9956SOL    HW230768   1.591   0.023   2.684
 9957SOL     OW30769   5.102   5.684   2.443
 9957SOL    HW130770   5.199   5.670   2.424
 9957SOL    HW230771   5.085   5.782   2.458
 9958SOL     OW30772   3.566   5.421   0.565
 9958SOL    HW130773   3.658   5.448   0.538
 9958SOL    HW230774   3.499   5.478   0.517
 9959SOL     OW30775   4.079   3.725   5.242
 9959SOL    HW130776   4.109   3.685   5.156
 9959SOL    HW230777   4.155   3.773   5.285
 9960SOL     OW30778   0.006   6.812   2.036
 9960SOL    HW130779   0.060   6.822   2.119
 9960SOL    HW230780   7.005   6.716   2.022
 9961SOL     OW30781   1.248   5.287   4.519
 9961SOL    HW130782   1.292   5.377   4.521
 9961SOL    HW230783   1.209   5.268   4.609
 9962SOL     OW30784   6.141   6.613   2.835
 9962SOL    HW130785   6.170   6.518   2.828
 9962SOL    HW230786   6.117   6.647   2.744
 9963SOL     OW30787   2.967   3.415   6.846
 9963SOL    HW130788   3.004   3.358   6.773
 9963SOL    HW230789   3.039   3.437   6.911
 9964SOL     OW30790   5.294   4.880   5.548
 9964SOL    HW130791   5.252   4.800   5.506
 9964SOL    HW230792   5.347   4.930   5.480
 9965SOL     OW30793   3.614   6.653   6.103
 9965SOL    HW130794   3.590   6.708   6.182
 9965SOL    HW230795   3.702   6.607   6.120
 9966SOL     OW30796   1.786   6.141   1.900
 9966SOL    HW130797   1.801   6.113   1.806
 9966SOL    HW230798   1.874   6.162   1.943
 9967SOL     OW30799   0.377   6.806   2.253
 9967SOL    HW130800   0.401   6.844   2.343
 9967SOL    HW230801   0.396   6.874   2.182
 9968SOL     OW30802   3.575   3.920   1.155
 9968SOL    HW130803   3.540   3.849   1.094
 9968SOL    HW230804   3.527   4.006   1.136
 9969SOL     OW30805   1.837   2.932   2.721
 9969SOL    HW130806   1.751   2.891   2.692
 9969SOL    HW230807   1.828   3.032   2.720
 9970SOL     OW30808   5.278   3.923   2.577
 9970SOL    HW130809   5.202   3.949   2.638
 9970SOL    HW230810   5.364   3.951   2.618
 9971SOL     OW30811   2.206   5.730   1.709
 9971SOL    HW130812   2.226   5.726   1.611
 9971SOL    HW230813   2.217   5.640   1.750
 9972SOL     OW30814   4.780   4.760   1.555
 9972SOL    HW130815   4.734   4.736   1.640
 9972SOL    HW230816   4.712   4.771   1.482
 9973SOL     OW30817   5.335   2.093   3.983
 9973SOL    HW130818   5.379   2.112   3.896
 9973SOL    HW230819   5.303   1.998   3.984
 9974SOL     OW30820   0.500   2.779   2.575
 9974SOL    HW130821   0.563   2.856   2.562
 9974SOL    HW230822   0.500   2.722   2.492
 9975SOL     OW30823   5.999   4.285   6.872
 9975SOL    HW130824   6.020   4.383   6.880
 9975SOL    HW230825   6.083   4.232   6.887
 9976SOL     OW30826   0.861   6.249   5.443
 9976SOL    HW130827   0.914   6.178   5.397
 9976SOL    HW230828   0.782   6.207   5.489
 9977SOL     OW30829   0.058   4.919   5.564
 9977SOL    HW130830   0.128   4.991   5.560
 9977SOL    HW230831   0.102   4.830   5.557
 9978SOL     OW30832   0.281   2.429   4.295
 9978SOL    HW130833   0.370   2.434   4.340
 9978SOL    HW230834   0.248   2.335   4.296
 9979SOL     OW30835   6.307   5.245   5.604
 9979SOL    HW130836   6.400   5.251   5.567
 9979SOL    HW230837   6.248   5.198   5.538
 9980SOL     OW30838   1.951   0.885   5.655
 9980SOL    HW130839   1.880   0.825   5.621
 9980SOL    HW230840   1.914   0.977   5.669
 9981SOL     OW30841   2.644   1.707   2.798
 9981SOL    HW130842   2.738   1.739   2.805
 9981SOL    HW230843   2.597   1.725   2.884
 9982SOL     OW30844   6.471   6.322   4.631
 9982SOL    HW130845   6.416   6.402   4.657
 9982SOL    HW230846   6.568   6.346   4.638
 9983SOL     OW30847   6.855   2.253   2.657
 9983SOL    HW130848   6.860   2.159   2.625
 9983SOL    HW230849   6.851   2.254   2.757
 9984SOL     OW30850   1.938   0.856   6.872
 9984SOL    HW130851   2.027   0.869   6.828
 9984SOL    HW230852   1.867   0.856   6.802
 9985SOL     OW30853   1.080   1.056   1.257
 9985SOL    HW130854   1.106   1.106   1.174
 9985SOL    HW230855   1.106   0.959   1.246
 9986SOL     OW30856   5.181   4.075   5.990
 9986SOL    HW130857   5.205   4.161   5.945
 9986SOL    HW230858   5.192   4.085   6.089
 9987SOL     OW30859   0.259   3.196   4.389
 9987SOL    HW130860   0.303   3.131   4.328
 9987SOL    HW230861   0.328   3.242   4.445
 9988SOL     OW30862   6.722   5.953   4.123
 9988SOL    HW130863   6.717   5.881   4.193
 9988SOL    HW230864   6.722   6.042   4.167
 9989SOL     OW30865   6.628   3.609   3.598
 9989SOL    HW130866   6.721   3.580   3.618
 9989SOL    HW230867   6.565   3.570   3.666
 9990SOL     OW30868   2.490   5.405   1.922
 9990SOL    HW130869   2.465   5.502   1.912
 9990SOL    HW230870   2.425   5.349   1.872
 9991SOL     OW30871   2.166   2.286   3.478
 9991SOL    HW130872   2.256   2.242   3.490
 9991SOL    HW230873   2.164   2.333   3.391
 9992SOL     OW30874   5.710   5.420   0.046
 9992SOL    HW130875   5.755   5.495   0.095
 9992SOL    HW230876   5.775   5.346   0.029
 9993SOL     OW30877   3.093   0.888   0.685
 9993SOL    HW130878   3.081   0.790   0.670
 9993SOL    HW230879   3.164   0.923   0.624
 9994SOL     OW30880   5.899   4.433   3.239
 9994SOL    HW130881   5.836   4.357   3.229
 9994SOL    HW230882   5.991   4.398   3.258
 9995SOL     OW30883   4.802   1.142   2.818
 9995SOL    HW130884   4.840   1.229   2.851
 9995SOL    HW230885   4.744   1.103   2.889
 9996SOL     OW30886   2.918   3.161   0.698
 9996SOL    HW130887   3.001   3.174   0.644
 9996SOL    HW230888   2.870   3.079   0.666
 9997SOL     OW30889   3.677   1.611   6.505
 9997SOL    HW130890   3.614   1.552   6.453
 9997SOL    HW230891   3.668   1.705   6.472
 9998SOL     OW30892   5.720   4.667   6.269
 9998SOL    HW130893   5.815   4.671   6.302
 9998SOL    HW230894   5.712   4.721   6.186
 9999SOL     OW30895   6.214   2.909   5.650
 9999SOL    HW130896   6.142   2.924   5.718
 9999SOL    HW230897   6.292   2.969   5.669
10000SOL     OW30898   0.170   4.740   6.974
10000SOL    HW130899   0.073   4.760   6.961
10000SOL    HW230900   0.186   4.706   0.044
10001SOL     OW30901   5.174   6.887   2.273
10001SOL    HW130902   5.164   6.945   2.192
10001SOL    HW230903   5.184   6.945   2.354
10002SOL     OW30904   0.918   0.362   2.759
10002SOL    HW130905   0.953   0.292   2.696
10002SOL    HW230906   0.919   0.451   2.714
10003SOL     OW30907   3.878   1.589   3.517
10003SOL    HW130908   3.922   1.576   3.606
10003SOL    HW230909   3.801   1.652   3.527
10004SOL     OW30910   6.830   2.494   4.186
10004SOL    HW130911   6.769   2.419   4.161
10004SOL    HW230912   6.827   2.565   4.115
10005SOL     OW30913   5.681   0.287   4.907
10005SOL    HW130914   5.755   0.226   4.879
10005SOL    HW230915   5.626   0.311   4.827
10006SOL     OW30916   4.862   5.348   4.385
10006SOL    HW130917   4.850   5.445   4.406
10006SOL    HW230918   4.955   5.333   4.350
10007SOL     OW30919   6.824   4.367   5.633
10007SOL    HW130920   6.790   4.455   5.667
10007SOL    HW230921   6.770   4.293   5.672
10008SOL     OW30922   3.780   1.237   4.570
10008SOL    HW130923   3.772   1.319   4.626
10008SOL    HW230924   3.738   1.253   4.480
10009SOL     OW30925   1.825   3.804   2.090
10009SOL    HW130926   1.891   3.735   2.062
10009SOL    HW230927   1.734   3.779   2.056
10010SOL     OW30928   2.391   0.835   5.477
10010SOL    HW130929   2.364   0.759   5.536
10010SOL    HW230930   2.330   0.913   5.494
10011SOL     OW30931   6.206   0.813   5.920
10011SOL    HW130932   6.173   0.723   5.892
10011SOL    HW230933   6.295   0.803   5.965
10012SOL     OW30934   5.622   1.331   3.339
10012SOL    HW130935   5.633   1.246   3.288
10012SOL    HW230936   5.597   1.404   3.277
10013SOL     OW30937   0.363   1.151   3.530
10013SOL    HW130938   0.315   1.237   3.544
10013SOL    HW230939   0.441   1.145   3.592
10014SOL     OW30940   0.013   4.171   0.490
10014SOL    HW130941   7.016   4.112   0.569
10014SOL    HW230942   0.099   4.143   0.449
10015SOL     OW30943   2.368   5.082   0.781
10015SOL    HW130944   2.365   5.058   0.685
10015SOL    HW230945   2.286   5.136   0.804
10016SOL     OW30946   1.154   1.470   6.351
10016SOL    HW130947   1.110   1.420   6.425
10016SOL    HW230948   1.130   1.430   6.263
10017SOL     OW30949   2.603   1.799   3.101
10017SOL    HW130950   2.520   1.855   3.093
10017SOL    HW230951   2.578   1.708   3.136
10018SOL     OW30952   4.572   0.564   6.252
10018SOL    HW130953   4.663   0.530   6.276
10018SOL    HW230954   4.514   0.487   6.228
10019SOL     OW30955   0.462   1.508   2.995
10019SOL    HW130956   0.468   1.581   2.928
10019SOL    HW230957   0.373   1.462   2.987
10020SOL     OW30958   1.767   2.048   0.850
10020SOL    HW130959   1.726   1.965   0.887
10020SOL    HW230960   1.739   2.127   0.904
10021SOL     OW30961   0.309   2.625   1.511
10021SOL    HW130962   0.312   2.578   1.599
10021SOL    HW230963   0.359   2.711   1.517
10022SOL     OW30964   2.979   1.496   5.964
10022SOL    HW130965   2.932   1.576   5.926
10022SOL    HW230966   2.919   1.450   6.030
10023SOL     OW30967   6.845   4.827   0.976
10023SOL    HW130968   6.797   4.740   0.965
10023SOL    HW230969   6.800   4.881   1.048
10024SOL     OW30970   2.201   6.313   2.706
10024SOL    HW130971   2.281   6.290   2.762
10024SOL    HW230972   2.146   6.381   2.754
10025SOL     OW30973   1.376   0.609   0.908
10025SOL    HW130974   1.321   0.535   0.947
10025SOL    HW230975   1.369   0.608   0.809
10026SOL     OW30976   4.837   6.731   3.852
10026SOL    HW130977   4.902   6.699   3.783
10026SOL    HW230978   4.766   6.785   3.809
10027SOL     OW30979   6.414   3.734   4.344
10027SOL    HW130980   6.393   3.675   4.266
10027SOL    HW230981   6.389   3.829   4.323
10028SOL     OW30982   0.913   0.249   2.162
10028SOL    HW130983   1.000   0.285   2.128
10028SOL    HW230984   0.880   0.305   2.238
10029SOL     OW30985   4.969   2.004   4.450
10029SOL    HW130986   4.917   1.990   4.366
10029SOL    HW230987   5.058   2.044   4.427
10030SOL     OW30988   1.950   1.000   3.262
10030SOL    HW130989   1.938   1.090   3.303
10030SOL    HW230990   2.032   1.000   3.204
10031SOL     OW30991   5.257   4.593   4.646
10031SOL    HW130992   5.237   4.615   4.741
10031SOL    HW230993   5.172   4.594   4.593
10032SOL     OW30994   2.985   1.155   4.863
10032SOL    HW130995   2.984   1.234   4.802
10032SOL    HW230996   3.075   1.112   4.859
10033SOL     OW30997   6.575   3.128   4.179
10033SOL    HW130998   6.664   3.088   4.199
10033SOL    HW230999   6.507   3.091   4.242
10034SOL     OW31000   3.654   0.191   4.451
10034SOL    HW131001   3.645   0.114   4.514
10034SOL    HW231002   3.592   0.178   4.373
10035SOL     OW31003   6.712   5.473   1.639
10035SOL    HW131004   6.680   5.383   1.666
10035SOL    HW231005   6.636   5.538   1.642
10036SOL     OW31006   6.307   1.967   0.643
10036SOL    HW131007   6.374   1.928   0.579
10036SOL    HW231008   6.275   1.896   0.705
10037SOL     OW31009   6.794   1.548   6.821
10037SOL    HW131010   6.714   1.524   6.878
10037SOL    HW231011   6.762   1.587   6.735
10038SOL     OW31012   5.835   0.011   0.437
10038SOL    HW131013   5.862   0.107   0.450
10038SOL    HW231014   5.888   6.976   0.498
10039SOL     OW31015   3.409   0.847   3.508
10039SOL    HW131016   3.427   0.938   3.471
10039SOL    HW231017   3.434   0.778   3.440
10040SOL     OW31018   5.873   5.206   7.007
10040SOL    HW131019   5.932   5.194   6.927
10040SOL    HW231020   5.910   5.155   0.062
10041SOL     OW31021   3.288   5.956   0.008
10041SOL    HW131022   3.201   5.979   6.987
10041SOL    HW231023   3.284   5.981   0.105
10042SOL     OW31024   6.925   1.700   3.875
10042SOL    HW131025   6.984   1.768   3.831
10042SOL    HW231026   6.838   1.695   3.826
10043SOL     OW31027   6.190   1.561   5.131
10043SOL    HW131028   6.200   1.557   5.231
10043SOL    HW231029   6.104   1.518   5.105
10044SOL     OW31030   2.429   3.380   5.835
10044SOL    HW131031   2.524   3.398   5.860
10044SOL    HW231032   2.426   3.347   5.740
10045SOL     OW31033   4.262   0.797   1.010
10045SOL    HW131034   4.348   0.827   1.050
10045SOL    HW231035   4.278   0.758   0.920
10046SOL     OW31036   1.834   3.730   1.237
10046SOL    HW131037   1.853   3.694   1.145
10046SOL    HW231038   1.738   3.714   1.259
10047SOL     OW31039   0.645   3.525   6.136
10047SOL    HW131040   0.705   3.452   6.105
10047SOL    HW231041   0.578   3.489   6.201
10048SOL     OW31042   0.087   6.850   3.245
10048SOL    HW131043   0.152   6.776   3.229
10048SOL    HW231044   7.016   6.814   3.245
10049SOL     OW31045   0.473   1.894   6.025
10049SOL    HW131046   0.543   1.957   5.991
10049SOL    HW231047   0.455   1.914   6.122
10050SOL     OW31048   5.044   3.940   5.224
10050SOL    HW131049   5.124   3.984   5.184
10050SOL    HW231050   5.069   3.892   5.307
10051SOL     OW31051   0.817   3.983   5.237
10051SOL    HW131052   0.767   3.958   5.321
10051SOL    HW231053   0.772   4.062   5.194
10052SOL     OW31054   1.279   0.970   3.300
10052SOL    HW131055   1.237   1.056   3.332
10052SOL    HW231056   1.255   0.896   3.363
10053SOL     OW31057   4.725   5.133   3.716
10053SOL    HW131058   4.816   5.157   3.684
10053SOL    HW231059   4.674   5.088   3.642
10054SOL     OW31060   5.581   4.537   4.795
10054SOL    HW131061   5.489   4.526   4.833
10054SOL    HW231062   5.576   4.539   4.695
10055SOL     OW31063   6.569   2.597   6.792
10055SOL    HW131064   6.529   2.509   6.769
10055SOL    HW231065   6.506   2.650   6.848
10056SOL     OW31066   5.328   3.522   3.098
10056SOL    HW131067   5.269   3.551   3.022
10056SOL    HW231068   5.423   3.526   3.070
10057SOL     OW31069   5.759   3.995   6.032
10057SOL    HW131070   5.796   4.043   5.952
10057SOL    HW231071   5.714   3.910   6.002
10058SOL     OW31072   6.822   3.062   4.245
10058SOL    HW131073   6.876   3.110   4.176
10058SOL    HW231074   6.843   2.964   4.243
10059SOL     OW31075   5.881   1.363   0.988
10059SOL    HW131076   5.850   1.431   1.054
10059SOL    HW231077   5.803   1.327   0.937
10060SOL     OW31078   2.890   1.886   2.534
10060SOL    HW131079   2.794   1.860   2.547
10060SOL    HW231080   2.949   1.817   2.575
10061SOL     OW31081   4.164   1.208   3.680
10061SOL    HW131082   4.217   1.281   3.638
10061SOL    HW231083   4.182   1.206   3.779
10062SOL     OW31084   0.671   6.967   3.734
10062SOL    HW131085   0.611   6.933   3.807
10062SOL    HW231086   0.621   6.966   3.647
10063SOL     OW31087   1.885   2.156   4.765
10063SOL    HW131088   1.910   2.214   4.842
10063SOL    HW231089   1.833   2.077   4.798
10064SOL     OW31090   3.486   6.256   0.046
10064SOL    HW131091   3.463   6.342   7.021
10064SOL    HW231092   3.439   6.180   0.002
10065SOL     OW31093   1.463   0.785   1.563
10065SOL    HW131094   1.400   0.743   1.627
10065SOL    HW231095   1.546   0.730   1.557
10066SOL     OW31096   0.058   3.675   5.011
10066SOL    HW131097   0.063   3.663   5.110
10066SOL    HW231098   0.120   3.749   4.983
10067SOL     OW31099   0.748   2.839   6.766
10067SOL    HW131100   0.683   2.775   6.724
10067SOL    HW231101   0.697   2.915   6.806
10068SOL     OW31102   1.724   3.567   2.711
10068SOL    HW131103   1.676   3.655   2.709
10068SOL    HW231104   1.668   3.498   2.756
10069SOL     OW31105   3.580   4.920   1.678
10069SOL    HW131106   3.484   4.894   1.683
10069SOL    HW231107   3.592   5.011   1.716
10070SOL     OW31108   2.643   6.062   4.383
10070SOL    HW131109   2.548   6.078   4.355
10070SOL    HW231110   2.654   5.966   4.408
10071SOL     OW31111   0.429   6.596   3.656
10071SOL    HW131112   0.369   6.526   3.694
10071SOL    HW231113   0.387   6.686   3.668
10072SOL     OW31114   6.705   1.154   3.128
10072SOL    HW131115   6.791   1.103   3.118
10072SOL    HW231116   6.646   1.109   3.195
10073SOL     OW31117   5.995   2.910   3.643
10073SOL    HW131118   5.931   2.836   3.666
10073SOL    HW231119   5.961   2.996   3.682
10074SOL     OW31120   1.684   4.964   0.730
10074SOL    HW131121   1.723   5.014   0.653
10074SOL    HW231122   1.597   4.923   0.702
10075SOL     OW31123   2.193   1.530   2.586
10075SOL    HW131124   2.142   1.443   2.585
10075SOL    HW231125   2.275   1.519   2.643
10076SOL     OW31126   4.707   5.519   3.258
10076SOL    HW131127   4.678   5.431   3.222
10076SOL    HW231128   4.780   5.506   3.326
10077SOL     OW31129   6.379   3.265   6.785
10077SOL    HW131130   6.433   3.284   6.867
10077SOL    HW231131   6.289   3.309   6.794
10078SOL     OW31132   6.821   6.086   4.915
10078SOL    HW131133   6.913   6.123   4.925
10078SOL    HW231134   6.826   5.992   4.882
10079SOL     OW31135   5.321   3.061   2.887
10079SOL    HW131136   5.388   3.134   2.873
10079SOL    HW231137   5.250   3.069   2.817
10080SOL     OW31138   5.541   0.733   5.965
10080SOL    HW131139   5.490   0.819   5.970
10080SOL    HW231140   5.523   0.689   5.877
10081SOL     OW31141   1.671   2.273   6.888
10081SOL    HW131142   1.658   2.187   6.838
10081SOL    HW231143   1.658   2.257   6.986
10082SOL     OW31144   1.647   4.574   2.803
10082SOL    HW131145   1.632   4.516   2.884
10082SOL    HW231146   1.572   4.641   2.797
10083SOL     OW31147   3.757   5.132   4.069
10083SOL    HW131148   3.722   5.226   4.067
10083SOL    HW231149   3.818   5.121   4.148
10084SOL     OW31150   1.173   0.177   5.649
10084SOL    HW131151   1.208   0.105   5.710
10084SOL    HW231152   1.217   0.264   5.672
10085SOL     OW31153   4.063   6.937   6.874
10085SOL    HW131154   3.986   6.881   6.845
10085SOL    HW231155   4.147   6.882   6.873
10086SOL     OW31156   6.401   6.578   2.234
10086SOL    HW131157   6.308   6.549   2.210
10086SOL    HW231158   6.405   6.678   2.234
10087SOL     OW31159   0.913   6.653   4.060
10087SOL    HW131160   0.889   6.750   4.059
10087SOL    HW231161   0.951   6.629   4.149
10088SOL     OW31162   0.301   2.888   6.919
10088SOL    HW131163   0.216   2.873   6.969
10088SOL    HW231164   0.318   2.810   6.859
10089SOL     OW31165   4.398   1.938   2.144
10089SOL    HW131166   4.381   1.987   2.230
10089SOL    HW231167   4.324   1.958   2.079
10090SOL     OW31168   1.044   5.115   1.490
10090SOL    HW131169   1.133   5.087   1.453
10090SOL    HW231170   1.023   5.208   1.459
10091SOL     OW31171   6.343   5.248   6.121
10091SOL    HW131172   6.271   5.314   6.099
10091SOL    HW231173   6.309   5.155   6.105
10092SOL     OW31174   0.424   2.908   5.578
10092SOL    HW131175   0.499   2.964   5.543
10092SOL    HW231176   0.341   2.929   5.527
10093SOL     OW31177   5.609   3.684   5.719
10093SOL    HW131178   5.650   3.592   5.715
10093SOL    HW231179   5.662   3.746   5.662
10094SOL     OW31180   3.137   0.328   1.207
10094SOL    HW131181   3.174   0.235   1.213
10094SOL    HW231182   3.103   0.345   1.115
10095SOL     OW31183   5.393   2.907   5.127
10095SOL    HW131184   5.401   3.004   5.105
10095SOL    HW231185   5.328   2.895   5.203
10096SOL     OW31186   4.875   0.905   2.702
10096SOL    HW131187   4.847   0.992   2.743
10096SOL    HW231188   4.947   0.864   2.757
10097SOL     OW31189   1.482   1.420   6.014
10097SOL    HW131190   1.418   1.483   5.969
10097SOL    HW231191   1.576   1.452   6.001
10098SOL     OW31192   3.131   5.733   4.749
10098SOL    HW131193   3.196   5.734   4.825
10098SOL    HW231194   3.160   5.799   4.679
10099SOL     OW31195   6.910   4.309   2.386
10099SOL    HW131196   7.008   4.331   2.381
10099SOL    HW231197   6.860   4.363   2.318
10100SOL     OW31198   5.059   5.095   4.979
10100SOL    HW131199   5.067   5.005   4.937
10100SOL    HW231200   5.048   5.085   5.078
10101SOL     OW31201   1.344   2.073   1.356
10101SOL    HW131202   1.338   2.166   1.392
10101SOL    HW231203   1.309   2.071   1.262
10102SOL     OW31204   6.312   6.385   0.982
10102SOL    HW131205   6.315   6.330   0.899
10102SOL    HW231206   6.331   6.480   0.960
10103SOL     OW31207   0.031   6.858   5.483
10103SOL    HW131208   0.008   6.762   5.472
10103SOL    HW231209   0.083   6.889   5.404
10104SOL     OW31210   2.204   0.618   6.150
10104SOL    HW131211   2.262   0.698   6.158
10104SOL    HW231212   2.233   0.563   6.071
10105SOL     OW31213   2.794   0.999   5.856
10105SOL    HW131214   2.763   1.024   5.765
10105SOL    HW231215   2.813   0.901   5.860
10106SOL     OW31216   4.941   6.084   1.040
10106SOL    HW131217   4.884   6.002   1.047
10106SOL    HW231218   5.037   6.059   1.055
10107SOL     OW31219   5.444   4.277   6.421
10107SOL    HW131220   5.409   4.254   6.512
10107SOL    HW231221   5.373   4.327   6.370
10108SOL     OW31222   1.411   2.838   0.343
10108SOL    HW131223   1.468   2.877   0.271
10108SOL    HW231224   1.315   2.860   0.324
10109SOL     OW31225   0.665   1.689   0.402
10109SOL    HW131226   0.648   1.593   0.378
10109SOL    HW231227   0.578   1.735   0.419
10110SOL     OW31228   4.832   5.876   2.764
10110SOL    HW131229   4.848   5.958   2.709
10110SOL    HW231230   4.819   5.902   2.860
10111SOL     OW31231   1.330   1.688   1.837
10111SOL    HW131232   1.234   1.707   1.822
10111SOL    HW231233   1.386   1.760   1.796
10112SOL     OW31234   6.225   2.730   3.571
10112SOL    HW131235   6.263   2.772   3.489
10112SOL    HW231236   6.141   2.777   3.597
10113SOL     OW31237   5.017   1.271   6.452
10113SOL    HW131238   5.070   1.187   6.437
10113SOL    HW231239   5.004   1.284   6.550
10114SOL     OW31240   3.937   1.549   2.816
10114SOL    HW131241   3.993   1.602   2.880
10114SOL    HW231242   3.862   1.607   2.782
10115SOL     OW31243   3.545   1.785   5.201
10115SOL    HW131244   3.555   1.765   5.104
10115SOL    HW231245   3.541   1.885   5.214
10116SOL     OW31246   6.432   0.727   4.684
10116SOL    HW131247   6.433   0.826   4.687
10116SOL    HW231248   6.512   0.690   4.730
10117SOL     OW31249   6.537   5.188   3.946
10117SOL    HW131250   6.485   5.134   4.012
10117SOL    HW231251   6.495   5.278   3.936
10118SOL     OW31252   3.201   5.067   4.905
10118SOL    HW131253   3.249   5.143   4.861
10118SOL    HW231254   3.164   5.006   4.835
10119SOL     OW31255   0.314   5.308   4.464
10119SOL    HW131256   0.233   5.326   4.408
10119SOL    HW231257   0.305   5.219   4.509
10120SOL     OW31258   2.272   2.804   1.644
10120SOL    HW131259   2.337   2.861   1.594
10120SOL    HW231260   2.253   2.846   1.733
10121SOL     OW31261   6.287   4.302   0.643
10121SOL    HW131262   6.210   4.249   0.678
10121SOL    HW231263   6.369   4.244   0.639
10122SOL     OW31264   0.550   1.637   3.816
10122SOL    HW131265   0.567   1.683   3.903
10122SOL    HW231266   0.609   1.676   3.746
10123SOL     OW31267   5.807   6.123   1.005
10123SOL    HW131268   5.815   6.203   0.945
10123SOL    HW231269   5.756   6.051   0.959
10124SOL     OW31270   0.926   4.318   2.878
10124SOL    HW131271   0.923   4.393   2.811
10124SOL    HW231272   1.021   4.303   2.906
10125SOL     OW31273   1.245   2.292   6.849
10125SOL    HW131274   1.216   2.249   6.763
10125SOL    HW231275   1.317   2.359   6.830
10126SOL     OW31276   6.559   0.104   6.611
10126SOL    HW131277   6.588   0.129   6.518
10126SOL    HW231278   6.607   0.162   6.677
10127SOL     OW31279   2.734   5.128   5.823
10127SOL    HW131280   2.712   5.149   5.918
10127SOL    HW231281   2.671   5.058   5.789
10128SOL     OW31282   3.236   0.617   0.122
10128SOL    HW131283   3.286   0.530   0.121
10128SOL    HW231284   3.145   0.604   0.084
10129SOL     OW31285   6.618   1.260   4.130
10129SOL    HW131286   6.654   1.343   4.087
10129SOL    HW231287   6.649   1.256   4.225
10130SOL     OW31288   1.974   2.031   2.416
10130SOL    HW131289   1.909   1.991   2.481
10130SOL    HW231290   2.004   1.962   2.351
10131SOL     OW31291   1.870   0.522   3.989
10131SOL    HW131292   1.899   0.434   3.951
10131SOL    HW231293   1.906   0.532   4.081
10132SOL     OW31294   6.925   0.977   3.058
10132SOL    HW131295   6.969   0.984   3.148
10132SOL    HW231296   6.981   1.025   2.990
10133SOL     OW31297   5.009   6.125   0.714
10133SOL    HW131298   4.991   6.034   0.678
10133SOL    HW231299   4.931   6.156   0.767
10134SOL     OW31300   6.153   0.923   2.190
10134SOL    HW131301   6.170   0.886   2.281
10134SOL    HW231302   6.187   0.860   2.120
10135SOL     OW31303   5.571   6.888   3.032
10135SOL    HW131304   5.596   6.800   3.070
10135SOL    HW231305   5.491   6.924   3.080
10136SOL     OW31306   4.481   1.601   2.663
10136SOL    HW131307   4.387   1.575   2.640
10136SOL    HW231308   4.539   1.592   2.582
10137SOL     OW31309   0.032   5.798   5.802
10137SOL    HW131310   7.017   5.760   5.887
10137SOL    HW231311   6.984   5.853   5.756
10138SOL     OW31312   5.671   1.098   0.096
10138SOL    HW131313   5.751   1.042   0.118
10138SOL    HW231314   5.660   1.169   0.165
10139SOL     OW31315   3.196   3.532   5.330
10139SOL    HW131316   3.105   3.492   5.321
10139SOL    HW231317   3.192   3.631   5.315
10140SOL     OW31318   7.014   5.040   5.801
10140SOL    HW131319   0.044   5.118   5.766
10140SOL    HW231320   0.005   4.961   5.741
10141SOL     OW31321   2.616   1.384   4.599
10141SOL    HW131322   2.543   1.338   4.548
10141SOL    HW231323   2.650   1.462   4.547
10142SOL     OW31324   5.941   6.318   4.190
10142SOL    HW131325   6.018   6.322   4.126
10142SOL    HW231326   5.973   6.284   4.278
10143SOL     OW31327   5.740   2.876   0.075
10143SOL    HW131328   5.765   2.972   0.067
10143SOL    HW231329   5.797   2.821   0.014
10144SOL     OW31330   3.762   6.448   5.532
10144SOL    HW131331   3.696   6.400   5.474
10144SOL    HW231332   3.791   6.532   5.486
10145SOL     OW31333   5.350   5.879   0.148
10145SOL    HW131334   5.394   5.798   0.109
10145SOL    HW231335   5.362   5.957   0.087
10146SOL     OW31336   0.380   2.681   4.529
10146SOL    HW131337   0.401   2.742   4.605
10146SOL    HW231338   0.366   2.735   4.446
10147SOL     OW31339   4.805   5.934   6.606
10147SOL    HW131340   4.837   5.840   6.620
10147SOL    HW231341   4.823   5.962   6.512
10148SOL     OW31342   1.054   4.658   6.638
10148SOL    HW131343   0.979   4.723   6.650
10148SOL    HW231344   1.045   4.582   6.702
10149SOL     OW31345   4.523   4.092   0.636
10149SOL    HW131346   4.453   4.032   0.676
10149SOL    HW231347   4.486   4.184   0.625
10150SOL     OW31348   4.285   4.239   0.019
10150SOL    HW131349   4.336   4.217   0.102
10150SOL    HW231350   4.237   4.158   7.009
10151SOL     OW31351   6.252   6.861   5.278
10151SOL    HW131352   6.207   6.915   5.206
10151SOL    HW231353   6.188   6.846   5.353
10152SOL     OW31354   5.520   6.438   2.824
10152SOL    HW131355   5.459   6.427   2.902
10152SOL    HW231356   5.614   6.419   2.852
10153SOL     OW31357   5.472   4.395   3.727
10153SOL    HW131358   5.401   4.376   3.795
10153SOL    HW231359   5.509   4.309   3.692
10154SOL     OW31360   4.973   5.295   4.831
10154SOL    HW131361   5.031   5.294   4.749
10154SOL    HW231362   5.004   5.224   4.895
10155SOL     OW31363   4.474   2.131   5.128
10155SOL    HW131364   4.569   2.146   5.156
10155SOL    HW231365   4.445   2.040   5.158
10156SOL     OW31366   5.073   1.048   0.516
10156SOL    HW131367   5.036   0.982   0.582
10156SOL    HW231368   5.076   1.139   0.558
10157SOL     OW31369   0.170   3.048   1.340
10157SOL    HW131370   0.262   3.021   1.369
10157SOL    HW231371   0.104   3.018   1.409
10158SOL     OW31372   5.760   6.218   1.539
10158SOL    HW131373   5.769   6.195   1.442
10158SOL    HW231374   5.829   6.168   1.591
10159SOL     OW31375   3.455   3.461   2.765
10159SOL    HW131376   3.527   3.490   2.828
10159SOL    HW231377   3.473   3.367   2.736
10160SOL     OW31378   2.042   4.692   3.691
10160SOL    HW131379   2.079   4.704   3.599
10160SOL    HW231380   2.117   4.693   3.757
10161SOL     OW31381   4.193   4.094   6.091
10161SOL    HW131382   4.167   4.153   6.167
10161SOL    HW231383   4.281   4.124   6.054
10162SOL     OW31384   1.589   3.824   2.702
10162SOL    HW131385   1.665   3.852   2.643
10162SOL    HW231386   1.614   3.840   2.797
10163SOL     OW31387   0.952   6.398   5.047
10163SOL    HW131388   0.896   6.480   5.058
10163SOL    HW231389   1.023   6.415   4.979
10164SOL     OW31390   0.239   3.091   3.233
10164SOL    HW131391   0.176   3.017   3.212
10164SOL    HW231392   0.188   3.172   3.262
10165SOL     OW31393   6.469   3.333   4.076
10165SOL    HW131394   6.475   3.330   3.976
10165SOL    HW231395   6.523   3.259   4.116
10166SOL     OW31396   1.215   1.903   0.921
10166SOL    HW131397   1.187   1.826   0.865
10166SOL    HW231398   1.310   1.927   0.898
10167SOL     OW31399   1.041   6.513   6.353
10167SOL    HW131400   1.044   6.596   6.297
10167SOL    HW231401   0.947   6.483   6.363
10168SOL     OW31402   5.599   1.609   0.419
10168SOL    HW131403   5.643   1.622   0.508
10168SOL    HW231404   5.527   1.541   0.427
10169SOL     OW31405   6.449   3.090   3.664
10169SOL    HW131406   6.391   3.106   3.584
10169SOL    HW231407   6.401   3.032   3.729
10170SOL     OW31408   6.108   5.802   6.101
10170SOL    HW131409   6.143   5.751   6.023
10170SOL    HW231410   6.048   5.876   6.070
10171SOL     OW31411   1.941   3.544   5.947
10171SOL    HW131412   1.988   3.560   5.860
10171SOL    HW231413   1.844   3.566   5.936
10172SOL     OW31414   6.367   0.389   2.998
10172SOL    HW131415   6.344   0.361   3.092
10172SOL    HW231416   6.378   0.307   2.941
10173SOL     OW31417   3.459   4.924   6.248
10173SOL    HW131418   3.513   4.912   6.331
10173SOL    HW231419   3.417   4.837   6.223
10174SOL     OW31420   4.796   6.197   2.145
10174SOL    HW131421   4.820   6.106   2.112
10174SOL    HW231422   4.868   6.262   2.118
10175SOL     OW31423   0.587   1.740   4.071
10175SOL    HW131424   0.514   1.806   4.089
10175SOL    HW231425   0.675   1.788   4.073
10176SOL     OW31426   6.177   2.707   5.887
10176SOL    HW131427   6.099   2.764   5.913
10176SOL    HW231428   6.209   2.733   5.796
10177SOL     OW31429   2.336   0.742   2.148
10177SOL    HW131430   2.350   0.643   2.153
10177SOL    HW231431   2.308   0.776   2.238
10178SOL     OW31432   1.610   1.054   0.271
10178SOL    HW131433   1.603   1.052   0.171
10178SOL    HW231434   1.519   1.040   0.311
10179SOL     OW31435   0.073   4.131   1.246
10179SOL    HW131436   0.141   4.203   1.228
10179SOL    HW231437   0.099   4.048   1.197
10180SOL     OW31438   3.587   0.003   5.482
10180SOL    HW131439   3.529   0.018   5.401
10180SOL    HW231440   3.571   6.933   5.517
10181SOL     OW31441   0.016   3.782   1.595
10181SOL    HW131442   0.095   3.833   1.562
10181SOL    HW231443   0.039   3.734   1.679
10182SOL     OW31444   4.958   1.056   6.903
10182SOL    HW131445   5.024   1.002   6.956
10182SOL    HW231446   4.933   1.006   6.820
10183SOL     OW31447   6.096   2.528   6.446
10183SOL    HW131448   6.163   2.454   6.452
10183SOL    HW231449   6.135   2.612   6.484
10184SOL     OW31450   5.643   3.475   6.077
10184SOL    HW131451   5.638   3.421   6.160
10184SOL    HW231452   5.702   3.428   6.010
10185SOL     OW31453   4.082   5.568   2.524
10185SOL    HW131454   4.026   5.573   2.606
10185SOL    HW231455   4.098   5.472   2.500
10186SOL     OW31456   4.581   3.731   5.828
10186SOL    HW131457   4.530   3.747   5.743
10186SOL    HW231458   4.521   3.685   5.894
10187SOL     OW31459   2.384   4.973   6.092
10187SOL    HW131460   2.289   4.955   6.065
10187SOL    HW231461   2.388   4.984   6.192
10188SOL     OW31462   3.188   0.166   0.325
10188SOL    HW131463   3.247   0.088   0.347
10188SOL    HW231464   3.146   0.152   0.236
10189SOL     OW31465   0.817   1.642   6.609
10189SOL    HW131466   0.800   1.603   6.518
10189SOL    HW231467   0.748   1.710   6.630
10190SOL     OW31468   3.290   4.978   1.491
10190SOL    HW131469   3.303   4.911   1.563
10190SOL    HW231470   3.285   4.932   1.402
10191SOL     OW31471   5.841   5.882   6.563
10191SOL    HW131472   5.768   5.842   6.507
10191SOL    HW231473   5.804   5.911   6.651
10192SOL     OW31474   2.275   1.892   5.200
10192SOL    HW131475   2.260   1.880   5.102
10192SOL    HW231476   2.369   1.922   5.217
10193SOL     OW31477   4.080   3.838   2.900
10193SOL    HW131478   4.115   3.880   2.816
10193SOL    HW231479   3.989   3.873   2.920
10194SOL     OW31480   3.527   0.395   4.089
10194SOL    HW131481   3.510   0.330   4.163
10194SOL    HW231482   3.473   0.478   4.105
10195SOL     OW31483   4.835   0.066   2.420
10195SOL    HW131484   4.896   0.101   2.349
10195SOL    HW231485   4.879   0.074   2.509
10196SOL     OW31486   5.571   1.566   3.223
10196SOL    HW131487   5.482   1.610   3.217
10196SOL    HW231488   5.643   1.630   3.195
10197SOL     OW31489   6.239   0.891   2.466
10197SOL    HW131490   6.260   0.795   2.453
10197SOL    HW231491   6.294   0.928   2.541
10198SOL     OW31492   3.007   6.869   1.449
10198SOL    HW131493   2.941   6.935   1.415
10198SOL    HW231494   2.965   6.813   1.521
10199SOL     OW31495   0.733   1.489   6.854
10199SOL    HW131496   0.672   1.442   6.790
10199SOL    HW231497   0.786   1.559   6.805
10200SOL     OW31498   5.166   4.536   5.602
10200SOL    HW131499   5.264   4.516   5.594
10200SOL    HW231500   5.141   4.537   5.699
10201SOL     OW31501   0.762   5.605   2.187
10201SOL    HW131502   0.841   5.547   2.166
10201SOL    HW231503   0.727   5.581   2.277
10202SOL     OW31504   1.087   3.177   1.503
10202SOL    HW131505   1.017   3.151   1.570
10202SOL    HW231506   1.060   3.263   1.458
10203SOL     OW31507   1.978   3.016   2.213
10203SOL    HW131508   1.912   3.041   2.142
10203SOL    HW231509   2.063   2.986   2.169
10204SOL     OW31510   3.068   4.701   5.285
10204SOL    HW131511   2.999   4.651   5.233
10204SOL    HW231512   3.063   4.798   5.261
10205SOL     OW31513   5.660   2.124   3.769
10205SOL    HW131514   5.634   2.181   3.847
10205SOL    HW231515   5.634   2.029   3.786
10206SOL     OW31516   5.544   6.751   5.644
10206SOL    HW131517   5.628   6.735   5.592
10206SOL    HW231518   5.542   6.691   5.723
10207SOL     OW31519   3.083   1.153   3.089
10207SOL    HW131520   3.015   1.108   3.030
10207SOL    HW231521   3.036   1.203   3.162
10208SOL     OW31522   5.778   4.829   6.053
10208SOL    HW131523   5.758   4.907   5.994
10208SOL    HW231524   5.815   4.754   5.999
10209SOL     OW31525   6.951   0.297   6.238
10209SOL    HW131526   6.881   0.366   6.224
10209SOL    HW231527   6.940   0.257   6.330
10210SOL     OW31528   5.797   6.594   2.242
10210SOL    HW131529   5.708   6.570   2.279
10210SOL    HW231530   5.837   6.668   2.297
10211SOL     OW31531   3.680   5.837   5.203
10211SOL    HW131532   3.583   5.819   5.218
10211SOL    HW231533   3.728   5.837   5.291
10212SOL     OW31534   0.558   1.206   4.025
10212SOL    HW131535   0.644   1.206   4.077
10212SOL    HW231536   0.515   1.116   4.031
10213SOL     OW31537   6.232   2.021   3.248
10213SOL    HW131538   6.307   1.966   3.211
10213SOL    HW231539   6.206   1.985   3.337
10214SOL     OW31540   6.669   0.854   2.067
10214SOL    HW131541   6.763   0.853   2.035
10214SOL    HW231542   6.646   0.764   2.105
10215SOL     OW31543   4.044   3.035   6.212
10215SOL    HW131544   4.002   3.126   6.204
10215SOL    HW231545   3.987   2.968   6.165
10216SOL     OW31546   6.077   0.096   0.959
10216SOL    HW131547   6.043   0.189   0.940
10216SOL    HW231548   6.103   0.052   0.874
10217SOL     OW31549   2.517   2.193   4.113
10217SOL    HW131550   2.547   2.187   4.208
10217SOL    HW231551   2.419   2.174   4.108
10218SOL     OW31552   1.947   0.947   0.671
10218SOL    HW131553   1.943   1.041   0.706
10218SOL    HW231554   1.946   0.949   0.571
10219SOL     OW31555   1.129   2.622   1.675
10219SOL    HW131556   1.042   2.600   1.720
10219SOL    HW231557   1.131   2.720   1.655
10220SOL     OW31558   4.345   1.866   1.393
10220SOL    HW131559   4.336   1.782   1.445
10220SOL    HW231560   4.269   1.928   1.415
10221SOL     OW31561   2.722   0.597   5.214
10221SOL    HW131562   2.763   0.519   5.261
10221SOL    HW231563   2.716   0.579   5.116
10222SOL     OW31564   1.367   4.686   4.729
10222SOL    HW131565   1.355   4.692   4.828
10222SOL    HW231566   1.452   4.636   4.710
10223SOL     OW31567   1.920   4.611   6.824
10223SOL    HW131568   2.016   4.629   6.846
10223SOL    HW231569   1.884   4.543   6.888
10224SOL     OW31570   0.377   6.964   4.295
10224SOL    HW131571   0.439   0.002   4.245
10224SOL    HW231572   0.423   6.878   4.315
10225SOL     OW31573   6.851   5.829   4.751
10225SOL    HW131574   6.933   5.881   4.729
10225SOL    HW231575   6.877   5.737   4.783
10226SOL     OW31576   2.366   1.097   6.697
10226SOL    HW131577   2.424   1.055   6.627
10226SOL    HW231578   2.387   1.195   6.704
10227SOL     OW31579   4.622   4.407   0.203
10227SOL    HW131580   4.716   4.403   0.168
10227SOL    HW231581   4.572   4.479   0.156
10228SOL     OW31582   1.028   5.163   2.916
10228SOL    HW131583   1.055   5.122   2.829
10228SOL    HW231584   1.000   5.258   2.901
10229SOL     OW31585   1.150   0.250   3.433
10229SOL    HW131586   1.198   0.333   3.405
10229SOL    HW231587   1.069   0.238   3.375
10230SOL     OW31588   5.807   6.821   3.339
10230SOL    HW131589   5.895   6.861   3.315
10230SOL    HW231590   5.802   6.808   3.438
10231SOL     OW31591   5.581   6.932   4.332
10231SOL    HW131592   5.489   6.952   4.364
10231SOL    HW231593   5.645   6.938   4.409
10232SOL     OW31594   3.735   0.903   4.236
10232SOL    HW131595   3.677   0.932   4.312
10232SOL    HW231596   3.745   0.978   4.171
10233SOL     OW31597   4.404   2.905   5.955
10233SOL    HW131598   4.365   2.953   6.033
10233SOL    HW231599   4.332   2.886   5.888
10234SOL     OW31600   4.963   0.122   0.805
10234SOL    HW131601   4.897   0.144   0.877
10234SOL    HW231602   4.939   0.035   0.764
10235SOL     OW31603   5.003   1.481   6.959
10235SOL    HW131604   4.957   1.566   6.933
10235SOL    HW231605   4.973   1.454   0.029
10236SOL     OW31606   2.038   6.127   1.978
10236SOL    HW131607   2.106   6.190   2.016
10236SOL    HW231608   2.081   6.039   1.957
10237SOL     OW31609   6.424   4.427   2.516
10237SOL    HW131610   6.481   4.363   2.465
10237SOL    HW231611   6.329   4.419   2.485
10238SOL     OW31612   3.849   4.397   5.443
10238SOL    HW131613   3.855   4.346   5.357
10238SOL    HW231614   3.938   4.436   5.465
10239SOL     OW31615   0.406   4.002   5.075
10239SOL    HW131616   0.480   4.023   5.139
10239SOL    HW231617   0.444   3.981   4.985
10240SOL     OW31618   0.820   4.007   3.325
10240SOL    HW131619   0.760   3.934   3.293
10240SOL    HW231620   0.826   4.005   3.424
10241SOL     OW31621   0.917   1.318   2.399
10241SOL    HW131622   0.944   1.224   2.378
10241SOL    HW231623   0.962   1.348   2.483
10242SOL     OW31624   6.832   1.384   5.630
10242SOL    HW131625   6.888   1.310   5.592
10242SOL    HW231626   6.803   1.359   5.722
10243SOL     OW31627   0.557   5.462   1.220
10243SOL    HW131628   0.620   5.402   1.269
10243SOL    HW231629   0.599   5.490   1.133
10244SOL     OW31630   2.497   4.690   0.225
10244SOL    HW131631   2.457   4.699   0.317
10244SOL    HW231632   2.423   4.689   0.158
10245SOL     OW31633   1.624   3.508   6.983
10245SOL    HW131634   1.542   3.483   6.932
10245SOL    HW231635   1.612   3.483   0.057
10246SOL     OW31636   2.933   3.811   4.612
10246SOL    HW131637   2.949   3.802   4.710
10246SOL    HW231638   2.850   3.864   4.596
10247SOL     OW31639   0.171   5.254   6.288
10247SOL    HW131640   0.125   5.330   6.242
10247SOL    HW231641   0.238   5.213   6.225
10248SOL     OW31642   2.945   0.734   1.687
10248SOL    HW131643   2.944   0.644   1.732
10248SOL    HW231644   2.972   0.804   1.754
10249SOL     OW31645   4.575   1.203   5.475
10249SOL    HW131646   4.574   1.289   5.527
10249SOL    HW231647   4.597   1.127   5.537
10250SOL     OW31648   5.863   1.063   1.255
10250SOL    HW131649   5.962   1.053   1.267
10250SOL    HW231650   5.839   1.047   1.159
10251SOL     OW31651   2.959   3.098   6.930
10251SOL    HW131652   2.957   3.168   7.002
10251SOL    HW231653   2.992   3.012   6.969
10252SOL     OW31654   6.439   6.328   0.724
10252SOL    HW131655   6.462   6.296   0.632
10252SOL    HW231656   6.519   6.372   0.765
10253SOL     OW31657   4.653   4.472   0.507
10253SOL    HW131658   4.633   4.437   0.416
10253SOL    HW231659   4.578   4.449   0.569
10254SOL     OW31660   2.787   1.653   4.818
10254SOL    HW131661   2.809   1.639   4.915
10254SOL    HW231662   2.843   1.728   4.781
10255SOL     OW31663   1.788   5.953   2.130
10255SOL    HW131664   1.730   5.893   2.075
10255SOL    HW231665   1.760   6.048   2.119
10256SOL     OW31666   4.980   0.007   0.326
10256SOL    HW131667   5.080   7.017   0.330
10256SOL    HW231668   4.953   0.026   0.231
10257SOL     OW31669   1.365   5.337   6.112
10257SOL    HW131670   1.276   5.379   6.095
10257SOL    HW231671   1.419   5.395   6.172
10258SOL     OW31672   4.316   6.447   3.633
10258SOL    HW131673   4.404   6.400   3.639
10258SOL    HW231674   4.330   6.542   3.607
10259SOL     OW31675   0.169   4.683   4.373
10259SOL    HW131676   0.147   4.661   4.278
10259SOL    HW231677   0.256   4.641   4.398
10260SOL     OW31678   0.685   6.307   2.889
10260SOL    HW131679   0.622   6.340   2.960
10260SOL    HW231680   0.632   6.281   2.808
10261SOL     OW31681   0.271   5.332   2.344
10261SOL    HW131682   0.272   5.328   2.444
10261SOL    HW231683   0.364   5.331   2.309
10262SOL     OW31684   3.440   4.955   4.339
10262SOL    HW131685   3.373   4.908   4.397
10262SOL    HW231686   3.418   5.052   4.336
10263SOL     OW31687   4.962   1.971   6.503
10263SOL    HW131688   5.013   1.886   6.507
10263SOL    HW231689   4.955   2.001   6.407
10264SOL     OW31690   5.765   1.388   6.230
10264SOL    HW131691   5.796   1.356   6.140
10264SOL    HW231692   5.668   1.412   6.226
10265SOL     OW31693   3.530   1.742   3.069
10265SOL    HW131694   3.517   1.725   2.971
10265SOL    HW231695   3.616   1.701   3.099
10266SOL     OW31696   3.777   3.457   6.320
10266SOL    HW131697   3.784   3.554   6.344
10266SOL    HW231698   3.739   3.406   6.398
10267SOL     OW31699   0.090   1.759   0.192
10267SOL    HW131700   0.042   1.753   0.279
10267SOL    HW231701   0.033   1.721   0.119
10268SOL     OW31702   5.432   5.993   1.387
10268SOL    HW131703   5.354   6.019   1.331
10268SOL    HW231704   5.414   5.906   1.432
10269SOL     OW31705   2.268   2.192   6.105
10269SOL    HW131706   2.175   2.186   6.142
10269SOL    HW231707   2.264   2.186   6.005
10270SOL     OW31708   2.122   5.892   0.837
10270SOL    HW131709   2.032   5.873   0.876
10270SOL    HW231710   2.115   5.895   0.737
10271SOL     OW31711   3.505   3.754   0.954
10271SOL    HW131712   3.438   3.680   0.946
10271SOL    HW231713   3.582   3.735   0.893
10272SOL     OW31714   1.060   0.928   4.800
10272SOL    HW131715   1.105   0.923   4.889
10272SOL    HW231716   0.964   0.903   4.810
10273SOL     OW31717   3.388   5.834   4.282
10273SOL    HW131718   3.327   5.773   4.334
10273SOL    HW231719   3.333   5.902   4.234
10274SOL     OW31720   1.580   4.940   5.679
10274SOL    HW131721   1.582   4.945   5.778
10274SOL    HW231722   1.485   4.940   5.647
10275SOL     OW31723   0.908   6.453   2.947
10275SOL    HW131724   0.837   6.382   2.945
10275SOL    HW231725   0.974   6.432   3.020
10276SOL     OW31726   6.884   5.536   5.877
10276SOL    HW131727   6.893   5.459   5.940
10276SOL    HW231728   6.787   5.558   5.865
10277SOL     OW31729   3.001   6.457   3.959
10277SOL    HW131730   3.021   6.368   4.001
10277SOL    HW231731   2.940   6.443   3.881
10278SOL     OW31732   6.239   0.517   6.485
10278SOL    HW131733   6.203   0.598   6.439
10278SOL    HW231734   6.320   0.484   6.436
10279SOL     OW31735   3.303   6.955   4.541
10279SOL    HW131736   3.212   6.984   4.514
10279SOL    HW231737   3.336   7.012   4.617
10280SOL     OW31738   1.561   4.574   1.209
10280SOL    HW131739   1.651   4.616   1.203
10280SOL    HW231740   1.555   4.517   1.291
10281SOL     OW31741   4.863   1.403   2.412
10281SOL    HW131742   4.932   1.476   2.420
10281SOL    HW231743   4.893   1.323   2.464
10282SOL     OW31744   0.571   2.217   3.824
10282SOL    HW131745   0.516   2.220   3.908
10282SOL    HW231746   0.668   2.224   3.847
10283SOL     OW31747   0.824   3.439   0.631
10283SOL    HW131748   0.846   3.467   0.538
10283SOL    HW231749   0.897   3.381   0.667
10284SOL     OW31750   5.679   4.015   5.292
10284SOL    HW131751   5.776   3.988   5.291
10284SOL    HW231752   5.623   3.936   5.267
10285SOL     OW31753   4.850   0.588   1.237
10285SOL    HW131754   4.807   0.641   1.164
10285SOL    HW231755   4.779   0.544   1.292
10286SOL     OW31756   3.760   1.206   3.159
10286SOL    HW131757   3.668   1.244   3.152
10286SOL    HW231758   3.782   1.156   3.075
10287SOL     OW31759   1.272   6.674   1.731
10287SOL    HW131760   1.276   6.585   1.686
10287SOL    HW231761   1.311   6.667   1.823
10288SOL     OW31762   5.066   5.557   3.130
10288SOL    HW131763   4.982   5.608   3.149
10288SOL    HW231764   5.134   5.578   3.201
10289SOL     OW31765   3.200   1.586   1.643
10289SOL    HW131766   3.193   1.686   1.639
10289SOL    HW231767   3.222   1.550   1.552
10290SOL     OW31768   4.139   3.488   2.457
10290SOL    HW131769   4.074   3.562   2.439
10290SOL    HW231770   4.166   3.490   2.553
10291SOL     OW31771   3.919   0.799   3.265
10291SOL    HW131772   3.862   0.808   3.347
10291SOL    HW231773   3.862   0.771   3.188
10292SOL     OW31774   0.342   2.276   5.205
10292SOL    HW131775   0.356   2.223   5.121
10292SOL    HW231776   0.338   2.374   5.183
10293SOL     OW31777   1.766   5.724   3.134
10293SOL    HW131778   1.815   5.665   3.199
10293SOL    HW231779   1.671   5.695   3.128
10294SOL     OW31780   5.015   2.252   2.571
10294SOL    HW131781   5.013   2.242   2.671
10294SOL    HW231782   4.950   2.322   2.543
10295SOL     OW31783   0.125   4.662   5.516
10295SOL    HW131784   0.104   4.588   5.581
10295SOL    HW231785   0.068   4.652   5.435
10296SOL     OW31786   5.866   4.284   5.963
10296SOL    HW131787   5.964   4.288   5.945
10296SOL    HW231788   5.851   4.280   6.062
10297SOL     OW31789   1.991   6.264   3.673
10297SOL    HW131790   2.023   6.191   3.734
10297SOL    HW231791   2.061   6.334   3.665
10298SOL     OW31792   4.860   3.840   3.783
10298SOL    HW131793   4.890   3.918   3.728
10298SOL    HW231794   4.863   3.757   3.727
10299SOL     OW31795   4.805   4.246   3.798
10299SOL    HW131796   4.752   4.277   3.719
10299SOL    HW231797   4.879   4.186   3.768
10300SOL     OW31798   1.163   3.403   1.830
10300SOL    HW131799   1.151   3.474   1.761
10300SOL    HW231800   1.260   3.379   1.836
10301SOL     OW31801   6.004   1.249   3.167
10301SOL    HW131802   5.982   1.237   3.264
10301SOL    HW231803   6.042   1.340   3.153
10302SOL     OW31804   1.049   6.338   2.724
10302SOL    HW131805   0.986   6.374   2.793
10302SOL    HW231806   1.003   6.335   2.635
10303SOL     OW31807   3.833   3.336   1.384
10303SOL    HW131808   3.770   3.397   1.432
10303SOL    HW231809   3.780   3.267   1.334
10304SOL     OW31810   6.586   6.703   3.700
10304SOL    HW131811   6.650   6.669   3.769
10304SOL    HW231812   6.634   6.767   3.639
10305SOL     OW31813   2.162   5.796   6.936
10305SOL    HW131814   2.164   5.889   6.900
10305SOL    HW231815   2.215   5.792   7.021
10306SOL     OW31816   4.761   5.549   6.953
10306SOL    HW131817   4.703   5.474   6.985
10306SOL    HW231818   4.857   5.520   6.953
10307SOL     OW31819   1.519   0.940   5.682
10307SOL    HW131820   1.507   0.840   5.678
10307SOL    HW231821   1.557   0.965   5.771
10308SOL     OW31822   3.501   5.182   3.277
10308SOL    HW131823   3.456   5.137   3.355
10308SOL    HW231824   3.530   5.113   3.211
10309SOL     OW31825   5.698   6.651   3.126
10309SOL    HW131826   5.729   6.694   3.210
10309SOL    HW231827   5.778   6.629   3.069
10310SOL     OW31828   3.006   3.555   2.648
10310SOL    HW131829   3.054   3.643   2.649
10310SOL    HW231830   2.968   3.539   2.557
10311SOL     OW31831   0.377   5.486   0.541
10311SOL    HW131832   0.384   5.389   0.563
10311SOL    HW231833   0.468   5.528   0.543
10312SOL     OW31834   3.631   4.827   0.900
10312SOL    HW131835   3.698   4.809   0.973
10312SOL    HW231836   3.615   4.743   0.848
10313SOL     OW31837   4.663   0.371   2.640
10313SOL    HW131838   4.705   0.317   2.566
10313SOL    HW231839   4.689   0.467   2.630
10314SOL     OW31840   6.444   0.184   1.036
10314SOL    HW131841   6.431   0.089   1.066
10314SOL    HW231842   6.358   0.234   1.047
10315SOL     OW31843   6.712   5.719   5.486
10315SOL    HW131844   6.704   5.775   5.403
10315SOL    HW231845   6.694   5.777   5.566
10316SOL     OW31846   0.378   3.699   4.877
10316SOL    HW131847   0.412   3.613   4.840
10316SOL    HW231848   0.401   3.705   4.974
10317SOL     OW31849   4.368   5.018   6.201
10317SOL    HW131850   4.284   4.970   6.179
10317SOL    HW231851   4.410   4.978   6.283
10318SOL     OW31852   6.382   5.333   1.510
10318SOL    HW131853   6.382   5.433   1.514
10318SOL    HW231854   6.288   5.300   1.502
10319SOL     OW31855   6.967   5.023   3.475
10319SOL    HW131856   6.970   4.959   3.551
10319SOL    HW231857   6.929   5.110   3.506
10320SOL     OW31858   0.298   6.245   0.584
10320SOL    HW131859   0.247   6.306   0.524
10320SOL    HW231860   0.394   6.241   0.556
10321SOL     OW31861   4.617   5.379   4.985
10321SOL    HW131862   4.520   5.362   4.999
10321SOL    HW231863   4.645   5.460   5.037
10322SOL     OW31864   6.441   5.442   0.891
10322SOL    HW131865   6.486   5.355   0.907
10322SOL    HW231866   6.469   5.479   0.803
10323SOL     OW31867   5.702   3.165   6.222
10323SOL    HW131868   5.661   3.111   6.148
10323SOL    HW231869   5.635   3.176   6.296
10324SOL     OW31870   3.012   3.715   3.653
10324SOL    HW131871   3.107   3.744   3.642
10324SOL    HW231872   2.999   3.625   3.612
10325SOL     OW31873   0.096   3.322   3.265
10325SOL    HW131874   0.125   3.405   3.314
10325SOL    HW231875   0.023   3.345   3.201
10326SOL     OW31876   5.088   3.026   6.903
10326SOL    HW131877   5.028   3.005   6.827
10326SOL    HW231878   5.061   2.972   6.983
10327SOL     OW31879   0.736   1.215   2.977
10327SOL    HW131880   0.828   1.225   3.013
10327SOL    HW231881   0.673   1.195   3.053
10328SOL     OW31882   6.002   3.532   2.364
10328SOL    HW131883   6.031   3.628   2.369
10328SOL    HW231884   5.902   3.528   2.362
10329SOL     OW31885   3.265   0.472   2.677
10329SOL    HW131886   3.174   0.472   2.720
10329SOL    HW231887   3.270   0.398   2.611
10330SOL     OW31888   3.669   4.996   2.752
10330SOL    HW131889   3.730   4.983   2.673
10330SOL    HW231890   3.577   4.965   2.729
10331SOL     OW31891   5.214   0.861   3.827
10331SOL    HW131892   5.192   0.765   3.808
10331SOL    HW231893   5.133   0.918   3.812
10332SOL     OW31894   6.962   1.988   0.674
10332SOL    HW131895   6.950   1.968   0.577
10332SOL    HW231896   0.001   2.066   0.685
10333SOL     OW31897   5.973   5.509   4.440
10333SOL    HW131898   6.068   5.490   4.468
10333SOL    HW231899   5.973   5.551   4.350
10334SOL     OW31900   2.146   4.807   4.199
10334SOL    HW131901   2.074   4.848   4.255
10334SOL    HW231902   2.112   4.722   4.158
10335SOL     OW31903   2.591   5.210   0.898
10335SOL    HW131904   2.622   5.131   0.846
10335SOL    HW231905   2.496   5.231   0.873
10336SOL     OW31906   4.522   6.892   2.499
10336SOL    HW131907   4.554   6.918   2.408
10336SOL    HW231908   4.575   6.942   2.568
10337SOL     OW31909   0.222   5.132   4.870
10337SOL    HW131910   0.214   5.073   4.950
10337SOL    HW231911   0.200   5.080   4.787
10338SOL     OW31912   2.877   7.000   2.139
10338SOL    HW131913   2.817   6.936   2.187
10338SOL    HW231914   2.962   6.953   2.113
10339SOL     OW31915   2.927   6.109   1.551
10339SOL    HW131916   2.901   6.014   1.535
10339SOL    HW231917   2.977   6.116   1.637
10340SOL     OW31918   2.711   6.039   0.375
10340SOL    HW131919   2.614   6.019   0.382
10340SOL    HW231920   2.764   5.970   0.425
10341SOL     OW31921   2.285   1.591   2.084
10341SOL    HW131922   2.238   1.521   2.030
10341SOL    HW231923   2.253   1.586   2.179
10342SOL     OW31924   2.414   0.408   5.771
10342SOL    HW131925   2.352   0.332   5.752
10342SOL    HW231926   2.396   0.442   5.864
10343SOL     OW31927   2.749   3.606   6.221
10343SOL    HW131928   2.728   3.508   6.232
10343SOL    HW231929   2.697   3.659   6.287
10344SOL     OW31930   4.134   3.607   4.983
10344SOL    HW131931   4.230   3.629   4.966
10344SOL    HW231932   4.083   3.612   4.897
10345SOL     OW31933   1.936   1.513   0.066
10345SOL    HW131934   1.898   1.563   0.144
10345SOL    HW231935   1.920   1.566   7.005
10346SOL     OW31936   4.902   0.068   0.049
10346SOL    HW131937   4.854   0.155   0.059
10346SOL    HW231938   4.838   7.019   0.021
10347SOL     OW31939   5.329   2.047   1.711
10347SOL    HW131940   5.274   1.965   1.696
10347SOL    HW231941   5.276   2.127   1.683
10348SOL     OW31942   5.851   1.044   6.148
10348SOL    HW131943   5.865   1.093   6.062
10348SOL    HW231944   5.891   1.098   6.223
10349SOL     OW31945   6.224   1.630   1.596
10349SOL    HW131946   6.299   1.577   1.556
10349SOL    HW231947   6.186   1.581   1.674
10350SOL     OW31948   2.698   5.786   4.440
10350SOL    HW131949   2.757   5.781   4.359
10350SOL    HW231950   2.727   5.718   4.507
10351SOL     OW31951   5.967   5.217   5.262
10351SOL    HW131952   5.954   5.267   5.348
10351SOL    HW231953   6.062   5.229   5.231
10352SOL     OW31954   5.356   1.816   6.956
10352SOL    HW131955   5.349   1.916   6.955
10352SOL    HW231956   5.430   1.788   7.017
10353SOL     OW31957   0.388   2.860   3.051
10353SOL    HW131958   0.481   2.891   3.070
10353SOL    HW231959   0.376   2.767   3.085
10354SOL     OW31960   0.240   3.767   0.546
10354SOL    HW131961   0.215   3.768   0.643
10354SOL    HW231962   0.203   3.849   0.501
10355SOL     OW31963   1.478   0.192   0.422
10355SOL    HW131964   1.490   0.096   0.395
10355SOL    HW231965   1.550   0.247   0.381
10356SOL     OW31966   6.754   3.474   7.002
10356SOL    HW131967   6.785   3.529   0.057
10356SOL    HW231968   6.660   3.499   6.979
10357SOL     OW31969   1.152   2.806   6.195
10357SOL    HW131970   1.152   2.903   6.216
10357SOL    HW231971   1.098   2.790   6.112
10358SOL     OW31972   1.048   2.614   3.108
10358SOL    HW131973   1.099   2.700   3.106
10358SOL    HW231974   0.959   2.627   3.065
10359SOL     OW31975   5.295   1.892   2.666
10359SOL    HW131976   5.260   1.956   2.734
10359SOL    HW231977   5.265   1.920   2.575
10360SOL     OW31978   5.595   4.995   2.811
10360SOL    HW131979   5.626   4.914   2.761
10360SOL    HW231980   5.562   5.064   2.747
10361SOL     OW31981   0.689   1.104   1.562
10361SOL    HW131982   0.755   1.064   1.499
10361SOL    HW231983   0.649   1.186   1.520
10362SOL     OW31984   1.238   4.821   3.015
10362SOL    HW131985   1.254   4.810   2.917
10362SOL    HW231986   1.297   4.892   3.052
10363SOL     OW31987   5.176   3.434   0.674
10363SOL    HW131988   5.247   3.372   0.708
10363SOL    HW231989   5.209   3.480   0.591
10364SOL     OW31990   5.238   4.408   2.041
10364SOL    HW131991   5.307   4.388   1.972
10364SOL    HW231992   5.179   4.482   2.008
10365SOL     OW31993   5.810   5.677   0.529
10365SOL    HW131994   5.893   5.646   0.576
10365SOL    HW231995   5.793   5.619   0.450
10366SOL     OW31996   3.757   6.154   2.706
10366SOL    HW131997   3.717   6.229   2.654
10366SOL    HW231998   3.713   6.149   2.796
10367SOL     OW31999   5.994   1.720   0.949
10367SOL    HW132000   6.023   1.648   0.886
10367SOL    HW232001   6.063   1.734   1.019
10368SOL     OW32002   2.085   0.347   2.031
10368SOL    HW132003   2.043   0.409   1.965
10368SOL    HW232004   2.046   0.255   2.020
10369SOL     OW32005   2.902   6.636   5.247
10369SOL    HW132006   2.842   6.571   5.293
10369SOL    HW232007   2.979   6.587   5.205
10370SOL     OW32008   0.374   1.968   4.493
10370SOL    HW132009   0.472   1.977   4.472
10370SOL    HW232010   0.349   1.871   4.495
10371SOL     OW32011   3.682   5.867   3.303
10371SOL    HW132012   3.725   5.951   3.334
10371SOL    HW232013   3.698   5.855   3.205
10372SOL     OW32014   2.395   0.326   1.705
10372SOL    HW132015   2.328   0.394   1.677
10372SOL    HW232016   2.380   0.240   1.655
10373SOL     OW32017   6.888   1.574   5.895
10373SOL    HW132018   6.901   1.595   5.798
10373SOL    HW232019   6.956   1.624   5.949
10374SOL     OW32020   3.289   6.704   4.628
10374SOL    HW132021   3.384   6.686   4.653
10374SOL    HW232022   3.283   6.793   4.582
10375SOL     OW32023   4.215   2.757   0.058
10375SOL    HW132024   4.145   2.826   0.040
10375SOL    HW232025   4.172   2.666   0.059
10376SOL     OW32026   1.444   5.852   2.647
10376SOL    HW132027   1.390   5.882   2.725
10376SOL    HW232028   1.538   5.832   2.678
10377SOL     OW32029   0.348   1.538   1.867
10377SOL    HW132030   0.351   1.625   1.817
10377SOL    HW232031   0.421   1.479   1.835
10378SOL     OW32032   0.190   5.129   5.467
10378SOL    HW132033   0.109   5.136   5.409
10378SOL    HW232034   0.272   5.128   5.409
10379SOL     OW32035   2.409   6.846   4.110
10379SOL    HW132036   2.379   6.802   4.195
10379SOL    HW232037   2.508   6.839   4.102
10380SOL     OW32038   1.521   2.810   4.999
10380SOL    HW132039   1.618   2.805   4.977
10380SOL    HW232040   1.472   2.854   4.924
10381SOL     OW32041   4.393   4.368   1.546
10381SOL    HW132042   4.477   4.341   1.499
10381SOL    HW232043   4.345   4.287   1.579
10382SOL     OW32044   3.336   4.777   1.702
10382SOL    HW132045   3.405   4.712   1.734
10382SOL    HW232046   3.278   4.806   1.778
10383SOL     OW32047   2.097   4.944   0.371
10383SOL    HW132048   2.034   4.967   0.296
10383SOL    HW232049   2.160   4.873   0.340
10384SOL     OW32050   6.096   6.288   1.130
10384SOL    HW132051   6.069   6.218   1.065
10384SOL    HW232052   6.172   6.341   1.092
10385SOL     OW32053   3.633   5.132   6.147
10385SOL    HW132054   3.688   5.051   6.165
10385SOL    HW232055   3.551   5.131   6.204
10386SOL     OW32056   0.101   1.036   6.768
10386SOL    HW132057   0.136   1.071   6.682
10386SOL    HW232058   0.176   1.025   6.834
10387SOL     OW32059   4.832   3.079   3.317
10387SOL    HW132060   4.753   3.019   3.331
10387SOL    HW232061   4.903   3.028   3.268
10388SOL     OW32062   2.910   0.745   5.871
10388SOL    HW132063   2.850   0.702   5.804
10388SOL    HW232064   2.984   0.793   5.824
10389SOL     OW32065   6.585   3.773   6.992
10389SOL    HW132066   6.559   3.694   0.025
10389SOL    HW232067   6.590   3.854   0.028
10390SOL     OW32068   2.176   2.200   0.704
10390SOL    HW132069   2.251   2.134   0.711
10390SOL    HW232070   2.134   2.211   0.794
10391SOL     OW32071   0.504   6.330   3.765
10391SOL    HW132072   0.573   6.402   3.753
10391SOL    HW232073   0.423   6.370   3.808
10392SOL     OW32074   6.864   5.121   4.851
10392SOL    HW132075   6.795   5.180   4.810
10392SOL    HW232076   6.904   5.062   4.781
10393SOL     OW32077   2.124   3.547   3.964
10393SOL    HW132078   2.105   3.584   3.873
10393SOL    HW232079   2.150   3.621   4.026
10394SOL     OW32080   2.771   6.131   4.047
10394SOL    HW132081   2.728   6.198   4.107
10394SOL    HW232082   2.732   6.040   4.064
10395SOL     OW32083   0.254   6.524   1.303
10395SOL    HW132084   0.329   6.583   1.273
10395SOL    HW232085   0.283   6.468   1.379
10396SOL     OW32086   3.245   2.138   3.873
10396SOL    HW132087   3.300   2.129   3.790
10396SOL    HW232088   3.295   2.192   3.941
10397SOL     OW32089   3.231   1.969   2.853
10397SOL    HW132090   3.292   1.890   2.854
10397SOL    HW232091   3.230   2.009   2.762
10398SOL     OW32092   7.010   2.859   0.902
10398SOL    HW132093   6.989   2.770   0.861
10398SOL    HW232094   6.992   2.856   1.000
10399SOL     OW32095   5.507   2.540   2.658
10399SOL    HW132096   5.600   2.511   2.679
10399SOL    HW232097   5.482   2.619   2.714
10400SOL     OW32098   4.316   6.808   6.900
10400SOL    HW132099   4.372   6.884   6.867
10400SOL    HW232100   4.328   6.799   6.999
10401SOL     OW32101   6.047   0.872   3.968
10401SOL    HW132102   6.034   0.785   3.919
10401SOL    HW232103   6.069   0.944   3.902
10402SOL     OW32104   6.840   3.260   4.768
10402SOL    HW132105   6.815   3.278   4.673
10402SOL    HW232106   6.875   3.344   4.809
10403SOL     OW32107   3.827   1.123   3.422
10403SOL    HW132108   3.817   1.149   3.326
10403SOL    HW232109   3.924   1.112   3.444
10404SOL     OW32110   6.188   7.013   5.048
10404SOL    HW132111   6.190   6.987   4.952
10404SOL    HW232112   6.256   0.062   5.065
10405SOL     OW32113   0.365   1.473   5.888
10405SOL    HW132114   0.425   1.552   5.896
10405SOL    HW232115   0.312   1.480   5.803
10406SOL     OW32116   3.095   5.265   2.881
10406SOL    HW132117   3.008   5.244   2.925
10406SOL    HW232118   3.164   5.283   2.951
10407SOL     OW32119   3.370   6.679   6.019
10407SOL    HW132120   3.462   6.656   6.050
10407SOL    HW232121   3.348   6.773   6.046
10408SOL     OW32122   4.636   0.277   0.683
10408SOL    HW132123   4.541   0.249   0.698
10408SOL    HW232124   4.664   0.340   0.756
10409SOL     OW32125   6.720   4.497   1.409
10409SOL    HW132126   6.651   4.505   1.481
10409SOL    HW232127   6.691   4.550   1.329
10410SOL     OW32128   5.709   1.157   6.843
10410SOL    HW132129   5.784   1.222   6.835
10410SOL    HW232130   5.679   1.151   6.938
10411SOL     OW32131   3.834   6.865   3.376
10411SOL    HW132132   3.896   6.910   3.312
10411SOL    HW232133   3.883   6.790   3.421
10412SOL     OW32134   6.441   0.777   0.464
10412SOL    HW132135   6.481   0.690   0.436
10412SOL    HW232136   6.508   0.829   0.519
10413SOL     OW32137   6.021   2.342   0.969
10413SOL    HW132138   6.086   2.386   0.906
10413SOL    HW232139   6.061   2.336   1.060
10414SOL     OW32140   4.090   4.160   5.394
10414SOL    HW132141   4.102   4.251   5.434
10414SOL    HW232142   4.037   4.168   5.310
10415SOL     OW32143   0.623   4.038   4.894
10415SOL    HW132144   0.661   3.955   4.853
10415SOL    HW232145   0.620   4.110   4.825
10416SOL     OW32146   6.520   0.707   3.615
10416SOL    HW132147   6.444   0.737   3.556
10416SOL    HW232148   6.583   0.784   3.629
10417SOL     OW32149   3.530   5.423   4.398
10417SOL    HW132150   3.495   5.512   4.370
10417SOL    HW232151   3.619   5.433   4.441
10418SOL     OW32152   0.480   4.627   6.656
10418SOL    HW132153   0.438   4.563   6.592
10418SOL    HW232154   0.564   4.665   6.617
10419SOL     OW32155   1.335   6.829   6.404
10419SOL    HW132156   1.342   6.916   6.355
10419SOL    HW232157   1.297   6.845   6.495
10420SOL     OW32158   0.017   3.298   2.636
10420SOL    HW132159   0.092   3.342   2.684
10420SOL    HW232160   0.023   3.199   2.648
10421SOL     OW32161   0.308   1.882   3.409
10421SOL    HW132162   0.311   1.945   3.331
10421SOL    HW232163   0.289   1.790   3.376
10422SOL     OW32164   6.011   2.798   5.469
10422SOL    HW132165   6.057   2.724   5.420
10422SOL    HW232166   6.078   2.852   5.519
10423SOL     OW32167   5.140   4.904   4.784
10423SOL    HW132168   5.087   4.821   4.764
10423SOL    HW232169   5.146   4.960   4.701
10424SOL     OW32170   6.001   2.967   0.528
10424SOL    HW132171   6.041   2.952   0.437
10424SOL    HW232172   5.977   3.064   0.539
10425SOL     OW32173   1.488   6.705   1.991
10425SOL    HW132174   1.487   6.755   1.904
10425SOL    HW232175   1.583   6.685   2.016
10426SOL     OW32176   6.633   4.842   0.681
10426SOL    HW132177   6.581   4.794   0.610
10426SOL    HW232178   6.718   4.792   0.699
10427SOL     OW32179   3.595   1.490   0.218
10427SOL    HW132180   3.681   1.536   0.241
10427SOL    HW232181   3.525   1.559   0.197
10428SOL     OW32182   2.703   1.509   4.138
10428SOL    HW132183   2.776   1.570   4.108
10428SOL    HW232184   2.622   1.563   4.163
10429SOL     OW32185   0.199   5.485   1.194
10429SOL    HW132186   0.283   5.441   1.225
10429SOL    HW232187   0.188   5.470   1.096
10430SOL     OW32188   4.194   6.323   3.827
10430SOL    HW132189   4.215   6.226   3.815
10430SOL    HW232190   4.215   6.372   3.742
10431SOL     OW32191   3.201   5.904   4.554
10431SOL    HW132192   3.270   5.976   4.559
10431SOL    HW232193   3.120   5.938   4.505
10432SOL     OW32194   6.072   0.452   4.443
10432SOL    HW132195   5.978   0.475   4.418
10432SOL    HW232196   6.078   0.355   4.464
10433SOL     OW32197   1.706   0.031   1.142
10433SOL    HW132198   1.651   0.016   1.224
10433SOL    HW232199   1.712   0.129   1.124
10434SOL     OW32200   3.927   0.156   3.435
10434SOL    HW132201   3.993   0.104   3.489
10434SOL    HW232202   3.961   0.165   3.341
10435SOL     OW32203   6.979   6.984   4.871
10435SOL    HW132204   0.001   0.016   4.800
10435SOL    HW232205   6.947   6.898   4.832
10436SOL     OW32206   1.064   4.734   5.618
10436SOL    HW132207   1.114   4.806   5.666
10436SOL    HW232208   1.085   4.739   5.520
10437SOL     OW32209   6.096   4.477   5.894
10437SOL    HW132210   6.166   4.536   5.933
10437SOL    HW232211   6.134   4.387   5.875
10438SOL     OW32212   5.513   6.530   6.906
10438SOL    HW132213   5.458   6.581   6.840
10438SOL    HW232214   5.512   6.578   6.994
10439SOL     OW32215   3.472   1.518   6.143
10439SOL    HW132216   3.534   1.458   6.092
10439SOL    HW232217   3.380   1.512   6.104
10440SOL     OW32218   1.751   6.151   0.186
10440SOL    HW132219   1.801   6.086   0.244
10440SOL    HW232220   1.732   6.234   0.239
10441SOL     OW32221   4.493   1.288   0.203
10441SOL    HW132222   4.420   1.312   0.139
10441SOL    HW232223   4.577   1.270   0.153
10442SOL     OW32224   3.367   6.248   5.982
10442SOL    HW132225   3.267   6.256   5.976
10442SOL    HW232226   3.400   6.193   5.906
10443SOL     OW32227   5.093   3.860   4.910
10443SOL    HW132228   5.187   3.828   4.925
10443SOL    HW232229   5.042   3.792   4.858
10444SOL     OW32230   3.992   6.200   4.667
10444SOL    HW132231   3.982   6.146   4.583
10444SOL    HW232232   4.001   6.139   4.745
10445SOL     OW32233   0.741   5.515   3.905
10445SOL    HW132234   0.761   5.612   3.915
10445SOL    HW232235   0.823   5.461   3.924
10446SOL     OW32236   1.032   3.470   5.959
10446SOL    HW132237   1.121   3.499   5.994
10446SOL    HW232238   1.037   3.375   5.930
10447SOL     OW32239   6.592   1.185   1.874
10447SOL    HW132240   6.641   1.234   1.946
10447SOL    HW232241   6.518   1.243   1.838
10448SOL     OW32242   4.163   2.450   1.715
10448SOL    HW132243   4.115   2.367   1.743
10448SOL    HW232244   4.101   2.528   1.720
10449SOL     OW32245   1.994   5.452   4.907
10449SOL    HW132246   2.011   5.435   4.810
10449SOL    HW232247   1.946   5.539   4.918
10450SOL     OW32248   0.442   2.160   0.759
10450SOL    HW132249   0.533   2.201   0.761
10450SOL    HW232250   0.424   2.113   0.846
10451SOL     OW32251   1.948   5.201   2.915
10451SOL    HW132252   1.955   5.112   2.960
10451SOL    HW232253   2.039   5.236   2.895
10452SOL     OW32254   6.231   3.351   3.801
10452SOL    HW132255   6.211   3.351   3.899
10452SOL    HW232256   6.327   3.327   3.787
10453SOL     OW32257   5.587   6.274   1.823
10453SOL    HW132258   5.525   6.222   1.882
10453SOL    HW232259   5.565   6.258   1.727
10454SOL     OW32260   5.123   2.809   1.381
10454SOL    HW132261   5.077   2.808   1.470
10454SOL    HW232262   5.120   2.901   1.343
10455SOL     OW32263   0.304   4.826   2.575
10455SOL    HW132264   0.340   4.756   2.514
10455SOL    HW232265   0.260   4.898   2.522
10456SOL     OW32266   3.379   6.252   1.776
10456SOL    HW132267   3.322   6.308   1.716
10456SOL    HW232268   3.375   6.156   1.747
10457SOL     OW32269   3.480   2.905   2.940
10457SOL    HW132270   3.507   2.857   3.024
10457SOL    HW232271   3.561   2.937   2.892
10458SOL     OW32272   0.290   0.263   0.311
10458SOL    HW132273   0.254   0.275   0.219
10458SOL    HW232274   0.224   0.212   0.366
10459SOL     OW32275   5.416   5.300   3.141
10459SOL    HW132276   5.447   5.208   3.117
10459SOL    HW232277   5.361   5.337   3.066
10460SOL     OW32278   2.240   5.708   1.435
10460SOL    HW132279   2.180   5.649   1.381
10460SOL    HW232280   2.275   5.782   1.377
10461SOL     OW32281   1.141   6.126   5.782
10461SOL    HW132282   1.163   6.214   5.739
10461SOL    HW232283   1.078   6.141   5.858
10462SOL     OW32284   5.649   1.475   2.422
10462SOL    HW132285   5.710   1.397   2.439
10462SOL    HW232286   5.567   1.443   2.374
10463SOL     OW32287   3.858   3.426   5.935
10463SOL    HW132288   3.813   3.433   5.846
10463SOL    HW232289   3.793   3.393   6.004
10464SOL     OW32290   5.250   6.985   0.232
10464SOL    HW132291   5.237   0.007   0.144
10464SOL    HW232292   5.342   7.005   0.267
10465SOL     OW32293   6.538   6.907   0.408
10465SOL    HW132294   6.511   6.919   0.503
10465SOL    HW232295   6.522   6.992   0.357
10466SOL     OW32296   5.004   5.459   5.070
10466SOL    HW132297   4.986   5.409   4.985
10466SOL    HW232298   5.059   5.402   5.131
10467SOL     OW32299   1.359   1.869   5.396
10467SOL    HW132300   1.414   1.931   5.451
10467SOL    HW232301   1.418   1.805   5.348
10468SOL     OW32302   3.648   6.075   3.585
10468SOL    HW132303   3.644   5.991   3.639
10468SOL    HW232304   3.639   6.053   3.488
10469SOL     OW32305   3.211   3.809   0.731
10469SOL    HW132306   3.257   3.734   0.685
10469SOL    HW232307   3.208   3.791   0.830
10470SOL     OW32308   2.132   2.026   2.709
10470SOL    HW132309   2.146   2.123   2.692
10470SOL    HW232310   2.050   1.995   2.662
10471SOL     OW32311   2.386   3.236   0.981
10471SOL    HW132312   2.446   3.296   1.035
10471SOL    HW232313   2.316   3.198   1.041
10472SOL     OW32314   3.724   6.449   1.243
10472SOL    HW132315   3.646   6.402   1.284
10472SOL    HW232316   3.804   6.388   1.243
10473SOL     OW32317   5.460   0.210   0.823
10473SOL    HW132318   5.425   0.290   0.774
10473SOL    HW232319   5.384   0.149   0.847
10474SOL     OW32320   4.905   0.630   4.714
10474SOL    HW132321   4.982   0.567   4.726
10474SOL    HW232322   4.934   0.706   4.656
10475SOL     OW32323   4.603   6.320   1.267
10475SOL    HW132324   4.523   6.316   1.206
10475SOL    HW232325   4.652   6.232   1.263
10476SOL     OW32326   0.175   5.254   6.580
10476SOL    HW132327   0.082   5.290   6.590
10476SOL    HW232328   0.202   5.259   6.484
10477SOL     OW32329   6.399   3.302   4.758
10477SOL    HW132330   6.375   3.349   4.672
10477SOL    HW232331   6.470   3.234   4.740
10478SOL     OW32332   0.885   7.022   6.948
10478SOL    HW132333   0.842   0.086   6.920
10478SOL    HW232334   0.975   7.015   6.907
10479SOL     OW32335   1.153   2.102   1.601
10479SOL    HW132336   1.145   2.019   1.546
10479SOL    HW232337   1.064   2.145   1.610
10480SOL     OW32338   5.717   0.296   0.908
10480SOL    HW132339   5.712   0.395   0.893
10480SOL    HW232340   5.628   0.255   0.890
10481SOL     OW32341   2.983   1.435   4.730
10481SOL    HW132342   2.927   1.514   4.754
10481SOL    HW232343   3.009   1.440   4.634
10482SOL     OW32344   0.700   6.116   3.906
10482SOL    HW132345   0.658   6.113   3.996
10482SOL    HW232346   0.696   6.209   3.870
10483SOL     OW32347   6.714   5.172   0.240
10483SOL    HW132348   6.641   5.146   0.177
10483SOL    HW232349   6.684   5.251   0.294
10484SOL     OW32350   6.945   0.492   0.917
10484SOL    HW132351   6.971   0.411   0.969
10484SOL    HW232352   6.846   0.504   0.922
10485SOL     OW32353   4.031   3.669   3.157
10485SOL    HW132354   3.994   3.734   3.223
10485SOL    HW232355   4.061   3.717   3.075
10486SOL     OW32356   5.872   0.354   5.896
10486SOL    HW132357   5.790   0.373   5.949
10486SOL    HW232358   5.934   0.433   5.902
10487SOL     OW32359   4.750   1.969   1.456
10487SOL    HW132360   4.681   1.925   1.514
10487SOL    HW232361   4.722   2.063   1.437
10488SOL     OW32362   0.688   2.047   5.917
10488SOL    HW132363   0.730   1.969   5.870
10488SOL    HW232364   0.733   2.061   6.005
10489SOL     OW32365   5.604   5.756   3.550
10489SOL    HW132366   5.536   5.688   3.578
10489SOL    HW232367   5.559   5.829   3.499
10490SOL     OW32368   5.668   0.353   0.299
10490SOL    HW132369   5.736   0.400   0.243
10490SOL    HW232370   5.580   0.355   0.253
10491SOL     OW32371   1.466   2.812   6.572
10491SOL    HW132372   1.540   2.872   6.604
10491SOL    HW232373   1.496   2.717   6.574
10492SOL     OW32374   3.798   6.820   0.464
10492SOL    HW132375   3.850   6.834   0.379
10492SOL    HW232376   3.773   6.724   0.471
10493SOL     OW32377   4.095   5.726   1.192
10493SOL    HW132378   4.048   5.672   1.262
10493SOL    HW232379   4.033   5.742   1.115
10494SOL     OW32380   0.959   4.597   5.837
10494SOL    HW132381   0.871   4.564   5.803
10494SOL    HW232382   1.009   4.641   5.762
10495SOL     OW32383   6.792   5.945   7.003
10495SOL    HW132384   6.715   5.990   6.958
10495SOL    HW232385   6.778   5.846   7.005
10496SOL     OW32386   6.774   4.078   5.255
10496SOL    HW132387   6.812   4.108   5.343
10496SOL    HW232388   6.805   3.985   5.235
10497SOL     OW32389   2.139   6.786   1.594
10497SOL    HW132390   2.112   6.823   1.505
10497SOL    HW232391   2.116   6.688   1.597
10498SOL     OW32392   5.300   5.854   0.975
10498SOL    HW132393   5.332   5.915   0.903
10498SOL    HW232394   5.242   5.905   1.039
10499SOL     OW32395   5.803   5.570   1.194
10499SOL    HW132396   5.757   5.531   1.274
10499SOL    HW232397   5.756   5.653   1.165
10500SOL     OW32398   5.139   3.590   4.670
10500SOL    HW132399   5.079   3.630   4.600
10500SOL    HW232400   5.084   3.557   4.746
10501SOL     OW32401   2.615   5.821   2.435
10501SOL    HW132402   2.593   5.915   2.461
10501SOL    HW232403   2.530   5.769   2.425
10502SOL     OW32404   3.172   3.066   1.550
10502SOL    HW132405   3.100   3.132   1.525
10502SOL    HW232406   3.131   2.976   1.564
10503SOL     OW32407   6.575   3.840   6.631
10503SOL    HW132408   6.545   3.854   6.537
10503SOL    HW232409   6.538   3.754   6.666
10504SOL     OW32410   1.593   2.917   5.691
10504SOL    HW132411   1.625   2.918   5.596
10504SOL    HW232412   1.603   2.825   5.728
10505SOL     OW32413   5.775   5.828   2.216
10505SOL    HW132414   5.743   5.921   2.237
10505SOL    HW232415   5.696   5.768   2.204
10506SOL     OW32416   0.707   3.286   6.954
10506SOL    HW132417   0.669   3.337   6.877
10506SOL    HW232418   0.807   3.299   6.956
10507SOL     OW32419   2.760   4.766   0.126
10507SOL    HW132420   2.693   4.712   0.176
10507SOL    HW232421   2.852   4.737   0.152
10508SOL     OW32422   0.750   6.064   4.359
10508SOL    HW132423   0.707   6.096   4.274
10508SOL    HW232424   0.713   5.974   4.382
10509SOL     OW32425   4.919   3.287   4.502
10509SOL    HW132426   4.880   3.280   4.410
10509SOL    HW232427   4.873   3.360   4.553
10510SOL     OW32428   4.866   6.723   5.449
10510SOL    HW132429   4.792   6.657   5.462
10510SOL    HW232430   4.886   6.731   5.351
10511SOL     OW32431   3.122   1.336   1.733
10511SOL    HW132432   3.138   1.334   1.831
10511SOL    HW232433   3.140   1.428   1.698
10512SOL     OW32434   4.284   6.780   5.941
10512SOL    HW132435   4.251   6.866   5.981
10512SOL    HW232436   4.317   6.798   5.848
10513SOL     OW32437   6.282   2.872   2.342
10513SOL    HW132438   6.234   2.934   2.280
10513SOL    HW232439   6.217   2.805   2.379
10514SOL     OW32440   2.152   1.942   1.253
10514SOL    HW132441   2.197   1.892   1.179
10514SOL    HW232442   2.222   1.987   1.309
10515SOL     OW32443   2.054   2.260   4.123
10515SOL    HW132444   2.144   2.216   4.130
10515SOL    HW232445   2.042   2.323   4.200
10516SOL     OW32446   2.713   1.756   0.347
10516SOL    HW132447   2.801   1.713   0.326
10516SOL    HW232448   2.649   1.739   0.272
10517SOL     OW32449   1.990   4.186   2.672
10517SOL    HW132450   2.087   4.168   2.693
10517SOL    HW232451   1.938   4.190   2.758
10518SOL     OW32452   0.537   5.293   2.450
10518SOL    HW132453   0.630   5.259   2.465
10518SOL    HW232454   0.476   5.257   2.521
10519SOL     OW32455   3.108   5.103   1.702
10519SOL    HW132456   3.179   5.083   1.770
10519SOL    HW232457   3.112   5.035   1.628
10520SOL     OW32458   6.623   1.478   6.204
10520SOL    HW132459   6.665   1.468   6.294
10520SOL    HW232460   6.524   1.467   6.212
10521SOL     OW32461   6.373   4.152   1.463
10521SOL    HW132462   6.304   4.201   1.410
10521SOL    HW232463   6.463   4.166   1.423
10522SOL     OW32464   6.769   2.467   3.177
10522SOL    HW132465   6.745   2.504   3.087
10522SOL    HW232466   6.868   2.457   3.184
10523SOL     OW32467   0.255   4.300   3.920
10523SOL    HW132468   0.282   4.230   3.987
10523SOL    HW232469   0.220   4.380   3.968
10524SOL     OW32470   0.062   5.168   3.761
10524SOL    HW132471   0.016   5.251   3.727
10524SOL    HW232472   0.159   5.173   3.739
10525SOL     OW32473   4.500   0.914   4.787
10525SOL    HW132474   4.583   0.882   4.834
10525SOL    HW232475   4.512   1.010   4.762
10526SOL     OW32476   0.314   5.897   1.179
10526SOL    HW132477   0.332   5.988   1.216
10526SOL    HW232478   0.316   5.829   1.253
10527SOL     OW32479   0.080   0.748   5.841
10527SOL    HW132480   0.012   0.777   5.773
10527SOL    HW232481   0.168   0.790   5.822
10528SOL     OW32482   0.515   4.575   0.010
10528SOL    HW132483   0.461   4.630   0.074
10528SOL    HW232484   0.484   4.480   0.013
10529SOL     OW32485   1.551   6.277   5.711
10529SOL    HW132486   1.525   6.218   5.788
10529SOL    HW232487   1.506   6.245   5.628
10530SOL     OW32488   1.365   6.550   6.316
10530SOL    HW132489   1.415   6.636   6.326
10530SOL    HW232490   1.267   6.567   6.323
10531SOL     OW32491   2.963   2.459   5.322
10531SOL    HW132492   2.965   2.548   5.367
10531SOL    HW232493   3.052   2.441   5.279
10532SOL     OW32494   6.167   6.835   6.407
10532SOL    HW132495   6.158   6.909   6.473
10532SOL    HW232496   6.077   6.799   6.385
10533SOL     OW32497   3.154   6.060   3.907
10533SOL    HW132498   3.157   6.104   3.997
10533SOL    HW232499   3.112   6.122   3.841
10534SOL     OW32500   0.361   5.702   2.618
10534SOL    HW132501   0.421   5.657   2.552
10534SOL    HW232502   0.305   5.770   2.570
10535SOL     OW32503   2.592   1.289   2.235
10535SOL    HW132504   2.605   1.193   2.211
10535SOL    HW232505   2.628   1.347   2.162
10536SOL     OW32506   4.217   0.473   3.418
10536SOL    HW132507   4.222   0.573   3.414
10536SOL    HW232508   4.194   0.444   3.511
10537SOL     OW32509   4.581   6.605   3.627
10537SOL    HW132510   4.557   6.563   3.539
10537SOL    HW232511   4.672   6.573   3.655
10538SOL     OW32512   5.959   3.943   2.746
10538SOL    HW132513   6.035   3.898   2.700
10538SOL    HW232514   5.875   3.890   2.734
10539SOL     OW32515   6.088   6.027   2.508
10539SOL    HW132516   6.092   5.928   2.492
10539SOL    HW232517   6.180   6.066   2.496
10540SOL     OW32518   2.388   4.057   5.896
10540SOL    HW132519   2.470   4.005   5.873
10540SOL    HW232520   2.413   4.143   5.942
10541SOL     OW32521   3.014   3.181   4.648
10541SOL    HW132522   2.980   3.125   4.724
10541SOL    HW232523   2.938   3.210   4.590
10542SOL     OW32524   6.192   0.146   4.441
10542SOL    HW132525   6.140   0.068   4.406
10542SOL    HW232526   6.231   0.197   4.364
10543SOL     OW32527   6.403   2.332   5.871
10543SOL    HW132528   6.441   2.249   5.911
10543SOL    HW232529   6.328   2.365   5.928
10544SOL     OW32530   1.130   0.604   3.725
10544SOL    HW132531   1.104   0.699   3.743
10544SOL    HW232532   1.194   0.600   3.649
10545SOL     OW32533   1.176   2.572   2.795
10545SOL    HW132534   1.203   2.664   2.767
10545SOL    HW232535   1.147   2.573   2.891
10546SOL     OW32536   2.709   6.543   1.115
10546SOL    HW132537   2.668   6.556   1.025
10546SOL    HW232538   2.640   6.512   1.180
10547SOL     OW32539   4.780   0.500   4.484
10547SOL    HW132540   4.831   0.543   4.558
10547SOL    HW232541   4.692   0.468   4.519
10548SOL     OW32542   0.781   4.947   4.577
10548SOL    HW132543   0.688   4.957   4.611
10548SOL    HW232544   0.824   5.037   4.569
10549SOL     OW32545   0.410   1.799   0.483
10549SOL    HW132546   0.425   1.898   0.489
10549SOL    HW232547   0.316   1.778   0.510
10550SOL     OW32548   3.887   6.399   2.830
10550SOL    HW132549   3.872   6.306   2.795
10550SOL    HW232550   3.981   6.408   2.863
10551SOL     OW32551   2.475   1.837   6.089
10551SOL    HW132552   2.415   1.880   6.155
10551SOL    HW232553   2.562   1.813   6.133
10552SOL     OW32554   3.094   1.014   4.074
10552SOL    HW132555   3.047   0.939   4.029
10552SOL    HW232556   3.090   1.002   4.173
10553SOL     OW32557   6.759   5.278   1.058
10553SOL    HW132558   6.694   5.284   0.981
10553SOL    HW232559   6.840   5.228   1.029
10554SOL     OW32560   6.344   4.536   2.975
10554SOL    HW132561   6.406   4.501   2.904
10554SOL    HW232562   6.263   4.477   2.980
10555SOL     OW32563   2.702   2.380   0.623
10555SOL    HW132564   2.706   2.365   0.524
10555SOL    HW232565   2.759   2.312   0.669
10556SOL     OW32566   2.476   1.521   3.093
10556SOL    HW132567   2.542   1.465   3.042
10556SOL    HW232568   2.416   1.568   3.028
10557SOL     OW32569   1.928   3.613   4.769
10557SOL    HW132570   1.994   3.659   4.828
10557SOL    HW232571   1.870   3.554   4.825
10558SOL     OW32572   3.578   4.383   5.545
10558SOL    HW132573   3.556   4.295   5.585
10558SOL    HW232574   3.651   4.372   5.477
10559SOL     OW32575   3.315   0.577   0.833
10559SOL    HW132576   3.384   0.570   0.761
10559SOL    HW232577   3.309   0.671   0.865
10560SOL     OW32578   4.518   6.100   1.865
10560SOL    HW132579   4.512   6.153   1.949
10560SOL    HW232580   4.443   6.126   1.804
10561SOL     OW32581   4.858   4.523   1.916
10561SOL    HW132582   4.854   4.550   2.012
10561SOL    HW232583   4.895   4.598   1.861
10562SOL     OW32584   3.291   6.823   1.104
10562SOL    HW132585   3.329   6.915   1.103
10562SOL    HW232586   3.334   6.768   1.032
10563SOL     OW32587   0.909   7.002   0.844
10563SOL    HW132588   0.938   6.942   0.918
10563SOL    HW232589   0.909   0.074   0.875
10564SOL     OW32590   6.372   5.668   3.582
10564SOL    HW132591   6.287   5.719   3.600
10564SOL    HW232592   6.440   5.730   3.543
10565SOL     OW32593   6.618   0.287   5.693
10565SOL    HW132594   6.709   0.246   5.684
10565SOL    HW232595   6.611   0.365   5.631
10566SOL     OW32596   2.760   2.445   6.794
10566SOL    HW132597   2.691   2.436   6.722
10566SOL    HW232598   2.781   2.355   6.831
10567SOL     OW32599   1.808   2.302   5.890
10567SOL    HW132600   1.867   2.382   5.898
10567SOL    HW232601   1.724   2.327   5.843
10568SOL     OW32602   5.533   3.197   6.940
10568SOL    HW132603   5.631   3.178   6.931
10568SOL    HW232604   5.488   3.120   6.986
10569SOL     OW32605   5.393   0.171   2.097
10569SOL    HW132606   5.377   0.134   2.005
10569SOL    HW232607   5.306   0.195   2.139
10570SOL     OW32608   1.271   5.031   3.978
10570SOL    HW132609   1.181   4.988   3.973
10570SOL    HW232610   1.329   4.981   4.042
10571SOL     OW32611   0.172   4.164   6.508
10571SOL    HW132612   0.101   4.093   6.511
10571SOL    HW232613   0.231   4.155   6.588
10572SOL     OW32614   6.661   4.551   1.718
10572SOL    HW132615   6.573   4.550   1.671
10572SOL    HW232616   6.681   4.459   1.753
10573SOL     OW32617   5.628   0.706   4.549
10573SOL    HW132618   5.598   0.796   4.579
10573SOL    HW232619   5.661   0.711   4.455
10574SOL     OW32620   6.311   0.171   3.738
10574SOL    HW132621   6.267   0.210   3.657
10574SOL    HW232622   6.309   0.071   3.733
10575SOL     OW32623   5.080   0.189   3.238
10575SOL    HW132624   5.075   0.107   3.181
10575SOL    HW232625   5.116   0.164   3.328
10576SOL     OW32626   1.916   4.666   2.848
10576SOL    HW132627   1.909   4.761   2.820
10576SOL    HW232628   1.825   4.627   2.862
10577SOL     OW32629   3.159   6.016   0.906
10577SOL    HW132630   3.208   6.092   0.863
10577SOL    HW232631   3.159   6.029   1.005
10578SOL     OW32632   6.024   2.578   3.881
10578SOL    HW132633   6.065   2.490   3.906
10578SOL    HW232634   6.001   2.578   3.784
10579SOL     OW32635   2.827   3.648   1.222
10579SOL    HW132636   2.905   3.593   1.249
10579SOL    HW232637   2.823   3.731   1.277
10580SOL     OW32638   6.331   7.015   6.949
10580SOL    HW132639   6.237   0.027   6.951
10580SOL    HW232640   6.334   6.930   6.896
10581SOL     OW32641   5.126   6.426   2.870
10581SOL    HW132642   5.123   6.507   2.812
10581SOL    HW232643   5.213   6.424   2.919
10582SOL     OW32644   5.457   4.567   6.622
10582SOL    HW132645   5.396   4.500   6.581
10582SOL    HW232646   5.480   4.637   6.554
10583SOL     OW32647   3.202   0.239   3.823
10583SOL    HW132648   3.195   0.252   3.724
10583SOL    HW232649   3.298   0.238   3.849
10584SOL     OW32650   6.647   0.486   6.120
10584SOL    HW132651   6.649   0.546   6.041
10584SOL    HW232652   6.596   0.403   6.098
10585SOL     OW32653   0.688   2.023   6.553
10585SOL    HW132654   0.696   1.946   6.617
10585SOL    HW232655   0.675   1.988   6.460
10586SOL     OW32656   4.816   4.893   5.599
10586SOL    HW132657   4.804   4.936   5.689
10586SOL    HW232658   4.839   4.964   5.532
10587SOL     OW32659   0.515   5.633   5.909
10587SOL    HW132660   0.613   5.618   5.918
10587SOL    HW232661   0.483   5.593   5.823
10588SOL     OW32662   1.821   2.598   4.521
10588SOL    HW132663   1.734   2.608   4.570
10588SOL    HW232664   1.860   2.688   4.505
10589SOL     OW32665   5.424   6.027   4.837
10589SOL    HW132666   5.430   5.928   4.845
10589SOL    HW232667   5.383   6.051   4.749
10590SOL     OW32668   0.188   5.845   1.798
10590SOL    HW132669   0.173   5.747   1.787
10590SOL    HW232670   0.195   5.888   1.709
10591SOL     OW32671   1.757   0.901   1.335
10591SOL    HW132672   1.745   0.858   1.425
10591SOL    HW232673   1.682   0.966   1.319
10592SOL     OW32674   6.121   2.360   4.668
10592SOL    HW132675   6.136   2.374   4.570
10592SOL    HW232676   6.178   2.284   4.700
10593SOL     OW32677   2.560   6.133   0.692
10593SOL    HW132678   2.630   6.072   0.730
10593SOL    HW232679   2.563   6.221   0.739
10594SOL     OW32680   3.798   1.039   2.931
10594SOL    HW132681   3.785   0.946   2.963
10594SOL    HW232682   3.867   1.040   2.858
10595SOL     OW32683   5.981   0.508   0.451
10595SOL    HW132684   6.067   0.558   0.437
10595SOL    HW232685   5.914   0.535   0.382
10596SOL     OW32686   4.496   1.819   0.124
10596SOL    HW132687   4.560   1.745   0.107
10596SOL    HW232688   4.464   1.816   0.219
10597SOL     OW32689   2.771   0.667   6.382
10597SOL    HW132690   2.715   0.707   6.309
10597SOL    HW232691   2.828   0.594   6.343
10598SOL     OW32692   2.487   2.052   5.924
10598SOL    HW132693   2.426   2.128   5.946
10598SOL    HW232694   2.468   1.976   5.986
10599SOL     OW32695   6.586   4.306   5.968
10599SOL    HW132696   6.533   4.288   6.051
10599SOL    HW232697   6.541   4.377   5.915
10600SOL     OW32698   3.530   1.235   1.500
10600SOL    HW132699   3.542   1.312   1.563
10600SOL    HW232700   3.440   1.194   1.514
10601SOL     OW32701   0.418   6.261   5.576
10601SOL    HW132702   0.448   6.166   5.568
10601SOL    HW232703   0.374   6.290   5.491
10602SOL     OW32704   0.470   0.415   0.170
10602SOL    HW132705   0.435   0.329   0.208
10602SOL    HW232706   0.570   0.411   0.167
10603SOL     OW32707   4.651   6.559   1.576
10603SOL    HW132708   4.579   6.605   1.524
10603SOL    HW232709   4.740   6.582   1.537
10604SOL     OW32710   0.271   6.243   4.795
10604SOL    HW132711   0.288   6.183   4.873
10604SOL    HW232712   0.308   6.334   4.814
10605SOL     OW32713   2.089   0.297   0.176
10605SOL    HW132714   2.095   0.239   0.258
10605SOL    HW232715   2.067   0.391   0.203
10606SOL     OW32716   6.236   0.664   1.432
10606SOL    HW132717   6.140   0.679   1.458
10606SOL    HW232718   6.294   0.673   1.512
10607SOL     OW32719   4.099   4.146   6.700
10607SOL    HW132720   4.090   4.056   6.744
10607SOL    HW232721   4.008   4.182   6.679
10608SOL     OW32722   6.506   2.915   3.094
10608SOL    HW132723   6.565   2.904   3.174
10608SOL    HW232724   6.503   2.829   3.043
10609SOL     OW32725   3.201   6.724   0.667
10609SOL    HW132726   3.246   6.663   0.602
10609SOL    HW232727   3.191   6.815   0.626
10610SOL     OW32728   6.810   2.003   4.166
10610SOL    HW132729   6.850   2.042   4.084
10610SOL    HW232730   6.869   2.021   4.245
10611SOL     OW32731   2.517   5.531   4.865
10611SOL    HW132732   2.592   5.497   4.920
10611SOL    HW232733   2.548   5.545   4.771
10612SOL     OW32734   5.545   1.325   4.323
10612SOL    HW132735   5.510   1.415   4.350
10612SOL    HW232736   5.562   1.270   4.405
10613SOL     OW32737   5.283   6.146   4.314
10613SOL    HW132738   5.199   6.094   4.328
10613SOL    HW232739   5.261   6.241   4.292
10614SOL     OW32740   5.084   0.800   5.758
10614SOL    HW132741   5.114   0.740   5.684
10614SOL    HW232742   4.984   0.800   5.762
10615SOL     OW32743   3.314   1.632   5.493
10615SOL    HW132744   3.284   1.652   5.400
10615SOL    HW232745   3.250   1.673   5.558
10616SOL     OW32746   2.951   6.742   6.643
10616SOL    HW132747   2.914   6.694   6.723
10616SOL    HW232748   3.041   6.706   6.622
10617SOL     OW32749   2.366   3.849   1.767
10617SOL    HW132750   2.336   3.925   1.825
10617SOL    HW232751   2.462   3.863   1.741
10618SOL     OW32752   0.443   5.464   5.446
10618SOL    HW132753   0.510   5.389   5.450
10618SOL    HW232754   0.382   5.449   5.368
10619SOL     OW32755   0.525   2.385   2.899
10619SOL    HW132756   0.618   2.382   2.935
10619SOL    HW232757   0.478   2.300   2.920
10620SOL     OW32758   1.499   0.400   5.096
10620SOL    HW132759   1.452   0.337   5.158
10620SOL    HW232760   1.446   0.483   5.086
10621SOL     OW32761   0.974   4.087   2.578
10621SOL    HW132762   1.067   4.063   2.606
10621SOL    HW232763   0.975   4.180   2.539
10622SOL     OW32764   4.231   2.527   0.866
10622SOL    HW132765   4.235   2.441   0.814
10622SOL    HW232766   4.231   2.604   0.802
10623SOL     OW32767   6.167   5.859   5.234
10623SOL    HW132768   6.248   5.864   5.293
10623SOL    HW232769   6.182   5.789   5.164
10624SOL     OW32770   0.486   2.923   5.001
10624SOL    HW132771   0.511   2.894   5.093
10624SOL    HW232772   0.569   2.937   4.947
10625SOL     OW32773   0.548   3.251   0.166
10625SOL    HW132774   0.610   3.280   0.093
10625SOL    HW232775   0.503   3.166   0.140
10626SOL     OW32776   3.575   3.149   1.534
10626SOL    HW132777   3.553   3.058   1.498
10626SOL    HW232778   3.559   3.151   1.632
10627SOL     OW32779   5.531   0.704   6.397
10627SOL    HW132780   5.549   0.618   6.444
10627SOL    HW232781   5.614   0.759   6.395
10628SOL     OW32782   4.131   0.352   0.239
10628SOL    HW132783   4.190   0.421   0.281
10628SOL    HW232784   4.089   0.296   0.311
10629SOL     OW32785   3.326   5.326   5.085
10629SOL    HW132786   3.299   5.237   5.048
10629SOL    HW232787   3.422   5.344   5.061
10630SOL     OW32788   4.992   0.506   2.405
10630SOL    HW132789   4.916   0.461   2.357
10630SOL    HW232790   5.044   0.561   2.339
10631SOL     OW32791   4.538   4.808   6.333
10631SOL    HW132792   4.570   4.815   6.239
10631SOL    HW232793   4.590   4.871   6.391
10632SOL     OW32794   4.811   5.928   3.630
10632SOL    HW132795   4.859   5.927   3.543
10632SOL    HW232796   4.867   5.882   3.699
10633SOL     OW32797   1.997   2.729   1.532
10633SOL    HW132798   2.082   2.761   1.574
10633SOL    HW232799   2.008   2.634   1.502
10634SOL     OW32800   1.265   5.899   0.144
10634SOL    HW132801   1.336   5.969   0.134
10634SOL    HW232802   1.307   5.814   0.177
10635SOL     OW32803   2.197   3.828   0.607
10635SOL    HW132804   2.167   3.919   0.575
10635SOL    HW232805   2.295   3.817   0.589
10636SOL     OW32806   6.034   1.505   0.778
10636SOL    HW132807   5.984   1.451   0.846
10636SOL    HW232808   6.006   1.478   0.686
10637SOL     OW32809   2.627   6.183   6.661
10637SOL    HW132810   2.557   6.170   6.591
10637SOL    HW232811   2.653   6.279   6.666
10638SOL     OW32812   6.925   6.407   2.392
10638SOL    HW132813   6.861   6.358   2.451
10638SOL    HW232814   6.892   6.499   2.375
10639SOL     OW32815   2.038   3.518   1.740
10639SOL    HW132816   2.056   3.615   1.724
10639SOL    HW232817   2.100   3.483   1.810
10640SOL     OW32818   4.494   0.985   3.390
10640SOL    HW132819   4.568   1.052   3.396
10640SOL    HW232820   4.533   0.894   3.371
10641SOL     OW32821   1.745   1.377   3.878
10641SOL    HW132822   1.646   1.371   3.867
10641SOL    HW232823   1.767   1.433   3.958
10642SOL     OW32824   5.940   1.809   0.670
10642SOL    HW132825   5.846   1.775   0.667
10642SOL    HW232826   5.973   1.811   0.764
10643SOL     OW32827   2.171   5.881   5.096
10643SOL    HW132828   2.235   5.805   5.085
10643SOL    HW232829   2.163   5.904   5.193
10644SOL     OW32830   6.208   3.310   1.374
10644SOL    HW132831   6.190   3.400   1.336
10644SOL    HW232832   6.195   3.313   1.473
10645SOL     OW32833   2.050   3.428   3.524
10645SOL    HW132834   2.092   3.466   3.442
10645SOL    HW232835   2.098   3.345   3.551
10646SOL     OW32836   5.475   1.247   5.669
10646SOL    HW132837   5.483   1.341   5.701
10646SOL    HW232838   5.566   1.207   5.658
10647SOL     OW32839   3.888   5.268   5.191
10647SOL    HW132840   3.960   5.335   5.208
10647SOL    HW232841   3.820   5.307   5.128
10648SOL     OW32842   6.219   5.835   6.370
10648SOL    HW132843   6.193   5.830   6.274
10648SOL    HW232844   6.317   5.815   6.379
10649SOL     OW32845   0.761   3.372   3.728
10649SOL    HW132846   0.680   3.315   3.737
10649SOL    HW232847   0.763   3.440   3.800
10650SOL     OW32848   6.986   0.234   4.464
10650SOL    HW132849   6.900   0.264   4.423
10650SOL    HW232850   0.040   0.255   4.401
10651SOL     OW32851   5.704   6.329   5.482
10651SOL    HW132852   5.679   6.302   5.575
10651SOL    HW232853   5.683   6.254   5.419
10652SOL     OW32854   2.144   6.903   6.308
10652SOL    HW132855   2.157   6.988   6.360
10652SOL    HW232856   2.156   6.922   6.210
10653SOL     OW32857   3.548   6.010   4.699
10653SOL    HW132858   3.489   6.056   4.632
10653SOL    HW232859   3.619   5.959   4.651
10654SOL     OW32860   4.942   1.757   4.624
10654SOL    HW132861   4.956   1.817   4.545
10654SOL    HW232862   4.886   1.679   4.598
10655SOL     OW32863   1.808   4.691   1.203
10655SOL    HW132864   1.825   4.771   1.145
10655SOL    HW232865   1.810   4.718   1.299
10656SOL     OW32866   6.704   1.387   2.316
10656SOL    HW132867   6.786   1.347   2.356
10656SOL    HW232868   6.627   1.324   2.329
10657SOL     OW32869   6.098   1.233   4.440
10657SOL    HW132870   6.037   1.311   4.423
10657SOL    HW232871   6.171   1.233   4.372
10658SOL     OW32872   5.695   3.881   5.002
10658SOL    HW132873   5.794   3.891   5.018
10658SOL    HW232874   5.653   3.839   5.082
10659SOL     OW32875   1.175   4.607   0.782
10659SOL    HW132876   1.264   4.581   0.818
10659SOL    HW232877   1.167   4.575   0.687
10660SOL     OW32878   6.218   3.677   5.305
10660SOL    HW132879   6.294   3.741   5.294
10660SOL    HW232880   6.178   3.658   5.216
10661SOL     OW32881   1.445   5.358   0.855
10661SOL    HW132882   1.368   5.317   0.806
10661SOL    HW232883   1.519   5.292   0.862
10662SOL     OW32884   3.903   1.241   2.091
10662SOL    HW132885   3.819   1.226   2.143
10662SOL    HW232886   3.921   1.339   2.085
10663SOL     OW32887   0.622   1.882   3.316
10663SOL    HW132888   0.567   1.959   3.347
10663SOL    HW232889   0.562   1.805   3.295
10664SOL     OW32890   0.238   5.417   4.854
10664SOL    HW132891   0.336   5.427   4.871
10664SOL    HW232892   0.214   5.320   4.845
10665SOL     OW32893   2.213   2.376   6.987
10665SOL    HW132894   2.302   2.331   6.985
10665SOL    HW232895   2.141   2.308   7.000
10666SOL     OW32896   3.371   3.748   2.283
10666SOL    HW132897   3.388   3.649   2.284
10666SOL    HW232898   3.280   3.767   2.246
10667SOL     OW32899   4.910   1.890   3.779
10667SOL    HW132900   4.918   1.952   3.856
10667SOL    HW232901   4.944   1.800   3.804
10668SOL     OW32902   3.256   1.735   5.241
10668SOL    HW132903   3.163   1.760   5.215
10668SOL    HW232904   3.319   1.806   5.212
10669SOL     OW32905   5.641   0.554   0.746
10669SOL    HW132906   5.735   0.584   0.729
10669SOL    HW232907   5.598   0.529   0.660
10670SOL     OW32908   5.491   4.557   4.530
10670SOL    HW132909   5.417   4.580   4.594
10670SOL    HW232910   5.476   4.465   4.493
10671SOL     OW32911   1.564   1.811   4.470
10671SOL    HW132912   1.619   1.893   4.484
10671SOL    HW232913   1.475   1.835   4.432
10672SOL     OW32914   6.690   3.999   1.584
10672SOL    HW132915   6.759   3.977   1.516
10672SOL    HW232916   6.628   3.922   1.595
10673SOL     OW32917   1.639   6.749   0.294
10673SOL    HW132918   1.625   6.666   0.240
10673SOL    HW232919   1.727   6.790   0.269
10674SOL     OW32920   3.814   3.880   4.412
10674SOL    HW132921   3.905   3.851   4.444
10674SOL    HW232922   3.824   3.925   4.324
10675SOL     OW32923   2.765   0.342   6.329
10675SOL    HW132924   2.724   0.363   6.240
10675SOL    HW232925   2.863   0.361   6.326
10676SOL     OW32926   0.065   6.317   4.623
10676SOL    HW132927   0.047   6.223   4.592
10676SOL    HW232928   0.129   6.315   4.700
10677SOL     OW32929   1.647   1.242   1.476
10677SOL    HW132930   1.678   1.301   1.551
10677SOL    HW232931   1.666   1.286   1.388
10678SOL     OW32932   4.271   4.851   3.803
10678SOL    HW132933   4.316   4.771   3.763
10678SOL    HW232934   4.292   4.856   3.901
10679SOL     OW32935   3.968   5.495   0.039
10679SOL    HW132936   3.946   5.504   6.964
10679SOL    HW232937   3.996   5.583   0.075
10680SOL     OW32938   3.927   1.935   3.735
10680SOL    HW132939   3.957   1.920   3.641
10680SOL    HW232940   3.968   1.866   3.795
10681SOL     OW32941   6.696   3.640   0.197
10681SOL    HW132942   6.739   3.684   0.276
10681SOL    HW232943   6.632   3.571   0.229
10682SOL     OW32944   0.292   3.195   5.382
10682SOL    HW132945   0.319   3.197   5.286
10682SOL    HW232946   0.227   3.120   5.397
10683SOL     OW32947   4.457   1.121   3.767
10683SOL    HW132948   4.455   1.221   3.769
10683SOL    HW232949   4.549   1.091   3.742
10684SOL     OW32950   4.694   5.733   1.961
10684SOL    HW132951   4.671   5.813   1.906
10684SOL    HW232952   4.671   5.750   2.057
10685SOL     OW32953   0.324   5.701   0.779
10685SOL    HW132954   0.395   5.658   0.723
10685SOL    HW232955   0.362   5.783   0.822
10686SOL     OW32956   1.679   4.285   6.162
10686SOL    HW132957   1.711   4.339   6.239
10686SOL    HW232958   1.757   4.248   6.112
10687SOL     OW32959   6.671   4.547   4.473
10687SOL    HW132960   6.625   4.539   4.385
10687SOL    HW232961   6.692   4.643   4.491
10688SOL     OW32962   5.494   2.678   2.993
10688SOL    HW132963   5.570   2.739   3.017
10688SOL    HW232964   5.469   2.693   2.898
10689SOL     OW32965   6.748   0.244   1.984
10689SOL    HW132966   6.788   0.167   2.033
10689SOL    HW232967   6.731   0.219   1.889
10690SOL     OW32968   0.251   5.167   3.199
10690SOL    HW132969   0.256   5.073   3.232
10690SOL    HW232970   0.307   5.176   3.116
10691SOL     OW32971   1.755   1.895   1.390
10691SOL    HW132972   1.805   1.829   1.334
10691SOL    HW232973   1.819   1.959   1.432
10692SOL     OW32974   2.315   0.180   3.788
10692SOL    HW132975   2.232   0.234   3.800
10692SOL    HW232976   2.384   0.212   3.853
10693SOL     OW32977   1.514   6.071   1.031
10693SOL    HW132978   1.428   6.112   1.002
10693SOL    HW232979   1.495   5.995   1.094
10694SOL     OW32980   5.338   6.234   6.138
10694SOL    HW132981   5.345   6.234   6.238
10694SOL    HW232982   5.364   6.324   6.103
10695SOL     OW32983   1.883   2.474   2.239
10695SOL    HW132984   1.964   2.434   2.282
10695SOL    HW232985   1.890   2.574   2.242
10696SOL     OW32986   6.908   3.892   4.616
10696SOL    HW132987   6.827   3.848   4.654
10696SOL    HW232988   6.881   3.960   4.548
10697SOL     OW32989   0.050   0.413   5.526
10697SOL    HW132990   7.005   0.376   5.590
10697SOL    HW232991   0.129   0.353   5.522
10698SOL     OW32992   4.754   4.395   6.838
10698SOL    HW132993   4.815   4.337   6.891
10698SOL    HW232994   4.664   4.397   6.880
10699SOL     OW32995   3.891   4.812   1.632
10699SOL    HW132996   3.934   4.886   1.684
10699SOL    HW232997   3.961   4.760   1.583
10700SOL     OW32998   5.745   6.341   0.839
10700SOL    HW132999   5.797   6.382   0.764
10700SOL    HW233000   5.724   6.411   0.908
10701SOL     OW33001   2.764   0.186   5.863
10701SOL    HW133002   2.827   0.169   5.788
10701SOL    HW233003   2.816   0.197   5.948
10702SOL     OW33004   5.236   3.352   2.225
10702SOL    HW133005   5.295   3.280   2.188
10702SOL    HW233006   5.228   3.426   2.157
10703SOL     OW33007   2.363   2.459   5.822
10703SOL    HW133008   2.375   2.550   5.783
10703SOL    HW233009   2.450   2.412   5.825
10704SOL     OW33010   6.896   5.174   2.268
10704SOL    HW133011   6.955   5.213   2.197
10704SOL    HW233012   6.927   5.081   2.290
10705SOL     OW33013   6.120   5.299   1.656
10705SOL    HW133014   6.058   5.272   1.582
10705SOL    HW233015   6.145   5.218   1.710
10706SOL     OW33016   3.977   0.019   2.381
10706SOL    HW133017   3.889   0.041   2.423
10706SOL    HW233018   4.003   0.092   2.318
10707SOL     OW33019   0.665   6.562   3.872
10707SOL    HW133020   0.673   6.609   3.784
10707SOL    HW233021   0.636   6.628   3.942
10708SOL     OW33022   3.793   1.441   1.566
10708SOL    HW133023   3.705   1.451   1.613
10708SOL    HW233024   3.780   1.454   1.468
10709SOL     OW33025   5.375   5.098   4.683
10709SOL    HW133026   5.462   5.051   4.698
10709SOL    HW233027   5.374   5.136   4.590
10710SOL     OW33028   6.590   1.139   3.899
10710SOL    HW133029   6.618   1.043   3.901
10710SOL    HW233030   6.608   1.181   3.988
10711SOL     OW33031   1.932   6.845   4.008
10711SOL    HW133032   1.864   6.872   4.077
10711SOL    HW233033   1.891   6.854   3.917
10712SOL     OW33034   3.213   1.023   2.025
10712SOL    HW133035   3.155   1.051   2.102
10712SOL    HW233036   3.290   1.086   2.017
10713SOL     OW33037   0.574   3.519   0.722
10713SOL    HW133038   0.673   3.507   0.715
10713SOL    HW233039   0.536   3.533   0.631
10714SOL     OW33040   4.917   4.089   5.868
10714SOL    HW133041   4.881   3.996   5.870
10714SOL    HW233042   5.016   4.086   5.887
10715SOL     OW33043   4.621   0.457   2.265
10715SOL    HW133044   4.617   0.360   2.287
10715SOL    HW233045   4.572   0.509   2.335
10716SOL     OW33046   5.579   2.595   3.783
10716SOL    HW133047   5.606   2.514   3.836
10716SOL    HW233048   5.542   2.664   3.844
10717SOL     OW33049   1.688   2.532   1.020
10717SOL    HW133050   1.593   2.540   1.051
10717SOL    HW233051   1.703   2.592   0.942
10718SOL     OW33052   0.851   4.049   0.097
10718SOL    HW133053   0.941   4.057   0.053
10718SOL    HW233054   0.779   4.057   0.027
10719SOL     OW33055   0.196   6.066   2.813
10719SOL    HW133056   0.294   6.085   2.812
10719SOL    HW233057   0.145   6.150   2.795
10720SOL     OW33058   6.737   4.456   5.030
10720SOL    HW133059   6.696   4.417   5.113
10720SOL    HW233060   6.682   4.534   4.999
10721SOL     OW33061   5.117   3.555   5.354
10721SOL    HW133062   5.117   3.498   5.436
10721SOL    HW233063   5.030   3.604   5.346
10722SOL     OW33064   1.512   5.340   0.124
10722SOL    HW133065   1.575   5.412   0.149
10722SOL    HW233066   1.434   5.379   0.075
10723SOL     OW33067   0.171   2.755   6.598
10723SOL    HW133068   0.203   2.760   6.503
10723SOL    HW233069   0.192   2.665   6.635
10724SOL     OW33070   6.008   0.704   6.321
10724SOL    HW133071   6.048   0.789   6.356
10724SOL    HW233072   5.931   0.726   6.261
10725SOL     OW33073   1.511   5.646   5.106
10725SOL    HW133074   1.514   5.743   5.079
10725SOL    HW233075   1.429   5.629   5.160
10726SOL     OW33076   5.765   0.187   4.368
10726SOL    HW133077   5.766   0.118   4.441
10726SOL    HW233078   5.755   0.278   4.409
10727SOL     OW33079   0.380   5.556   5.700
10727SOL    HW133080   0.397   5.515   5.610
10727SOL    HW233081   0.283   5.575   5.710
10728SOL     OW33082   1.549   6.133   6.797
10728SOL    HW133083   1.535   6.055   6.736
10728SOL    HW233084   1.460   6.165   6.832
10729SOL     OW33085   4.621   1.524   2.459
10729SOL    HW133086   4.698   1.467   2.429
10729SOL    HW233087   4.621   1.609   2.406
10730SOL     OW33088   1.776   0.695   1.128
10730SOL    HW133089   1.829   0.742   1.058
10730SOL    HW233090   1.752   0.758   1.201
10731SOL     OW33091   3.505   0.846   0.709
10731SOL    HW133092   3.525   0.754   0.674
10731SOL    HW233093   3.432   0.887   0.654
10732SOL     OW33094   6.462   4.709   4.733
10732SOL    HW133095   6.411   4.655   4.667
10732SOL    HW233096   6.541   4.751   4.687
10733SOL     OW33097   6.791   1.621   0.503
10733SOL    HW133098   6.883   1.587   0.485
10733SOL    HW233099   6.758   1.671   0.423
10734SOL     OW33100   1.045   0.676   0.172
10734SOL    HW133101   0.963   0.657   0.118
10734SOL    HW233102   1.120   0.617   0.141
10735SOL     OW33103   0.342   2.672   2.769
10735SOL    HW133104   0.392   2.709   2.690
10735SOL    HW233105   0.354   2.573   2.773
10736SOL     OW33106   0.839   0.764   3.572
10736SOL    HW133107   0.850   0.818   3.655
10736SOL    HW233108   0.910   0.693   3.569
10737SOL     OW33109   1.148   1.703   0.771
10737SOL    HW133110   1.210   1.647   0.716
10737SOL    HW233111   1.053   1.675   0.753
10738SOL     OW33112   2.391   0.861   2.734
10738SOL    HW133113   2.333   0.783   2.712
10738SOL    HW233114   2.429   0.850   2.826
10739SOL     OW33115   1.378   1.416   1.132
10739SOL    HW133116   1.300   1.423   1.071
10739SOL    HW233117   1.348   1.379   1.220
10740SOL     OW33118   0.147   4.949   5.060
10740SOL    HW133119   0.082   4.876   5.038
10740SOL    HW233120   0.102   5.019   5.115
10741SOL     OW33121   5.092   0.406   1.172
10741SOL    HW133122   5.006   0.444   1.204
10741SOL    HW233123   5.126   0.459   1.094
10742SOL     OW33124   5.832   0.115   1.060
10742SOL    HW133125   5.922   0.113   1.016
10742SOL    HW233126   5.769   0.169   1.004
10743SOL     OW33127   2.203   1.485   5.361
10743SOL    HW133128   2.292   1.491   5.317
10743SOL    HW233129   2.136   1.447   5.297
10744SOL     OW33130   3.664   1.468   1.062
10744SOL    HW133131   3.661   1.383   1.011
10744SOL    HW233132   3.697   1.541   1.002
10745SOL     OW33133   0.341   6.044   6.541
10745SOL    HW133134   0.337   6.122   6.604
10745SOL    HW233135   0.322   5.960   6.591
10746SOL     OW33136   2.507   5.205   1.687
10746SOL    HW133137   2.592   5.177   1.641
10746SOL    HW233138   2.511   5.178   1.784
10747SOL     OW33139   4.069   1.184   4.207
10747SOL    HW133140   3.987   1.181   4.150
10747SOL    HW233141   4.049   1.235   4.291
10748SOL     OW33142   5.498   1.026   0.818
10748SOL    HW133143   5.596   1.009   0.804
10748SOL    HW233144   5.448   1.002   0.734
10749SOL     OW33145   0.197   5.519   3.224
10749SOL    HW133146   0.225   5.528   3.128
10749SOL    HW233147   0.257   5.452   3.269
10750SOL     OW33148   4.109   6.065   4.096
10750SOL    HW133149   4.125   5.973   4.133
10750SOL    HW233150   4.129   6.065   3.998
10751SOL     OW33151   1.949   5.122   4.574
10751SOL    HW133152   1.887   5.081   4.641
10751SOL    HW233153   2.024   5.167   4.621
10752SOL     OW33154   6.150   4.195   5.898
10752SOL    HW133155   6.153   4.133   5.820
10752SOL    HW233156   6.200   4.155   5.975
10753SOL     OW33157   4.740   4.957   4.659
10753SOL    HW133158   4.779   4.982   4.748
10753SOL    HW233159   4.720   4.859   4.658
10754SOL     OW33160   0.580   0.730   3.164
10754SOL    HW133161   0.673   0.753   3.191
10754SOL    HW233162   0.544   0.801   3.103
10755SOL     OW33163   0.195   0.995   0.454
10755SOL    HW133164   0.148   1.072   0.411
10755SOL    HW233165   0.127   0.931   0.490
10756SOL     OW33166   6.273   4.895   6.722
10756SOL    HW133167   6.259   4.873   6.818
10756SOL    HW233168   6.248   4.816   6.665
10757SOL     OW33169   1.852   3.017   6.890
10757SOL    HW133170   1.848   3.073   6.973
10757SOL    HW233171   1.923   3.052   6.829
10758SOL     OW33172   1.028   6.352   4.117
10758SOL    HW133173   1.110   6.297   4.127
10758SOL    HW233174   0.996   6.383   4.207
10759SOL     OW33175   1.995   2.706   1.210
10759SOL    HW133176   1.946   2.782   1.252
10759SOL    HW233177   2.009   2.634   1.278
10760SOL     OW33178   5.634   0.399   2.533
10760SOL    HW133179   5.543   0.414   2.496
10760SOL    HW233180   5.641   0.305   2.567
10761SOL     OW33181   0.903   6.473   6.013
10761SOL    HW133182   0.884   6.462   5.915
10761SOL    HW233183   1.001   6.463   6.029
10762SOL     OW33184   3.275   2.125   4.170
10762SOL    HW133185   3.237   2.060   4.104
10762SOL    HW233186   3.372   2.106   4.182
10763SOL     OW33187   5.050   6.921   2.921
10763SOL    HW133188   5.140   6.878   2.915
10763SOL    HW233189   5.012   6.906   3.012
10764SOL     OW33190   4.688   2.599   6.159
10764SOL    HW133191   4.627   2.577   6.082
10764SOL    HW233192   4.783   2.600   6.127
10765SOL     OW33193   4.844   2.381   0.845
10765SOL    HW133194   4.762   2.425   0.881
10765SOL    HW233195   4.891   2.443   0.783
10766SOL     OW33196   5.385   4.377   0.599
10766SOL    HW133197   5.389   4.297   0.540
10766SOL    HW233198   5.302   4.374   0.654
10767SOL     OW33199   2.102   0.159   0.396
10767SOL    HW133200   2.121   0.191   0.488
10767SOL    HW233201   2.175   0.097   0.366
10768SOL     OW33202   4.854   5.464   1.435
10768SOL    HW133203   4.906   5.380   1.448
10768SOL    HW233204   4.760   5.452   1.468
10769SOL     OW33205   2.431   4.246   5.247
10769SOL    HW133206   2.423   4.147   5.243
10769SOL    HW233207   2.431   4.284   5.154
10770SOL     OW33208   5.362   6.954   4.885
10770SOL    HW133209   5.440   6.919   4.834
10770SOL    HW233210   5.319   0.006   4.833
10771SOL     OW33211   5.534   6.718   3.473
10771SOL    HW133212   5.525   6.815   3.448
10771SOL    HW233213   5.613   6.706   3.532
10772SOL     OW33214   6.126   0.135   3.963
10772SOL    HW133215   6.174   0.147   4.050
10772SOL    HW233216   6.185   0.167   3.889
10773SOL     OW33217   5.934   5.313   5.929
10773SOL    HW133218   5.840   5.348   5.933
10773SOL    HW233219   5.991   5.365   5.994
10774SOL     OW33220   2.359   1.595   5.983
10774SOL    HW133221   2.403   1.680   6.013
10774SOL    HW233222   2.310   1.611   5.897
10775SOL     OW33223   0.586   4.517   2.004
10775SOL    HW133224   0.609   4.503   2.100
10775SOL    HW233225   0.516   4.588   1.997
10776SOL     OW33226   0.465   0.992   6.712
10776SOL    HW133227   0.462   0.897   6.743
10776SOL    HW233228   0.559   1.026   6.715
10777SOL     OW33229   4.284   5.515   1.849
10777SOL    HW133230   4.242   5.435   1.806
10777SOL    HW233231   4.355   5.552   1.789
10778SOL     OW33232   5.103   0.050   4.186
10778SOL    HW133233   5.185   0.071   4.133
10778SOL    HW233234   5.023   0.058   4.127
10779SOL     OW33235   6.492   3.328   3.356
10779SOL    HW133236   6.446   3.415   3.337
10779SOL    HW233237   6.591   3.341   3.354
10780SOL     OW33238   1.900   0.615   3.733
10780SOL    HW133239   1.823   0.568   3.690
10780SOL    HW233240   1.896   0.602   3.832
10781SOL     OW33241   4.401   1.031   4.032
10781SOL    HW133242   4.414   0.933   4.020
10781SOL    HW233243   4.423   1.079   3.946
10782SOL     OW33244   0.059   1.414   2.557
10782SOL    HW133245   0.159   1.411   2.555
10782SOL    HW233246   0.030   1.499   2.601
10783SOL     OW33247   0.662   2.416   2.478
10783SOL    HW133248   0.660   2.468   2.564
10783SOL    HW233249   0.569   2.397   2.448
10784SOL     OW33250   3.751   6.846   4.332
10784SOL    HW133251   3.812   6.924   4.313
10784SOL    HW233252   3.739   6.793   4.248
10785SOL     OW33253   6.838   4.791   0.396
10785SOL    HW133254   6.755   4.810   0.344
10785SOL    HW233255   6.816   4.732   0.473
10786SOL     OW33256   6.058   4.716   3.236
10786SOL    HW133257   5.991   4.648   3.268
10786SOL    HW233258   6.052   4.798   3.293
10787SOL     OW33259   1.914   1.496   5.630
10787SOL    HW133260   1.932   1.503   5.531
10787SOL    HW233261   1.819   1.472   5.645
10788SOL     OW33262   1.894   4.623   6.556
10788SOL    HW133263   1.894   4.601   6.654
10788SOL    HW233264   1.986   4.614   6.520
10789SOL     OW33265   6.369   2.858   6.509
10789SOL    HW133266   6.311   2.798   6.564
10789SOL    HW233267   6.453   2.809   6.484
10790SOL     OW33268   0.393   0.328   1.748
10790SOL    HW133269   0.447   0.400   1.791
10790SOL    HW233270   0.353   0.362   1.663
10791SOL     OW33271   6.788   6.618   1.399
10791SOL    HW133272   6.742   6.704   1.421
10791SOL    HW233273   6.834   6.583   1.481
10792SOL     OW33274   3.469   2.955   4.902
10792SOL    HW133275   3.406   2.936   4.977
10792SOL    HW233276   3.563   2.951   4.936
10793SOL     OW33277   5.915   3.061   5.379
10793SOL    HW133278   5.832   3.069   5.325
10793SOL    HW233279   5.938   2.965   5.394
10794SOL     OW33280   3.917   3.051   4.183
10794SOL    HW133281   3.944   3.072   4.277
10794SOL    HW233282   3.834   2.995   4.183
10795SOL     OW33283   0.214   5.046   2.425
10795SOL    HW133284   0.125   5.001   2.412
10795SOL    HW233285   0.274   5.022   2.349
10796SOL     OW33286   6.344   6.823   5.869
10796SOL    HW133287   6.409   6.874   5.925
10796SOL    HW233288   6.305   6.883   5.799
10797SOL     OW33289   3.286   2.524   1.434
10797SOL    HW133290   3.255   2.453   1.497
10797SOL    HW233291   3.292   2.487   1.341
10798SOL     OW33292   2.700   0.725   0.277
10798SOL    HW133293   2.730   0.646   0.330
10798SOL    HW233294   2.768   0.798   0.286
10799SOL     OW33295   3.962   1.473   2.487
10799SOL    HW133296   4.039   1.426   2.443
10799SOL    HW233297   3.989   1.567   2.509
10800SOL     OW33298   0.355   6.499   5.714
10800SOL    HW133299   0.348   6.414   5.661
10800SOL    HW233300   0.291   6.495   5.791
10801SOL     OW33301   1.405   6.918   0.065
10801SOL    HW133302   1.415   6.892   6.991
10801SOL    HW233303   1.362   7.008   0.070
10802SOL     OW33304   0.417   0.343   2.193
10802SOL    HW133305   0.460   0.399   2.264
10802SOL    HW233306   0.321   0.369   2.183
10803SOL     OW33307   2.071   5.469   5.958
10803SOL    HW133308   1.996   5.487   5.893
10803SOL    HW233309   2.124   5.391   5.925
10804SOL     OW33310   5.806   2.996   2.531
10804SOL    HW133311   5.799   2.904   2.493
10804SOL    HW233312   5.903   3.019   2.545
10805SOL     OW33313   4.710   6.963   5.490
10805SOL    HW133314   4.782   6.895   5.474
10805SOL    HW233315   4.650   6.967   5.410
10806SOL     OW33316   3.740   4.249   6.128
10806SOL    HW133317   3.800   4.320   6.090
10806SOL    HW233318   3.703   4.193   6.053
10807SOL     OW33319   1.972   0.162   3.425
10807SOL    HW133320   1.895   0.141   3.364
10807SOL    HW233321   1.942   0.151   3.520
10808SOL     OW33322   0.258   3.257   6.149
10808SOL    HW133323   0.192   3.182   6.141
10808SOL    HW233324   0.338   3.236   6.093
10809SOL     OW33325   2.342   4.229   3.788
10809SOL    HW133326   2.351   4.130   3.798
10809SOL    HW233327   2.310   4.250   3.696
10810SOL     OW33328   0.481   0.696   3.879
10810SOL    HW133329   0.401   0.664   3.830
10810SOL    HW233330   0.562   0.645   3.848
10811SOL     OW33331   4.405   4.853   5.771
10811SOL    HW133332   4.316   4.898   5.777
10811SOL    HW233333   4.475   4.913   5.809
10812SOL     OW33334   7.007   3.992   0.682
10812SOL    HW133335   0.012   3.916   0.740
10812SOL    HW233336   6.938   4.047   0.729
10813SOL     OW33337   0.679   3.876   5.955
10813SOL    HW133338   0.608   3.882   5.886
10813SOL    HW233339   0.726   3.788   5.947
10814SOL     OW33340   1.779   0.162   6.353
10814SOL    HW133341   1.806   0.174   6.449
10814SOL    HW233342   1.750   0.068   6.338
10815SOL     OW33343   4.882   3.319   3.159
10815SOL    HW133344   4.834   3.238   3.193
10815SOL    HW233345   4.981   3.303   3.161
10816SOL     OW33346   3.213   3.382   2.267
10816SOL    HW133347   3.222   3.432   2.181
10816SOL    HW233348   3.136   3.418   2.319
10817SOL     OW33349   3.801   0.789   3.523
10817SOL    HW133350   3.891   0.816   3.560
10817SOL    HW233351   3.754   0.730   3.588
10818SOL     OW33352   5.044   4.239   5.449
10818SOL    HW133353   5.074   4.326   5.487
10818SOL    HW233354   4.946   4.227   5.467
10819SOL     OW33355   5.987   4.897   6.246
10819SOL    HW133356   5.999   4.798   6.249
10819SOL    HW233357   5.913   4.920   6.183
10820SOL     OW33358   0.532   5.297   4.315
10820SOL    HW133359   0.462   5.336   4.375
10820SOL    HW233360   0.608   5.263   4.369
10821SOL     OW33361   4.320   6.771   3.374
10821SOL    HW133362   4.372   6.852   3.347
10821SOL    HW233363   4.317   6.764   3.474
10822SOL     OW33364   6.036   1.908   2.693
10822SOL    HW133365   6.129   1.889   2.660
10822SOL    HW233366   5.978   1.828   2.677
10823SOL     OW33367   1.210   0.740   2.165
10823SOL    HW133368   1.310   0.739   2.172
10823SOL    HW233369   1.182   0.682   2.089
10824SOL     OW33370   0.374   0.589   2.532
10824SOL    HW133371   0.439   0.600   2.457
10824SOL    HW233372   0.419   0.612   2.618
10825SOL     OW33373   2.466   2.234   7.016
10825SOL    HW133374   2.524   2.308   0.027
10825SOL    HW233375   2.511   2.146   0.009
10826SOL     OW33376   1.233   1.668   3.117
10826SOL    HW133377   1.263   1.581   3.077
10826SOL    HW233378   1.225   1.737   3.044
10827SOL     OW33379   0.328   3.490   5.103
10827SOL    HW133380   0.314   3.448   5.014
10827SOL    HW233381   0.251   3.469   5.163
10828SOL     OW33382   1.777   4.660   0.499
10828SOL    HW133383   1.848   4.730   0.512
10828SOL    HW233384   1.729   4.645   0.585
10829SOL     OW33385   4.967   2.369   0.427
10829SOL    HW133386   4.893   2.436   0.438
10829SOL    HW233387   5.055   2.417   0.425
10830SOL     OW33388   4.359   1.723   2.966
10830SOL    HW133389   4.325   1.794   2.904
10830SOL    HW233390   4.383   1.764   3.054
10831SOL     OW33391   3.019   6.533   2.421
10831SOL    HW133392   3.009   6.629   2.448
10831SOL    HW233393   3.070   6.528   2.335
10832SOL     OW33394   0.072   3.832   6.370
10832SOL    HW133395   0.028   3.905   6.318
10832SOL    HW233396   0.026   3.745   6.352
10833SOL     OW33397   0.387   1.452   1.504
10833SOL    HW133398   0.361   1.356   1.521
10833SOL    HW233399   0.320   1.512   1.547
10834SOL     OW33400   6.091   1.430   0.474
10834SOL    HW133401   6.186   1.456   0.458
10834SOL    HW233402   6.087   1.335   0.504
10835SOL     OW33403   6.136   2.700   0.243
10835SOL    HW133404   6.039   2.676   0.235
10835SOL    HW233405   6.192   2.630   0.198
10836SOL     OW33406   0.193   2.279   3.734
10836SOL    HW133407   0.188   2.245   3.640
10836SOL    HW233408   0.247   2.215   3.790
10837SOL     OW33409   6.826   5.067   1.413
10837SOL    HW133410   6.897   5.025   1.470
10837SOL    HW233411   6.822   5.165   1.430
10838SOL     OW33412   6.488   6.473   3.821
10838SOL    HW133413   6.522   6.530   3.747
10838SOL    HW233414   6.562   6.414   3.855
10839SOL     OW33415   4.247   3.515   0.919
10839SOL    HW133416   4.235   3.429   0.968
10839SOL    HW233417   4.288   3.497   0.829
10840SOL     OW33418   3.208   6.196   2.296
10840SOL    HW133419   3.202   6.218   2.199
10840SOL    HW233420   3.237   6.100   2.307
10841SOL     OW33421   6.128   4.546   5.221
10841SOL    HW133422   6.225   4.533   5.198
10841SOL    HW233423   6.071   4.504   5.151
10842SOL     OW33424   4.730   2.619   1.245
10842SOL    HW133425   4.772   2.696   1.198
10842SOL    HW233426   4.641   2.646   1.280
10843SOL     OW33427   1.284   1.373   1.377
10843SOL    HW133428   1.199   1.326   1.399
10843SOL    HW233429   1.335   1.390   1.462
10844SOL     OW33430   0.528   5.594   3.030
10844SOL    HW133431   0.620   5.587   3.069
10844SOL    HW233432   0.513   5.520   2.965
10845SOL     OW33433   3.973   6.289   5.597
10845SOL    HW133434   3.889   6.325   5.557
10845SOL    HW233435   3.957   6.197   5.632
10846SOL     OW33436   5.205   0.169   6.385
10846SOL    HW133437   5.151   0.094   6.421
10846SOL    HW233438   5.215   0.240   6.455
10847SOL     OW33439   3.293   2.390   0.328
10847SOL    HW133440   3.194   2.389   0.343
10847SOL    HW233441   3.312   2.425   0.236
10848SOL     OW33442   1.400   4.322   0.814
10848SOL    HW133443   1.326   4.327   0.746
10848SOL    HW233444   1.457   4.242   0.795
10849SOL     OW33445   2.810   4.696   4.017
10849SOL    HW133446   2.714   4.675   3.997
10849SOL    HW233447   2.869   4.626   3.977
10850SOL     OW33448   3.703   6.321   5.933
10850SOL    HW133449   3.724   6.331   6.031
10850SOL    HW233450   3.603   6.315   5.921
10851SOL     OW33451   3.295   3.443   0.435
10851SOL    HW133452   3.198   3.421   0.422
10851SOL    HW233453   3.344   3.361   0.463
10852SOL     OW33454   1.704   0.807   6.429
10852SOL    HW133455   1.767   0.789   6.504
10852SOL    HW233456   1.649   0.888   6.449
10853SOL     OW33457   1.898   3.019   5.589
10853SOL    HW133458   1.894   2.990   5.685
10853SOL    HW233459   1.851   3.106   5.579
10854SOL     OW33460   4.324   5.336   5.585
10854SOL    HW133461   4.420   5.315   5.565
10854SOL    HW233462   4.313   5.435   5.594
10855SOL     OW33463   4.334   0.478   0.347
10855SOL    HW133464   4.362   0.571   0.372
10855SOL    HW233465   4.413   0.428   0.311
10856SOL     OW33466   5.641   1.335   0.848
10856SOL    HW133467   5.568   1.283   0.891
10856SOL    HW233468   5.637   1.430   0.879
10857SOL     OW33469   1.021   2.206   2.499
10857SOL    HW133470   1.024   2.267   2.578
10857SOL    HW233471   1.110   2.209   2.452
10858SOL     OW33472   0.823   0.989   0.911
10858SOL    HW133473   0.733   0.949   0.894
10858SOL    HW233474   0.813   1.085   0.937
10859SOL     OW33475   1.402   4.722   4.138
10859SOL    HW133476   1.442   4.813   4.134
10859SOL    HW233477   1.375   4.701   4.232
10860SOL     OW33478   0.641   3.162   5.141
10860SOL    HW133479   0.694   3.227   5.087
10860SOL    HW233480   0.609   3.088   5.081
10861SOL     OW33481   3.394   3.678   3.284
10861SOL    HW133482   3.308   3.679   3.233
10861SOL    HW233483   3.448   3.598   3.259
10862SOL     OW33484   1.531   0.934   5.959
10862SOL    HW133485   1.516   0.836   5.969
10862SOL    HW233486   1.624   0.957   5.988
10863SOL     OW33487   2.264   0.860   3.849
10863SOL    HW133488   2.272   0.783   3.912
10863SOL    HW233489   2.243   0.826   3.757
10864SOL     OW33490   2.854   6.132   0.152
10864SOL    HW133491   2.816   6.082   0.230
10864SOL    HW233492   2.936   6.181   0.180
10865SOL     OW33493   6.581   1.353   0.894
10865SOL    HW133494   6.510   1.283   0.902
10865SOL    HW233495   6.669   1.309   0.876
10866SOL     OW33496   5.174   4.008   0.645
10866SOL    HW133497   5.147   3.920   0.684
10866SOL    HW233498   5.105   4.077   0.667
10867SOL     OW33499   2.891   3.988   0.964
10867SOL    HW133500   2.988   3.981   0.988
10867SOL    HW233501   2.860   3.901   0.926
10868SOL     OW33502   4.975   1.638   3.870
10868SOL    HW133503   4.933   1.631   3.960
10868SOL    HW233504   5.027   1.555   3.851
10869NA      NA33505   6.572   2.853   5.091
10870NA      NA33506   4.479   4.530   5.209
10871NA      NA33507   1.508   2.878   1.664
10872NA      NA33508   4.873   3.875   5.076
10873NA      NA33509   4.365   2.542   5.311
10874NA      NA33510   3.700   4.715   1.680
10875NA      NA33511   6.514   4.989   6.699
10876NA      NA33512   3.404   3.385   4.611
10877NA      NA33513   4.782   5.796   0.014
10878NA      NA33514   4.154   6.472   5.060
10879NA      NA33515   6.173   5.229   2.189
10880NA      NA33516   2.204   6.909   3.705
10881NA      NA33517   4.240   5.606   2.083
10882NA      NA33518   3.583   4.070   2.065
   7.02218   7.02218   7.02218
