Generated by trjconv : CNT in water t= 529.00000
33518
    1C        C    1   2.840   2.767   4.746
    1C        C    2   2.896   2.717   4.865
    1C        C    3   2.847   2.777   4.982
    1C        C    4   2.848   2.772   4.260
    1C        C    5   2.899   2.724   4.383
    1C        C    6   2.845   2.770   4.505
    1C        C    7   3.010   2.634   4.625
    1C        C    8   2.895   2.717   4.626
    1C        C    9   3.072   2.596   4.746
    1C        C   10   3.009   2.633   4.867
    1C        C   11   3.177   2.488   4.975
    1C        C   12   3.061   2.566   4.979
    1C        C   13   2.852   2.773   3.773
    1C        C   14   2.902   2.723   3.895
    1C        C   15   2.856   2.777   4.017
    1C        C   16   3.016   2.638   4.139
    1C        C   17   2.905   2.726   4.139
    1C        C   18   3.079   2.606   4.262
    1C        C   19   3.015   2.644   4.382
    1C        C   20   3.203   2.547   4.503
    1C        C   21   3.073   2.601   4.503
    1C        C   22   3.273   2.531   4.624
    1C        C   23   3.203   2.540   4.746
    1C        C   24   3.410   2.476   4.861
    1C        C   25   3.268   2.496   4.865
    1C        C   26   3.487   2.471   4.978
    1C        C   27   2.848   2.764   3.283
    1C        C   28   2.902   2.720   3.406
    1C        C   29   2.850   2.768   3.529
    1C        C   30   3.015   2.635   3.650
    1C        C   31   2.907   2.726   3.651
    1C        C   32   3.072   2.594   3.773
    1C        C   33   3.012   2.633   3.895
    1C        C   34   3.207   2.549   4.017
    1C        C   35   3.075   2.601   4.017
    1C        C   36   3.276   2.528   4.138
    1C        C   37   3.209   2.550   4.260
    1C        C   38   3.414   2.504   4.383
    1C        C   39   3.274   2.525   4.383
    1C        C   40   3.485   2.497   4.504
    1C        C   41   3.412   2.503   4.625
    1C        C   42   3.629   2.484   4.743
    1C        C   43   3.487   2.479   4.742
    1C        C   44   3.701   2.493   4.864
    1C        C   45   3.626   2.478   4.981
    1C        C   46   2.836   2.754   2.793
    1C        C   47   2.894   2.710   2.914
    1C        C   48   2.849   2.762   3.037
    1C        C   49   3.015   2.636   3.160
    1C        C   50   2.900   2.718   3.160
    1C        C   51   3.076   2.600   3.283
    1C        C   52   3.015   2.636   3.405
    1C        C   53   3.204   2.540   3.526
    1C        C   54   3.075   2.599   3.528
    1C        C   55   3.272   2.519   3.648
    1C        C   56   3.204   2.543   3.769
    1C        C   57   3.410   2.505   3.894
    1C        C   58   3.271   2.530   3.892
    1C        C   59   3.481   2.498   4.016
    1C        C   60   3.415   2.501   4.140
    1C        C   61   3.627   2.501   4.257
    1C        C   62   3.486   2.497   4.262
    1C        C   63   3.698   2.508   4.379
    1C        C   64   3.626   2.501   4.500
    1C        C   65   3.833   2.547   4.620
    1C        C   66   3.698   2.506   4.622
    1C        C   67   3.905   2.566   4.740
    1C        C   68   3.837   2.531   4.859
    1C        C   69   4.047   2.584   4.974
    1C        C   70   3.919   2.526   4.973
    1C        C   71   2.828   2.737   2.308
    1C        C   72   2.882   2.689   2.429
    1C        C   73   2.832   2.745   2.549
    1C        C   74   3.005   2.625   2.671
    1C        C   75   2.889   2.704   2.671
    1C        C   76   3.070   2.588   2.792
    1C        C   77   3.010   2.629   2.913
    1C        C   78   3.200   2.541   3.036
    1C        C   79   3.069   2.595   3.036
    1C        C   80   3.270   2.523   3.158
    1C        C   81   3.206   2.544   3.282
    1C        C   82   3.411   2.496   3.400
    1C        C   83   3.272   2.518   3.404
    1C        C   84   3.480   2.493   3.524
    1C        C   85   3.412   2.499   3.647
    1C        C   86   3.621   2.502   3.768
    1C        C   87   3.480   2.499   3.771
    1C        C   88   3.692   2.513   3.890
    1C        C   89   3.623   2.500   4.012
    1C        C   90   3.831   2.551   4.135
    1C        C   91   3.695   2.512   4.133
    1C        C   92   3.900   2.577   4.256
    1C        C   93   3.834   2.548   4.377
    1C        C   94   4.025   2.642   4.497
    1C        C   95   3.900   2.576   4.499
    1C        C   96   4.089   2.675   4.618
    1C        C   97   4.032   2.630   4.739
    1C        C   98   4.186   2.768   4.863
    1C        C   99   4.101   2.654   4.861
    1C        C  100   4.207   2.844   4.979
    1C        C  101   2.820   2.727   2.068
    1C        C  102   2.984   2.586   2.191
    1C        C  103   2.873   2.677   2.187
    1C        C  104   3.065   2.575   2.307
    1C        C  105   3.001   2.613   2.427
    1C        C  106   3.197   2.535   2.550
    1C        C  107   3.066   2.587   2.550
    1C        C  108   3.270   2.519   2.670
    1C        C  109   3.201   2.535   2.792
    1C        C  110   3.408   2.493   2.913
    1C        C  111   3.268   2.517   2.915
    1C        C  112   3.479   2.485   3.035
    1C        C  113   3.409   2.498   3.157
    1C        C  114   3.623   2.494   3.279
    1C        C  115   3.481   2.491   3.278
    1C        C  116   3.691   2.510   3.401
    1C        C  117   3.621   2.503   3.524
    1C        C  118   3.829   2.543   3.649
    1C        C  119   3.692   2.509   3.646
    1C        C  120   3.894   2.576   3.770
    1C        C  121   3.829   2.550   3.892
    1C        C  122   4.022   2.641   4.011
    1C        C  123   3.896   2.578   4.013
    1C        C  124   4.086   2.673   4.133
    1C        C  125   4.027   2.638   4.256
    1C        C  126   4.199   2.767   4.374
    1C        C  127   4.086   2.683   4.376
    1C        C  128   4.249   2.815   4.497
    1C        C  129   4.197   2.766   4.619
    1C        C  130   4.321   2.937   4.741
    1C        C  131   4.240   2.819   4.742
    1C        C  132   4.357   3.002   4.861
    1C        C  133   4.286   2.958   4.974
    1C        C  134   3.169   2.466   2.082
    1C        C  135   3.035   2.506   2.084
    1C        C  136   3.260   2.478   2.188
    1C        C  137   3.196   2.520   2.307
    1C        C  138   3.404   2.481   2.426
    1C        C  139   3.265   2.506   2.429
    1C        C  140   3.480   2.481   2.546
    1C        C  141   3.409   2.494   2.667
    1C        C  142   3.619   2.495   2.791
    1C        C  143   3.478   2.490   2.791
    1C        C  144   3.692   2.503   2.912
    1C        C  145   3.620   2.497   3.033
    1C        C  146   3.827   2.539   3.158
    1C        C  147   3.691   2.502   3.155
    1C        C  148   3.893   2.568   3.280
    1C        C  149   3.827   2.547   3.404
    1C        C  150   4.020   2.632   3.523
    1C        C  151   3.895   2.565   3.526
    1C        C  152   4.083   2.671   3.643
    1C        C  153   4.020   2.641   3.766
    1C        C  154   4.195   2.763   3.888
    1C        C  155   4.080   2.680   3.888
    1C        C  156   4.245   2.813   4.010
    1C        C  157   4.197   2.761   4.132
    1C        C  158   4.348   2.916   4.253
    1C        C  159   4.256   2.809   4.251
    1C        C  160   4.381   2.980   4.375
    1C        C  161   4.335   2.927   4.497
    1C        C  162   4.433   3.117   4.616
    1C        C  163   4.364   2.993   4.619
    1C        C  164   4.462   3.185   4.736
    1C        C  165   4.429   3.124   4.859
    1C        C  166   4.512   3.321   4.973
    1C        C  167   4.478   3.186   4.975
    1C        C  168   3.476   2.441   2.070
    1C        C  169   3.399   2.455   2.186
    1C        C  170   3.617   2.466   2.305
    1C        C  171   3.475   2.465   2.305
    1C        C  172   3.691   2.492   2.423
    1C        C  173   3.621   2.491   2.545
    1C        C  174   3.825   2.543   2.665
    1C        C  175   3.689   2.505   2.668
    1C        C  176   3.891   2.565   2.788
    1C        C  177   3.828   2.540   2.912
    1C        C  178   4.019   2.626   3.032
    1C        C  179   3.893   2.564   3.036
    1C        C  180   4.079   2.666   3.154
    1C        C  181   4.018   2.633   3.277
    1C        C  182   4.195   2.748   3.398
    1C        C  183   4.080   2.666   3.400
    1C        C  184   4.249   2.798   3.519
    1C        C  185   4.199   2.751   3.643
    1C        C  186   4.339   2.913   3.763
    1C        C  187   4.250   2.803   3.764
    1C        C  188   4.379   2.975   3.884
    1C        C  189   4.336   2.921   4.007
    1C        C  190   4.439   3.104   4.127
    1C        C  191   4.380   2.976   4.129
    1C        C  192   4.465   3.172   4.248
    1C        C  193   4.435   3.110   4.371
    1C        C  194   4.495   3.316   4.490
    1C        C  195   4.459   3.179   4.492
    1C        C  196   4.513   3.389   4.610
    1C        C  197   4.502   3.321   4.733
    1C        C  198   4.548   3.534   4.849
    1C        C  199   4.527   3.392   4.853
    1C        C  200   4.575   3.619   4.961
    1C        C  201   3.615   2.422   2.070
    1C        C  202   3.825   2.515   2.181
    1C        C  203   3.692   2.462   2.184
    1C        C  204   3.899   2.540   2.300
    1C        C  205   3.829   2.523   2.422
    1C        C  206   4.022   2.616   2.544
    1C        C  207   3.894   2.556   2.543
    1C        C  208   4.082   2.656   2.665
    1C        C  209   4.019   2.625   2.788
    1C        C  210   4.195   2.745   2.909
    1C        C  211   4.081   2.661   2.910
    1C        C  212   4.246   2.794   3.030
    1C        C  213   4.192   2.751   3.153
    1C        C  214   4.332   2.909   3.274
    1C        C  215   4.245   2.798   3.276
    1C        C  216   4.369   2.969   3.396
    1C        C  217   4.334   2.910   3.520
    1C        C  218   4.435   3.099   3.637
    1C        C  219   4.378   2.970   3.640
    1C        C  220   4.462   3.167   3.758
    1C        C  221   4.442   3.102   3.881
    1C        C  222   4.497   3.306   4.001
    1C        C  223   4.466   3.169   4.004
    1C        C  224   4.507   3.378   4.123
    1C        C  225   4.499   3.310   4.246
    1C        C  226   4.516   3.523   4.364
    1C        C  227   4.511   3.382   4.367
    1C        C  228   4.519   3.598   4.484
    1C        C  229   4.526   3.530   4.608
    1C        C  230   4.502   3.744   4.726
    1C        C  231   4.528   3.604   4.727
    1C        C  232   4.495   3.820   4.845
    1C        C  233   4.541   3.754   4.960
    1C        C  234   4.017   2.609   2.061
    1C        C  235   3.895   2.542   2.063
    1C        C  236   4.082   2.650   2.178
    1C        C  237   4.023   2.609   2.300
    1C        C  238   4.202   2.729   2.421
    1C        C  239   4.085   2.648   2.421
    1C        C  240   4.257   2.776   2.542
    1C        C  241   4.198   2.736   2.664
    1C        C  242   4.335   2.899   2.783
    1C        C  243   4.250   2.787   2.785
    1C        C  244   4.375   2.957   2.905
    1C        C  245   4.336   2.904   3.030
    1C        C  246   4.440   3.090   3.146
    1C        C  247   4.376   2.964   3.151
    1C        C  248   4.460   3.157   3.269
    1C        C  249   4.429   3.097   3.393
    1C        C  250   4.497   3.300   3.512
    1C        C  251   4.454   3.165   3.514
    1C        C  252   4.510   3.372   3.633
    1C        C  253   4.498   3.304   3.756
    1C        C  254   4.514   3.515   3.875
    1C        C  255   4.508   3.374   3.878
    1C        C  256   4.511   3.586   3.997
    1C        C  257   4.510   3.519   4.122
    1C        C  258   4.489   3.734   4.242
    1C        C  259   4.511   3.594   4.242
    1C        C  260   4.470   3.805   4.362
    1C        C  261   4.488   3.735   4.484
    1C        C  262   4.426   3.942   4.604
    1C        C  263   4.475   3.810   4.604
    1C        C  264   4.402   4.012   4.724
    1C        C  265   4.436   3.948   4.845
    1C        C  266   4.321   4.133   4.956
    1C        C  267   4.389   4.012   4.961
    1C        C  268   4.261   2.777   2.064
    1C        C  269   4.198   2.730   2.180
    1C        C  270   4.345   2.889   2.299
    1C        C  271   4.253   2.780   2.300
    1C        C  272   4.382   2.951   2.421
    1C        C  273   4.342   2.889   2.541
    1C        C  274   4.447   3.079   2.661
    1C        C  275   4.378   2.956   2.661
    1C        C  276   4.472   3.148   2.782
    1C        C  277   4.446   3.079   2.902
    1C        C  278   4.496   3.289   3.023
    1C        C  279   4.470   3.150   3.022
    1C        C  280   4.502   3.362   3.144
    1C        C  281   4.494   3.295   3.268
    1C        C  282   4.513   3.508   3.386
    1C        C  283   4.509   3.367   3.388
    1C        C  284   4.511   3.581   3.507
    1C        C  285   4.514   3.513   3.631
    1C        C  286   4.486   3.725   3.751
    1C        C  287   4.509   3.586   3.752
    1C        C  288   4.465   3.791   3.875
    1C        C  289   4.485   3.724   3.998
    1C        C  290   4.427   3.932   4.117
    1C        C  291   4.474   3.799   4.117
    1C        C  292   4.394   3.998   4.237
    1C        C  293   4.424   3.938   4.362
    1C        C  294   4.329   4.131   4.478
    1C        C  295   4.392   4.005   4.482
    1C        C  296   4.290   4.193   4.599
    1C        C  297   4.325   4.132   4.721
    1C        C  298   4.198   4.316   4.837
    1C        C  299   4.282   4.199   4.839
    1C        C  300   4.170   4.405   4.946
    1C        C  301   4.355   2.880   2.060
    1C        C  302   4.470   3.063   2.177
    1C        C  303   4.402   2.937   2.179
    1C        C  304   4.487   3.139   2.296
    1C        C  305   4.449   3.075   2.416
    1C        C  306   4.503   3.281   2.535
    1C        C  307   4.474   3.143   2.538
    1C        C  308   4.512   3.354   2.655
    1C        C  309   4.498   3.287   2.778
    1C        C  310   4.513   3.499   2.898
    1C        C  311   4.506   3.358   2.900
    1C        C  312   4.507   3.571   3.019
    1C        C  313   4.504   3.503   3.143
    1C        C  314   4.485   3.717   3.262
    1C        C  315   4.505   3.577   3.263
    1C        C  316   4.471   3.788   3.383
    1C        C  317   4.487   3.721   3.506
    1C        C  318   4.427   3.925   3.627
    1C        C  319   4.474   3.791   3.627
    1C        C  320   4.388   3.985   3.749
    1C        C  321   4.418   3.924   3.873
    1C        C  322   4.320   4.114   3.991
    1C        C  323   4.394   3.994   3.994
    1C        C  324   4.284   4.178   4.112
    1C        C  325   4.324   4.120   4.235
    1C        C  326   4.187   4.286   4.353
    1C        C  327   4.283   4.183   4.355
    1C        C  328   4.136   4.339   4.473
    1C        C  329   4.193   4.296   4.595
    1C        C  330   4.026   4.438   4.713
    1C        C  331   4.140   4.353   4.713
    1C        C  332   3.969   4.491   4.831
    1C        C  333   4.051   4.478   4.943
    1C        C  334   4.545   3.264   2.062
    1C        C  335   4.535   3.124   2.065
    1C        C  336   4.535   3.347   2.174
    1C        C  337   4.517   3.278   2.296
    1C        C  338   4.523   3.494   2.412
    1C        C  339   4.526   3.353   2.416
    1C        C  340   4.518   3.567   2.533
    1C        C  341   4.521   3.495   2.655
    1C        C  342   4.487   3.708   2.773
    1C        C  343   4.510   3.568   2.775
    1C        C  344   4.473   3.781   2.893
    1C        C  345   4.487   3.711   3.015
    1C        C  346   4.418   3.912   3.135
    1C        C  347   4.469   3.781   3.137
    1C        C  348   4.390   3.979   3.256
    1C        C  349   4.423   3.921   3.380
    1C        C  350   4.323   4.106   3.500
    1C        C  351   4.398   3.986   3.503
    1C        C  352   4.278   4.164   3.621
    1C        C  353   4.315   4.105   3.744
    1C        C  354   4.181   4.268   3.865
    1C        C  355   4.276   4.163   3.866
    1C        C  356   4.130   4.321   3.986
    1C        C  357   4.184   4.278   4.109
    1C        C  358   4.012   4.403   4.229
    1C        C  359   4.132   4.329   4.230
    1C        C  360   3.952   4.445   4.350
    1C        C  361   4.018   4.418   4.471
    1C        C  362   3.827   4.514   4.594
    1C        C  363   3.959   4.462   4.591
    1C        C  364   3.760   4.547   4.714
    1C        C  365   3.837   4.541   4.832
    1C        C  366   3.628   4.593   4.950
    1C        C  367   3.765   4.569   4.949
    1C        C  368   4.512   3.563   2.055
    1C        C  369   4.521   3.487   2.172
    1C        C  370   4.498   3.705   2.284
    1C        C  371   4.513   3.564   2.290
    1C        C  372   4.478   3.774   2.405
    1C        C  373   4.495   3.706   2.528
    1C        C  374   4.425   3.907   2.647
    1C        C  375   4.475   3.775   2.650
    1C        C  376   4.398   3.976   2.767
    1C        C  377   4.432   3.916   2.890
    1C        C  378   4.319   4.096   3.012
    1C        C  379   4.398   3.980   3.012
    1C        C  380   4.268   4.152   3.132
    1C        C  381   4.309   4.096   3.255
    1C        C  382   4.178   4.260   3.375
    1C        C  383   4.274   4.156   3.378
    1C        C  384   4.125   4.307   3.497
    1C        C  385   4.178   4.264   3.621
    1C        C  386   4.010   4.393   3.739
    1C        C  387   4.126   4.312   3.743
    1C        C  388   3.948   4.428   3.861
    1C        C  389   4.009   4.395   3.984
    1C        C  390   3.821   4.490   4.106
    1C        C  391   3.951   4.435   4.106
    1C        C  392   3.754   4.518   4.227
    1C        C  393   3.822   4.502   4.350
    1C        C  394   3.617   4.549   4.473
    1C        C  395   3.757   4.526   4.472
    1C        C  396   3.546   4.563   4.594
    1C        C  397   3.620   4.565   4.714
    1C        C  398   3.410   4.545   4.838
    1C        C  399   3.549   4.575   4.836
    1C        C  400   3.340   4.511   4.955
    1C        C  401   4.507   3.702   2.048
    1C        C  402   4.456   3.916   2.164
    1C        C  403   4.493   3.780   2.164
    1C        C  404   4.419   3.980   2.285
    1C        C  405   4.438   3.909   2.405
    1C        C  406   4.328   4.094   2.525
    1C        C  407   4.405   3.976   2.525
    1C        C  408   4.279   4.150   2.645
    1C        C  409   4.317   4.092   2.768
    1C        C  410   4.176   4.252   2.886
    1C        C  411   4.275   4.151   2.889
    1C        C  412   4.125   4.301   3.008
    1C        C  413   4.177   4.259   3.133
    1C        C  414   4.003   4.382   3.253
    1C        C  415   4.122   4.306   3.254
    1C        C  416   3.943   4.419   3.375
    1C        C  417   4.008   4.386   3.496
    1C        C  418   3.816   4.478   3.620
    1C        C  419   3.947   4.426   3.617
    1C        C  420   3.749   4.507   3.742
    1C        C  421   3.818   4.484   3.863
    1C        C  422   3.612   4.535   3.984
    1C        C  423   3.751   4.508   3.985
    1C        C  424   3.543   4.540   4.107
    1C        C  425   3.614   4.537   4.229
    1C        C  426   3.404   4.541   4.355
    1C        C  427   3.545   4.551   4.352
    1C        C  428   3.332   4.533   4.476
    1C        C  429   3.405   4.548   4.596
    1C        C  430   3.196   4.514   4.722
    1C        C  431   3.336   4.537   4.719
    1C        C  432   3.124   4.493   4.843
    1C        C  433   3.203   4.488   4.958
    1C        C  434   4.382   4.119   2.048
    1C        C  435   4.441   3.992   2.048
    1C        C  436   4.302   4.157   2.160
    1C        C  437   4.340   4.098   2.284
    1C        C  438   4.180   4.245   2.402
    1C        C  439   4.288   4.154   2.403
    1C        C  440   4.123   4.294   2.521
    1C        C  441   4.183   4.253   2.643
    1C        C  442   4.007   4.377   2.763
    1C        C  443   4.127   4.301   2.763
    1C        C  444   3.945   4.410   2.885
    1C        C  445   4.007   4.379   3.008
    1C        C  446   3.812   4.467   3.128
    1C        C  447   3.943   4.415   3.129
    1C        C  448   3.745   4.490   3.251
    1C        C  449   3.813   4.474   3.374
    1C        C  450   3.609   4.523   3.496
    1C        C  451   3.748   4.494   3.497
    1C        C  452   3.540   4.534   3.618
    1C        C  453   3.609   4.526   3.740
    1C        C  454   3.398   4.531   3.862
    1C        C  455   3.540   4.537   3.863
    1C        C  456   3.331   4.524   3.986
    1C        C  457   3.402   4.533   4.108
    1C        C  458   3.198   4.496   4.236
    1C        C  459   3.336   4.528   4.232
    1C        C  460   3.128   4.476   4.357
    1C        C  461   3.194   4.503   4.479
    1C        C  462   2.996   4.433   4.602
    1C        C  463   3.125   4.490   4.602
    1C        C  464   2.930   4.403   4.723
    1C        C  465   2.988   4.446   4.846
    1C        C  466   2.803   4.333   4.958
    1C        C  467   2.905   4.430   4.961
    1C        C  468   4.127   4.292   2.040
    1C        C  469   4.188   4.244   2.157
    1C        C  470   4.009   4.366   2.278
    1C        C  471   4.130   4.291   2.278
    1C        C  472   3.943   4.402   2.397
    1C        C  473   4.003   4.368   2.520
    1C        C  474   3.812   4.463   2.641
    1C        C  475   3.943   4.409   2.641
    1C        C  476   3.744   4.486   2.763
    1C        C  477   3.816   4.468   2.883
    1C        C  478   3.609   4.516   3.005
    1C        C  479   3.749   4.493   3.004
    1C        C  480   3.538   4.528   3.127
    1C        C  481   3.606   4.515   3.250
    1C        C  482   3.397   4.525   3.373
    1C        C  483   3.538   4.527   3.373
    1C        C  484   3.328   4.520   3.496
    1C        C  485   3.398   4.530   3.618
    1C        C  486   3.191   4.487   3.743
    1C        C  487   3.329   4.520   3.740
    1C        C  488   3.127   4.470   3.868
    1C        C  489   3.193   4.492   3.991
    1C        C  490   3.002   4.409   4.115
    1C        C  491   3.129   4.471   4.115
    1C        C  492   2.937   4.383   4.238
    1C        C  493   2.998   4.421   4.359
    1C        C  494   2.821   4.307   4.483
    1C        C  495   2.935   4.390   4.482
    1C        C  496   2.766   4.260   4.604
    1C        C  497   2.818   4.316   4.723
    1C        C  498   2.667   4.163   4.846
    1C        C  499   2.754   4.274   4.842
    1C        C  500   2.598   4.115   4.958
    1C        C  501   4.003   4.355   2.040
    1C        C  502   3.816   4.463   2.157
    1C        C  503   3.941   4.396   2.158
    1C        C  504   3.743   4.482   2.276
    1C        C  505   3.811   4.453   2.397
    1C        C  506   3.605   4.504   2.516
    1C        C  507   3.745   4.480   2.519
    1C        C  508   3.536   4.509   2.639
    1C        C  509   3.605   4.510   2.763
    1C        C  510   3.394   4.515   2.884
    1C        C  511   3.535   4.517   2.885
    1C        C  512   3.325   4.518   3.007
    1C        C  513   3.397   4.527   3.128
    1C        C  514   3.190   4.482   3.254
    1C        C  515   3.327   4.516   3.251
    1C        C  516   3.124   4.457   3.377
    1C        C  517   3.189   4.490   3.498
    1C        C  518   2.996   4.407   3.625
    1C        C  519   3.122   4.471   3.621
    1C        C  520   2.940   4.368   3.748
    1C        C  521   3.003   4.403   3.869
    1C        C  522   2.836   4.277   3.995
    1C        C  523   2.944   4.368   3.993
    1C        C  524   2.787   4.234   4.120
    1C        C  525   2.831   4.290   4.242
    1C        C  526   2.693   4.132   4.363
    1C        C  527   2.773   4.248   4.364
    1C        C  528   2.649   4.079   4.486
    1C        C  529   2.682   4.146   4.605
    1C        C  530   2.577   3.963   4.729
    1C        C  531   2.637   4.092   4.727
    1C        C  532   2.539   3.901   4.851
    1C        C  533   2.532   3.992   4.962
    1C        C  534   3.617   4.544   2.033
    1C        C  535   3.752   4.509   2.041
    1C        C  536   3.535   4.530   2.149
    1C        C  537   3.604   4.511   2.272
    1C        C  538   3.394   4.506   2.396
    1C        C  539   3.535   4.518   2.395
    1C        C  540   3.324   4.500   2.519
    1C        C  541   3.395   4.513   2.640
    1C        C  542   3.184   4.484   2.764
    1C        C  543   3.323   4.508   2.762
    1C        C  544   3.121   4.461   2.888
    1C        C  545   3.188   4.483   3.010
    1C        C  546   2.998   4.390   3.133
    1C        C  547   3.122   4.459   3.133
    1C        C  548   2.943   4.352   3.257
    1C        C  549   2.998   4.393   3.380
    1C        C  550   2.826   4.276   3.505
    1C        C  551   2.937   4.364   3.504
    1C        C  552   2.774   4.231   3.628
    1C        C  553   2.825   4.285   3.748
    1C        C  554   2.695   4.121   3.874
    1C        C  555   2.782   4.232   3.872
    1C        C  556   2.655   4.065   3.998
    1C        C  557   2.695   4.126   4.118
    1C        C  558   2.586   3.946   4.246
    1C        C  559   2.655   4.070   4.241
    1C        C  560   2.559   3.883   4.369
    1C        C  561   2.590   3.950   4.490
    1C        C  562   2.523   3.750   4.615
    1C        C  563   2.561   3.886   4.612
    1C        C  564   2.515   3.681   4.738
    1C        C  565   2.519   3.760   4.857
    1C        C  566   2.532   3.546   4.976
    1C        C  567   2.520   3.684   4.975
    1C        C  568   3.326   4.471   2.036
    1C        C  569   3.394   4.509   2.152
    1C        C  570   3.185   4.468   2.279
    1C        C  571   3.322   4.504   2.275
    1C        C  572   3.118   4.448   2.401
    1C        C  573   3.185   4.472   2.523
    1C        C  574   2.988   4.394   2.646
    1C        C  575   3.113   4.459   2.644
    1C        C  576   2.932   4.354   2.770
    1C        C  577   2.995   4.396   2.889
    1C        C  578   2.822   4.274   3.018
    1C        C  579   2.933   4.361   3.011
    1C        C  580   2.767   4.226   3.139
    1C        C  581   2.825   4.274   3.259
    1C        C  582   2.688   4.116   3.382
    1C        C  583   2.776   4.226   3.382
    1C        C  584   2.651   4.059   3.506
    1C        C  585   2.688   4.119   3.628
    1C        C  586   2.592   3.935   3.755
    1C        C  587   2.651   4.064   3.753
    1C        C  588   2.564   3.873   3.878
    1C        C  589   2.586   3.942   4.000
    1C        C  590   2.535   3.741   4.126
    1C        C  591   2.561   3.880   4.124
    1C        C  592   2.526   3.673   4.249
    1C        C  593   2.531   3.744   4.371
    1C        C  594   2.512   3.536   4.498
    1C        C  595   2.518   3.677   4.494
    1C        C  596   2.519   3.466   4.621
    1C        C  597   2.516   3.539   4.741
    1C        C  598   2.530   3.325   4.862
    1C        C  599   2.527   3.466   4.862
    1C        C  600   2.532   3.247   4.978
    1C        C  601   3.193   4.435   2.040
    1C        C  602   2.981   4.393   2.159
    1C        C  603   3.117   4.437   2.158
    1C        C  604   2.922   4.358   2.284
    1C        C  605   2.988   4.392   2.404
    1C        C  606   2.814   4.270   2.527
    1C        C  607   2.924   4.358   2.525
    1C        C  608   2.772   4.216   2.651
    1C        C  609   2.823   4.265   2.773
    1C        C  610   2.681   4.112   2.893
    1C        C  611   2.772   4.220   2.897
    1C        C  612   2.643   4.054   3.016
    1C        C  613   2.682   4.114   3.138
    1C        C  614   2.584   3.929   3.265
    1C        C  615   2.647   4.055   3.262
    1C        C  616   2.556   3.869   3.390
    1C        C  617   2.585   3.934   3.512
    1C        C  618   2.517   3.733   3.634
    1C        C  619   2.558   3.869   3.635
    1C        C  620   2.511   3.668   3.759
    1C        C  621   2.525   3.737   3.881
    1C        C  622   2.512   3.529   4.007
    1C        C  623   2.519   3.670   4.005
    1C        C  624   2.516   3.460   4.130
    1C        C  625   2.516   3.532   4.252
    1C        C  626   2.543   3.325   4.378
    1C        C  627   2.517   3.464   4.376
    1C        C  628   2.560   3.256   4.500
    1C        C  629   2.535   3.326   4.621
    1C        C  630   2.597   3.119   4.741
    1C        C  631   2.548   3.253   4.741
    1C        C  632   2.613   3.053   4.866
    1C        C  633   2.558   3.110   4.985
    1C        C  634   2.782   4.302   2.055
    1C        C  635   2.891   4.389   2.048
    1C        C  636   2.748   4.228   2.169
    1C        C  637   2.808   4.274   2.288
    1C        C  638   2.668   4.112   2.408
    1C        C  639   2.752   4.226   2.408
    1C        C  640   2.634   4.049   2.530
    1C        C  641   2.682   4.107   2.650
    1C        C  642   2.580   3.922   2.774
    1C        C  643   2.645   4.047   2.773
    1C        C  644   2.559   3.856   2.898
    1C        C  645   2.585   3.925   3.018
    1C        C  646   2.521   3.727   3.147
    1C        C  647   2.559   3.864   3.142
    1C        C  648   2.512   3.658   3.269
    1C        C  649   2.523   3.731   3.389
    1C        C  650   2.514   3.521   3.518
    1C        C  651   2.513   3.662   3.512
    1C        C  652   2.514   3.454   3.642
    1C        C  653   2.507   3.526   3.763
    1C        C  654   2.541   3.318   3.889
    1C        C  655   2.514   3.456   3.886
    1C        C  656   2.558   3.251   4.012
    1C        C  657   2.542   3.321   4.133
    1C        C  658   2.612   3.124   4.259
    1C        C  659   2.557   3.254   4.257
    1C        C  660   2.639   3.058   4.380
    1C        C  661   2.603   3.122   4.501
    1C        C  662   2.707   2.934   4.625
    1C        C  663   2.628   3.052   4.621
    1C        C  664   2.750   2.877   4.747
    1C        C  665   2.693   2.934   4.864
    1C        C  666   2.744   2.870   4.978
    1C        C  667   2.686   4.020   2.053
    1C        C  668   2.680   4.104   2.165
    1C        C  669   2.585   3.916   2.288
    1C        C  670   2.635   4.049   2.286
    1C        C  671   2.557   3.851   2.410
    1C        C  672   2.584   3.917   2.532
    1C        C  673   2.512   3.718   2.656
    1C        C  674   2.551   3.854   2.654
    1C        C  675   2.504   3.650   2.779
    1C        C  676   2.522   3.720   2.901
    1C        C  677   2.506   3.514   3.029
    1C        C  678   2.513   3.655   3.026
    1C        C  679   2.506   3.445   3.153
    1C        C  680   2.507   3.517   3.275
    1C        C  681   2.538   3.309   3.399
    1C        C  682   2.510   3.447   3.398
    1C        C  683   2.558   3.245   3.524
    1C        C  684   2.539   3.315   3.646
    1C        C  685   2.607   3.114   3.769
    1C        C  686   2.558   3.246   3.768
    1C        C  687   2.638   3.054   3.893
    1C        C  688   2.609   3.119   4.015
    1C        C  689   2.720   2.940   4.138
    1C        C  690   2.641   3.057   4.138
    1C        C  691   2.761   2.884   4.261
    1C        C  692   2.714   2.938   4.383
    1C        C  693   2.754   2.878   4.504
    1C        C  694   2.627   3.893   2.053
    1C        C  695   2.528   3.704   2.175
    1C        C  696   2.579   3.835   2.171
    1C        C  697   2.511   3.637   2.299
    1C        C  698   2.526   3.714   2.416
    1C        C  699   2.489   3.502   2.541
    1C        C  700   2.506   3.643   2.537
    1C        C  701   2.502   3.435   2.664
    1C        C  702   2.502   3.509   2.785
    1C        C  703   2.529   3.301   2.912
    1C        C  704   2.507   3.441   2.909
    1C        C  705   2.550   3.234   3.035
    1C        C  706   2.530   3.306   3.155
    1C        C  707   2.605   3.109   3.278
    1C        C  708   2.549   3.238   3.277
    1C        C  709   2.638   3.049   3.402
    1C        C  710   2.607   3.113   3.524
    1C        C  711   2.712   2.929   3.649
    1C        C  712   2.637   3.049   3.647
    1C        C  713   2.759   2.879   3.773
    1C        C  714   2.715   2.936   3.895
    1C        C  715   2.763   2.883   4.017
    1C        C  716   2.452   3.499   2.060
    1C        C  717   2.492   3.633   2.060
    1C        C  718   2.468   3.421   2.180
    1C        C  719   2.484   3.498   2.299
    1C        C  720   2.514   3.289   2.422
    1C        C  721   2.487   3.428   2.421
    1C        C  722   2.543   3.226   2.545
    1C        C  723   2.528   3.297   2.666
    1C        C  724   2.598   3.100   2.791
    1C        C  725   2.545   3.231   2.790
    1C        C  726   2.627   3.037   2.914
    1C        C  727   2.598   3.101   3.037
    1C        C  728   2.710   2.920   3.159
    1C        C  729   2.635   3.040   3.158
    1C        C  730   2.756   2.872   3.284
    1C        C  731   2.715   2.931   3.405
    1C        C  732   2.754   2.872   3.527
    1C        C  733   2.486   3.196   2.070
    1C        C  734   2.488   3.280   2.182
    1C        C  735   2.582   3.084   2.304
    1C        C  736   2.522   3.213   2.303
    1C        C  737   2.618   3.025   2.427
    1C        C  738   2.593   3.094   2.547
    1C        C  739   2.696   2.910   2.671
    1C        C  740   2.625   3.032   2.670
    1C        C  741   2.736   2.853   2.794
    1C        C  742   2.701   2.917   2.915
    1C        C  743   2.753   2.866   3.036
    1C        C  744   2.545   3.070   2.073
    1C        C  745   2.686   2.897   2.184
    1C        C  746   2.609   3.015   2.184
    1C        C  747   2.733   2.843   2.306
    1C        C  748   2.695   2.906   2.427
    1C        C  749   2.739   2.852   2.550
    1C        C  750   2.730   2.833   2.067
    1C        C  751   3.658   2.307   1.987
    1C        O  752   3.647   2.187   2.024
    1C        O  753   3.657   2.319   1.848
    1C        C  754   4.648   3.055   1.999
    1C        O  755   4.630   3.019   1.880
    1C        O  756   4.781   3.087   2.029
    1C        C  757   4.449   4.215   1.957
    1C        O  758   4.539   4.294   1.995
    1C        O  759   4.388   4.248   1.835
    1C        C  760   3.578   4.617   1.910
    1C        O  761   3.619   4.736   1.896
    1C        O  762   3.581   4.554   1.786
    1C        C  763   2.856   4.509   1.970
    1C        O  764   2.881   4.528   1.848
    1C        O  765   2.815   4.626   2.036
    1C        C  766   2.333   3.471   1.976
    1C        O  767   2.328   3.486   1.852
    1C        O  768   2.205   3.493   2.027
    1C        C  769   4.691   3.590   5.049
    1C        O  770   4.692   3.617   5.172
    1C        O  771   4.817   3.552   5.002
    1C        C  772   4.273   4.458   5.038
    1C        O  773   4.279   4.402   5.150
    1C        O  774   4.303   4.594   5.048
    1C        C  775   4.140   2.522   5.071
    1C        O  776   4.199   2.417   5.034
    1C        O  777   4.107   2.522   5.207
    1C        C  778   2.875   4.534   5.061
    1C        O  779   2.860   4.658   5.042
    1C        O  780   2.885   4.500   5.197
    1C        C  781   2.469   3.035   5.077
    1C        O  782   2.344   3.032   5.059
    1C        O  783   2.499   2.962   5.191
    1C        C  784   2.432   3.995   5.071
    1C        O  785   2.308   3.981   5.049
    1C        O  786   2.481   3.949   5.194
    1C        C  787   2.949   2.401   2.026
    1C        O  788   2.930   2.375   1.904
    1C        O  789   2.934   2.278   2.090
    1C        C  790   3.167   2.364   5.056
    1C        O  791   3.108   2.258   5.022
    1C        O  792   3.226   2.356   5.183
    1C        H  793   4.344   2.972   5.063
    1C        H  794   4.194   2.796   5.074
    1C        H  795   4.523   3.127   5.052
    1C        H  796   4.540   3.368   5.065
    1C        H  797   4.502   3.790   5.053
    1C        H  798   4.407   3.975   5.059
    1C        H  799   4.305   4.187   5.047
    1C        H  800   4.016   4.504   5.041
    1C        H  801   3.822   4.625   5.021
    1C        H  802   3.586   4.650   5.030
    1C        H  803   3.395   4.491   5.045
    1C        H  804   3.156   4.507   5.052
    1C        H  805   3.899   2.455   5.050
    1C        H  806   3.671   2.489   5.077
    1C        H  807   3.038   2.604   5.076
    1C        H  808   3.436   2.504   5.067
    1C        H  809   2.890   2.755   5.077
    1C        H  810   2.670   2.851   5.053
    1C        H  811   2.474   3.287   5.059
    1C        H  812   2.486   3.506   5.065
    1C        H  813   2.470   3.730   5.057
    1C        H  814   2.567   4.190   5.028
    1C        H  815   2.762   4.303   5.053
    1C        H  816   2.679   2.854   1.975
    1C        H  817   2.806   2.653   1.992
    1C        H  818   3.193   2.390   2.010
    1C        H  819   3.424   2.432   1.977
    1C        H  820   3.887   2.464   1.990
    1C        H  821   4.080   2.574   1.982
    1C        H  822   4.266   2.703   1.986
    1C        H  823   4.352   2.946   1.977
    1C        H  824   4.623   3.295   1.996
    1C        H  825   4.438   3.520   1.991
    1C        H  826   4.508   3.747   1.951
    1C        H  827   3.813   4.571   1.978
    1C        H  828   3.963   4.388   1.947
    1C        H  829   4.185   4.309   1.952
    1C        H  830   4.503   3.963   1.966
    1C        H  831   2.650   3.833   1.968
    1C        H  832   2.769   4.032   1.986
    1C        H  833   2.741   4.272   1.960
    1C        H  834   3.379   4.417   1.960
    1C        H  835   3.142   4.474   1.954
    1C        H  836   2.496   2.998   2.010
    1C        H  837   2.473   3.239   1.973
    1C        H  838   2.485   3.685   1.967
    2V3OU   H29  839   2.802   3.551   5.872
    2V3OU   C27  840   2.777   3.505   5.971
    2V3OU   H27  841   2.718   3.570   6.040
    2V3OU   H28  842   2.733   3.403   5.960
    2V3OU   O11  843   2.902   3.477   6.036
    2V3OU   C15  844   2.920   3.394   6.145
    2V3OU   C13  845   3.052   3.380   6.192
    2V3OU   C14  846   3.075   3.269   6.274
    2V3OU   C16  847   2.972   3.186   6.315
    2V3OU    H6  848   2.992   3.104   6.385
    2V3OU   C12  849   3.214   3.234   6.312
    2V3OU    O2  850   3.245   3.131   6.376
    2V3OU   C10  851   3.323   3.307   6.246
    2V3OU    C8  852   3.456   3.269   6.261
    2V3OU   O10  853   3.489   3.154   6.326
    2V3OU   H26  854   3.407   3.108   6.352
    2V3OU    C6  855   3.560   3.345   6.200
    2V3OU    C5  856   3.537   3.461   6.127
    2V3OU    C4  857   3.701   3.295   6.198
    2V3OU    H4  858   3.723   3.230   6.288
    2V3OU    H5  859   3.711   3.230   6.106
    2V3OU    C2  860   3.814   3.398   6.196
    2V3OU    O6  861   3.800   3.474   6.316
    2V3OU   H21  862   3.754   3.551   6.279
    2V3OU    C3  863   3.780   3.493   6.081
    2V3OU    H2  864   3.860   3.571   6.075
    2V3OU    H3  865   3.782   3.438   5.984
    2V3OU   C25  866   3.947   3.326   6.172
    2V3OU    O7  867   3.995   3.301   6.062
    2V3OU   C26  868   4.030   3.288   6.294
    2V3OU   H22  869   4.065   3.387   6.333
    2V3OU   H23  870   4.113   3.220   6.264
    2V3OU    O8  871   3.959   3.208   6.386
    2V3OU   H24  872   3.912   3.268   6.446
    2V3OU    C1  873   3.644   3.560   6.093
    2V3OU    H1  874   3.623   3.614   5.997
    2V3OU    O3  875   3.655   3.652   6.202
    2V3OU   C19  876   3.614   3.789   6.189
    2V3OU    H9  877   3.520   3.800   6.128
    2V3OU    O4  878   3.715   3.850   6.113
    2V3OU   C20  879   3.849   3.871   6.160
    2V3OU   H10  880   3.905   3.773   6.165
    2V3OU   C24  881   3.607   3.853   6.328
    2V3OU   H16  882   3.544   3.785   6.391
    2V3OU   H17  883   3.555   3.953   6.323
    2V3OU   C23  884   3.746   3.871   6.390
    2V3OU   H15  885   3.794   3.770   6.411
    2V3OU    N1  886   3.733   3.950   6.511
    2V3OU   H19  887   3.809   3.927   6.572
    2V3OU   H20  888   3.646   3.931   6.557
    2V3OU   C21  889   3.843   3.946   6.293
    2V3OU   H11  890   3.947   3.924   6.329
    2V3OU    O5  891   3.828   4.087   6.289
    2V3OU   H18  892   3.784   4.111   6.372
    2V3OU   C22  893   3.910   3.951   6.046
    2V3OU   H12  894   3.858   4.049   6.034
    2V3OU   H13  895   3.903   3.892   5.951
    2V3OU   H14  896   4.021   3.957   6.059
    2V3OU   C11  897   3.159   3.469   6.145
    2V3OU    O1  898   3.138   3.587   6.110
    2V3OU    C9  899   3.298   3.421   6.165
    2V3OU    C7  900   3.400   3.499   6.110
    2V3OU    O9  901   3.388   3.613   6.035
    2V3OU   H25  902   3.292   3.623   6.030
    2V3OU   C17  903   2.813   3.314   6.189
    2V3OU    H7  904   2.713   3.332   6.150
    2V3OU   C18  905   2.840   3.210   6.277
    2V3OU    H8  906   2.753   3.148   6.302
    3SOL     OW  907   2.951   3.313   3.755
    3SOL    HW1  908   3.003   3.336   3.672
    3SOL    HW2  909   2.961   3.387   3.822
    4SOL     OW  910   6.485   6.421   1.402
    4SOL    HW1  911   6.554   6.444   1.471
    4SOL    HW2  912   6.530   6.384   1.321
    5SOL     OW  913   4.479   2.588   0.634
    5SOL    HW1  914   4.474   2.574   0.733
    5SOL    HW2  915   4.410   2.531   0.589
    6SOL     OW  916   4.535   1.805   1.983
    6SOL    HW1  917   4.622   1.836   2.020
    6SOL    HW2  918   4.460   1.851   2.032
    7SOL     OW  919   2.215   3.156   4.430
    7SOL    HW1  920   2.171   3.214   4.498
    7SOL    HW2  921   2.306   3.131   4.461
    8SOL     OW  922   1.090   2.507   5.254
    8SOL    HW1  923   1.187   2.525   5.275
    8SOL    HW2  924   1.057   2.576   5.189
    9SOL     OW  925   1.143   1.909   6.016
    9SOL    HW1  926   1.141   1.850   5.935
    9SOL    HW2  927   1.165   2.003   5.989
   10SOL     OW  928   5.493   4.959   1.602
   10SOL    HW1  929   5.407   4.914   1.579
   10SOL    HW2  930   5.491   4.987   1.698
   11SOL     OW  931   2.944   2.040   0.605
   11SOL    HW1  932   3.006   2.119   0.611
   11SOL    HW2  933   2.849   2.072   0.613
   12SOL     OW  934   5.033   5.191   1.957
   12SOL    HW1  935   5.059   5.196   1.860
   12SOL    HW2  936   5.014   5.095   1.981
   13SOL     OW  937   5.361   6.568   1.442
   13SOL    HW1  938   5.291   6.606   1.502
   13SOL    HW2  939   5.390   6.479   1.477
   14SOL     OW  940   4.698   6.520   0.069
   14SOL    HW1  941   4.646   6.596   0.029
   14SOL    HW2  942   4.645   6.436   0.064
   15SOL     OW  943   0.646   5.606   6.368
   15SOL    HW1  944   0.687   5.536   6.426
   15SOL    HW2  945   0.557   5.574   6.335
   16SOL     OW  946   2.241   5.691   4.713
   16SOL    HW1  947   2.270   5.650   4.626
   16SOL    HW2  948   2.206   5.619   4.773
   17SOL     OW  949   6.932   0.760   4.706
   17SOL    HW1  950   6.835   0.740   4.696
   17SOL    HW2  951   6.951   0.785   4.801
   18SOL     OW  952   2.615   0.838   5.655
   18SOL    HW1  953   2.649   0.929   5.631
   18SOL    HW2  954   2.677   0.796   5.722
   19SOL     OW  955   3.065   6.276   2.481
   19SOL    HW1  956   3.075   6.367   2.522
   19SOL    HW2  957   3.047   6.209   2.552
   20SOL     OW  958   0.149   1.681   5.819
   20SOL    HW1  959   0.238   1.687   5.865
   20SOL    HW2  960   0.142   1.754   5.751
   21SOL     OW  961   2.183   3.906   2.534
   21SOL    HW1  962   2.205   3.935   2.627
   21SOL    HW2  963   2.161   3.808   2.534
   22SOL     OW  964   0.837   1.216   0.513
   22SOL    HW1  965   0.771   1.278   0.557
   22SOL    HW2  966   0.806   1.121   0.525
   23SOL     OW  967   6.659   5.242   0.525
   23SOL    HW1  968   6.689   5.150   0.502
   23SOL    HW2  969   6.561   5.241   0.545
   24SOL     OW  970   5.058   1.477   0.196
   24SOL    HW1  971   5.085   1.570   0.170
   24SOL    HW2  972   4.961   1.465   0.178
   25SOL     OW  973   1.614   1.117   4.155
   25SOL    HW1  974   1.573   1.206   4.177
   25SOL    HW2  975   1.624   1.064   4.238
   26SOL     OW  976   1.616   1.186   6.670
   26SOL    HW1  977   1.703   1.149   6.636
   26SOL    HW2  978   1.548   1.113   6.672
   27SOL     OW  979   0.279   0.337   2.829
   27SOL    HW1  980   0.342   0.313   2.903
   27SOL    HW2  981   0.258   0.435   2.834
   28SOL     OW  982   1.454   0.939   5.840
   28SOL    HW1  983   1.405   0.872   5.896
   28SOL    HW2  984   1.412   0.945   5.750
   29SOL     OW  985   5.767   0.302   1.488
   29SOL    HW1  986   5.780   0.255   1.575
   29SOL    HW2  987   5.695   0.256   1.435
   30SOL     OW  988   4.938   0.357   5.235
   30SOL    HW1  989   4.905   0.383   5.326
   30SOL    HW2  990   5.037   0.373   5.230
   31SOL     OW  991   6.710   4.600   4.039
   31SOL    HW1  992   6.669   4.648   4.116
   31SOL    HW2  993   6.745   4.666   3.973
   32SOL     OW  994   2.597   1.115   0.781
   32SOL    HW1  995   2.629   1.205   0.812
   32SOL    HW2  996   2.587   1.054   0.860
   33SOL     OW  997   2.388   5.311   5.507
   33SOL    HW1  998   2.368   5.395   5.457
   33SOL    HW2  999   2.428   5.244   5.445
   34SOL     OW 1000   2.208   6.041   5.365
   34SOL    HW1 1001   2.197   5.949   5.328
   34SOL    HW2 1002   2.203   6.108   5.290
   35SOL     OW 1003   1.406   3.683   5.563
   35SOL    HW1 1004   1.356   3.639   5.489
   35SOL    HW2 1005   1.438   3.613   5.627
   36SOL     OW 1006   6.494   1.020   3.702
   36SOL    HW1 1007   6.425   0.986   3.639
   36SOL    HW2 1008   6.453   1.039   3.790
   37SOL     OW 1009   2.497   6.288   4.473
   37SOL    HW1 1010   2.566   6.361   4.469
   37SOL    HW2 1011   2.427   6.312   4.539
   38SOL     OW 1012   1.039   4.001   2.579
   38SOL    HW1 1013   1.040   3.970   2.674
   38SOL    HW2 1014   1.028   3.922   2.518
   39SOL     OW 1015   6.509   5.062   0.983
   39SOL    HW1 1016   6.427   5.116   0.966
   39SOL    HW2 1017   6.587   5.122   1.000
   40SOL     OW 1018   3.494   0.858   6.816
   40SOL    HW1 1019   3.502   0.922   6.739
   40SOL    HW2 1020   3.564   0.788   6.808
   41SOL     OW 1021   4.913   3.618   1.386
   41SOL    HW1 1022   4.952   3.541   1.437
   41SOL    HW2 1023   4.919   3.701   1.442
   42SOL     OW 1024   2.899   4.163   6.682
   42SOL    HW1 1025   2.803   4.192   6.679
   42SOL    HW2 1026   2.951   4.212   6.611
   43SOL     OW 1027   5.399   0.282   4.940
   43SOL    HW1 1028   5.407   0.208   4.873
   43SOL    HW2 1029   5.488   0.296   4.984
   44SOL     OW 1030   6.688   1.293   5.996
   44SOL    HW1 1031   6.704   1.368   5.931
   44SOL    HW2 1032   6.602   1.248   5.975
   45SOL     OW 1033   2.909   4.546   6.230
   45SOL    HW1 1034   2.850   4.476   6.271
   45SOL    HW2 1035   2.973   4.580   6.298
   46SOL     OW 1036   1.094   4.620   5.328
   46SOL    HW1 1037   1.002   4.627   5.366
   46SOL    HW2 1038   1.093   4.562   5.247
   47SOL     OW 1039   5.998   3.988   0.337
   47SOL    HW1 1040   6.008   3.943   0.425
   47SOL    HW2 1041   6.040   3.933   0.265
   48SOL     OW 1042   6.880   4.144   0.849
   48SOL    HW1 1043   6.878   4.187   0.759
   48SOL    HW2 1044   6.974   4.130   0.877
   49SOL     OW 1045   3.219   2.424   6.323
   49SOL    HW1 1046   3.268   2.454   6.242
   49SOL    HW2 1047   3.284   2.386   6.389
   50SOL     OW 1048   5.218   1.856   0.368
   50SOL    HW1 1049   5.127   1.896   0.354
   50SOL    HW2 1050   5.288   1.922   0.341
   51SOL     OW 1051   0.750   6.388   1.791
   51SOL    HW1 1052   0.770   6.436   1.877
   51SOL    HW2 1053   0.770   6.291   1.803
   52SOL     OW 1054   5.765   1.679   2.331
   52SOL    HW1 1055   5.807   1.770   2.323
   52SOL    HW2 1056   5.666   1.687   2.322
   53SOL     OW 1057   4.279   0.845   0.746
   53SOL    HW1 1058   4.215   0.825   0.820
   53SOL    HW2 1059   4.250   0.929   0.699
   54SOL     OW 1060   6.109   0.574   6.586
   54SOL    HW1 1061   6.099   0.479   6.554
   54SOL    HW2 1062   6.039   0.631   6.544
   55SOL     OW 1063   1.365   3.653   6.098
   55SOL    HW1 1064   1.405   3.718   6.162
   55SOL    HW2 1065   1.437   3.595   6.060
   56SOL     OW 1066   0.638   2.172   6.621
   56SOL    HW1 1067   0.708   2.189   6.690
   56SOL    HW2 1068   0.571   2.107   6.658
   57SOL     OW 1069   3.977   6.299   1.221
   57SOL    HW1 1070   4.024   6.274   1.136
   57SOL    HW2 1071   3.878   6.297   1.206
   58SOL     OW 1072   1.295   0.764   6.872
   58SOL    HW1 1073   1.264   0.822   6.947
   58SOL    HW2 1074   1.393   0.775   6.859
   59SOL     OW 1075   4.058   2.711   6.279
   59SOL    HW1 1076   4.124   2.706   6.353
   59SOL    HW2 1077   4.022   2.805   6.273
   60SOL     OW 1078   6.747   3.320   2.807
   60SOL    HW1 1079   6.783   3.283   2.893
   60SOL    HW2 1080   6.705   3.245   2.754
   61SOL     OW 1081   1.473   5.916   3.009
   61SOL    HW1 1082   1.555   5.862   3.024
   61SOL    HW2 1083   1.394   5.855   3.002
   62SOL     OW 1084   5.959   2.270   3.477
   62SOL    HW1 1085   5.907   2.269   3.562
   62SOL    HW2 1086   5.932   2.349   3.422
   63SOL     OW 1087   3.948   6.837   5.815
   63SOL    HW1 1088   3.956   6.787   5.901
   63SOL    HW2 1089   3.872   6.801   5.762
   64SOL     OW 1090   1.442   2.087   6.217
   64SOL    HW1 1091   1.414   2.108   6.123
   64SOL    HW2 1092   1.365   2.103   6.279
   65SOL     OW 1093   1.397   5.166   4.975
   65SOL    HW1 1094   1.467   5.220   4.929
   65SOL    HW2 1095   1.307   5.205   4.956
   66SOL     OW 1096   4.555   1.396   1.353
   66SOL    HW1 1097   4.630   1.456   1.379
   66SOL    HW2 1098   4.530   1.338   1.430
   67SOL     OW 1099   7.020   3.759   1.112
   67SOL    HW1 1100   6.922   3.755   1.127
   67SOL    HW2 1101   0.026   3.852   1.085
   68SOL     OW 1102   0.321   0.950   6.597
   68SOL    HW1 1103   0.361   1.025   6.650
   68SOL    HW2 1104   0.394   0.897   6.554
   69SOL     OW 1105   1.752   6.345   0.052
   69SOL    HW1 1106   1.703   6.277   7.020
   69SOL    HW2 1107   1.753   6.318   0.148
   70SOL     OW 1108   4.389   4.983   3.102
   70SOL    HW1 1109   4.407   5.072   3.142
   70SOL    HW2 1110   4.305   4.987   3.048
   71SOL     OW 1111   5.047   1.367   5.368
   71SOL    HW1 1112   5.088   1.343   5.280
   71SOL    HW2 1113   4.954   1.400   5.353
   72SOL     OW 1114   6.976   0.565   2.153
   72SOL    HW1 1115   0.046   0.524   2.158
   72SOL    HW2 1116   6.979   0.658   2.189
   73SOL     OW 1117   2.361   1.246   1.090
   73SOL    HW1 1118   2.411   1.303   1.026
   73SOL    HW2 1119   2.414   1.236   1.175
   74SOL     OW 1120   2.385   1.601   0.205
   74SOL    HW1 1121   2.408   1.589   0.108
   74SOL    HW2 1122   2.386   1.698   0.228
   75SOL     OW 1123   1.950   2.166   0.735
   75SOL    HW1 1124   1.864   2.181   0.686
   75SOL    HW2 1125   1.994   2.254   0.753
   76SOL     OW 1126   3.919   4.839   5.838
   76SOL    HW1 1127   3.929   4.876   5.931
   76SOL    HW2 1128   3.988   4.769   5.822
   77SOL     OW 1129   0.441   5.226   4.289
   77SOL    HW1 1130   0.419   5.278   4.372
   77SOL    HW2 1131   0.384   5.144   4.285
   78SOL     OW 1132   5.809   1.794   1.515
   78SOL    HW1 1133   5.787   1.739   1.435
   78SOL    HW2 1134   5.830   1.735   1.592
   79SOL     OW 1135   1.561   4.214   4.113
   79SOL    HW1 1136   1.570   4.137   4.177
   79SOL    HW2 1137   1.465   4.227   4.088
   80SOL     OW 1138   3.518   2.125   5.137
   80SOL    HW1 1139   3.460   2.149   5.059
   80SOL    HW2 1140   3.610   2.102   5.103
   81SOL     OW 1141   3.383   5.301   2.299
   81SOL    HW1 1142   3.424   5.389   2.272
   81SOL    HW2 1143   3.354   5.251   2.218
   82SOL     OW 1144   3.201   0.474   2.382
   82SOL    HW1 1145   3.126   0.534   2.410
   82SOL    HW2 1146   3.254   0.519   2.310
   83SOL     OW 1147   5.604   0.875   4.789
   83SOL    HW1 1148   5.572   0.910   4.701
   83SOL    HW2 1149   5.617   0.776   4.783
   84SOL     OW 1150   5.732   3.009   3.236
   84SOL    HW1 1151   5.797   2.952   3.287
   84SOL    HW2 1152   5.746   3.105   3.261
   85SOL     OW 1153   2.351   5.818   3.260
   85SOL    HW1 1154   2.272   5.774   3.301
   85SOL    HW2 1155   2.418   5.842   3.330
   86SOL     OW 1156   4.670   0.458   0.804
   86SOL    HW1 1157   4.766   0.485   0.803
   86SOL    HW2 1158   4.643   0.426   0.714
   87SOL     OW 1159   3.019   2.711   6.442
   87SOL    HW1 1160   3.035   2.618   6.475
   87SOL    HW2 1161   2.928   2.718   6.402
   88SOL     OW 1162   2.130   2.933   1.536
   88SOL    HW1 1163   2.206   2.873   1.511
   88SOL    HW2 1164   2.044   2.891   1.508
   89SOL     OW 1165   3.388   3.627   5.501
   89SOL    HW1 1166   3.399   3.566   5.422
   89SOL    HW2 1167   3.442   3.710   5.487
   90SOL     OW 1168   6.541   4.219   2.099
   90SOL    HW1 1169   6.446   4.194   2.082
   90SOL    HW2 1170   6.589   4.141   2.140
   91SOL     OW 1171   4.226   6.212   0.476
   91SOL    HW1 1172   4.171   6.285   0.518
   91SOL    HW2 1173   4.174   6.127   0.474
   92SOL     OW 1174   5.888   5.099   6.885
   92SOL    HW1 1175   5.819   5.157   6.841
   92SOL    HW2 1176   5.846   5.012   6.912
   93SOL     OW 1177   2.860   3.831   1.560
   93SOL    HW1 1178   2.936   3.888   1.530
   93SOL    HW2 1179   2.894   3.740   1.584
   94SOL     OW 1180   3.020   1.801   4.333
   94SOL    HW1 1181   2.976   1.802   4.244
   94SOL    HW2 1182   2.985   1.725   4.388
   95SOL     OW 1183   0.635   0.044   3.809
   95SOL    HW1 1184   0.548   0.046   3.760
   95SOL    HW2 1185   0.710   0.059   3.745
   96SOL     OW 1186   0.083   5.302   6.579
   96SOL    HW1 1187   0.167   5.349   6.605
   96SOL    HW2 1188   0.005   5.362   6.599
   97SOL     OW 1189   3.348   4.281   5.414
   97SOL    HW1 1190   3.250   4.297   5.413
   97SOL    HW2 1191   3.397   4.368   5.413
   98SOL     OW 1192   0.402   2.449   4.785
   98SOL    HW1 1193   0.412   2.546   4.764
   98SOL    HW2 1194   0.485   2.401   4.757
   99SOL     OW 1195   4.073   4.630   5.265
   99SOL    HW1 1196   4.019   4.714   5.271
   99SOL    HW2 1197   4.012   4.551   5.268
  100SOL     OW 1198   1.483   0.781   5.260
  100SOL    HW1 1199   1.392   0.798   5.298
  100SOL    HW2 1200   1.478   0.785   5.160
  101SOL     OW 1201   5.324   3.464   2.788
  101SOL    HW1 1202   5.242   3.497   2.836
  101SOL    HW2 1203   5.369   3.542   2.744
  102SOL     OW 1204   3.715   0.344   6.660
  102SOL    HW1 1205   3.706   0.319   6.757
  102SOL    HW2 1206   3.773   0.277   6.614
  103SOL     OW 1207   1.348   1.601   1.766
  103SOL    HW1 1208   1.363   1.520   1.708
  103SOL    HW2 1209   1.359   1.576   1.862
  104SOL     OW 1210   6.247   4.442   2.006
  104SOL    HW1 1211   6.230   4.465   1.910
  104SOL    HW2 1212   6.170   4.473   2.062
  105SOL     OW 1213   6.936   0.461   5.035
  105SOL    HW1 1214   6.882   0.525   4.980
  105SOL    HW2 1215   6.959   0.502   5.122
  106SOL     OW 1216   4.387   2.706   1.710
  106SOL    HW1 1217   4.414   2.802   1.717
  106SOL    HW2 1218   4.445   2.661   1.641
  107SOL     OW 1219   4.770   6.969   1.659
  107SOL    HW1 1220   4.778   0.047   1.668
  107SOL    HW2 1221   4.705   6.934   1.727
  108SOL     OW 1222   3.623   1.783   4.739
  108SOL    HW1 1223   3.526   1.760   4.751
  108SOL    HW2 1224   3.649   1.771   4.644
  109SOL     OW 1225   2.176   1.198   5.535
  109SOL    HW1 1226   2.160   1.110   5.491
  109SOL    HW2 1227   2.115   1.207   5.614
  110SOL     OW 1228   3.843   4.490   5.646
  110SOL    HW1 1229   3.882   4.414   5.699
  110SOL    HW2 1230   3.913   4.529   5.587
  111SOL     OW 1231   6.152   3.478   1.516
  111SOL    HW1 1232   6.229   3.455   1.456
  111SOL    HW2 1233   6.107   3.394   1.547
  112SOL     OW 1234   4.506   6.822   4.988
  112SOL    HW1 1235   4.523   6.749   4.922
  112SOL    HW2 1236   4.567   6.812   5.066
  113SOL     OW 1237   0.581   5.008   2.779
  113SOL    HW1 1238   0.603   5.044   2.870
  113SOL    HW2 1239   0.649   5.039   2.713
  114SOL     OW 1240   7.004   1.799   1.743
  114SOL    HW1 1241   0.036   1.714   1.742
  114SOL    HW2 1242   0.035   1.872   1.700
  115SOL     OW 1243   4.130   0.667   2.584
  115SOL    HW1 1244   4.060   0.672   2.512
  115SOL    HW2 1245   4.196   0.741   2.571
  116SOL     OW 1246   6.800   5.360   1.346
  116SOL    HW1 1247   6.803   5.260   1.355
  116SOL    HW2 1248   6.754   5.399   1.426
  117SOL     OW 1249   2.942   1.777   0.545
  117SOL    HW1 1250   2.931   1.876   0.531
  117SOL    HW2 1251   2.910   1.729   0.464
  118SOL     OW 1252   0.211   2.540   2.162
  118SOL    HW1 1253   0.250   2.464   2.215
  118SOL    HW2 1254   0.137   2.505   2.104
  119SOL     OW 1255   6.290   6.170   4.775
  119SOL    HW1 1256   6.242   6.152   4.860
  119SOL    HW2 1257   6.319   6.266   4.772
  120SOL     OW 1258   4.295   1.725   4.557
  120SOL    HW1 1259   4.349   1.808   4.572
  120SOL    HW2 1260   4.256   1.727   4.465
  121SOL     OW 1261   0.185   5.858   6.245
  121SOL    HW1 1262   0.219   5.793   6.177
  121SOL    HW2 1263   0.114   5.916   6.203
  122SOL     OW 1264   6.518   4.914   6.076
  122SOL    HW1 1265   6.506   4.945   5.981
  122SOL    HW2 1266   6.449   4.846   6.098
  123SOL     OW 1267   0.615   2.657   1.324
  123SOL    HW1 1268   0.649   2.724   1.390
  123SOL    HW2 1269   0.647   2.682   1.232
  124SOL     OW 1270   1.768   3.455   0.227
  124SOL    HW1 1271   1.749   3.448   0.129
  124SOL    HW2 1272   1.859   3.495   0.240
  125SOL     OW 1273   4.228   2.497   0.511
  125SOL    HW1 1274   4.129   2.484   0.510
  125SOL    HW2 1275   4.270   2.444   0.438
  126SOL     OW 1276   3.255   3.189   5.009
  126SOL    HW1 1277   3.302   3.138   5.082
  126SOL    HW2 1278   3.314   3.195   4.929
  127SOL     OW 1279   0.178   4.828   6.116
  127SOL    HW1 1280   0.231   4.904   6.154
  127SOL    HW2 1281   0.162   4.843   6.019
  128SOL     OW 1282   4.371   3.849   6.031
  128SOL    HW1 1283   4.403   3.840   6.126
  128SOL    HW2 1284   4.447   3.829   5.969
  129SOL     OW 1285   0.311   5.001   1.687
  129SOL    HW1 1286   0.310   4.946   1.770
  129SOL    HW2 1287   0.361   4.952   1.615
  130SOL     OW 1288   6.134   3.463   4.896
  130SOL    HW1 1289   6.058   3.398   4.889
  130SOL    HW2 1290   6.128   3.529   4.821
  131SOL     OW 1291   0.940   3.368   3.396
  131SOL    HW1 1292   0.902   3.440   3.454
  131SOL    HW2 1293   1.039   3.383   3.385
  132SOL     OW 1294   4.373   2.551   1.358
  132SOL    HW1 1295   4.416   2.506   1.280
  132SOL    HW2 1296   4.382   2.494   1.439
  133SOL     OW 1297   4.401   4.895   6.143
  133SOL    HW1 1298   4.392   4.868   6.047
  133SOL    HW2 1299   4.468   4.969   6.151
  134SOL     OW 1300   6.179   1.569   0.947
  134SOL    HW1 1301   6.150   1.502   0.879
  134SOL    HW2 1302   6.220   1.648   0.901
  135SOL     OW 1303   4.288   4.633   3.704
  135SOL    HW1 1304   4.318   4.668   3.793
  135SOL    HW2 1305   4.223   4.697   3.663
  136SOL     OW 1306   3.984   6.700   6.044
  136SOL    HW1 1307   3.989   6.753   6.129
  136SOL    HW2 1308   4.024   6.609   6.059
  137SOL     OW 1309   2.188   4.176   6.574
  137SOL    HW1 1310   2.106   4.187   6.630
  137SOL    HW2 1311   2.211   4.263   6.530
  138SOL     OW 1312   1.291   5.461   6.566
  138SOL    HW1 1313   1.342   5.401   6.627
  138SOL    HW2 1314   1.300   5.556   6.597
  139SOL     OW 1315   0.168   0.109   1.164
  139SOL    HW1 1316   0.073   0.082   1.180
  139SOL    HW2 1317   0.230   0.040   1.202
  140SOL     OW 1318   3.777   0.335   1.645
  140SOL    HW1 1319   3.677   0.325   1.647
  140SOL    HW2 1320   3.805   0.364   1.554
  141SOL     OW 1321   0.294   1.423   6.837
  141SOL    HW1 1322   0.336   1.481   6.907
  141SOL    HW2 1323   0.254   1.480   6.766
  142SOL     OW 1324   1.886   3.931   0.237
  142SOL    HW1 1325   1.822   3.992   0.284
  142SOL    HW2 1326   1.945   3.983   0.176
  143SOL     OW 1327   5.122   5.436   1.761
  143SOL    HW1 1328   5.201   5.381   1.732
  143SOL    HW2 1329   5.155   5.520   1.805
  144SOL     OW 1330   3.715   5.320   2.681
  144SOL    HW1 1331   3.629   5.286   2.719
  144SOL    HW2 1332   3.754   5.250   2.621
  145SOL     OW 1333   0.385   5.445   3.455
  145SOL    HW1 1334   0.362   5.481   3.546
  145SOL    HW2 1335   0.477   5.475   3.430
  146SOL     OW 1336   6.598   0.870   5.710
  146SOL    HW1 1337   6.623   0.773   5.718
  146SOL    HW2 1338   6.615   0.916   5.797
  147SOL     OW 1339   5.996   1.051   5.201
  147SOL    HW1 1340   5.897   1.064   5.214
  147SOL    HW2 1341   6.034   1.129   5.153
  148SOL     OW 1342   1.806   6.424   1.497
  148SOL    HW1 1343   1.710   6.395   1.493
  148SOL    HW2 1344   1.846   6.394   1.584
  149SOL     OW 1345   1.237   3.486   4.601
  149SOL    HW1 1346   1.246   3.435   4.686
  149SOL    HW2 1347   1.325   3.488   4.554
  150SOL     OW 1348   4.694   2.187   5.599
  150SOL    HW1 1349   4.718   2.090   5.606
  150SOL    HW2 1350   4.708   2.231   5.688
  151SOL     OW 1351   6.366   2.783   1.171
  151SOL    HW1 1352   6.452   2.828   1.193
  151SOL    HW2 1353   6.356   2.701   1.228
  152SOL     OW 1354   6.944   2.705   1.285
  152SOL    HW1 1355   6.989   2.716   1.374
  152SOL    HW2 1356   6.986   2.627   1.237
  153SOL     OW 1357   1.767   1.786   3.222
  153SOL    HW1 1358   1.683   1.748   3.184
  153SOL    HW2 1359   1.805   1.723   3.290
  154SOL     OW 1360   0.264   1.511   3.613
  154SOL    HW1 1361   0.185   1.449   3.608
  154SOL    HW2 1362   0.231   1.605   3.620
  155SOL     OW 1363   5.602   4.748   3.973
  155SOL    HW1 1364   5.641   4.673   3.919
  155SOL    HW2 1365   5.550   4.809   3.912
  156SOL     OW 1366   4.797   0.983   1.333
  156SOL    HW1 1367   4.773   1.036   1.414
  156SOL    HW2 1368   4.728   0.912   1.319
  157SOL     OW 1369   4.980   0.442   1.302
  157SOL    HW1 1370   4.946   0.530   1.334
  157SOL    HW2 1371   4.903   0.377   1.295
  158SOL     OW 1372   0.676   3.065   4.217
  158SOL    HW1 1373   0.723   2.981   4.245
  158SOL    HW2 1374   0.702   3.088   4.123
  159SOL     OW 1375   6.227   5.286   0.110
  159SOL    HW1 1376   6.201   5.381   0.127
  159SOL    HW2 1377   6.229   5.236   0.196
  160SOL     OW 1378   4.280   1.015   1.060
  160SOL    HW1 1379   4.215   0.940   1.057
  160SOL    HW2 1380   4.275   1.067   0.974
  161SOL     OW 1381   7.007   6.502   0.264
  161SOL    HW1 1382   0.061   6.516   0.329
  161SOL    HW2 1383   0.005   6.551   0.179
  162SOL     OW 1384   4.378   0.210   5.675
  162SOL    HW1 1385   4.297   0.191   5.730
  162SOL    HW2 1386   4.461   0.193   5.729
  163SOL     OW 1387   0.855   3.744   2.781
  163SOL    HW1 1388   0.808   3.656   2.787
  163SOL    HW2 1389   0.858   3.786   2.872
  164SOL     OW 1390   2.027   2.102   2.396
  164SOL    HW1 1391   2.120   2.084   2.364
  164SOL    HW2 1392   1.995   2.188   2.357
  165SOL     OW 1393   0.164   6.768   3.823
  165SOL    HW1 1394   0.142   6.713   3.742
  165SOL    HW2 1395   0.231   6.719   3.879
  166SOL     OW 1396   0.485   4.448   3.873
  166SOL    HW1 1397   0.576   4.423   3.904
  166SOL    HW2 1398   0.423   4.451   3.952
  167SOL     OW 1399   1.325   1.359   3.858
  167SOL    HW1 1400   1.401   1.398   3.911
  167SOL    HW2 1401   1.354   1.340   3.765
  168SOL     OW 1402   3.449   3.850   2.928
  168SOL    HW1 1403   3.351   3.839   2.947
  168SOL    HW2 1404   3.470   3.947   2.916
  169SOL     OW 1405   5.171   2.324   0.213
  169SOL    HW1 1406   5.144   2.284   0.125
  169SOL    HW2 1407   5.271   2.323   0.221
  170SOL     OW 1408   0.216   5.599   1.228
  170SOL    HW1 1409   0.196   5.693   1.257
  170SOL    HW2 1410   0.173   5.535   1.292
  171SOL     OW 1411   3.059   2.605   0.937
  171SOL    HW1 1412   3.017   2.579   0.850
  171SOL    HW2 1413   2.991   2.651   0.994
  172SOL     OW 1414   1.040   0.879   0.156
  172SOL    HW1 1415   0.958   0.930   0.183
  172SOL    HW2 1416   1.122   0.931   0.181
  173SOL     OW 1417   5.884   1.181   4.704
  173SOL    HW1 1418   5.878   1.251   4.633
  173SOL    HW2 1419   5.797   1.177   4.754
  174SOL     OW 1420   5.790   4.242   4.907
  174SOL    HW1 1421   5.708   4.273   4.858
  174SOL    HW2 1422   5.773   4.152   4.948
  175SOL     OW 1423   0.542   6.672   2.918
  175SOL    HW1 1424   0.613   6.704   2.855
  175SOL    HW2 1425   0.547   6.573   2.925
  176SOL     OW 1426   6.629   4.070   0.956
  176SOL    HW1 1427   6.719   4.093   0.918
  176SOL    HW2 1428   6.624   3.971   0.970
  177SOL     OW 1429   6.455   2.049   3.833
  177SOL    HW1 1430   6.416   2.012   3.918
  177SOL    HW2 1431   6.435   1.987   3.758
  178SOL     OW 1432   2.454   5.507   4.811
  178SOL    HW1 1433   2.450   5.606   4.819
  178SOL    HW2 1434   2.390   5.476   4.740
  179SOL     OW 1435   3.774   4.222   1.795
  179SOL    HW1 1436   3.717   4.151   1.755
  179SOL    HW2 1437   3.721   4.307   1.803
  180SOL     OW 1438   4.627   1.824   6.393
  180SOL    HW1 1439   4.531   1.797   6.384
  180SOL    HW2 1440   4.667   1.835   6.303
  181SOL     OW 1441   3.780   0.867   5.952
  181SOL    HW1 1442   3.711   0.825   5.893
  181SOL    HW2 1443   3.861   0.888   5.898
  182SOL     OW 1444   2.613   2.920   5.554
  182SOL    HW1 1445   2.571   2.859   5.621
  182SOL    HW2 1446   2.547   2.940   5.481
  183SOL     OW 1447   3.170   0.899   3.232
  183SOL    HW1 1448   3.259   0.868   3.200
  183SOL    HW2 1449   3.180   0.988   3.278
  184SOL     OW 1450   4.935   5.561   3.419
  184SOL    HW1 1451   4.883   5.642   3.445
  184SOL    HW2 1452   4.904   5.483   3.472
  185SOL     OW 1453   0.554   6.702   4.983
  185SOL    HW1 1454   0.650   6.707   4.955
  185SOL    HW2 1455   0.524   6.607   4.982
  186SOL     OW 1456   3.005   5.910   5.380
  186SOL    HW1 1457   3.006   5.937   5.283
  186SOL    HW2 1458   3.019   5.812   5.387
  187SOL     OW 1459   4.049   6.122   0.929
  187SOL    HW1 1460   3.951   6.121   0.947
  187SOL    HW2 1461   4.070   6.193   0.862
  188SOL     OW 1462   1.466   3.385   3.221
  188SOL    HW1 1463   1.406   3.435   3.158
  188SOL    HW2 1464   1.533   3.332   3.169
  189SOL     OW 1465   5.594   4.552   5.949
  189SOL    HW1 1466   5.554   4.610   6.019
  189SOL    HW2 1467   5.692   4.568   5.944
  190SOL     OW 1468   6.207   6.503   0.717
  190SOL    HW1 1469   6.245   6.511   0.809
  190SOL    HW2 1470   6.254   6.566   0.656
  191SOL     OW 1471   1.736   2.556   5.192
  191SOL    HW1 1472   1.667   2.484   5.184
  191SOL    HW2 1473   1.827   2.517   5.182
  192SOL     OW 1474   0.131   6.161   1.528
  192SOL    HW1 1475   0.206   6.217   1.492
  192SOL    HW2 1476   0.044   6.194   1.491
  193SOL     OW 1477   2.706   0.566   2.220
  193SOL    HW1 1478   2.795   0.557   2.175
  193SOL    HW2 1479   2.648   0.627   2.167
  194SOL     OW 1480   4.215   6.268   2.809
  194SOL    HW1 1481   4.221   6.341   2.876
  194SOL    HW2 1482   4.123   6.265   2.770
  195SOL     OW 1483   2.970   0.600   1.006
  195SOL    HW1 1484   2.952   0.694   0.978
  195SOL    HW2 1485   2.887   0.545   0.998
  196SOL     OW 1486   4.041   2.558   0.817
  196SOL    HW1 1487   4.141   2.554   0.816
  196SOL    HW2 1488   4.008   2.578   0.725
  197SOL     OW 1489   2.099   5.916   0.330
  197SOL    HW1 1490   2.043   5.862   0.393
  197SOL    HW2 1491   2.177   5.955   0.380
  198SOL     OW 1492   4.424   6.824   6.630
  198SOL    HW1 1493   4.483   6.788   6.558
  198SOL    HW2 1494   4.355   6.756   6.654
  199SOL     OW 1495   1.749   0.816   2.561
  199SOL    HW1 1496   1.705   0.906   2.561
  199SOL    HW2 1497   1.697   0.753   2.619
  200SOL     OW 1498   0.989   3.447   4.199
  200SOL    HW1 1499   1.015   3.543   4.206
  200SOL    HW2 1500   1.072   3.391   4.190
  201SOL     OW 1501   4.085   1.665   6.332
  201SOL    HW1 1502   4.042   1.583   6.368
  201SOL    HW2 1503   4.017   1.738   6.324
  202SOL     OW 1504   3.700   0.778   2.758
  202SOL    HW1 1505   3.721   0.831   2.676
  202SOL    HW2 1506   3.781   0.729   2.789
  203SOL     OW 1507   5.928   2.437   0.305
  203SOL    HW1 1508   5.887   2.354   0.342
  203SOL    HW2 1509   6.003   2.413   0.243
  204SOL     OW 1510   2.139   6.199   1.136
  204SOL    HW1 1511   2.237   6.178   1.136
  204SOL    HW2 1512   2.113   6.241   1.223
  205SOL     OW 1513   5.936   0.455   1.318
  205SOL    HW1 1514   5.887   0.453   1.231
  205SOL    HW2 1515   5.884   0.405   1.387
  206SOL     OW 1516   6.779   5.893   1.454
  206SOL    HW1 1517   6.774   5.856   1.361
  206SOL    HW2 1518   6.809   5.988   1.450
  207SOL     OW 1519   6.110   2.114   6.049
  207SOL    HW1 1520   6.039   2.095   6.116
  207SOL    HW2 1521   6.136   2.210   6.054
  208SOL     OW 1522   4.372   4.404   6.921
  208SOL    HW1 1523   4.442   4.336   6.900
  208SOL    HW2 1524   4.340   4.445   6.836
  209SOL     OW 1525   0.145   5.713   3.767
  209SOL    HW1 1526   0.206   5.742   3.693
  209SOL    HW2 1527   0.097   5.792   3.804
  210SOL     OW 1528   4.000   2.291   0.773
  210SOL    HW1 1529   3.950   2.210   0.805
  210SOL    HW2 1530   3.993   2.364   0.840
  211SOL     OW 1531   1.012   3.245   1.598
  211SOL    HW1 1532   0.986   3.335   1.633
  211SOL    HW2 1533   1.071   3.200   1.665
  212SOL     OW 1534   0.381   5.267   4.608
  212SOL    HW1 1535   0.427   5.182   4.584
  212SOL    HW2 1536   0.446   5.329   4.653
  213SOL     OW 1537   3.686   2.479   6.870
  213SOL    HW1 1538   3.589   2.471   6.845
  213SOL    HW2 1539   3.737   2.515   6.792
  214SOL     OW 1540   1.512   6.531   3.145
  214SOL    HW1 1541   1.594   6.478   3.125
  214SOL    HW2 1542   1.507   6.550   3.243
  215SOL     OW 1543   3.741   4.035   2.634
  215SOL    HW1 1544   3.816   4.022   2.698
  215SOL    HW2 1545   3.665   4.081   2.680
  216SOL     OW 1546   2.845   6.978   5.751
  216SOL    HW1 1547   2.770   6.966   5.685
  216SOL    HW2 1548   2.837   6.908   5.822
  217SOL     OW 1549   6.714   2.422   4.747
  217SOL    HW1 1550   6.658   2.360   4.801
  217SOL    HW2 1551   6.678   2.428   4.654
  218SOL     OW 1552   2.631   3.866   5.624
  218SOL    HW1 1553   2.591   3.859   5.533
  218SOL    HW2 1554   2.586   3.939   5.675
  219SOL     OW 1555   3.595   5.206   0.145
  219SOL    HW1 1556   3.517   5.174   0.091
  219SOL    HW2 1557   3.657   5.258   0.086
  220SOL     OW 1558   1.581   4.209   0.608
  220SOL    HW1 1559   1.607   4.303   0.629
  220SOL    HW2 1560   1.493   4.209   0.560
  221SOL     OW 1561   5.956   2.788   4.231
  221SOL    HW1 1562   5.918   2.718   4.170
  221SOL    HW2 1563   5.883   2.850   4.261
  222SOL     OW 1564   1.804   6.350   4.505
  222SOL    HW1 1565   1.881   6.287   4.509
  222SOL    HW2 1566   1.832   6.439   4.539
  223SOL     OW 1567   5.907   4.907   2.578
  223SOL    HW1 1568   5.876   4.964   2.654
  223SOL    HW2 1569   5.952   4.965   2.510
  224SOL     OW 1570   4.305   2.217   2.417
  224SOL    HW1 1571   4.207   2.206   2.398
  224SOL    HW2 1572   4.353   2.242   2.333
  225SOL     OW 1573   5.050   6.699   1.162
  225SOL    HW1 1574   4.970   6.663   1.209
  225SOL    HW2 1575   5.031   6.708   1.065
  226SOL     OW 1576   0.026   5.530   2.458
  226SOL    HW1 1577   6.993   5.603   2.416
  226SOL    HW2 1578   0.117   5.564   2.480
  227SOL     OW 1579   1.240   3.439   3.036
  227SOL    HW1 1580   1.251   3.353   2.987
  227SOL    HW2 1581   1.288   3.512   2.987
  228SOL     OW 1582   4.064   6.407   2.482
  228SOL    HW1 1583   4.124   6.406   2.402
  228SOL    HW2 1584   3.998   6.482   2.473
  229SOL     OW 1585   6.317   5.286   2.664
  229SOL    HW1 1586   6.284   5.235   2.584
  229SOL    HW2 1587   6.282   5.244   2.747
  230SOL     OW 1588   0.853   4.170   6.222
  230SOL    HW1 1589   0.862   4.106   6.299
  230SOL    HW2 1590   0.886   4.260   6.250
  231SOL     OW 1591   0.274   1.849   6.894
  231SOL    HW1 1592   0.305   1.933   6.938
  231SOL    HW2 1593   0.337   1.774   6.914
  232SOL     OW 1594   1.159   4.038   6.267
  232SOL    HW1 1595   1.194   4.059   6.175
  232SOL    HW2 1596   1.088   3.969   6.261
  233SOL     OW 1597   3.381   6.595   6.633
  233SOL    HW1 1598   3.406   6.594   6.730
  233SOL    HW2 1599   3.340   6.508   6.608
  234SOL     OW 1600   2.808   4.904   6.018
  234SOL    HW1 1601   2.835   4.999   6.034
  234SOL    HW2 1602   2.719   4.887   6.062
  235SOL     OW 1603   3.116   3.383   5.685
  235SOL    HW1 1604   3.095   3.480   5.693
  235SOL    HW2 1605   3.180   3.357   5.757
  236SOL     OW 1606   0.148   2.024   6.137
  236SOL    HW1 1607   0.244   2.046   6.152
  236SOL    HW2 1608   0.132   1.928   6.159
  237SOL     OW 1609   6.658   6.513   1.586
  237SOL    HW1 1610   6.701   6.451   1.652
  237SOL    HW2 1611   6.714   6.595   1.575
  238SOL     OW 1612   0.120   1.738   2.577
  238SOL    HW1 1613   0.117   1.821   2.520
  238SOL    HW2 1614   0.084   1.661   2.525
  239SOL     OW 1615   6.703   5.651   0.492
  239SOL    HW1 1616   6.626   5.713   0.476
  239SOL    HW2 1617   6.730   5.657   0.588
  240SOL     OW 1618   0.448   2.361   5.813
  240SOL    HW1 1619   0.357   2.355   5.855
  240SOL    HW2 1620   0.511   2.301   5.862
  241SOL     OW 1621   5.839   2.439   4.627
  241SOL    HW1 1622   5.862   2.536   4.630
  241SOL    HW2 1623   5.907   2.387   4.679
  242SOL     OW 1624   2.743   2.244   3.944
  242SOL    HW1 1625   2.756   2.314   3.874
  242SOL    HW2 1626   2.708   2.286   4.028
  243SOL     OW 1627   4.622   1.483   6.887
  243SOL    HW1 1628   4.553   1.426   6.843
  243SOL    HW2 1629   4.703   1.490   6.828
  244SOL     OW 1630   0.703   1.463   5.720
  244SOL    HW1 1631   0.755   1.528   5.665
  244SOL    HW2 1632   0.625   1.429   5.668
  245SOL     OW 1633   5.002   2.548   3.696
  245SOL    HW1 1634   4.926   2.493   3.663
  245SOL    HW2 1635   5.055   2.494   3.762
  246SOL     OW 1636   4.823   3.096   3.571
  246SOL    HW1 1637   4.822   3.183   3.620
  246SOL    HW2 1638   4.911   3.051   3.584
  247SOL     OW 1639   2.846   0.502   2.902
  247SOL    HW1 1640   2.912   0.492   2.976
  247SOL    HW2 1641   2.894   0.506   2.814
  248SOL     OW 1642   6.782   1.170   2.312
  248SOL    HW1 1643   6.704   1.225   2.343
  248SOL    HW2 1644   6.801   1.098   2.378
  249SOL     OW 1645   2.036   5.292   5.283
  249SOL    HW1 1646   2.049   5.389   5.305
  249SOL    HW2 1647   2.006   5.242   5.364
  250SOL     OW 1648   5.579   2.508   0.095
  250SOL    HW1 1649   5.664   2.547   0.132
  250SOL    HW2 1650   5.594   2.480   0.000
  251SOL     OW 1651   1.697   1.571   0.806
  251SOL    HW1 1652   1.609   1.528   0.823
  251SOL    HW2 1653   1.739   1.530   0.725
  252SOL     OW 1654   0.363   1.538   0.221
  252SOL    HW1 1655   0.450   1.495   0.199
  252SOL    HW2 1656   0.377   1.635   0.238
  253SOL     OW 1657   1.792   4.526   6.172
  253SOL    HW1 1658   1.726   4.600   6.164
  253SOL    HW2 1659   1.883   4.564   6.189
  254SOL     OW 1660   4.797   3.880   6.059
  254SOL    HW1 1661   4.879   3.826   6.075
  254SOL    HW2 1662   4.740   3.880   6.141
  255SOL     OW 1663   4.037   2.130   2.293
  255SOL    HW1 1664   4.064   2.145   2.198
  255SOL    HW2 1665   3.939   2.111   2.298
  256SOL     OW 1666   6.756   5.384   1.592
  256SOL    HW1 1667   6.850   5.364   1.620
  256SOL    HW2 1668   6.709   5.433   1.665
  257SOL     OW 1669   2.584   6.056   6.037
  257SOL    HW1 1670   2.556   6.151   6.024
  257SOL    HW2 1671   2.627   6.022   5.953
  258SOL     OW 1672   4.323   4.659   4.126
  258SOL    HW1 1673   4.364   4.731   4.183
  258SOL    HW2 1674   4.226   4.680   4.111
  259SOL     OW 1675   0.728   2.105   2.696
  259SOL    HW1 1676   0.672   2.166   2.641
  259SOL    HW2 1677   0.743   2.145   2.786
  260SOL     OW 1678   0.007   6.635   5.617
  260SOL    HW1 1679   0.074   6.701   5.650
  260SOL    HW2 1680   6.955   6.624   5.685
  261SOL     OW 1681   0.528   1.329   3.696
  261SOL    HW1 1682   0.488   1.322   3.788
  261SOL    HW2 1683   0.602   1.396   3.697
  262SOL     OW 1684   1.008   4.709   2.102
  262SOL    HW1 1685   1.008   4.667   2.192
  262SOL    HW2 1686   1.092   4.764   2.091
  263SOL     OW 1687   0.527   3.851   4.424
  263SOL    HW1 1688   0.609   3.909   4.413
  263SOL    HW2 1689   0.503   3.810   4.336
  264SOL     OW 1690   3.272   4.437   0.047
  264SOL    HW1 1691   3.250   4.377   0.124
  264SOL    HW2 1692   3.308   4.383   6.993
  265SOL     OW 1693   4.555   5.619   3.405
  265SOL    HW1 1694   4.495   5.674   3.346
  265SOL    HW2 1695   4.588   5.540   3.354
  266SOL     OW 1696   4.154   3.493   6.787
  266SOL    HW1 1697   4.111   3.407   6.760
  266SOL    HW2 1698   4.213   3.478   6.866
  267SOL     OW 1699   1.946   2.281   5.978
  267SOL    HW1 1700   1.964   2.342   5.901
  267SOL    HW2 1701   1.906   2.333   6.053
  268SOL     OW 1702   2.650   4.657   3.823
  268SOL    HW1 1703   2.596   4.695   3.898
  268SOL    HW2 1704   2.600   4.582   3.781
  269SOL     OW 1705   1.777   1.978   4.906
  269SOL    HW1 1706   1.690   2.007   4.868
  269SOL    HW2 1707   1.764   1.944   4.999
  270SOL     OW 1708   5.050   6.423   4.713
  270SOL    HW1 1709   4.952   6.407   4.728
  270SOL    HW2 1710   5.065   6.452   4.619
  271SOL     OW 1711   2.093   1.679   0.124
  271SOL    HW1 1712   2.120   1.686   0.221
  271SOL    HW2 1713   2.081   1.583   0.099
  272SOL     OW 1714   4.482   5.469   0.083
  272SOL    HW1 1715   4.498   5.544   0.018
  272SOL    HW2 1716   4.569   5.423   0.101
  273SOL     OW 1717   2.047   6.557   3.951
  273SOL    HW1 1718   2.116   6.490   3.980
  273SOL    HW2 1719   1.983   6.574   4.026
  274SOL     OW 1720   5.843   2.042   1.154
  274SOL    HW1 1721   5.828   2.120   1.093
  274SOL    HW2 1722   5.848   2.074   1.248
  275SOL     OW 1723   5.203   6.013   5.605
  275SOL    HW1 1724   5.162   5.941   5.549
  275SOL    HW2 1725   5.135   6.049   5.669
  276SOL     OW 1726   0.313   6.866   4.524
  276SOL    HW1 1727   0.356   6.829   4.606
  276SOL    HW2 1728   0.259   6.946   4.547
  277SOL     OW 1729   4.514   2.771   5.603
  277SOL    HW1 1730   4.509   2.871   5.604
  277SOL    HW2 1731   4.450   2.736   5.535
  278SOL     OW 1732   5.623   4.306   3.256
  278SOL    HW1 1733   5.543   4.333   3.309
  278SOL    HW2 1734   5.660   4.221   3.292
  279SOL     OW 1735   6.994   3.642   3.700
  279SOL    HW1 1736   6.966   3.546   3.703
  279SOL    HW2 1737   6.937   3.695   3.763
  280SOL     OW 1738   4.010   1.619   3.513
  280SOL    HW1 1739   3.928   1.566   3.537
  280SOL    HW2 1740   4.091   1.562   3.522
  281SOL     OW 1741   4.982   6.281   5.106
  281SOL    HW1 1742   4.958   6.260   5.200
  281SOL    HW2 1743   5.010   6.197   5.059
  282SOL     OW 1744   0.552   2.793   0.379
  282SOL    HW1 1745   0.456   2.804   0.352
  282SOL    HW2 1746   0.568   2.698   0.406
  283SOL     OW 1747   6.488   3.722   3.987
  283SOL    HW1 1748   6.502   3.815   3.953
  283SOL    HW2 1749   6.554   3.660   3.944
  284SOL     OW 1750   5.036   0.042   2.344
  284SOL    HW1 1751   5.022   0.131   2.387
  284SOL    HW2 1752   4.991   6.992   2.399
  285SOL     OW 1753   3.983   6.213   5.534
  285SOL    HW1 1754   3.927   6.260   5.466
  285SOL    HW2 1755   4.040   6.144   5.488
  286SOL     OW 1756   2.894   4.723   5.563
  286SOL    HW1 1757   2.860   4.802   5.614
  286SOL    HW2 1758   2.893   4.743   5.465
  287SOL     OW 1759   3.660   5.677   6.858
  287SOL    HW1 1760   3.726   5.748   6.882
  287SOL    HW2 1761   3.694   5.624   6.781
  288SOL     OW 1762   4.334   1.711   0.510
  288SOL    HW1 1763   4.276   1.638   0.474
  288SOL    HW2 1764   4.392   1.674   0.582
  289SOL     OW 1765   5.683   4.837   4.709
  289SOL    HW1 1766   5.696   4.740   4.689
  289SOL    HW2 1767   5.603   4.871   4.660
  290SOL     OW 1768   3.200   0.362   6.000
  290SOL    HW1 1769   3.266   0.424   5.958
  290SOL    HW2 1770   3.107   0.396   5.983
  291SOL     OW 1771   4.645   0.900   5.415
  291SOL    HW1 1772   4.709   0.977   5.416
  291SOL    HW2 1773   4.696   0.814   5.410
  292SOL     OW 1774   3.475   0.340   3.964
  292SOL    HW1 1775   3.511   0.371   3.876
  292SOL    HW2 1776   3.539   0.276   4.006
  293SOL     OW 1777   4.838   0.320   3.007
  293SOL    HW1 1778   4.739   0.328   3.018
  293SOL    HW2 1779   4.865   0.365   2.921
  294SOL     OW 1780   6.608   1.115   6.592
  294SOL    HW1 1781   6.673   1.047   6.624
  294SOL    HW2 1782   6.569   1.086   6.505
  295SOL     OW 1783   0.395   0.567   4.908
  295SOL    HW1 1784   0.348   0.605   4.828
  295SOL    HW2 1785   0.363   0.473   4.924
  296SOL     OW 1786   0.661   1.978   1.409
  296SOL    HW1 1787   0.586   1.947   1.350
  296SOL    HW2 1788   0.670   1.916   1.487
  297SOL     OW 1789   5.160   3.145   3.241
  297SOL    HW1 1790   5.177   3.056   3.198
  297SOL    HW2 1791   5.244   3.198   3.242
  298SOL     OW 1792   4.084   1.279   6.134
  298SOL    HW1 1793   4.133   1.359   6.167
  298SOL    HW2 1794   3.988   1.286   6.161
  299SOL     OW 1795   0.587   1.210   6.281
  299SOL    HW1 1796   0.500   1.232   6.327
  299SOL    HW2 1797   0.632   1.135   6.329
  300SOL     OW 1798   4.357   6.340   3.363
  300SOL    HW1 1799   4.372   6.361   3.267
  300SOL    HW2 1800   4.418   6.396   3.419
  301SOL     OW 1801   6.963   5.575   5.753
  301SOL    HW1 1802   7.001   5.635   5.825
  301SOL    HW2 1803   6.864   5.571   5.762
  302SOL     OW 1804   6.912   6.858   2.753
  302SOL    HW1 1805   6.879   6.944   2.792
  302SOL    HW2 1806   6.962   6.877   2.668
  303SOL     OW 1807   5.544   5.880   2.599
  303SOL    HW1 1808   5.563   5.816   2.524
  303SOL    HW2 1809   5.473   5.945   2.569
  304SOL     OW 1810   1.944   7.009   4.557
  304SOL    HW1 1811   1.945   0.072   4.611
  304SOL    HW2 1812   1.869   6.950   4.589
  305SOL     OW 1813   0.872   2.143   1.086
  305SOL    HW1 1814   0.904   2.048   1.085
  305SOL    HW2 1815   0.804   2.157   1.014
  306SOL     OW 1816   0.285   6.785   2.923
  306SOL    HW1 1817   0.283   6.855   2.994
  306SOL    HW2 1818   0.375   6.741   2.922
  307SOL     OW 1819   4.020   3.765   3.187
  307SOL    HW1 1820   3.939   3.822   3.188
  307SOL    HW2 1821   4.040   3.733   3.280
  308SOL     OW 1822   6.792   1.794   2.415
  308SOL    HW1 1823   6.860   1.864   2.393
  308SOL    HW2 1824   6.712   1.806   2.356
  309SOL     OW 1825   2.023   5.016   0.389
  309SOL    HW1 1826   2.051   5.037   0.483
  309SOL    HW2 1827   2.012   5.101   0.337
  310SOL     OW 1828   5.338   6.617   5.032
  310SOL    HW1 1829   5.245   6.589   5.010
  310SOL    HW2 1830   5.399   6.596   4.955
  311SOL     OW 1831   1.290   6.147   1.741
  311SOL    HW1 1832   1.360   6.076   1.746
  311SOL    HW2 1833   1.327   6.234   1.771
  312SOL     OW 1834   3.365   0.738   4.272
  312SOL    HW1 1835   3.372   0.665   4.204
  312SOL    HW2 1836   3.431   0.722   4.346
  313SOL     OW 1837   2.990   3.226   2.931
  313SOL    HW1 1838   2.969   3.128   2.938
  313SOL    HW2 1839   2.959   3.260   2.843
  314SOL     OW 1840   2.874   5.830   6.284
  314SOL    HW1 1841   2.887   5.911   6.340
  314SOL    HW2 1842   2.785   5.834   6.239
  315SOL     OW 1843   5.431   0.539   4.568
  315SOL    HW1 1844   5.340   0.570   4.543
  315SOL    HW2 1845   5.498   0.612   4.550
  316SOL     OW 1846   3.557   1.073   6.607
  316SOL    HW1 1847   3.605   0.989   6.582
  316SOL    HW2 1848   3.563   1.138   6.531
  317SOL     OW 1849   0.526   2.170   1.174
  317SOL    HW1 1850   0.555   2.257   1.216
  317SOL    HW2 1851   0.564   2.164   1.082
  318SOL     OW 1852   0.992   0.295   3.582
  318SOL    HW1 1853   0.931   0.374   3.585
  318SOL    HW2 1854   1.060   0.304   3.655
  319SOL     OW 1855   0.106   0.820   3.211
  319SOL    HW1 1856   0.143   0.783   3.126
  319SOL    HW2 1857   0.142   0.768   3.289
  320SOL     OW 1858   4.792   1.792   0.416
  320SOL    HW1 1859   4.766   1.805   0.512
  320SOL    HW2 1860   4.710   1.770   0.363
  321SOL     OW 1861   4.495   2.954   0.979
  321SOL    HW1 1862   4.578   2.925   0.931
  321SOL    HW2 1863   4.418   2.897   0.950
  322SOL     OW 1864   3.576   2.536   6.329
  322SOL    HW1 1865   3.537   2.607   6.271
  322SOL    HW2 1866   3.507   2.507   6.396
  323SOL     OW 1867   1.358   3.843   2.511
  323SOL    HW1 1868   1.422   3.769   2.492
  323SOL    HW2 1869   1.265   3.811   2.495
  324SOL     OW 1870   0.338   6.993   3.485
  324SOL    HW1 1871   0.324   6.895   3.472
  324SOL    HW2 1872   0.350   0.016   3.396
  325SOL     OW 1873   6.368   3.941   0.522
  325SOL    HW1 1874   6.270   3.949   0.538
  325SOL    HW2 1875   6.408   3.879   0.589
  326SOL     OW 1876   0.016   5.746   0.051
  326SOL    HW1 1877   0.112   5.740   0.022
  326SOL    HW2 1878   0.003   5.830   0.104
  327SOL     OW 1879   4.162   6.166   6.209
  327SOL    HW1 1880   4.222   6.213   6.143
  327SOL    HW2 1881   4.093   6.230   6.242
  328SOL     OW 1882   1.201   4.630   3.387
  328SOL    HW1 1883   1.151   4.547   3.411
  328SOL    HW2 1884   1.256   4.613   3.305
  329SOL     OW 1885   3.125   3.155   2.323
  329SOL    HW1 1886   3.144   3.250   2.300
  329SOL    HW2 1887   3.143   3.097   2.243
  330SOL     OW 1888   2.739   3.396   0.244
  330SOL    HW1 1889   2.734   3.300   0.217
  330SOL    HW2 1890   2.771   3.403   0.338
  331SOL     OW 1891   5.499   4.932   4.970
  331SOL    HW1 1892   5.519   4.857   4.907
  331SOL    HW2 1893   5.583   4.979   4.995
  332SOL     OW 1894   6.004   2.121   3.161
  332SOL    HW1 1895   6.087   2.109   3.106
  332SOL    HW2 1896   6.029   2.123   3.258
  333SOL     OW 1897   3.651   6.979   4.433
  333SOL    HW1 1898   3.631   7.019   4.522
  333SOL    HW2 1899   3.747   6.948   4.430
  334SOL     OW 1900   3.461   3.576   3.612
  334SOL    HW1 1901   3.529   3.517   3.656
  334SOL    HW2 1902   3.500   3.667   3.597
  335SOL     OW 1903   3.365   1.100   1.510
  335SOL    HW1 1904   3.315   1.166   1.565
  335SOL    HW2 1905   3.445   1.067   1.560
  336SOL     OW 1906   4.548   2.125   5.054
  336SOL    HW1 1907   4.499   2.039   5.064
  336SOL    HW2 1908   4.647   2.107   5.060
  337SOL     OW 1909   6.830   0.835   5.307
  337SOL    HW1 1910   6.888   0.767   5.262
  337SOL    HW2 1911   6.883   0.883   5.377
  338SOL     OW 1912   4.221   1.485   1.593
  338SOL    HW1 1913   4.165   1.455   1.516
  338SOL    HW2 1914   4.189   1.575   1.624
  339SOL     OW 1915   4.385   5.289   6.021
  339SOL    HW1 1916   4.295   5.332   6.012
  339SOL    HW2 1917   4.445   5.320   5.947
  340SOL     OW 1918   5.564   2.954   4.781
  340SOL    HW1 1919   5.660   2.942   4.805
  340SOL    HW2 1920   5.557   3.005   4.695
  341SOL     OW 1921   0.021   6.984   2.532
  341SOL    HW1 1922   0.093   6.952   2.470
  341SOL    HW2 1923   0.061   0.026   2.598
  342SOL     OW 1924   4.356   1.948   2.500
  342SOL    HW1 1925   4.301   1.901   2.431
  342SOL    HW2 1926   4.350   2.047   2.486
  343SOL     OW 1927   5.514   0.035   1.163
  343SOL    HW1 1928   5.529   0.071   1.255
  343SOL    HW2 1929   5.453   6.977   1.167
  344SOL     OW 1930   6.810   3.171   1.936
  344SOL    HW1 1931   6.873   3.098   1.910
  344SOL    HW2 1932   6.784   3.223   1.855
  345SOL     OW 1933   6.817   2.651   4.254
  345SOL    HW1 1934   6.851   2.592   4.327
  345SOL    HW2 1935   6.788   2.738   4.293
  346SOL     OW 1936   2.393   6.293   3.230
  346SOL    HW1 1937   2.392   6.325   3.135
  346SOL    HW2 1938   2.299   6.290   3.265
  347SOL     OW 1939   2.488   4.677   0.829
  347SOL    HW1 1940   2.450   4.669   0.922
  347SOL    HW2 1941   2.500   4.774   0.807
  348SOL     OW 1942   4.416   5.007   1.859
  348SOL    HW1 1943   4.466   5.089   1.829
  348SOL    HW2 1944   4.330   5.000   1.809
  349SOL     OW 1945   5.376   4.134   0.558
  349SOL    HW1 1946   5.401   4.108   0.464
  349SOL    HW2 1947   5.412   4.067   0.622
  350SOL     OW 1948   2.263   1.598   6.771
  350SOL    HW1 1949   2.270   1.605   6.671
  350SOL    HW2 1950   2.183   1.543   6.795
  351SOL     OW 1951   3.512   4.126   0.928
  351SOL    HW1 1952   3.558   4.194   0.871
  351SOL    HW2 1953   3.479   4.051   0.870
  352SOL     OW 1954   4.396   0.078   2.444
  352SOL    HW1 1955   4.437   0.008   2.501
  352SOL    HW2 1956   4.301   0.094   2.471
  353SOL     OW 1957   2.014   6.603   0.453
  353SOL    HW1 1958   2.048   6.597   0.359
  353SOL    HW2 1959   1.944   6.674   0.460
  354SOL     OW 1960   0.997   2.425   0.552
  354SOL    HW1 1961   0.977   2.372   0.470
  354SOL    HW2 1962   0.976   2.371   0.634
  355SOL     OW 1963   0.527   3.073   3.625
  355SOL    HW1 1964   0.549   3.166   3.653
  355SOL    HW2 1965   0.602   3.036   3.569
  356SOL     OW 1966   2.873   0.403   5.254
  356SOL    HW1 1967   2.820   0.323   5.283
  356SOL    HW2 1968   2.834   0.485   5.296
  357SOL     OW 1969   6.207   6.526   4.569
  357SOL    HW1 1970   6.165   6.441   4.537
  357SOL    HW2 1971   6.135   6.589   4.599
  358SOL     OW 1972   3.430   6.025   6.338
  358SOL    HW1 1973   3.338   6.060   6.353
  358SOL    HW2 1974   3.435   5.930   6.370
  359SOL     OW 1975   1.509   2.158   1.766
  359SOL    HW1 1976   1.553   2.216   1.835
  359SOL    HW2 1977   1.481   2.072   1.808
  360SOL     OW 1978   2.194   4.567   3.638
  360SOL    HW1 1979   2.278   4.512   3.643
  360SOL    HW2 1980   2.209   4.646   3.578
  361SOL     OW 1981   0.231   1.703   2.211
  361SOL    HW1 1982   0.138   1.670   2.197
  361SOL    HW2 1983   0.277   1.645   2.278
  362SOL     OW 1984   3.744   3.647   2.078
  362SOL    HW1 1985   3.690   3.721   2.117
  362SOL    HW2 1986   3.841   3.665   2.093
  363SOL     OW 1987   4.598   5.159   1.513
  363SOL    HW1 1988   4.659   5.101   1.459
  363SOL    HW2 1989   4.622   5.255   1.499
  364SOL     OW 1990   0.864   0.558   0.296
  364SOL    HW1 1991   0.807   0.476   0.282
  364SOL    HW2 1992   0.927   0.568   0.219
  365SOL     OW 1993   5.541   0.951   4.097
  365SOL    HW1 1994   5.597   0.871   4.116
  365SOL    HW2 1995   5.599   1.024   4.061
  366SOL     OW 1996   5.481   1.746   6.951
  366SOL    HW1 1997   5.432   1.719   6.869
  366SOL    HW2 1998   5.443   1.698   0.009
  367SOL     OW 1999   5.126   0.764   6.676
  367SOL    HW1 2000   5.072   0.748   6.759
  367SOL    HW2 2001   5.206   0.703   6.676
  368SOL     OW 2002   1.318   1.977   5.301
  368SOL    HW1 2003   1.266   1.992   5.217
  368SOL    HW2 2004   1.312   2.058   5.359
  369SOL     OW 2005   5.863   4.488   0.312
  369SOL    HW1 2006   5.926   4.525   0.244
  369SOL    HW2 2007   5.896   4.509   0.404
  370SOL     OW 2008   2.495   2.573   3.197
  370SOL    HW1 2009   2.578   2.532   3.159
  370SOL    HW2 2010   2.415   2.522   3.167
  371SOL     OW 2011   1.279   6.179   6.835
  371SOL    HW1 2012   1.285   6.231   6.750
  371SOL    HW2 2013   1.239   6.236   6.907
  372SOL     OW 2014   2.742   5.666   5.750
  372SOL    HW1 2015   2.829   5.621   5.767
  372SOL    HW2 2016   2.678   5.644   5.823
  373SOL     OW 2017   6.063   4.593   3.023
  373SOL    HW1 2018   6.092   4.521   3.086
  373SOL    HW2 2019   6.081   4.564   2.929
  374SOL     OW 2020   2.912   1.730   2.580
  374SOL    HW1 2021   2.997   1.690   2.615
  374SOL    HW2 2022   2.932   1.813   2.529
  375SOL     OW 2023   1.447   5.725   3.997
  375SOL    HW1 2024   1.428   5.815   4.036
  375SOL    HW2 2025   1.361   5.679   3.974
  376SOL     OW 2026   3.778   0.581   3.629
  376SOL    HW1 2027   3.708   0.511   3.611
  376SOL    HW2 2028   3.763   0.618   3.721
  377SOL     OW 2029   2.152   2.018   6.455
  377SOL    HW1 2030   2.115   1.941   6.506
  377SOL    HW2 2031   2.229   2.058   6.505
  378SOL     OW 2032   4.052   1.337   2.063
  378SOL    HW1 2033   4.028   1.431   2.040
  378SOL    HW2 2034   4.146   1.319   2.034
  379SOL     OW 2035   4.284   2.223   6.098
  379SOL    HW1 2036   4.251   2.159   6.168
  379SOL    HW2 2037   4.216   2.295   6.085
  380SOL     OW 2038   3.891   2.258   0.508
  380SOL    HW1 2039   3.925   2.278   0.600
  380SOL    HW2 2040   3.833   2.176   0.512
  381SOL     OW 2041   2.158   3.911   3.059
  381SOL    HW1 2042   2.072   3.962   3.050
  381SOL    HW2 2043   2.141   3.815   3.038
  382SOL     OW 2044   5.888   0.561   6.918
  382SOL    HW1 2045   5.824   0.581   6.843
  382SOL    HW2 2046   5.936   0.475   6.899
  383SOL     OW 2047   4.594   2.739   0.441
  383SOL    HW1 2048   4.684   2.697   0.428
  383SOL    HW2 2049   4.547   2.693   0.516
  384SOL     OW 2050   0.086   3.896   5.043
  384SOL    HW1 2051   0.144   3.963   5.090
  384SOL    HW2 2052   0.107   3.895   4.946
  385SOL     OW 2053   4.642   3.277   0.298
  385SOL    HW1 2054   4.681   3.194   0.338
  385SOL    HW2 2055   4.712   3.347   0.291
  386SOL     OW 2056   4.522   6.440   4.641
  386SOL    HW1 2057   4.438   6.449   4.694
  386SOL    HW2 2058   4.500   6.420   4.545
  387SOL     OW 2059   2.951   5.811   4.071
  387SOL    HW1 2060   2.868   5.772   4.032
  387SOL    HW2 2061   3.005   5.739   4.114
  388SOL     OW 2062   1.135   4.841   6.467
  388SOL    HW1 2063   1.183   4.753   6.474
  388SOL    HW2 2064   1.148   4.893   6.551
  389SOL     OW 2065   3.124   2.762   1.857
  389SOL    HW1 2066   3.080   2.682   1.899
  389SOL    HW2 2067   3.090   2.773   1.764
  390SOL     OW 2068   2.236   1.082   4.652
  390SOL    HW1 2069   2.138   1.084   4.634
  390SOL    HW2 2070   2.285   1.119   4.572
  391SOL     OW 2071   1.322   2.296   0.209
  391SOL    HW1 2072   1.376   2.343   0.279
  391SOL    HW2 2073   1.377   2.223   0.168
  392SOL     OW 2074   3.364   5.687   3.643
  392SOL    HW1 2075   3.283   5.729   3.602
  392SOL    HW2 2076   3.427   5.759   3.674
  393SOL     OW 2077   6.176   3.850   5.105
  393SOL    HW1 2078   6.202   3.901   5.024
  393SOL    HW2 2079   6.214   3.758   5.100
  394SOL     OW 2080   2.102   1.166   6.230
  394SOL    HW1 2081   2.181   1.106   6.244
  394SOL    HW2 2082   2.031   1.116   6.180
  395SOL     OW 2083   6.376   3.434   1.096
  395SOL    HW1 2084   6.410   3.500   1.029
  395SOL    HW2 2085   6.315   3.481   1.160
  396SOL     OW 2086   3.386   2.805   5.218
  396SOL    HW1 2087   3.481   2.771   5.218
  396SOL    HW2 2088   3.352   2.810   5.125
  397SOL     OW 2089   3.422   1.747   7.014
  397SOL    HW1 2090   3.346   1.688   0.022
  397SOL    HW2 2091   3.417   1.760   6.915
  398SOL     OW 2092   1.097   4.905   2.691
  398SOL    HW1 2093   1.097   4.933   2.595
  398SOL    HW2 2094   1.031   4.960   2.742
  399SOL     OW 2095   5.340   4.756   2.362
  399SOL    HW1 2096   5.373   4.664   2.380
  399SOL    HW2 2097   5.335   4.808   2.447
  400SOL     OW 2098   2.399   4.838   4.492
  400SOL    HW1 2099   2.454   4.880   4.564
  400SOL    HW2 2100   2.409   4.892   4.408
  401SOL     OW 2101   5.405   1.359   0.268
  401SOL    HW1 2102   5.377   1.301   0.345
  401SOL    HW2 2103   5.325   1.408   0.233
  402SOL     OW 2104   6.537   4.515   1.180
  402SOL    HW1 2105   6.521   4.610   1.206
  402SOL    HW2 2106   6.607   4.512   1.108
  403SOL     OW 2107   5.171   3.980   0.227
  403SOL    HW1 2108   5.166   4.079   0.218
  403SOL    HW2 2109   5.093   3.948   0.281
  404SOL     OW 2110   0.440   6.453   4.616
  404SOL    HW1 2111   0.522   6.500   4.650
  404SOL    HW2 2112   0.411   6.496   4.530
  405SOL     OW 2113   0.689   2.684   1.067
  405SOL    HW1 2114   0.786   2.661   1.067
  405SOL    HW2 2115   0.676   2.771   1.018
  406SOL     OW 2116   0.638   2.490   2.947
  406SOL    HW1 2117   0.702   2.537   3.007
  406SOL    HW2 2118   0.544   2.509   2.977
  407SOL     OW 2119   2.696   1.478   3.518
  407SOL    HW1 2120   2.694   1.433   3.429
  407SOL    HW2 2121   2.792   1.491   3.546
  408SOL     OW 2122   1.924   0.890   2.899
  408SOL    HW1 2123   1.985   0.852   2.829
  408SOL    HW2 2124   1.978   0.935   2.970
  409SOL     OW 2125   6.216   3.527   4.030
  409SOL    HW1 2126   6.305   3.520   4.075
  409SOL    HW2 2127   6.224   3.584   3.948
  410SOL     OW 2128   3.037   0.220   6.774
  410SOL    HW1 2129   3.109   0.161   6.737
  410SOL    HW2 2130   3.077   0.308   6.801
  411SOL     OW 2131   0.437   3.434   4.793
  411SOL    HW1 2132   0.391   3.355   4.833
  411SOL    HW2 2133   0.513   3.463   4.852
  412SOL     OW 2134   4.098   0.737   2.057
  412SOL    HW1 2135   4.066   0.706   1.967
  412SOL    HW2 2136   4.154   0.666   2.098
  413SOL     OW 2137   2.476   0.634   2.456
  413SOL    HW1 2138   2.446   0.631   2.552
  413SOL    HW2 2139   2.571   0.663   2.452
  414SOL     OW 2140   4.921   3.660   0.115
  414SOL    HW1 2141   4.998   3.688   0.058
  414SOL    HW2 2142   4.836   3.689   0.072
  415SOL     OW 2143   3.700   6.291   2.433
  415SOL    HW1 2144   3.791   6.261   2.404
  415SOL    HW2 2145   3.707   6.335   2.523
  416SOL     OW 2146   3.715   5.817   6.130
  416SOL    HW1 2147   3.809   5.853   6.129
  416SOL    HW2 2148   3.700   5.766   6.215
  417SOL     OW 2149   5.016   4.831   0.814
  417SOL    HW1 2150   5.064   4.911   0.777
  417SOL    HW2 2151   5.013   4.838   0.914
  418SOL     OW 2152   6.201   4.747   0.467
  418SOL    HW1 2153   6.281   4.800   0.495
  418SOL    HW2 2154   6.202   4.737   0.367
  419SOL     OW 2155   5.766   6.044   1.092
  419SOL    HW1 2156   5.745   6.075   1.185
  419SOL    HW2 2157   5.683   6.049   1.036
  420SOL     OW 2158   4.644   3.987   6.849
  420SOL    HW1 2159   4.729   3.991   6.901
  420SOL    HW2 2160   4.665   3.976   6.752
  421SOL     OW 2161   1.303   5.975   6.591
  421SOL    HW1 2162   1.216   5.962   6.638
  421SOL    HW2 2163   1.312   6.070   6.561
  422SOL     OW 2164   5.824   3.758   6.717
  422SOL    HW1 2165   5.767   3.830   6.676
  422SOL    HW2 2166   5.810   3.673   6.667
  423SOL     OW 2167   1.073   3.291   5.961
  423SOL    HW1 2168   1.045   3.196   5.972
  423SOL    HW2 2169   1.126   3.320   6.040
  424SOL     OW 2170   2.008   3.772   0.437
  424SOL    HW1 2171   2.053   3.826   0.508
  424SOL    HW2 2172   1.965   3.835   0.371
  425SOL     OW 2173   3.289   0.265   1.162
  425SOL    HW1 2174   3.264   0.238   1.068
  425SOL    HW2 2175   3.205   0.284   1.214
  426SOL     OW 2176   6.006   4.032   5.279
  426SOL    HW1 2177   5.972   4.096   5.210
  426SOL    HW2 2178   6.046   3.952   5.235
  427SOL     OW 2179   4.663   3.200   0.912
  427SOL    HW1 2180   4.574   3.177   0.951
  427SOL    HW2 2181   4.658   3.196   0.812
  428SOL     OW 2182   3.377   1.692   5.417
  428SOL    HW1 2183   3.460   1.695   5.362
  428SOL    HW2 2184   3.396   1.646   5.504
  429SOL     OW 2185   2.672   5.506   6.947
  429SOL    HW1 2186   2.768   5.533   6.940
  429SOL    HW2 2187   2.622   5.572   7.003
  430SOL     OW 2188   2.076   6.738   4.907
  430SOL    HW1 2189   2.043   6.645   4.893
  430SOL    HW2 2190   2.031   6.778   4.986
  431SOL     OW 2191   3.014   1.808   6.678
  431SOL    HW1 2192   2.967   1.740   6.623
  431SOL    HW2 2193   3.006   1.785   6.775
  432SOL     OW 2194   6.942   1.277   1.446
  432SOL    HW1 2195   6.847   1.278   1.416
  432SOL    HW2 2196   6.994   1.343   1.391
  433SOL     OW 2197   2.851   5.992   4.671
  433SOL    HW1 2198   2.904   5.910   4.650
  433SOL    HW2 2199   2.757   5.965   4.693
  434SOL     OW 2200   6.211   3.543   1.267
  434SOL    HW1 2201   6.127   3.490   1.253
  434SOL    HW2 2202   6.188   3.637   1.289
  435SOL     OW 2203   3.697   3.607   0.884
  435SOL    HW1 2204   3.661   3.558   0.964
  435SOL    HW2 2205   3.634   3.596   0.807
  436SOL     OW 2206   2.473   0.414   0.345
  436SOL    HW1 2207   2.488   0.344   0.276
  436SOL    HW2 2208   2.387   0.461   0.327
  437SOL     OW 2209   6.769   6.797   5.962
  437SOL    HW1 2210   6.766   6.742   5.879
  437SOL    HW2 2211   6.851   6.774   6.015
  438SOL     OW 2212   1.994   3.132   1.665
  438SOL    HW1 2213   2.060   3.069   1.624
  438SOL    HW2 2214   2.036   3.222   1.676
  439SOL     OW 2215   5.980   4.446   2.445
  439SOL    HW1 2216   5.902   4.421   2.502
  439SOL    HW2 2217   6.051   4.376   2.452
  440SOL     OW 2218   1.195   2.976   3.595
  440SOL    HW1 2219   1.166   3.010   3.505
  440SOL    HW2 2220   1.263   2.903   3.582
  441SOL     OW 2221   1.105   1.102   3.347
  441SOL    HW1 2222   1.035   1.097   3.276
  441SOL    HW2 2223   1.061   1.111   3.436
  442SOL     OW 2224   0.213   4.572   0.035
  442SOL    HW1 2225   0.228   4.504   0.106
  442SOL    HW2 2226   0.251   4.539   6.969
  443SOL     OW 2227   1.086   4.419   5.941
  443SOL    HW1 2228   1.052   4.327   5.921
  443SOL    HW2 2229   1.093   4.470   5.855
  444SOL     OW 2230   4.522   3.124   6.434
  444SOL    HW1 2231   4.458   3.171   6.374
  444SOL    HW2 2232   4.474   3.056   6.489
  445SOL     OW 2233   2.077   4.305   3.082
  445SOL    HW1 2234   2.101   4.378   3.146
  445SOL    HW2 2235   1.995   4.258   3.115
  446SOL     OW 2236   4.161   5.389   4.048
  446SOL    HW1 2237   4.221   5.408   3.971
  446SOL    HW2 2238   4.163   5.291   4.069
  447SOL     OW 2239   0.354   5.757   0.214
  447SOL    HW1 2240   0.322   5.683   0.273
  447SOL    HW2 2241   0.389   5.718   0.129
  448SOL     OW 2242   4.349   1.072   5.580
  448SOL    HW1 2243   4.357   0.976   5.607
  448SOL    HW2 2244   4.407   1.088   5.500
  449SOL     OW 2245   5.864   6.930   4.462
  449SOL    HW1 2246   5.821   6.854   4.414
  449SOL    HW2 2247   5.930   6.895   4.528
  450SOL     OW 2248   0.015   5.988   3.353
  450SOL    HW1 2249   0.084   6.023   3.289
  450SOL    HW2 2250   0.004   6.052   3.429
  451SOL     OW 2251   6.079   2.130   3.944
  451SOL    HW1 2252   6.075   2.202   4.014
  451SOL    HW2 2253   6.084   2.172   3.854
  452SOL     OW 2254   6.975   4.571   6.495
  452SOL    HW1 2255   6.920   4.537   6.419
  452SOL    HW2 2256   7.016   4.659   6.470
  453SOL     OW 2257   2.691   0.462   5.652
  453SOL    HW1 2258   2.726   0.369   5.645
  453SOL    HW2 2259   2.721   0.503   5.738
  454SOL     OW 2260   1.070   6.064   0.207
  454SOL    HW1 2261   1.165   6.070   0.238
  454SOL    HW2 2262   1.026   5.986   0.251
  455SOL     OW 2263   4.912   0.925   5.897
  455SOL    HW1 2264   4.838   0.861   5.917
  455SOL    HW2 2265   4.999   0.876   5.898
  456SOL     OW 2266   4.742   5.500   0.163
  456SOL    HW1 2267   4.829   5.450   0.167
  456SOL    HW2 2268   4.755   5.592   0.200
  457SOL     OW 2269   0.601   5.177   2.174
  457SOL    HW1 2270   0.690   5.160   2.132
  457SOL    HW2 2271   0.556   5.090   2.195
  458SOL     OW 2272   6.843   6.281   5.774
  458SOL    HW1 2273   6.755   6.234   5.775
  458SOL    HW2 2274   6.903   6.242   5.844
  459SOL     OW 2275   1.873   0.225   3.091
  459SOL    HW1 2276   1.932   0.167   3.035
  459SOL    HW2 2277   1.851   0.308   3.040
  460SOL     OW 2278   0.008   1.346   3.621
  460SOL    HW1 2279   0.033   1.271   3.560
  460SOL    HW2 2280   6.967   1.313   3.691
  461SOL     OW 2281   5.121   6.294   5.555
  461SOL    HW1 2282   5.130   6.344   5.469
  461SOL    HW2 2283   5.175   6.210   5.550
  462SOL     OW 2284   3.169   2.822   6.863
  462SOL    HW1 2285   3.139   2.781   6.949
  462SOL    HW2 2286   3.089   2.847   6.808
  463SOL     OW 2287   6.939   5.586   1.830
  463SOL    HW1 2288   6.939   5.662   1.765
  463SOL    HW2 2289   6.983   5.507   1.787
  464SOL     OW 2290   1.783   1.171   5.762
  464SOL    HW1 2291   1.724   1.167   5.843
  464SOL    HW2 2292   1.761   1.253   5.709
  465SOL     OW 2293   6.863   3.122   5.192
  465SOL    HW1 2294   6.889   3.129   5.288
  465SOL    HW2 2295   6.788   3.057   5.183
  466SOL     OW 2296   1.969   0.544   3.076
  466SOL    HW1 2297   1.991   0.637   3.107
  466SOL    HW2 2298   2.052   0.500   3.042
  467SOL     OW 2299   1.816   1.069   4.482
  467SOL    HW1 2300   1.889   1.056   4.414
  467SOL    HW2 2301   1.855   1.063   4.574
  468SOL     OW 2302   3.697   4.186   1.513
  468SOL    HW1 2303   3.797   4.189   1.503
  468SOL    HW2 2304   3.666   4.266   1.564
  469SOL     OW 2305   2.441   4.914   6.817
  469SOL    HW1 2306   2.365   4.979   6.829
  469SOL    HW2 2307   2.440   4.848   6.892
  470SOL     OW 2308   3.625   1.261   2.518
  470SOL    HW1 2309   3.659   1.340   2.569
  470SOL    HW2 2310   3.680   1.248   2.436
  471SOL     OW 2311   2.511   1.543   4.650
  471SOL    HW1 2312   2.422   1.499   4.661
  471SOL    HW2 2313   2.523   1.613   4.720
  472SOL     OW 2314   4.059   4.251   5.234
  472SOL    HW1 2315   4.085   4.244   5.330
  472SOL    HW2 2316   4.135   4.287   5.180
  473SOL     OW 2317   1.207   4.410   3.156
  473SOL    HW1 2318   1.247   4.320   3.171
  473SOL    HW2 2319   1.107   4.403   3.162
  474SOL     OW 2320   4.269   5.099   4.925
  474SOL    HW1 2321   4.255   5.000   4.923
  474SOL    HW2 2322   4.311   5.128   4.839
  475SOL     OW 2323   0.537   6.676   5.856
  475SOL    HW1 2324   0.474   6.750   5.878
  475SOL    HW2 2325   0.569   6.633   5.941
  476SOL     OW 2326   7.016   5.068   2.460
  476SOL    HW1 2327   6.920   5.042   2.469
  476SOL    HW2 2328   0.048   4.989   2.430
  477SOL     OW 2329   1.331   5.623   4.459
  477SOL    HW1 2330   1.306   5.563   4.383
  477SOL    HW2 2331   1.355   5.568   4.539
  478SOL     OW 2332   1.768   5.320   3.234
  478SOL    HW1 2333   1.712   5.393   3.194
  478SOL    HW2 2334   1.813   5.353   3.317
  479SOL     OW 2335   3.398   1.711   1.163
  479SOL    HW1 2336   3.415   1.773   1.086
  479SOL    HW2 2337   3.485   1.680   1.201
  480SOL     OW 2338   1.237   6.615   2.894
  480SOL    HW1 2339   1.200   6.688   2.836
  480SOL    HW2 2340   1.330   6.593   2.864
  481SOL     OW 2341   3.135   6.806   1.573
  481SOL    HW1 2342   3.048   6.815   1.621
  481SOL    HW2 2343   3.196   6.747   1.625
  482SOL     OW 2344   5.771   4.973   1.632
  482SOL    HW1 2345   5.806   5.047   1.574
  482SOL    HW2 2346   5.676   4.953   1.607
  483SOL     OW 2347   5.808   1.622   1.264
  483SOL    HW1 2348   5.711   1.607   1.284
  483SOL    HW2 2349   5.839   1.556   1.196
  484SOL     OW 2350   7.004   1.854   5.421
  484SOL    HW1 2351   7.020   1.924   5.352
  484SOL    HW2 2352   6.967   1.772   5.377
  485SOL     OW 2353   3.816   5.438   1.748
  485SOL    HW1 2354   3.822   5.346   1.709
  485SOL    HW2 2355   3.798   5.431   1.846
  486SOL     OW 2356   0.110   0.522   0.316
  486SOL    HW1 2357   0.095   0.469   0.233
  486SOL    HW2 2358   0.178   0.476   0.373
  487SOL     OW 2359   6.529   2.792   6.653
  487SOL    HW1 2360   6.467   2.717   6.628
  487SOL    HW2 2361   6.557   2.840   6.570
  488SOL     OW 2362   0.328   2.882   2.796
  488SOL    HW1 2363   0.349   2.789   2.825
  488SOL    HW2 2364   0.411   2.925   2.760
  489SOL     OW 2365   3.373   6.192   5.671
  489SOL    HW1 2366   3.289   6.229   5.709
  489SOL    HW2 2367   3.352   6.121   5.604
  490SOL     OW 2368   5.200   6.401   4.462
  490SOL    HW1 2369   5.273   6.348   4.504
  490SOL    HW2 2370   5.239   6.469   4.400
  491SOL     OW 2371   0.222   2.492   3.376
  491SOL    HW1 2372   0.139   2.497   3.433
  491SOL    HW2 2373   0.219   2.565   3.307
  492SOL     OW 2374   1.965   1.072   4.707
  492SOL    HW1 2375   1.976   1.169   4.728
  492SOL    HW2 2376   1.995   1.017   4.785
  493SOL     OW 2377   6.183   4.143   3.926
  493SOL    HW1 2378   6.138   4.054   3.917
  493SOL    HW2 2379   6.115   4.215   3.924
  494SOL     OW 2380   6.372   1.050   0.139
  494SOL    HW1 2381   6.380   0.986   0.215
  494SOL    HW2 2382   6.425   1.017   0.061
  495SOL     OW 2383   4.268   4.627   1.367
  495SOL    HW1 2384   4.279   4.705   1.429
  495SOL    HW2 2385   4.321   4.550   1.400
  496SOL     OW 2386   5.896   3.223   3.860
  496SOL    HW1 2387   5.968   3.219   3.929
  496SOL    HW2 2388   5.823   3.284   3.892
  497SOL     OW 2389   4.302   0.558   3.900
  497SOL    HW1 2390   4.318   0.560   3.999
  497SOL    HW2 2391   4.387   0.581   3.853
  498SOL     OW 2392   1.254   3.082   2.646
  498SOL    HW1 2393   1.257   3.000   2.590
  498SOL    HW2 2394   1.165   3.088   2.692
  499SOL     OW 2395   3.591   1.698   5.250
  499SOL    HW1 2396   3.535   1.742   5.180
  499SOL    HW2 2397   3.678   1.746   5.259
  500SOL     OW 2398   1.197   4.326   2.860
  500SOL    HW1 2399   1.105   4.308   2.894
  500SOL    HW2 2400   1.201   4.303   2.763
  501SOL     OW 2401   0.327   4.604   6.150
  501SOL    HW1 2402   0.254   4.672   6.146
  501SOL    HW2 2403   0.371   4.597   6.061
  502SOL     OW 2404   2.939   5.581   6.378
  502SOL    HW1 2405   2.848   5.541   6.366
  502SOL    HW2 2406   2.932   5.681   6.380
  503SOL     OW 2407   5.311   5.401   5.070
  503SOL    HW1 2408   5.249   5.457   5.016
  503SOL    HW2 2409   5.405   5.416   5.039
  504SOL     OW 2410   2.154   5.868   4.128
  504SOL    HW1 2411   2.179   5.958   4.161
  504SOL    HW2 2412   2.205   5.847   4.044
  505SOL     OW 2413   4.274   6.903   5.360
  505SOL    HW1 2414   4.186   6.877   5.401
  505SOL    HW2 2415   4.282   7.002   5.359
  506SOL     OW 2416   2.447   3.858   0.035
  506SOL    HW1 2417   2.508   3.936   0.021
  506SOL    HW2 2418   2.417   3.855   0.130
  507SOL     OW 2419   2.905   1.343   4.211
  507SOL    HW1 2420   2.996   1.378   4.190
  507SOL    HW2 2421   2.841   1.371   4.141
  508SOL     OW 2422   6.138   4.224   3.608
  508SOL    HW1 2423   6.160   4.188   3.699
  508SOL    HW2 2424   6.167   4.320   3.602
  509SOL     OW 2425   4.656   2.542   1.998
  509SOL    HW1 2426   4.683   2.629   1.956
  509SOL    HW2 2427   4.564   2.518   1.968
  510SOL     OW 2428   0.330   4.225   4.151
  510SOL    HW1 2429   0.352   4.153   4.086
  510SOL    HW2 2430   0.413   4.255   4.198
  511SOL     OW 2431   0.718   6.399   0.865
  511SOL    HW1 2432   0.690   6.319   0.812
  511SOL    HW2 2433   0.638   6.455   0.886
  512SOL     OW 2434   0.480   3.856   6.556
  512SOL    HW1 2435   0.567   3.902   6.574
  512SOL    HW2 2436   0.423   3.859   6.638
  513SOL     OW 2437   0.174   5.793   4.387
  513SOL    HW1 2438   0.177   5.693   4.387
  513SOL    HW2 2439   0.268   5.828   4.394
  514SOL     OW 2440   6.140   1.610   3.900
  514SOL    HW1 2441   6.110   1.550   3.825
  514SOL    HW2 2442   6.239   1.624   3.893
  515SOL     OW 2443   2.158   6.480   0.244
  515SOL    HW1 2444   2.174   6.383   0.261
  515SOL    HW2 2445   2.233   6.534   0.284
  516SOL     OW 2446   1.489   5.219   2.333
  516SOL    HW1 2447   1.528   5.159   2.402
  516SOL    HW2 2448   1.529   5.198   2.244
  517SOL     OW 2449   4.895   0.844   0.188
  517SOL    HW1 2450   4.927   0.749   0.190
  517SOL    HW2 2451   4.801   0.846   0.154
  518SOL     OW 2452   2.348   2.205   0.441
  518SOL    HW1 2453   2.309   2.113   0.433
  518SOL    HW2 2454   2.409   2.222   0.363
  519SOL     OW 2455   0.478   6.431   0.467
  519SOL    HW1 2456   0.475   6.358   0.400
  519SOL    HW2 2457   0.461   6.519   0.422
  520SOL     OW 2458   6.133   4.475   4.828
  520SOL    HW1 2459   6.077   4.487   4.910
  520SOL    HW2 2460   6.108   4.390   4.782
  521SOL     OW 2461   6.984   0.965   0.931
  521SOL    HW1 2462   0.038   0.923   0.982
  521SOL    HW2 2463   6.934   0.893   0.882
  522SOL     OW 2464   3.643   3.488   5.145
  522SOL    HW1 2465   3.562   3.501   5.203
  522SOL    HW2 2466   3.721   3.536   5.185
  523SOL     OW 2467   6.838   6.269   4.916
  523SOL    HW1 2468   6.752   6.244   4.871
  523SOL    HW2 2469   6.847   6.216   5.001
  524SOL     OW 2470   3.341   1.311   5.716
  524SOL    HW1 2471   3.374   1.329   5.624
  524SOL    HW2 2472   3.418   1.289   5.776
  525SOL     OW 2473   2.611   3.285   6.639
  525SOL    HW1 2474   2.574   3.377   6.623
  525SOL    HW2 2475   2.578   3.251   6.727
  526SOL     OW 2476   4.113   6.129   4.972
  526SOL    HW1 2477   4.211   6.134   4.951
  526SOL    HW2 2478   4.080   6.036   4.955
  527SOL     OW 2479   0.944   2.091   6.338
  527SOL    HW1 2480   0.960   2.129   6.248
  527SOL    HW2 2481   0.867   2.027   6.334
  528SOL     OW 2482   2.480   0.255   5.106
  528SOL    HW1 2483   2.569   0.288   5.076
  528SOL    HW2 2484   2.474   0.156   5.091
  529SOL     OW 2485   7.017   4.473   4.313
  529SOL    HW1 2486   6.922   4.443   4.326
  529SOL    HW2 2487   0.034   4.503   4.400
  530SOL     OW 2488   1.726   3.096   5.705
  530SOL    HW1 2489   1.815   3.052   5.712
  530SOL    HW2 2490   1.654   3.032   5.734
  531SOL     OW 2491   6.757   0.378   0.567
  531SOL    HW1 2492   6.658   0.369   0.559
  531SOL    HW2 2493   6.778   0.449   0.633
  532SOL     OW 2494   1.596   0.945   5.442
  532SOL    HW1 2495   1.609   0.883   5.520
  532SOL    HW2 2496   1.572   0.892   5.361
  533SOL     OW 2497   5.349   6.679   4.400
  533SOL    HW1 2498   5.418   6.731   4.450
  533SOL    HW2 2499   5.329   6.724   4.313
  534SOL     OW 2500   4.084   6.219   1.814
  534SOL    HW1 2501   4.069   6.205   1.716
  534SOL    HW2 2502   4.041   6.144   1.865
  535SOL     OW 2503   0.086   3.685   3.426
  535SOL    HW1 2504   0.049   3.689   3.519
  535SOL    HW2 2505   0.179   3.721   3.425
  536SOL     OW 2506   1.298   5.447   0.722
  536SOL    HW1 2507   1.265   5.539   0.745
  536SOL    HW2 2508   1.308   5.394   0.806
  537SOL     OW 2509   2.499   0.344   2.655
  537SOL    HW1 2510   2.548   0.368   2.572
  537SOL    HW2 2511   2.404   0.321   2.633
  538SOL     OW 2512   1.414   4.350   3.753
  538SOL    HW1 2513   1.372   4.426   3.705
  538SOL    HW2 2514   1.359   4.328   3.834
  539SOL     OW 2515   1.373   4.766   1.420
  539SOL    HW1 2516   1.406   4.675   1.397
  539SOL    HW2 2517   1.285   4.782   1.375
  540SOL     OW 2518   1.605   2.618   1.601
  540SOL    HW1 2519   1.514   2.642   1.566
  540SOL    HW2 2520   1.625   2.522   1.579
  541SOL     OW 2521   3.838   5.455   4.858
  541SOL    HW1 2522   3.868   5.379   4.801
  541SOL    HW2 2523   3.918   5.498   4.901
  542SOL     OW 2524   6.217   5.679   6.840
  542SOL    HW1 2525   6.224   5.720   6.749
  542SOL    HW2 2526   6.183   5.586   6.832
  543SOL     OW 2527   7.018   6.018   0.088
  543SOL    HW1 2528   0.008   6.032   7.011
  543SOL    HW2 2529   0.087   6.014   0.131
  544SOL     OW 2530   1.066   5.532   7.010
  544SOL    HW1 2531   1.037   5.442   0.022
  544SOL    HW2 2532   1.007   5.560   6.934
  545SOL     OW 2533   3.527   2.071   3.852
  545SOL    HW1 2534   3.555   1.976   3.840
  545SOL    HW2 2535   3.450   2.091   3.790
  546SOL     OW 2536   1.430   3.714   0.256
  546SOL    HW1 2537   1.491   3.752   0.187
  546SOL    HW2 2538   1.479   3.707   0.343
  547SOL     OW 2539   3.141   2.689   0.092
  547SOL    HW1 2540   3.067   2.627   0.067
  547SOL    HW2 2541   3.128   2.721   0.186
  548SOL     OW 2542   3.401   3.263   4.749
  548SOL    HW1 2543   3.357   3.348   4.718
  548SOL    HW2 2544   3.464   3.230   4.679
  549SOL     OW 2545   6.609   3.738   1.626
  549SOL    HW1 2546   6.589   3.699   1.715
  549SOL    HW2 2547   6.679   3.684   1.580
  550SOL     OW 2548   6.688   4.010   1.368
  550SOL    HW1 2549   6.650   3.999   1.460
  550SOL    HW2 2550   6.644   4.088   1.323
  551SOL     OW 2551   6.960   2.053   6.624
  551SOL    HW1 2552   6.961   2.132   6.686
  551SOL    HW2 2553   6.961   1.969   6.678
  552SOL     OW 2554   4.758   5.846   0.659
  552SOL    HW1 2555   4.673   5.866   0.610
  552SOL    HW2 2556   4.827   5.914   0.634
  553SOL     OW 2557   1.398   1.861   1.517
  553SOL    HW1 2558   1.372   1.938   1.459
  553SOL    HW2 2559   1.374   1.881   1.612
  554SOL     OW 2560   5.246   5.692   5.187
  554SOL    HW1 2561   5.161   5.647   5.156
  554SOL    HW2 2562   5.324   5.634   5.165
  555SOL     OW 2563   1.909   4.179   4.588
  555SOL    HW1 2564   1.818   4.195   4.550
  555SOL    HW2 2565   1.940   4.261   4.637
  556SOL     OW 2566   5.651   3.473   3.086
  556SOL    HW1 2567   5.575   3.415   3.055
  556SOL    HW2 2568   5.704   3.504   3.007
  557SOL     OW 2569   0.236   5.264   6.232
  557SOL    HW1 2570   0.206   5.205   6.307
  557SOL    HW2 2571   0.278   5.208   6.161
  558SOL     OW 2572   4.462   3.975   5.346
  558SOL    HW1 2573   4.476   4.037   5.423
  558SOL    HW2 2574   4.366   3.980   5.316
  559SOL     OW 2575   5.899   6.138   6.118
  559SOL    HW1 2576   5.986   6.157   6.071
  559SOL    HW2 2577   5.823   6.169   6.062
  560SOL     OW 2578   4.211   6.663   6.873
  560SOL    HW1 2579   4.153   6.744   6.882
  560SOL    HW2 2580   4.165   6.596   6.815
  561SOL     OW 2581   5.487   6.303   0.817
  561SOL    HW1 2582   5.416   6.294   0.746
  561SOL    HW2 2583   5.443   6.323   0.905
  562SOL     OW 2584   6.523   0.959   6.244
  562SOL    HW1 2585   6.482   0.869   6.253
  562SOL    HW2 2586   6.457   1.023   6.206
  563SOL     OW 2587   3.371   0.006   5.323
  563SOL    HW1 2588   3.432   0.057   5.262
  563SOL    HW2 2589   3.394   0.028   5.418
  564SOL     OW 2590   0.022   1.832   6.801
  564SOL    HW1 2591   6.973   1.835   6.872
  564SOL    HW2 2592   0.113   1.830   6.844
  565SOL     OW 2593   4.725   4.385   5.056
  565SOL    HW1 2594   4.639   4.359   5.100
  565SOL    HW2 2595   4.710   4.394   4.958
  566SOL     OW 2596   5.217   5.053   2.217
  566SOL    HW1 2597   5.137   5.027   2.271
  566SOL    HW2 2598   5.244   5.146   2.239
  567SOL     OW 2599   4.120   3.728   4.686
  567SOL    HW1 2600   4.142   3.772   4.598
  567SOL    HW2 2601   4.175   3.646   4.696
  568SOL     OW 2602   1.935   1.526   6.216
  568SOL    HW1 2603   1.854   1.533   6.275
  568SOL    HW2 2604   1.999   1.600   6.239
  569SOL     OW 2605   2.540   3.649   0.328
  569SOL    HW1 2606   2.448   3.679   0.304
  569SOL    HW2 2607   2.570   3.578   0.265
  570SOL     OW 2608   0.559   6.138   1.133
  570SOL    HW1 2609   0.626   6.099   1.070
  570SOL    HW2 2610   0.491   6.069   1.158
  571SOL     OW 2611   4.302   5.526   2.578
  571SOL    HW1 2612   4.224   5.516   2.516
  571SOL    HW2 2613   4.293   5.612   2.628
  572SOL     OW 2614   1.894   3.955   4.873
  572SOL    HW1 2615   1.813   3.928   4.822
  572SOL    HW2 2616   1.869   4.022   4.943
  573SOL     OW 2617   3.912   2.370   6.187
  573SOL    HW1 2618   3.943   2.278   6.162
  573SOL    HW2 2619   3.908   2.378   6.286
  574SOL     OW 2620   2.590   1.355   4.334
  574SOL    HW1 2621   2.639   1.441   4.347
  574SOL    HW2 2622   2.630   1.305   4.256
  575SOL     OW 2623   5.094   2.318   6.542
  575SOL    HW1 2624   5.151   2.358   6.470
  575SOL    HW2 2625   5.079   2.386   6.614
  576SOL     OW 2626   0.897   2.056   2.430
  576SOL    HW1 2627   0.900   2.004   2.515
  576SOL    HW2 2628   0.807   2.100   2.422
  577SOL     OW 2629   3.079   2.150   4.121
  577SOL    HW1 2630   3.001   2.167   4.182
  577SOL    HW2 2631   3.054   2.176   4.028
  578SOL     OW 2632   0.256   3.105   4.694
  578SOL    HW1 2633   0.295   3.113   4.785
  578SOL    HW2 2634   0.248   3.196   4.653
  579SOL     OW 2635   3.587   3.267   0.542
  579SOL    HW1 2636   3.563   3.224   0.629
  579SOL    HW2 2637   3.638   3.201   0.486
  580SOL     OW 2638   0.289   6.082   6.666
  580SOL    HW1 2639   0.199   6.092   6.707
  580SOL    HW2 2640   0.356   6.135   6.718
  581SOL     OW 2641   3.671   3.710   2.427
  581SOL    HW1 2642   3.687   3.643   2.354
  581SOL    HW2 2643   3.725   3.684   2.507
  582SOL     OW 2644   6.188   3.998   2.462
  582SOL    HW1 2645   6.287   3.996   2.454
  582SOL    HW2 2646   6.158   3.925   2.523
  583SOL     OW 2647   2.418   5.572   6.512
  583SOL    HW1 2648   2.428   5.482   6.554
  583SOL    HW2 2649   2.344   5.622   6.558
  584SOL     OW 2650   0.773   4.958   4.856
  584SOL    HW1 2651   0.868   4.956   4.887
  584SOL    HW2 2652   0.756   4.877   4.799
  585SOL     OW 2653   6.404   1.535   5.844
  585SOL    HW1 2654   6.326   1.473   5.839
  585SOL    HW2 2655   6.486   1.490   5.810
  586SOL     OW 2656   2.282   5.979   0.540
  586SOL    HW1 2657   2.288   6.079   0.549
  586SOL    HW2 2658   2.211   5.944   0.601
  587SOL     OW 2659   1.190   3.747   5.918
  587SOL    HW1 2660   1.264   3.725   5.982
  587SOL    HW2 2661   1.147   3.663   5.886
  588SOL     OW 2662   2.529   6.977   1.305
  588SOL    HW1 2663   2.439   6.996   1.345
  588SOL    HW2 2664   2.588   6.934   1.373
  589SOL     OW 2665   4.710   5.175   1.946
  589SOL    HW1 2666   4.658   5.145   2.026
  589SOL    HW2 2667   4.723   5.274   1.949
  590SOL     OW 2668   6.452   2.058   1.833
  590SOL    HW1 2669   6.447   2.113   1.750
  590SOL    HW2 2670   6.365   2.012   1.848
  591SOL     OW 2671   3.306   6.845   3.068
  591SOL    HW1 2672   3.399   6.846   3.105
  591SOL    HW2 2673   3.273   6.751   3.062
  592SOL     OW 2674   5.520   0.751   0.048
  592SOL    HW1 2675   5.530   0.733   0.145
  592SOL    HW2 2676   5.502   0.848   0.033
  593SOL     OW 2677   6.099   1.111   4.172
  593SOL    HW1 2678   6.106   1.063   4.259
  593SOL    HW2 2679   6.034   1.187   4.181
  594SOL     OW 2680   5.231   3.071   1.803
  594SOL    HW1 2681   5.138   3.035   1.813
  594SOL    HW2 2682   5.256   3.073   1.706
  595SOL     OW 2683   3.960   0.205   4.112
  595SOL    HW1 2684   4.048   0.232   4.152
  595SOL    HW2 2685   3.973   0.191   4.013
  596SOL     OW 2686   0.782   4.076   2.410
  596SOL    HW1 2687   0.756   4.002   2.473
  596SOL    HW2 2688   0.881   4.093   2.419
  597SOL     OW 2689   4.100   2.153   5.756
  597SOL    HW1 2690   4.189   2.199   5.752
  597SOL    HW2 2691   4.032   2.214   5.794
  598SOL     OW 2692   3.057   4.030   1.468
  598SOL    HW1 2693   3.025   4.074   1.384
  598SOL    HW2 2694   3.156   4.015   1.462
  599SOL     OW 2695   6.918   6.480   3.173
  599SOL    HW1 2696   7.010   6.454   3.144
  599SOL    HW2 2697   6.861   6.498   3.093
  600SOL     OW 2698   2.269   0.985   0.957
  600SOL    HW1 2699   2.217   0.977   1.042
  600SOL    HW2 2700   2.359   1.023   0.976
  601SOL     OW 2701   2.892   4.769   3.719
  601SOL    HW1 2702   2.804   4.724   3.728
  601SOL    HW2 2703   2.880   4.868   3.720
  602SOL     OW 2704   0.225   0.445   1.743
  602SOL    HW1 2705   0.247   0.521   1.805
  602SOL    HW2 2706   0.307   0.418   1.694
  603SOL     OW 2707   4.293   2.247   2.956
  603SOL    HW1 2708   4.239   2.306   3.016
  603SOL    HW2 2709   4.248   2.240   2.867
  604SOL     OW 2710   0.707   4.436   5.547
  604SOL    HW1 2711   0.608   4.449   5.553
  604SOL    HW2 2712   0.727   4.364   5.480
  605SOL     OW 2713   6.039   6.843   4.678
  605SOL    HW1 2714   6.125   6.805   4.713
  605SOL    HW2 2715   5.965   6.777   4.691
  606SOL     OW 2716   3.552   0.232   3.062
  606SOL    HW1 2717   3.531   0.329   3.047
  606SOL    HW2 2718   3.479   0.190   3.116
  607SOL     OW 2719   4.188   1.040   3.732
  607SOL    HW1 2720   4.236   1.005   3.812
  607SOL    HW2 2721   4.092   1.055   3.755
  608SOL     OW 2722   4.855   1.957   1.663
  608SOL    HW1 2723   4.869   2.053   1.684
  608SOL    HW2 2724   4.890   1.936   1.572
  609SOL     OW 2725   2.987   3.412   4.135
  609SOL    HW1 2726   2.960   3.435   4.228
  609SOL    HW2 2727   3.013   3.315   4.130
  610SOL     OW 2728   5.801   1.606   4.362
  610SOL    HW1 2729   5.823   1.629   4.267
  610SOL    HW2 2730   5.723   1.661   4.392
  611SOL     OW 2731   6.042   0.422   0.514
  611SOL    HW1 2732   6.116   0.362   0.483
  611SOL    HW2 2733   5.955   0.374   0.509
  612SOL     OW 2734   3.196   5.239   5.683
  612SOL    HW1 2735   3.152   5.195   5.605
  612SOL    HW2 2736   3.179   5.338   5.679
  613SOL     OW 2737   3.202   1.947   6.857
  613SOL    HW1 2738   3.175   1.903   6.772
  613SOL    HW2 2739   3.297   1.924   6.878
  614SOL     OW 2740   5.396   3.735   0.820
  614SOL    HW1 2741   5.432   3.671   0.752
  614SOL    HW2 2742   5.430   3.709   0.911
  615SOL     OW 2743   5.335   6.836   1.187
  615SOL    HW1 2744   5.330   6.839   1.287
  615SOL    HW2 2745   5.377   6.749   1.158
  616SOL     OW 2746   5.365   0.803   4.921
  616SOL    HW1 2747   5.455   0.826   4.885
  616SOL    HW2 2748   5.338   0.712   4.891
  617SOL     OW 2749   7.011   5.722   5.524
  617SOL    HW1 2750   0.013   5.810   5.566
  617SOL    HW2 2751   6.994   5.655   5.596
  618SOL     OW 2752   5.767   4.744   6.706
  618SOL    HW1 2753   5.705   4.801   6.652
  618SOL    HW2 2754   5.806   4.797   6.781
  619SOL     OW 2755   2.750   6.755   5.991
  619SOL    HW1 2756   2.812   6.676   5.992
  619SOL    HW2 2757   2.677   6.739   5.925
  620SOL     OW 2758   5.136   1.646   2.328
  620SOL    HW1 2759   5.057   1.604   2.371
  620SOL    HW2 2760   5.220   1.608   2.368
  621SOL     OW 2761   2.785   0.121   6.705
  621SOL    HW1 2762   2.879   0.152   6.687
  621SOL    HW2 2763   2.733   0.193   6.749
  622SOL     OW 2764   0.466   2.860   5.624
  622SOL    HW1 2765   0.549   2.916   5.613
  622SOL    HW2 2766   0.493   2.768   5.653
  623SOL     OW 2767   6.288   0.088   3.543
  623SOL    HW1 2768   6.312   0.183   3.523
  623SOL    HW2 2769   6.191   0.083   3.568
  624SOL     OW 2770   0.053   0.609   6.238
  624SOL    HW1 2771   0.151   0.627   6.246
  624SOL    HW2 2772   0.012   0.674   6.174
  625SOL     OW 2773   3.275   1.197   1.039
  625SOL    HW1 2774   3.309   1.283   1.001
  625SOL    HW2 2775   3.347   1.127   1.034
  626SOL     OW 2776   6.586   5.784   3.542
  626SOL    HW1 2777   6.657   5.809   3.477
  626SOL    HW2 2778   6.545   5.867   3.581
  627SOL     OW 2779   6.317   6.295   0.372
  627SOL    HW1 2780   6.374   6.215   0.352
  627SOL    HW2 2781   6.348   6.373   0.318
  628SOL     OW 2782   3.699   4.847   6.100
  628SOL    HW1 2783   3.662   4.883   6.014
  628SOL    HW2 2784   3.795   4.821   6.087
  629SOL     OW 2785   1.286   6.677   0.144
  629SOL    HW1 2786   1.274   6.776   0.147
  629SOL    HW2 2787   1.244   6.636   0.225
  630SOL     OW 2788   6.165   1.101   1.342
  630SOL    HW1 2789   6.143   1.199   1.346
  630SOL    HW2 2790   6.252   1.088   1.295
  631SOL     OW 2791   1.564   2.554   3.720
  631SOL    HW1 2792   1.569   2.650   3.692
  631SOL    HW2 2793   1.642   2.504   3.684
  632SOL     OW 2794   3.150   4.318   0.534
  632SOL    HW1 2795   3.073   4.365   0.492
  632SOL    HW2 2796   3.176   4.364   0.619
  633SOL     OW 2797   1.466   5.342   0.523
  633SOL    HW1 2798   1.405   5.352   0.601
  633SOL    HW2 2799   1.421   5.378   0.441
  634SOL     OW 2800   3.107   3.013   4.641
  634SOL    HW1 2801   3.192   3.010   4.693
  634SOL    HW2 2802   3.041   2.950   4.681
  635SOL     OW 2803   5.849   0.072   6.586
  635SOL    HW1 2804   5.782   0.124   6.639
  635SOL    HW2 2805   5.940   0.113   6.598
  636SOL     OW 2806   2.745   0.609   5.391
  636SOL    HW1 2807   2.705   0.699   5.374
  636SOL    HW2 2808   2.684   0.557   5.451
  637SOL     OW 2809   0.413   1.216   2.968
  637SOL    HW1 2810   0.506   1.253   2.972
  637SOL    HW2 2811   0.353   1.272   3.025
  638SOL     OW 2812   6.564   3.058   5.143
  638SOL    HW1 2813   6.488   2.995   5.162
  638SOL    HW2 2814   6.542   3.148   5.180
  639SOL     OW 2815   5.765   4.416   2.248
  639SOL    HW1 2816   5.860   4.404   2.279
  639SOL    HW2 2817   5.755   4.377   2.156
  640SOL     OW 2818   0.049   2.935   2.465
  640SOL    HW1 2819   7.009   2.912   2.541
  640SOL    HW2 2820   0.119   2.864   2.457
  641SOL     OW 2821   2.378   5.138   4.448
  641SOL    HW1 2822   2.455   5.194   4.478
  641SOL    HW2 2823   2.408   5.078   4.374
  642SOL     OW 2824   0.338   5.017   4.792
  642SOL    HW1 2825   0.371   4.979   4.706
  642SOL    HW2 2826   0.370   5.111   4.802
  643SOL     OW 2827   3.972   5.276   0.783
  643SOL    HW1 2828   3.996   5.232   0.869
  643SOL    HW2 2829   3.940   5.207   0.718
  644SOL     OW 2830   0.089   6.409   5.484
  644SOL    HW1 2831   0.178   6.427   5.442
  644SOL    HW2 2832   0.059   6.490   5.533
  645SOL     OW 2833   4.068   5.568   2.417
  645SOL    HW1 2834   4.104   5.629   2.346
  645SOL    HW2 2835   3.968   5.576   2.420
  646SOL     OW 2836   3.613   2.113   4.524
  646SOL    HW1 2837   3.633   2.126   4.621
  646SOL    HW2 2838   3.513   2.111   4.511
  647SOL     OW 2839   3.936   2.723   6.022
  647SOL    HW1 2840   3.988   2.716   6.107
  647SOL    HW2 2841   3.853   2.776   6.038
  648SOL     OW 2842   6.195   1.222   3.533
  648SOL    HW1 2843   6.146   1.213   3.446
  648SOL    HW2 2844   6.283   1.266   3.517
  649SOL     OW 2845   2.960   5.323   0.166
  649SOL    HW1 2846   2.958   5.336   0.067
  649SOL    HW2 2847   2.991   5.407   0.211
  650SOL     OW 2848   0.095   3.488   1.030
  650SOL    HW1 2849   0.071   3.582   1.054
  650SOL    HW2 2850   0.080   3.428   1.109
  651SOL     OW 2851   0.684   0.587   3.921
  651SOL    HW1 2852   0.739   0.669   3.933
  651SOL    HW2 2853   0.607   0.607   3.860
  652SOL     OW 2854   4.219   5.306   0.907
  652SOL    HW1 2855   4.134   5.342   0.870
  652SOL    HW2 2856   4.268   5.379   0.954
  653SOL     OW 2857   1.789   6.404   2.350
  653SOL    HW1 2858   1.748   6.335   2.290
  653SOL    HW2 2859   1.880   6.427   2.316
  654SOL     OW 2860   0.669   0.026   5.705
  654SOL    HW1 2861   0.691   6.952   5.724
  654SOL    HW2 2862   0.572   0.033   5.680
  655SOL     OW 2863   0.309   3.871   1.582
  655SOL    HW1 2864   0.370   3.792   1.589
  655SOL    HW2 2865   0.244   3.857   1.507
  656SOL     OW 2866   2.826   6.033   6.783
  656SOL    HW1 2867   2.770   5.952   6.764
  656SOL    HW2 2868   2.792   6.110   6.728
  657SOL     OW 2869   3.847   3.603   3.561
  657SOL    HW1 2870   3.930   3.600   3.617
  657SOL    HW2 2871   3.786   3.674   3.598
  658SOL     OW 2872   0.927   1.659   4.050
  658SOL    HW1 2873   0.943   1.561   4.066
  658SOL    HW2 2874   0.910   1.704   4.138
  659SOL     OW 2875   1.893   5.792   6.642
  659SOL    HW1 2876   1.873   5.706   6.688
  659SOL    HW2 2877   1.902   5.777   6.543
  660SOL     OW 2878   5.190   4.569   2.984
  660SOL    HW1 2879   5.285   4.572   2.951
  660SOL    HW2 2880   5.138   4.504   2.929
  661SOL     OW 2881   4.258   5.484   3.798
  661SOL    HW1 2882   4.196   5.444   3.731
  661SOL    HW2 2883   4.350   5.491   3.759
  662SOL     OW 2884   4.823   3.388   6.984
  662SOL    HW1 2885   4.908   3.387   6.932
  662SOL    HW2 2886   4.842   3.420   0.056
  663SOL     OW 2887   6.757   4.007   0.160
  663SOL    HW1 2888   6.852   4.015   0.192
  663SOL    HW2 2889   6.739   4.076   0.090
  664SOL     OW 2890   1.504   6.997   6.407
  664SOL    HW1 2891   1.492   6.955   6.316
  664SOL    HW2 2892   1.601   6.998   6.430
  665SOL     OW 2893   3.383   4.903   2.912
  665SOL    HW1 2894   3.352   4.971   2.845
  665SOL    HW2 2895   3.312   4.833   2.924
  666SOL     OW 2896   3.255   1.056   6.896
  666SOL    HW1 2897   3.235   0.964   6.929
  666SOL    HW2 2898   3.251   1.056   6.796
  667SOL     OW 2899   1.348   3.554   2.108
  667SOL    HW1 2900   1.367   3.460   2.136
  667SOL    HW2 2901   1.432   3.607   2.107
  668SOL     OW 2902   5.334   0.320   0.480
  668SOL    HW1 2903   5.284   0.401   0.449
  668SOL    HW2 2904   5.399   0.292   0.410
  669SOL     OW 2905   0.898   5.709   2.621
  669SOL    HW1 2906   0.872   5.782   2.557
  669SOL    HW2 2907   0.997   5.699   2.621
  670SOL     OW 2908   3.557   3.550   3.175
  670SOL    HW1 2909   3.633   3.510   3.227
  670SOL    HW2 2910   3.534   3.639   3.213
  671SOL     OW 2911   1.796   0.028   6.411
  671SOL    HW1 2912   1.782   0.124   6.433
  671SOL    HW2 2913   1.893   0.005   6.420
  672SOL     OW 2914   1.087   2.284   2.866
  672SOL    HW1 2915   1.130   2.366   2.904
  672SOL    HW2 2916   1.157   2.217   2.842
  673SOL     OW 2917   4.738   0.293   0.127
  673SOL    HW1 2918   4.808   0.357   0.096
  673SOL    HW2 2919   4.710   0.317   0.220
  674SOL     OW 2920   7.014   2.052   4.765
  674SOL    HW1 2921   0.090   2.031   4.776
  674SOL    HW2 2922   6.998   2.093   4.676
  675SOL     OW 2923   6.259   6.878   3.864
  675SOL    HW1 2924   6.266   6.804   3.931
  675SOL    HW2 2925   6.189   6.942   3.893
  676SOL     OW 2926   2.411   5.267   4.066
  676SOL    HW1 2927   2.328   5.266   4.011
  676SOL    HW2 2928   2.423   5.179   4.111
  677SOL     OW 2929   5.081   7.017   1.090
  677SOL    HW1 2930   5.125   6.933   1.121
  677SOL    HW2 2931   5.006   6.995   1.027
  678SOL     OW 2932   2.382   0.906   5.970
  678SOL    HW1 2933   2.467   0.953   5.994
  678SOL    HW2 2934   2.398   0.808   5.965
  679SOL     OW 2935   6.409   0.528   2.316
  679SOL    HW1 2936   6.508   0.514   2.322
  679SOL    HW2 2937   6.366   0.447   2.276
  680SOL     OW 2938   5.993   4.275   4.709
  680SOL    HW1 2939   5.924   4.237   4.771
  680SOL    HW2 2940   5.948   4.313   4.629
  681SOL     OW 2941   1.474   6.877   2.616
  681SOL    HW1 2942   1.478   6.863   2.517
  681SOL    HW2 2943   1.379   6.869   2.646
  682SOL     OW 2944   0.191   0.040   6.366
  682SOL    HW1 2945   0.149   6.974   6.339
  682SOL    HW2 2946   0.137   0.115   6.329
  683SOL     OW 2947   5.124   1.804   0.684
  683SOL    HW1 2948   5.130   1.898   0.652
  683SOL    HW2 2949   5.192   1.749   0.636
  684SOL     OW 2950   0.402   5.721   6.127
  684SOL    HW1 2951   0.464   5.643   6.141
  684SOL    HW2 2952   0.438   5.780   6.055
  685SOL     OW 2953   6.207   1.182   6.470
  685SOL    HW1 2954   6.258   1.254   6.423
  685SOL    HW2 2955   6.266   1.141   6.540
  686SOL     OW 2956   5.717   4.876   3.179
  686SOL    HW1 2957   5.748   4.939   3.250
  686SOL    HW2 2958   5.744   4.783   3.203
  687SOL     OW 2959   5.991   2.403   5.585
  687SOL    HW1 2960   5.983   2.443   5.676
  687SOL    HW2 2961   5.946   2.463   5.518
  688SOL     OW 2962   0.087   3.328   4.644
  688SOL    HW1 2963   0.023   3.302   4.716
  688SOL    HW2 2964   0.109   3.426   4.652
  689SOL     OW 2965   5.974   3.995   4.767
  689SOL    HW1 2966   5.934   3.944   4.691
  689SOL    HW2 2967   5.991   4.089   4.739
  690SOL     OW 2968   0.517   3.353   4.079
  690SOL    HW1 2969   0.468   3.266   4.085
  690SOL    HW2 2970   0.451   3.428   4.067
  691SOL     OW 2971   7.006   2.843   6.956
  691SOL    HW1 2972   0.035   2.918   6.913
  691SOL    HW2 2973   6.919   2.828   6.908
  692SOL     OW 2974   2.689   6.845   3.143
  692SOL    HW1 2975   2.727   6.886   3.225
  692SOL    HW2 2976   2.600   6.804   3.164
  693SOL     OW 2977   6.643   1.477   2.412
  693SOL    HW1 2978   6.734   1.468   2.452
  693SOL    HW2 2979   6.649   1.532   2.328
  694SOL     OW 2980   1.639   0.392   2.298
  694SOL    HW1 2981   1.682   0.475   2.262
  694SOL    HW2 2982   1.631   0.400   2.398
  695SOL     OW 2983   4.474   5.498   6.371
  695SOL    HW1 2984   4.465   5.510   6.470
  695SOL    HW2 2985   4.384   5.502   6.329
  696SOL     OW 2986   5.290   6.483   2.390
  696SOL    HW1 2987   5.221   6.412   2.404
  696SOL    HW2 2988   5.356   6.481   2.466
  697SOL     OW 2989   1.296   3.908   3.677
  697SOL    HW1 2990   1.384   3.901   3.630
  697SOL    HW2 2991   1.310   3.899   3.776
  698SOL     OW 2992   4.976   5.781   4.149
  698SOL    HW1 2993   5.055   5.780   4.088
  698SOL    HW2 2994   4.935   5.873   4.148
  699SOL     OW 2995   1.303   4.110   0.035
  699SOL    HW1 2996   1.227   4.091   6.994
  699SOL    HW2 2997   1.361   4.181   7.016
  700SOL     OW 2998   2.153   1.441   4.250
  700SOL    HW1 2999   2.165   1.347   4.284
  700SOL    HW2 3000   2.227   1.498   4.285
  701SOL     OW 3001   0.939   4.698   6.173
  701SOL    HW1 3002   0.930   4.796   6.192
  701SOL    HW2 3003   1.031   4.679   6.139
  702SOL     OW 3004   5.457   6.008   4.875
  702SOL    HW1 3005   5.417   5.936   4.818
  702SOL    HW2 3006   5.416   6.005   4.966
  703SOL     OW 3007   4.389   3.935   6.957
  703SOL    HW1 3008   4.473   3.958   6.908
  703SOL    HW2 3009   4.410   3.923   0.033
  704SOL     OW 3010   2.464   0.779   1.531
  704SOL    HW1 3011   2.556   0.786   1.493
  704SOL    HW2 3012   2.438   0.682   1.539
  705SOL     OW 3013   6.729   2.063   3.892
  705SOL    HW1 3014   6.635   2.075   3.860
  705SOL    HW2 3015   6.776   1.997   3.833
  706SOL     OW 3016   4.985   2.309   4.072
  706SOL    HW1 3017   4.907   2.254   4.043
  706SOL    HW2 3018   5.047   2.323   3.995
  707SOL     OW 3019   4.733   2.066   2.457
  707SOL    HW1 3020   4.769   2.106   2.373
  707SOL    HW2 3021   4.647   2.111   2.482
  708SOL     OW 3022   4.289   0.463   2.136
  708SOL    HW1 3023   4.357   0.420   2.195
  708SOL    HW2 3024   4.246   0.393   2.078
  709SOL     OW 3025   0.753   5.203   6.979
  709SOL    HW1 3026   0.708   5.278   0.006
  709SOL    HW2 3027   0.772   5.129   0.023
  710SOL     OW 3028   2.874   3.389   2.679
  710SOL    HW1 3029   2.899   3.359   2.586
  710SOL    HW2 3030   2.776   3.378   2.692
  711SOL     OW 3031   1.451   1.130   4.556
  711SOL    HW1 3032   1.360   1.098   4.582
  711SOL    HW2 3033   1.519   1.094   4.619
  712SOL     OW 3034   1.275   4.024   1.904
  712SOL    HW1 3035   1.275   4.102   1.842
  712SOL    HW2 3036   1.364   4.016   1.948
  713SOL     OW 3037   3.649   3.841   3.604
  713SOL    HW1 3038   3.740   3.879   3.622
  713SOL    HW2 3039   3.584   3.877   3.671
  714SOL     OW 3040   5.103   4.830   5.559
  714SOL    HW1 3041   5.121   4.806   5.655
  714SOL    HW2 3042   5.152   4.914   5.536
  715SOL     OW 3043   4.676   1.280   6.551
  715SOL    HW1 3044   4.611   1.253   6.622
  715SOL    HW2 3045   4.733   1.354   6.585
  716SOL     OW 3046   6.861   5.207   2.097
  716SOL    HW1 3047   6.919   5.255   2.162
  716SOL    HW2 3048   6.812   5.273   2.040
  717SOL     OW 3049   6.016   3.032   6.696
  717SOL    HW1 3050   6.014   3.015   6.794
  717SOL    HW2 3051   5.955   2.968   6.649
  718SOL     OW 3052   2.236   3.544   0.139
  718SOL    HW1 3053   2.204   3.632   0.103
  718SOL    HW2 3054   2.333   3.533   0.118
  719SOL     OW 3055   5.142   5.342   0.419
  719SOL    HW1 3056   5.096   5.285   0.486
  719SOL    HW2 3057   5.235   5.308   0.405
  720SOL     OW 3058   2.613   0.766   6.248
  720SOL    HW1 3059   2.641   0.805   6.335
  720SOL    HW2 3060   2.599   0.839   6.181
  721SOL     OW 3061   1.656   6.376   5.646
  721SOL    HW1 3062   1.626   6.430   5.567
  721SOL    HW2 3063   1.604   6.402   5.727
  722SOL     OW 3064   4.436   6.888   5.622
  722SOL    HW1 3065   4.353   6.939   5.601
  722SOL    HW2 3066   4.411   6.803   5.670
  723SOL     OW 3067   1.661   3.275   1.968
  723SOL    HW1 3068   1.590   3.320   1.915
  723SOL    HW2 3069   1.710   3.342   2.023
  724SOL     OW 3070   6.401   0.526   4.636
  724SOL    HW1 3071   6.343   0.461   4.587
  724SOL    HW2 3072   6.361   0.617   4.631
  725SOL     OW 3073   2.874   4.783   1.149
  725SOL    HW1 3074   2.871   4.787   1.249
  725SOL    HW2 3075   2.876   4.687   1.121
  726SOL     OW 3076   4.443   6.761   6.058
  726SOL    HW1 3077   4.435   6.861   6.051
  726SOL    HW2 3078   4.518   6.729   6.001
  727SOL     OW 3079   2.341   4.597   4.105
  727SOL    HW1 3080   2.268   4.639   4.051
  727SOL    HW2 3081   2.368   4.511   4.061
  728SOL     OW 3082   0.097   2.863   5.073
  728SOL    HW1 3083   0.177   2.804   5.068
  728SOL    HW2 3084   0.015   2.806   5.080
  729SOL     OW 3085   3.219   0.624   0.777
  729SOL    HW1 3086   3.144   0.640   0.841
  729SOL    HW2 3087   3.199   0.668   0.690
  730SOL     OW 3088   5.491   1.174   5.079
  730SOL    HW1 3089   5.495   1.255   5.137
  730SOL    HW2 3090   5.417   1.114   5.110
  731SOL     OW 3091   6.541   3.368   3.991
  731SOL    HW1 3092   6.497   3.428   4.058
  731SOL    HW2 3093   6.539   3.274   4.025
  732SOL     OW 3094   6.764   2.921   2.794
  732SOL    HW1 3095   6.855   2.936   2.755
  732SOL    HW2 3096   6.754   2.975   2.878
  733SOL     OW 3097   4.393   4.867   4.302
  733SOL    HW1 3098   4.490   4.883   4.286
  733SOL    HW2 3099   4.341   4.950   4.279
  734SOL     OW 3100   0.835   4.630   0.179
  734SOL    HW1 3101   0.826   4.570   0.259
  734SOL    HW2 3102   0.747   4.639   0.133
  735SOL     OW 3103   2.642   4.941   6.626
  735SOL    HW1 3104   2.731   4.958   6.670
  735SOL    HW2 3105   2.569   4.974   6.685
  736SOL     OW 3106   5.801   0.908   3.129
  736SOL    HW1 3107   5.847   0.865   3.207
  736SOL    HW2 3108   5.847   0.880   3.044
  737SOL     OW 3109   5.655   3.806   0.466
  737SOL    HW1 3110   5.566   3.839   0.497
  737SOL    HW2 3111   5.665   3.821   0.368
  738SOL     OW 3112   0.588   4.919   3.290
  738SOL    HW1 3113   0.591   4.991   3.361
  738SOL    HW2 3114   0.495   4.884   3.283
  739SOL     OW 3115   4.411   6.161   6.783
  739SOL    HW1 3116   4.424   6.198   6.875
  739SOL    HW2 3117   4.494   6.174   6.729
  740SOL     OW 3118   5.746   0.132   1.011
  740SOL    HW1 3119   5.672   0.116   1.076
  740SOL    HW2 3120   5.722   0.209   0.951
  741SOL     OW 3121   2.513   0.394   4.004
  741SOL    HW1 3122   2.572   0.402   4.085
  741SOL    HW2 3123   2.559   0.339   3.935
  742SOL     OW 3124   1.850   0.166   2.396
  742SOL    HW1 3125   1.759   0.209   2.394
  742SOL    HW2 3126   1.916   0.232   2.431
  743SOL     OW 3127   2.147   3.430   4.264
  743SOL    HW1 3128   2.174   3.346   4.311
  743SOL    HW2 3129   2.136   3.504   4.331
  744SOL     OW 3130   0.461   5.871   1.154
  744SOL    HW1 3131   0.439   5.843   1.247
  744SOL    HW2 3132   0.432   5.800   1.090
  745SOL     OW 3133   1.783   5.811   3.037
  745SOL    HW1 3134   1.834   5.813   2.951
  745SOL    HW2 3135   1.787   5.900   3.081
  746SOL     OW 3136   2.705   0.581   4.239
  746SOL    HW1 3137   2.675   0.630   4.321
  746SOL    HW2 3138   2.753   0.644   4.178
  747SOL     OW 3139   6.188   4.550   1.765
  747SOL    HW1 3140   6.267   4.564   1.706
  747SOL    HW2 3141   6.141   4.466   1.739
  748SOL     OW 3142   3.553   3.057   2.445
  748SOL    HW1 3143   3.539   2.992   2.369
  748SOL    HW2 3144   3.649   3.083   2.449
  749SOL     OW 3145   0.054   1.377   5.210
  749SOL    HW1 3146   0.000   1.332   5.139
  749SOL    HW2 3147   0.082   1.309   5.278
  750SOL     OW 3148   2.947   4.190   1.239
  750SOL    HW1 3149   2.958   4.219   1.144
  750SOL    HW2 3150   2.860   4.141   1.249
  751SOL     OW 3151   4.654   1.489   0.579
  751SOL    HW1 3152   4.581   1.459   0.518
  751SOL    HW2 3153   4.731   1.523   0.525
  752SOL     OW 3154   4.628   1.111   1.539
  752SOL    HW1 3155   4.677   1.178   1.594
  752SOL    HW2 3156   4.534   1.142   1.524
  753SOL     OW 3157   2.744   1.536   2.476
  753SOL    HW1 3158   2.781   1.628   2.489
  753SOL    HW2 3159   2.647   1.535   2.500
  754SOL     OW 3160   4.897   5.778   7.018
  754SOL    HW1 3161   4.994   5.753   0.005
  754SOL    HW2 3162   4.869   5.827   0.079
  755SOL     OW 3163   0.147   6.500   3.035
  755SOL    HW1 3164   0.169   6.424   2.974
  755SOL    HW2 3165   0.132   6.583   2.981
  756SOL     OW 3166   3.627   6.752   3.688
  756SOL    HW1 3167   3.642   6.769   3.785
  756SOL    HW2 3168   3.690   6.807   3.634
  757SOL     OW 3169   6.528   0.978   5.027
  757SOL    HW1 3170   6.607   1.000   5.085
  757SOL    HW2 3171   6.542   1.016   4.936
  758SOL     OW 3172   4.386   2.047   2.034
  758SOL    HW1 3173   4.441   2.072   1.954
  758SOL    HW2 3174   4.426   2.088   2.116
  759SOL     OW 3175   1.861   1.165   0.496
  759SOL    HW1 3176   1.875   1.116   0.582
  759SOL    HW2 3177   1.948   1.171   0.447
  760SOL     OW 3178   4.523   2.235   5.953
  760SOL    HW1 3179   4.432   2.245   5.994
  760SOL    HW2 3180   4.579   2.315   5.976
  761SOL     OW 3181   5.671   2.156   6.813
  761SOL    HW1 3182   5.756   2.110   6.836
  761SOL    HW2 3183   5.634   2.117   6.728
  762SOL     OW 3184   1.967   5.300   4.115
  762SOL    HW1 3185   1.968   5.288   4.214
  762SOL    HW2 3186   1.949   5.396   4.093
  763SOL     OW 3187   5.703   5.274   6.738
  763SOL    HW1 3188   5.641   5.215   6.791
  763SOL    HW2 3189   5.657   5.360   6.717
  764SOL     OW 3190   4.322   1.140   2.631
  764SOL    HW1 3191   4.324   1.044   2.603
  764SOL    HW2 3192   4.256   1.152   2.705
  765SOL     OW 3193   6.923   6.491   3.893
  765SOL    HW1 3194   6.909   6.393   3.880
  765SOL    HW2 3195   7.014   6.507   3.931
  766SOL     OW 3196   0.204   6.314   0.005
  766SOL    HW1 3197   0.288   6.284   0.050
  766SOL    HW2 3198   0.191   6.412   0.022
  767SOL     OW 3199   6.261   0.001   1.846
  767SOL    HW1 3200   6.195   0.034   1.914
  767SOL    HW2 3201   6.217   6.955   1.787
  768SOL     OW 3202   3.377   6.136   3.481
  768SOL    HW1 3203   3.322   6.141   3.564
  768SOL    HW2 3204   3.390   6.228   3.443
  769SOL     OW 3205   3.120   0.563   6.807
  769SOL    HW1 3206   3.144   0.564   6.710
  769SOL    HW2 3207   3.020   0.560   6.816
  770SOL     OW 3208   3.426   4.953   3.390
  770SOL    HW1 3209   3.496   4.975   3.322
  770SOL    HW2 3210   3.469   4.938   3.479
  771SOL     OW 3211   0.167   5.509   4.287
  771SOL    HW1 3212   0.263   5.525   4.307
  771SOL    HW2 3213   0.158   5.475   4.193
  772SOL     OW 3214   6.557   4.553   4.780
  772SOL    HW1 3215   6.475   4.586   4.827
  772SOL    HW2 3216   6.618   4.511   4.847
  773SOL     OW 3217   0.101   3.574   1.529
  773SOL    HW1 3218   0.143   3.618   1.450
  773SOL    HW2 3219   0.147   3.487   1.547
  774SOL     OW 3220   1.501   0.860   1.124
  774SOL    HW1 3221   1.585   0.822   1.163
  774SOL    HW2 3222   1.524   0.929   1.056
  775SOL     OW 3223   1.322   2.162   4.020
  775SOL    HW1 3224   1.247   2.228   4.015
  775SOL    HW2 3225   1.303   2.096   4.092
  776SOL     OW 3226   2.376   0.405   5.773
  776SOL    HW1 3227   2.279   0.382   5.766
  776SOL    HW2 3228   2.426   0.362   5.697
  777SOL     OW 3229   4.087   0.380   0.634
  777SOL    HW1 3230   4.078   0.391   0.733
  777SOL    HW2 3231   4.083   0.469   0.590
  778SOL     OW 3232   4.131   6.293   3.732
  778SOL    HW1 3233   4.198   6.272   3.661
  778SOL    HW2 3234   4.144   6.387   3.764
  779SOL     OW 3235   1.057   1.191   2.220
  779SOL    HW1 3236   1.156   1.204   2.224
  779SOL    HW2 3237   1.024   1.163   2.310
  780SOL     OW 3238   5.177   3.453   4.978
  780SOL    HW1 3239   5.170   3.498   5.067
  780SOL    HW2 3240   5.086   3.424   4.948
  781SOL     OW 3241   0.796   1.831   6.239
  781SOL    HW1 3242   0.709   1.797   6.275
  781SOL    HW2 3243   0.871   1.778   6.277
  782SOL     OW 3244   0.361   4.013   0.547
  782SOL    HW1 3245   0.352   3.937   0.483
  782SOL    HW2 3246   0.446   4.004   0.599
  783SOL     OW 3247   2.748   4.053   0.625
  783SOL    HW1 3248   2.669   4.009   0.582
  783SOL    HW2 3249   2.728   4.072   0.721
  784SOL     OW 3250   5.124   6.591   3.846
  784SOL    HW1 3251   5.029   6.583   3.815
  784SOL    HW2 3252   5.157   6.502   3.878
  785SOL     OW 3253   6.067   2.340   4.155
  785SOL    HW1 3254   6.093   2.434   4.131
  785SOL    HW2 3255   5.996   2.342   4.225
  786SOL     OW 3256   6.269   0.159   0.062
  786SOL    HW1 3257   6.202   0.140   7.011
  786SOL    HW2 3258   6.268   0.085   0.129
  787SOL     OW 3259   4.034   1.602   6.749
  787SOL    HW1 3260   3.955   1.663   6.737
  787SOL    HW2 3261   4.004   1.516   6.791
  788SOL     OW 3262   1.078   4.476   3.894
  788SOL    HW1 3263   1.001   4.536   3.873
  788SOL    HW2 3264   1.129   4.456   3.810
  789SOL     OW 3265   5.987   3.358   1.235
  789SOL    HW1 3266   5.936   3.372   1.149
  789SOL    HW2 3267   5.929   3.383   1.312
  790SOL     OW 3268   3.239   1.126   4.496
  790SOL    HW1 3269   3.224   1.193   4.423
  790SOL    HW2 3270   3.222   1.170   4.584
  791SOL     OW 3271   3.845   2.134   4.359
  791SOL    HW1 3272   3.760   2.146   4.410
  791SOL    HW2 3273   3.881   2.042   4.375
  792SOL     OW 3274   5.814   0.130   3.336
  792SOL    HW1 3275   5.744   0.200   3.319
  792SOL    HW2 3276   5.789   0.045   3.290
  793SOL     OW 3277   6.581   6.991   5.980
  793SOL    HW1 3278   6.495   6.940   5.991
  793SOL    HW2 3279   6.658   6.932   6.004
  794SOL     OW 3280   3.414   5.454   4.762
  794SOL    HW1 3281   3.438   5.364   4.726
  794SOL    HW2 3282   3.490   5.517   4.747
  795SOL     OW 3283   5.176   4.210   6.215
  795SOL    HW1 3284   5.177   4.259   6.302
  795SOL    HW2 3285   5.270   4.193   6.185
  796SOL     OW 3286   0.975   2.223   6.111
  796SOL    HW1 3287   0.894   2.199   6.058
  796SOL    HW2 3288   1.055   2.223   6.052
  797SOL     OW 3289   6.319   2.280   4.992
  797SOL    HW1 3290   6.235   2.323   4.958
  797SOL    HW2 3291   6.399   2.326   4.953
  798SOL     OW 3292   6.114   0.678   5.446
  798SOL    HW1 3293   6.056   0.718   5.375
  798SOL    HW2 3294   6.091   0.717   5.534
  799SOL     OW 3295   6.995   3.425   3.359
  799SOL    HW1 3296   6.965   3.471   3.276
  799SOL    HW2 3297   0.018   3.491   3.421
  800SOL     OW 3298   6.993   1.231   1.907
  800SOL    HW1 3299   6.919   1.179   1.950
  800SOL    HW2 3300   6.956   1.283   1.830
  801SOL     OW 3301   0.368   2.110   3.867
  801SOL    HW1 3302   0.414   2.027   3.835
  801SOL    HW2 3303   0.316   2.090   3.950
  802SOL     OW 3304   5.666   1.276   0.986
  802SOL    HW1 3305   5.588   1.217   1.004
  802SOL    HW2 3306   5.646   1.369   1.019
  803SOL     OW 3307   1.487   0.172   4.611
  803SOL    HW1 3308   1.491   0.265   4.649
  803SOL    HW2 3309   1.436   0.173   4.526
  804SOL     OW 3310   6.127   6.712   1.016
  804SOL    HW1 3311   6.030   6.732   1.006
  804SOL    HW2 3312   6.172   6.721   0.927
  805SOL     OW 3313   1.699   3.219   6.071
  805SOL    HW1 3314   1.623   3.154   6.077
  805SOL    HW2 3315   1.690   3.287   6.144
  806SOL     OW 3316   4.883   0.860   0.829
  806SOL    HW1 3317   4.791   0.864   0.790
  806SOL    HW2 3318   4.906   0.947   0.872
  807SOL     OW 3319   1.446   0.368   2.967
  807SOL    HW1 3320   1.492   0.285   2.999
  807SOL    HW2 3321   1.477   0.446   3.021
  808SOL     OW 3322   6.111   3.160   5.223
  808SOL    HW1 3323   6.189   3.216   5.251
  808SOL    HW2 3324   6.030   3.218   5.211
  809SOL     OW 3325   0.626   5.233   6.244
  809SOL    HW1 3326   0.611   5.203   6.338
  809SOL    HW2 3327   0.678   5.163   6.195
  810SOL     OW 3328   6.690   4.760   6.642
  810SOL    HW1 3329   6.601   4.740   6.601
  810SOL    HW2 3330   6.683   4.842   6.699
  811SOL     OW 3331   4.641   5.266   3.693
  811SOL    HW1 3332   4.669   5.222   3.778
  811SOL    HW2 3333   4.710   5.248   3.623
  812SOL     OW 3334   0.918   0.122   2.747
  812SOL    HW1 3335   0.936   0.093   2.842
  812SOL    HW2 3336   0.890   0.218   2.746
  813SOL     OW 3337   5.954   5.640   2.131
  813SOL    HW1 3338   5.942   5.541   2.134
  813SOL    HW2 3339   5.982   5.673   2.222
  814SOL     OW 3340   5.880   5.517   1.817
  814SOL    HW1 3341   5.807   5.555   1.874
  814SOL    HW2 3342   5.840   5.456   1.749
  815SOL     OW 3343   0.530   2.448   0.219
  815SOL    HW1 3344   0.558   2.472   0.312
  815SOL    HW2 3345   0.580   2.505   0.153
  816SOL     OW 3346   6.248   0.378   1.109
  816SOL    HW1 3347   6.171   0.409   1.053
  816SOL    HW2 3348   6.249   0.428   1.196
  817SOL     OW 3349   1.034   1.969   2.011
  817SOL    HW1 3350   1.027   2.066   2.033
  817SOL    HW2 3351   1.013   1.914   2.093
  818SOL     OW 3352   6.626   1.447   1.766
  818SOL    HW1 3353   6.724   1.455   1.783
  818SOL    HW2 3354   6.610   1.404   1.677
  819SOL     OW 3355   0.423   4.387   3.176
  819SOL    HW1 3356   0.383   4.304   3.214
  819SOL    HW2 3357   0.493   4.422   3.239
  820SOL     OW 3358   1.278   3.363   4.846
  820SOL    HW1 3359   1.251   3.278   4.800
  820SOL    HW2 3360   1.269   3.352   4.945
  821SOL     OW 3361   1.241   3.423   0.979
  821SOL    HW1 3362   1.326   3.373   0.997
  821SOL    HW2 3363   1.221   3.484   1.055
  822SOL     OW 3364   1.532   3.616   5.006
  822SOL    HW1 3365   1.607   3.606   4.940
  822SOL    HW2 3366   1.546   3.553   5.082
  823SOL     OW 3367   2.973   3.168   0.756
  823SOL    HW1 3368   2.904   3.212   0.813
  823SOL    HW2 3369   2.990   3.075   0.789
  824SOL     OW 3370   6.051   2.468   5.859
  824SOL    HW1 3371   6.117   2.441   5.929
  824SOL    HW2 3372   6.091   2.537   5.800
  825SOL     OW 3373   1.272   4.286   1.745
  825SOL    HW1 3374   1.363   4.294   1.704
  825SOL    HW2 3375   1.247   4.373   1.788
  826SOL     OW 3376   0.791   4.603   5.930
  826SOL    HW1 3377   0.837   4.617   5.842
  826SOL    HW2 3378   0.853   4.628   6.004
  827SOL     OW 3379   3.814   6.024   0.404
  827SOL    HW1 3380   3.914   6.023   0.412
  827SOL    HW2 3381   3.779   6.109   0.443
  828SOL     OW 3382   5.958   6.796   6.068
  828SOL    HW1 3383   5.930   6.762   6.158
  828SOL    HW2 3384   5.878   6.800   6.008
  829SOL     OW 3385   3.938   3.094   4.822
  829SOL    HW1 3386   3.944   3.113   4.724
  829SOL    HW2 3387   4.030   3.072   4.857
  830SOL     OW 3388   5.119   3.632   5.809
  830SOL    HW1 3389   5.099   3.729   5.825
  830SOL    HW2 3390   5.152   3.620   5.715
  831SOL     OW 3391   6.627   6.813   4.954
  831SOL    HW1 3392   6.710   6.855   4.992
  831SOL    HW2 3393   6.601   6.861   4.870
  832SOL     OW 3394   2.238   1.107   5.866
  832SOL    HW1 3395   2.297   1.032   5.896
  832SOL    HW2 3396   2.155   1.070   5.823
  833SOL     OW 3397   1.052   6.884   5.518
  833SOL    HW1 3398   0.980   6.858   5.454
  833SOL    HW2 3399   1.025   6.967   5.567
  834SOL     OW 3400   3.535   4.691   5.527
  834SOL    HW1 3401   3.519   4.610   5.583
  834SOL    HW2 3402   3.464   4.758   5.545
  835SOL     OW 3403   4.206   0.807   3.269
  835SOL    HW1 3404   4.304   0.787   3.280
  835SOL    HW2 3405   4.170   0.845   3.354
  836SOL     OW 3406   2.172   0.725   0.133
  836SOL    HW1 3407   2.208   0.797   0.074
  836SOL    HW2 3408   2.147   0.764   0.222
  837SOL     OW 3409   3.707   0.784   5.029
  837SOL    HW1 3410   3.738   0.817   5.118
  837SOL    HW2 3411   3.758   0.701   5.005
  838SOL     OW 3412   1.371   4.576   2.577
  838SOL    HW1 3413   1.337   4.637   2.649
  838SOL    HW2 3414   1.312   4.496   2.570
  839SOL     OW 3415   3.323   0.850   1.813
  839SOL    HW1 3416   3.387   0.864   1.738
  839SOL    HW2 3417   3.241   0.906   1.797
  840SOL     OW 3418   0.553   1.722   6.348
  840SOL    HW1 3419   0.543   1.671   6.262
  840SOL    HW2 3420   0.463   1.731   6.392
  841SOL     OW 3421   0.272   3.425   0.784
  841SOL    HW1 3422   0.208   3.413   0.860
  841SOL    HW2 3423   0.301   3.520   0.780
  842SOL     OW 3424   3.570   5.418   3.476
  842SOL    HW1 3425   3.507   5.416   3.398
  842SOL    HW2 3426   3.626   5.501   3.471
  843SOL     OW 3427   6.459   3.931   2.486
  843SOL    HW1 3428   6.537   3.878   2.451
  843SOL    HW2 3429   6.483   3.972   2.574
  844SOL     OW 3430   5.298   5.668   0.380
  844SOL    HW1 3431   5.371   5.726   0.416
  844SOL    HW2 3432   5.333   5.617   0.301
  845SOL     OW 3433   1.692   5.299   4.471
  845SOL    HW1 3434   1.660   5.257   4.556
  845SOL    HW2 3435   1.742   5.232   4.416
  846SOL     OW 3436   5.404   2.935   0.080
  846SOL    HW1 3437   5.333   2.876   0.041
  846SOL    HW2 3438   5.381   2.958   0.175
  847SOL     OW 3439   5.439   3.737   2.144
  847SOL    HW1 3440   5.375   3.809   2.171
  847SOL    HW2 3441   5.532   3.764   2.168
  848SOL     OW 3442   6.388   0.078   5.411
  848SOL    HW1 3443   6.481   0.087   5.378
  848SOL    HW2 3444   6.388   0.075   5.511
  849SOL     OW 3445   0.969   5.223   4.414
  849SOL    HW1 3446   0.921   5.195   4.330
  849SOL    HW2 3447   1.052   5.168   4.425
  850SOL     OW 3448   3.631   0.690   3.359
  850SOL    HW1 3449   3.688   0.660   3.435
  850SOL    HW2 3450   3.677   0.670   3.272
  851SOL     OW 3451   0.530   0.566   5.178
  851SOL    HW1 3452   0.508   0.579   5.081
  851SOL    HW2 3453   0.601   0.632   5.205
  852SOL     OW 3454   3.011   4.387   6.007
  852SOL    HW1 3455   3.067   4.443   5.946
  852SOL    HW2 3456   2.940   4.445   6.048
  853SOL     OW 3457   1.549   3.681   0.975
  853SOL    HW1 3458   1.529   3.688   1.073
  853SOL    HW2 3459   1.581   3.588   0.955
  854SOL     OW 3460   6.342   5.206   1.960
  854SOL    HW1 3461   6.413   5.262   2.003
  854SOL    HW2 3462   6.322   5.241   1.869
  855SOL     OW 3463   5.261   0.077   1.299
  855SOL    HW1 3464   5.248   0.052   1.203
  855SOL    HW2 3465   5.223   0.005   1.357
  856SOL     OW 3466   1.641   0.992   4.712
  856SOL    HW1 3467   1.738   0.985   4.735
  856SOL    HW2 3468   1.606   0.902   4.688
  857SOL     OW 3469   6.439   3.829   1.197
  857SOL    HW1 3470   6.497   3.768   1.251
  857SOL    HW2 3471   6.416   3.910   1.251
  858SOL     OW 3472   3.439   3.690   1.212
  858SOL    HW1 3473   3.520   3.738   1.177
  858SOL    HW2 3474   3.466   3.605   1.256
  859SOL     OW 3475   0.157   4.720   0.471
  859SOL    HW1 3476   0.134   4.811   0.439
  859SOL    HW2 3477   0.213   4.727   0.554
  860SOL     OW 3478   2.100   4.964   0.929
  860SOL    HW1 3479   2.115   4.991   1.024
  860SOL    HW2 3480   2.005   4.933   0.917
  861SOL     OW 3481   3.559   4.867   6.320
  861SOL    HW1 3482   3.608   4.841   6.237
  861SOL    HW2 3483   3.527   4.961   6.312
  862SOL     OW 3484   4.750   4.348   3.765
  862SOL    HW1 3485   4.787   4.349   3.858
  862SOL    HW2 3486   4.669   4.407   3.762
  863SOL     OW 3487   5.550   1.273   0.631
  863SOL    HW1 3488   5.485   1.315   0.694
  863SOL    HW2 3489   5.501   1.232   0.554
  864SOL     OW 3490   6.576   4.284   2.489
  864SOL    HW1 3491   6.654   4.225   2.469
  864SOL    HW2 3492   6.522   4.246   2.563
  865SOL     OW 3493   1.614   0.813   3.765
  865SOL    HW1 3494   1.589   0.907   3.788
  865SOL    HW2 3495   1.606   0.756   3.847
  866SOL     OW 3496   3.509   1.061   1.011
  866SOL    HW1 3497   3.478   1.029   0.922
  866SOL    HW2 3498   3.595   1.015   1.035
  867SOL     OW 3499   1.702   1.679   6.069
  867SOL    HW1 3500   1.639   1.757   6.065
  867SOL    HW2 3501   1.696   1.636   6.159
  868SOL     OW 3502   5.913   2.840   3.392
  868SOL    HW1 3503   5.879   2.794   3.473
  868SOL    HW2 3504   5.980   2.910   3.419
  869SOL     OW 3505   6.832   4.155   1.735
  869SOL    HW1 3506   6.859   4.152   1.831
  869SOL    HW2 3507   6.904   4.200   1.682
  870SOL     OW 3508   6.771   2.400   0.656
  870SOL    HW1 3509   6.703   2.472   0.669
  870SOL    HW2 3510   6.863   2.440   0.651
  871SOL     OW 3511   5.961   4.364   0.688
  871SOL    HW1 3512   6.028   4.289   0.688
  871SOL    HW2 3513   5.994   4.438   0.629
  872SOL     OW 3514   5.819   1.940   2.357
  872SOL    HW1 3515   5.800   1.936   2.455
  872SOL    HW2 3516   5.850   2.032   2.333
  873SOL     OW 3517   4.216   6.810   5.031
  873SOL    HW1 3518   4.206   6.723   5.080
  873SOL    HW2 3519   4.313   6.834   5.027
  874SOL     OW 3520   0.328   3.599   6.231
  874SOL    HW1 3521   0.395   3.546   6.178
  874SOL    HW2 3522   0.369   3.685   6.259
  875SOL     OW 3523   5.803   5.130   6.534
  875SOL    HW1 3524   5.900   5.108   6.547
  875SOL    HW2 3525   5.774   5.197   6.602
  876SOL     OW 3526   0.973   1.907   0.826
  876SOL    HW1 3527   0.957   1.968   0.749
  876SOL    HW2 3528   0.902   1.920   0.894
  877SOL     OW 3529   6.146   6.137   0.163
  877SOL    HW1 3530   6.083   6.171   0.232
  877SOL    HW2 3531   6.095   6.099   0.086
  878SOL     OW 3532   3.631   2.398   0.208
  878SOL    HW1 3533   3.640   2.496   0.225
  878SOL    HW2 3534   3.702   2.368   0.145
  879SOL     OW 3535   4.004   2.031   2.550
  879SOL    HW1 3536   4.056   1.954   2.588
  879SOL    HW2 3537   4.053   2.070   2.472
  880SOL     OW 3538   4.400   5.587   1.479
  880SOL    HW1 3539   4.313   5.600   1.432
  880SOL    HW2 3540   4.465   5.656   1.448
  881SOL     OW 3541   4.469   5.272   4.195
  881SOL    HW1 3542   4.523   5.355   4.214
  881SOL    HW2 3543   4.444   5.229   4.282
  882SOL     OW 3544   0.854   2.229   4.101
  882SOL    HW1 3545   0.761   2.211   4.071
  882SOL    HW2 3546   0.917   2.166   4.055
  883SOL     OW 3547   3.966   4.103   6.985
  883SOL    HW1 3548   4.042   4.134   6.927
  883SOL    HW2 3549   3.880   4.141   6.950
  884SOL     OW 3550   4.163   3.825   1.795
  884SOL    HW1 3551   4.186   3.729   1.780
  884SOL    HW2 3552   4.118   3.835   1.884
  885SOL     OW 3553   4.489   6.178   6.375
  885SOL    HW1 3554   4.443   6.258   6.414
  885SOL    HW2 3555   4.472   6.099   6.433
  886SOL     OW 3556   3.849   1.803   6.719
  886SOL    HW1 3557   3.927   1.866   6.717
  886SOL    HW2 3558   3.767   1.852   6.748
  887SOL     OW 3559   5.323   0.080   6.114
  887SOL    HW1 3560   5.302   0.133   6.031
  887SOL    HW2 3561   5.412   0.107   6.150
  888SOL     OW 3562   6.752   5.933   3.394
  888SOL    HW1 3563   6.852   5.931   3.399
  888SOL    HW2 3564   6.721   6.028   3.396
  889SOL     OW 3565   1.181   6.948   4.544
  889SOL    HW1 3566   1.146   0.017   4.517
  889SOL    HW2 3567   1.277   6.940   4.515
  890SOL     OW 3568   1.670   4.264   2.195
  890SOL    HW1 3569   1.704   4.300   2.108
  890SOL    HW2 3570   1.595   4.322   2.227
  891SOL     OW 3571   5.557   3.763   6.248
  891SOL    HW1 3572   5.580   3.853   6.284
  891SOL    HW2 3573   5.630   3.698   6.271
  892SOL     OW 3574   2.116   5.385   1.644
  892SOL    HW1 3575   2.126   5.473   1.598
  892SOL    HW2 3576   2.207   5.346   1.661
  893SOL     OW 3577   1.784   6.682   1.410
  893SOL    HW1 3578   1.881   6.703   1.401
  893SOL    HW2 3579   1.773   6.588   1.443
  894SOL     OW 3580   1.147   5.157   4.146
  894SOL    HW1 3581   1.175   5.240   4.098
  894SOL    HW2 3582   1.226   5.117   4.192
  895SOL     OW 3583   2.393   0.818   4.668
  895SOL    HW1 3584   2.433   0.907   4.647
  895SOL    HW2 3585   2.296   0.819   4.643
  896SOL     OW 3586   5.354   6.945   3.499
  896SOL    HW1 3587   5.320   6.864   3.547
  896SOL    HW2 3588   5.453   6.950   3.509
  897SOL     OW 3589   4.749   2.080   6.159
  897SOL    HW1 3590   4.675   2.066   6.225
  897SOL    HW2 3591   4.715   2.133   6.081
  898SOL     OW 3592   5.663   5.779   3.830
  898SOL    HW1 3593   5.575   5.828   3.824
  898SOL    HW2 3594   5.664   5.723   3.912
  899SOL     OW 3595   1.345   4.428   0.172
  899SOL    HW1 3596   1.360   4.526   0.164
  899SOL    HW2 3597   1.346   4.387   0.080
  900SOL     OW 3598   0.674   5.721   3.581
  900SOL    HW1 3599   0.758   5.774   3.595
  900SOL    HW2 3600   0.618   5.724   3.664
  901SOL     OW 3601   5.781   1.750   3.527
  901SOL    HW1 3602   5.729   1.791   3.453
  901SOL    HW2 3603   5.845   1.817   3.564
  902SOL     OW 3604   0.900   6.147   7.018
  902SOL    HW1 3605   0.964   6.106   0.061
  902SOL    HW2 3606   0.869   6.079   6.952
  903SOL     OW 3607   0.632   4.950   6.379
  903SOL    HW1 3608   0.546   4.922   6.421
  903SOL    HW2 3609   0.698   4.975   6.450
  904SOL     OW 3610   1.552   1.064   3.881
  904SOL    HW1 3611   1.573   1.052   3.978
  904SOL    HW2 3612   1.453   1.072   3.869
  905SOL     OW 3613   6.252   1.769   5.387
  905SOL    HW1 3614   6.281   1.674   5.395
  905SOL    HW2 3615   6.289   1.807   5.302
  906SOL     OW 3616   6.649   4.230   5.269
  906SOL    HW1 3617   6.629   4.154   5.208
  906SOL    HW2 3618   6.577   4.239   5.337
  907SOL     OW 3619   0.114   3.288   1.709
  907SOL    HW1 3620   0.127   3.315   1.804
  907SOL    HW2 3621   0.149   3.195   1.696
  908SOL     OW 3622   2.208   0.863   3.041
  908SOL    HW1 3623   2.301   0.837   3.066
  908SOL    HW2 3624   2.143   0.822   3.105
  909SOL     OW 3625   4.312   0.194   1.128
  909SOL    HW1 3626   4.324   0.288   1.161
  909SOL    HW2 3627   4.396   0.142   1.143
  910SOL     OW 3628   2.051   1.697   1.666
  910SOL    HW1 3629   2.001   1.746   1.595
  910SOL    HW2 3630   1.998   1.697   1.751
  911SOL     OW 3631   0.332   3.715   0.736
  911SOL    HW1 3632   0.256   3.775   0.760
  911SOL    HW2 3633   0.411   3.736   0.793
  912SOL     OW 3634   0.782   0.494   6.110
  912SOL    HW1 3635   0.785   0.528   6.204
  912SOL    HW2 3636   0.761   0.396   6.110
  913SOL     OW 3637   1.929   1.044   1.767
  913SOL    HW1 3638   1.962   0.975   1.831
  913SOL    HW2 3639   1.864   1.104   1.814
  914SOL     OW 3640   2.902   5.983   2.608
  914SOL    HW1 3641   2.886   5.974   2.509
  914SOL    HW2 3642   2.871   5.900   2.654
  915SOL     OW 3643   1.366   2.542   0.349
  915SOL    HW1 3644   1.418   2.623   0.374
  915SOL    HW2 3645   1.270   2.555   0.374
  916SOL     OW 3646   1.679   3.142   2.220
  916SOL    HW1 3647   1.715   3.234   2.205
  916SOL    HW2 3648   1.660   3.099   2.132
  917SOL     OW 3649   3.248   1.806   6.524
  917SOL    HW1 3650   3.155   1.809   6.560
  917SOL    HW2 3651   3.256   1.871   6.448
  918SOL     OW 3652   0.517   0.919   5.487
  918SOL    HW1 3653   0.437   0.863   5.465
  918SOL    HW2 3654   0.548   0.898   5.580
  919SOL     OW 3655   1.905   6.666   1.082
  919SOL    HW1 3656   1.934   6.575   1.055
  919SOL    HW2 3657   1.806   6.668   1.096
  920SOL     OW 3658   1.683   1.176   3.591
  920SOL    HW1 3659   1.773   1.179   3.547
  920SOL    HW2 3660   1.695   1.183   3.690
  921SOL     OW 3661   4.283   4.467   0.448
  921SOL    HW1 3662   4.340   4.440   0.370
  921SOL    HW2 3663   4.226   4.390   0.475
  922SOL     OW 3664   1.978   4.969   6.333
  922SOL    HW1 3665   2.046   4.895   6.337
  922SOL    HW2 3666   2.022   5.052   6.299
  923SOL     OW 3667   3.694   1.365   6.699
  923SOL    HW1 3668   3.608   1.314   6.686
  923SOL    HW2 3669   3.686   1.455   6.657
  924SOL     OW 3670   6.947   4.527   2.535
  924SOL    HW1 3671   0.005   4.516   2.474
  924SOL    HW2 3672   6.868   4.556   2.481
  925SOL     OW 3673   6.963   1.806   3.171
  925SOL    HW1 3674   6.880   1.799   3.116
  925SOL    HW2 3675   7.005   1.896   3.156
  926SOL     OW 3676   5.175   6.394   0.378
  926SOL    HW1 3677   5.175   6.295   0.365
  926SOL    HW2 3678   5.264   6.431   0.352
  927SOL     OW 3679   4.700   5.643   4.661
  927SOL    HW1 3680   4.727   5.634   4.565
  927SOL    HW2 3681   4.702   5.740   4.687
  928SOL     OW 3682   0.682   1.159   1.409
  928SOL    HW1 3683   0.767   1.213   1.412
  928SOL    HW2 3684   0.605   1.220   1.395
  929SOL     OW 3685   0.281   2.544   2.609
  929SOL    HW1 3686   0.293   2.575   2.703
  929SOL    HW2 3687   0.275   2.623   2.548
  930SOL     OW 3688   5.327   5.369   2.550
  930SOL    HW1 3689   5.404   5.306   2.562
  930SOL    HW2 3690   5.301   5.406   2.639
  931SOL     OW 3691   1.817   3.007   1.859
  931SOL    HW1 3692   1.778   3.086   1.907
  931SOL    HW2 3693   1.885   3.039   1.793
  932SOL     OW 3694   4.578   6.558   1.213
  932SOL    HW1 3695   4.566   6.590   1.119
  932SOL    HW2 3696   4.531   6.471   1.225
  933SOL     OW 3697   1.432   6.224   4.196
  933SOL    HW1 3698   1.511   6.248   4.141
  933SOL    HW2 3699   1.349   6.260   4.153
  934SOL     OW 3700   3.041   0.993   5.668
  934SOL    HW1 3701   3.012   0.933   5.743
  934SOL    HW2 3702   3.047   0.940   5.583
  935SOL     OW 3703   1.719   3.560   5.741
  935SOL    HW1 3704   1.649   3.591   5.806
  935SOL    HW2 3705   1.746   3.467   5.763
  936SOL     OW 3706   0.354   1.843   1.562
  936SOL    HW1 3707   0.454   1.834   1.556
  936SOL    HW2 3708   0.328   1.937   1.539
  937SOL     OW 3709   5.257   2.281   3.401
  937SOL    HW1 3710   5.340   2.299   3.349
  937SOL    HW2 3711   5.181   2.331   3.359
  938SOL     OW 3712   6.706   1.126   6.976
  938SOL    HW1 3713   6.625   1.170   6.937
  938SOL    HW2 3714   6.750   1.070   6.905
  939SOL     OW 3715   6.330   0.683   5.290
  939SOL    HW1 3716   6.259   0.677   5.360
  939SOL    HW2 3717   6.419   0.698   5.334
  940SOL     OW 3718   0.276   0.597   3.997
  940SOL    HW1 3719   0.358   0.641   4.033
  940SOL    HW2 3720   0.239   0.651   3.922
  941SOL     OW 3721   5.669   2.642   5.638
  941SOL    HW1 3722   5.664   2.605   5.545
  941SOL    HW2 3723   5.635   2.573   5.703
  942SOL     OW 3724   4.662   0.608   5.627
  942SOL    HW1 3725   4.591   0.576   5.565
  942SOL    HW2 3726   4.738   0.645   5.574
  943SOL     OW 3727   5.609   1.948   0.073
  943SOL    HW1 3728   5.650   2.004   0.001
  943SOL    HW2 3729   5.579   1.861   0.035
  944SOL     OW 3730   5.198   4.363   4.882
  944SOL    HW1 3731   5.114   4.321   4.919
  944SOL    HW2 3732   5.247   4.410   4.955
  945SOL     OW 3733   5.462   3.376   6.044
  945SOL    HW1 3734   5.406   3.458   6.054
  945SOL    HW2 3735   5.430   3.322   5.966
  946SOL     OW 3736   5.617   3.496   6.357
  946SOL    HW1 3737   5.575   3.559   6.421
  946SOL    HW2 3738   5.557   3.417   6.343
  947SOL     OW 3739   1.080   2.920   5.148
  947SOL    HW1 3740   0.996   2.912   5.094
  947SOL    HW2 3741   1.154   2.872   5.102
  948SOL     OW 3742   4.085   2.045   0.566
  948SOL    HW1 3743   4.154   2.117   0.561
  948SOL    HW2 3744   4.040   2.047   0.656
  949SOL     OW 3745   5.705   5.933   6.399
  949SOL    HW1 3746   5.640   5.970   6.333
  949SOL    HW2 3747   5.735   6.005   6.461
  950SOL     OW 3748   3.930   5.552   0.676
  950SOL    HW1 3749   3.962   5.462   0.707
  950SOL    HW2 3750   3.984   5.623   0.721
  951SOL     OW 3751   0.392   2.655   4.346
  951SOL    HW1 3752   0.348   2.734   4.305
  951SOL    HW2 3753   0.334   2.618   4.419
  952SOL     OW 3754   5.129   1.270   1.309
  952SOL    HW1 3755   5.047   1.314   1.272
  952SOL    HW2 3756   5.210   1.314   1.270
  953SOL     OW 3757   3.390   6.787   5.836
  953SOL    HW1 3758   3.485   6.808   5.857
  953SOL    HW2 3759   3.348   6.864   5.789
  954SOL     OW 3760   6.975   0.025   1.520
  954SOL    HW1 3761   6.950   7.005   1.432
  954SOL    HW2 3762   0.026   0.092   1.505
  955SOL     OW 3763   0.453   6.866   1.920
  955SOL    HW1 3764   0.393   6.893   1.996
  955SOL    HW2 3765   0.454   6.938   1.851
  956SOL     OW 3766   1.143   2.891   0.584
  956SOL    HW1 3767   1.139   2.812   0.523
  956SOL    HW2 3768   1.055   2.938   0.584
  957SOL     OW 3769   2.010   6.466   4.921
  957SOL    HW1 3770   1.972   6.447   5.011
  957SOL    HW2 3771   2.070   6.390   4.894
  958SOL     OW 3772   4.951   2.460   0.573
  958SOL    HW1 3773   4.891   2.443   0.650
  958SOL    HW2 3774   4.965   2.375   0.522
  959SOL     OW 3775   1.749   3.557   1.669
  959SOL    HW1 3776   1.702   3.574   1.582
  959SOL    HW2 3777   1.681   3.548   1.742
  960SOL     OW 3778   1.610   5.310   5.509
  960SOL    HW1 3779   1.709   5.312   5.497
  960SOL    HW2 3780   1.586   5.340   5.601
  961SOL     OW 3781   3.776   0.102   0.331
  961SOL    HW1 3782   3.720   0.163   0.387
  961SOL    HW2 3783   3.726   0.018   0.312
  962SOL     OW 3784   1.253   6.491   3.871
  962SOL    HW1 3785   1.159   6.508   3.901
  962SOL    HW2 3786   1.280   6.398   3.898
  963SOL     OW 3787   6.149   6.846   2.126
  963SOL    HW1 3788   6.113   6.938   2.112
  963SOL    HW2 3789   6.249   6.849   2.132
  964SOL     OW 3790   5.239   3.376   1.218
  964SOL    HW1 3791   5.209   3.314   1.145
  964SOL    HW2 3792   5.169   3.446   1.232
  965SOL     OW 3793   1.169   1.602   0.140
  965SOL    HW1 3794   1.109   1.670   0.183
  965SOL    HW2 3795   1.259   1.642   0.125
  966SOL     OW 3796   6.822   2.609   1.845
  966SOL    HW1 3797   6.786   2.649   1.929
  966SOL    HW2 3798   6.763   2.535   1.814
  967SOL     OW 3799   0.851   6.157   2.220
  967SOL    HW1 3800   0.939   6.199   2.198
  967SOL    HW2 3801   0.838   6.157   2.319
  968SOL     OW 3802   6.855   4.313   1.183
  968SOL    HW1 3803   6.780   4.261   1.141
  968SOL    HW2 3804   6.889   4.264   1.263
  969SOL     OW 3805   4.046   6.468   6.747
  969SOL    HW1 3806   4.021   6.498   6.655
  969SOL    HW2 3807   4.067   6.370   6.745
  970SOL     OW 3808   4.668   2.552   5.544
  970SOL    HW1 3809   4.636   2.463   5.513
  970SOL    HW2 3810   4.591   2.615   5.551
  971SOL     OW 3811   6.972   2.721   0.523
  971SOL    HW1 3812   6.913   2.702   0.445
  971SOL    HW2 3813   6.934   2.796   0.577
  972SOL     OW 3814   5.899   6.663   0.481
  972SOL    HW1 3815   5.887   6.723   0.561
  972SOL    HW2 3816   5.939   6.576   0.510
  973SOL     OW 3817   5.397   3.693   5.341
  973SOL    HW1 3818   5.495   3.674   5.333
  973SOL    HW2 3819   5.372   3.767   5.278
  974SOL     OW 3820   2.673   0.868   4.820
  974SOL    HW1 3821   2.711   0.929   4.890
  974SOL    HW2 3822   2.616   0.798   4.863
  975SOL     OW 3823   3.078   6.634   5.708
  975SOL    HW1 3824   3.129   6.566   5.655
  975SOL    HW2 3825   3.118   6.725   5.692
  976SOL     OW 3826   6.966   5.717   3.438
  976SOL    HW1 3827   6.933   5.705   3.345
  976SOL    HW2 3828   7.014   5.804   3.446
  977SOL     OW 3829   1.160   2.849   1.739
  977SOL    HW1 3830   1.152   2.844   1.640
  977SOL    HW2 3831   1.103   2.779   1.781
  978SOL     OW 3832   5.749   3.361   4.771
  978SOL    HW1 3833   5.665   3.345   4.824
  978SOL    HW2 3834   5.728   3.354   4.674
  979SOL     OW 3835   6.293   1.625   3.577
  979SOL    HW1 3836   6.211   1.569   3.584
  979SOL    HW2 3837   6.364   1.574   3.528
  980SOL     OW 3838   6.687   0.349   4.603
  980SOL    HW1 3839   6.626   0.427   4.593
  980SOL    HW2 3840   6.749   0.345   4.525
  981SOL     OW 3841   6.908   3.453   5.660
  981SOL    HW1 3842   6.976   3.382   5.647
  981SOL    HW2 3843   6.949   3.543   5.644
  982SOL     OW 3844   1.565   3.453   1.423
  982SOL    HW1 3845   1.567   3.364   1.377
  982SOL    HW2 3846   1.486   3.457   1.484
  983SOL     OW 3847   5.784   1.946   2.619
  983SOL    HW1 3848   5.842   1.886   2.675
  983SOL    HW2 3849   5.779   2.037   2.661
  984SOL     OW 3850   4.908   2.267   5.442
  984SOL    HW1 3851   4.827   2.238   5.492
  984SOL    HW2 3852   4.952   2.187   5.400
  985SOL     OW 3853   2.534   4.949   0.815
  985SOL    HW1 3854   2.531   4.941   0.915
  985SOL    HW2 3855   2.590   5.028   0.790
  986SOL     OW 3856   4.109   4.721   0.228
  986SOL    HW1 3857   4.124   4.742   0.325
  986SOL    HW2 3858   4.179   4.767   0.173
  987SOL     OW 3859   3.368   6.806   2.546
  987SOL    HW1 3860   3.364   6.768   2.454
  987SOL    HW2 3861   3.318   6.747   2.609
  988SOL     OW 3862   3.224   3.145   1.767
  988SOL    HW1 3863   3.218   3.164   1.669
  988SOL    HW2 3864   3.133   3.130   1.804
  989SOL     OW 3865   0.470   0.204   4.657
  989SOL    HW1 3866   0.497   0.121   4.609
  989SOL    HW2 3867   0.403   0.255   4.603
  990SOL     OW 3868   5.109   6.299   2.516
  990SOL    HW1 3869   5.009   6.310   2.511
  990SOL    HW2 3870   5.133   6.249   2.599
  991SOL     OW 3871   6.200   1.232   5.091
  991SOL    HW1 3872   6.296   1.208   5.077
  991SOL    HW2 3873   6.160   1.263   5.005
  992SOL     OW 3874   6.855   2.891   1.538
  992SOL    HW1 3875   6.817   2.982   1.530
  992SOL    HW2 3876   6.806   2.828   1.478
  993SOL     OW 3877   3.688   5.645   4.246
  993SOL    HW1 3878   3.714   5.601   4.332
  993SOL    HW2 3879   3.638   5.579   4.189
  994SOL     OW 3880   2.971   3.731   1.924
  994SOL    HW1 3881   3.044   3.689   1.870
  994SOL    HW2 3882   2.882   3.693   1.896
  995SOL     OW 3883   0.618   1.235   5.056
  995SOL    HW1 3884   0.657   1.206   5.143
  995SOL    HW2 3885   0.537   1.291   5.072
  996SOL     OW 3886   0.977   3.504   1.232
  996SOL    HW1 3887   0.949   3.600   1.221
  996SOL    HW2 3888   0.927   3.447   1.167
  997SOL     OW 3889   0.335   0.974   1.036
  997SOL    HW1 3890   0.415   0.918   1.016
  997SOL    HW2 3891   0.298   1.013   0.952
  998SOL     OW 3892   4.659   6.927   3.786
  998SOL    HW1 3893   4.741   6.875   3.811
  998SOL    HW2 3894   4.648   7.004   3.849
  999SOL     OW 3895   6.743   5.411   1.935
  999SOL    HW1 3896   6.823   5.465   1.908
  999SOL    HW2 3897   6.664   5.440   1.879
 1000SOL     OW 3898   4.290   2.395   4.496
 1000SOL    HW1 3899   4.226   2.349   4.434
 1000SOL    HW2 3900   4.266   2.375   4.591
 1001SOL     OW 3901   3.860   1.153   5.796
 1001SOL    HW1 3902   3.927   1.107   5.855
 1001SOL    HW2 3903   3.908   1.217   5.735
 1002SOL     OW 3904   0.093   1.118   0.130
 1002SOL    HW1 3905   0.120   1.136   0.225
 1002SOL    HW2 3906   7.016   1.100   0.126
 1003SOL     OW 3907   4.772   4.904   3.111
 1003SOL    HW1 3908   4.692   4.855   3.147
 1003SOL    HW2 3909   4.784   4.881   3.015
 1004SOL     OW 3910   5.849   5.377   0.509
 1004SOL    HW1 3911   5.797   5.445   0.457
 1004SOL    HW2 3912   5.873   5.301   0.450
 1005SOL     OW 3913   6.775   5.570   3.557
 1005SOL    HW1 3914   6.710   5.641   3.585
 1005SOL    HW2 3915   6.840   5.608   3.492
 1006SOL     OW 3916   2.316   4.645   0.596
 1006SOL    HW1 3917   2.350   4.552   0.579
 1006SOL    HW2 3918   2.365   4.686   0.672
 1007SOL     OW 3919   1.270   0.814   3.335
 1007SOL    HW1 3920   1.238   0.870   3.412
 1007SOL    HW2 3921   1.349   0.857   3.293
 1008SOL     OW 3922   2.869   2.154   4.307
 1008SOL    HW1 3923   2.833   2.084   4.247
 1008SOL    HW2 3924   2.879   2.117   4.400
 1009SOL     OW 3925   2.773   5.868   5.050
 1009SOL    HW1 3926   2.867   5.898   5.063
 1009SOL    HW2 3927   2.761   5.835   4.956
 1010SOL     OW 3928   4.316   0.891   6.447
 1010SOL    HW1 3929   4.413   0.872   6.438
 1010SOL    HW2 3930   4.292   0.971   6.392
 1011SOL     OW 3931   3.532   5.510   3.796
 1011SOL    HW1 3932   3.591   5.585   3.828
 1011SOL    HW2 3933   3.460   5.547   3.738
 1012SOL     OW 3934   3.724   5.374   7.012
 1012SOL    HW1 3935   3.691   5.463   0.023
 1012SOL    HW2 3936   3.824   5.373   7.013
 1013SOL     OW 3937   0.363   0.964   0.478
 1013SOL    HW1 3938   0.351   1.062   0.460
 1013SOL    HW2 3939   0.295   0.912   0.426
 1014SOL     OW 3940   4.863   0.632   6.449
 1014SOL    HW1 3941   4.820   0.582   6.374
 1014SOL    HW2 3942   4.896   0.720   6.415
 1015SOL     OW 3943   3.835   6.974   4.773
 1015SOL    HW1 3944   3.798   6.946   4.861
 1015SOL    HW2 3945   3.887   0.038   4.783
 1016SOL     OW 3946   4.599   2.434   2.261
 1016SOL    HW1 3947   4.602   2.477   2.170
 1016SOL    HW2 3948   4.639   2.497   2.328
 1017SOL     OW 3949   4.910   1.568   6.894
 1017SOL    HW1 3950   4.870   1.549   6.984
 1017SOL    HW2 3951   4.928   1.482   6.846
 1018SOL     OW 3952   1.406   3.000   1.813
 1018SOL    HW1 3953   1.325   2.947   1.786
 1018SOL    HW2 3954   1.409   3.084   1.759
 1019SOL     OW 3955   5.578   0.955   0.473
 1019SOL    HW1 3956   5.636   0.989   0.400
 1019SOL    HW2 3957   5.485   0.990   0.462
 1020SOL     OW 3958   3.347   2.109   1.044
 1020SOL    HW1 3959   3.383   2.042   0.978
 1020SOL    HW2 3960   3.254   2.083   1.069
 1021SOL     OW 3961   6.532   1.078   0.984
 1021SOL    HW1 3962   6.624   1.116   0.971
 1021SOL    HW2 3963   6.539   0.978   0.989
 1022SOL     OW 3964   3.114   2.268   0.044
 1022SOL    HW1 3965   3.207   2.296   0.017
 1022SOL    HW2 3966   3.114   2.244   0.141
 1023SOL     OW 3967   5.662   0.705   4.527
 1023SOL    HW1 3968   5.631   0.799   4.511
 1023SOL    HW2 3969   5.758   0.706   4.553
 1024SOL     OW 3970   6.292   1.292   4.110
 1024SOL    HW1 3971   6.384   1.255   4.125
 1024SOL    HW2 3972   6.225   1.218   4.120
 1025SOL     OW 3973   3.275   4.314   1.436
 1025SOL    HW1 3974   3.281   4.227   1.387
 1025SOL    HW2 3975   3.245   4.298   1.530
 1026SOL     OW 3976   0.881   3.119   6.541
 1026SOL    HW1 3977   0.964   3.168   6.570
 1026SOL    HW2 3978   0.836   3.080   6.621
 1027SOL     OW 3979   2.294   4.932   2.269
 1027SOL    HW1 3980   2.199   4.931   2.237
 1027SOL    HW2 3981   2.353   4.889   2.201
 1028SOL     OW 3982   0.830   6.307   0.489
 1028SOL    HW1 3983   0.866   6.379   0.548
 1028SOL    HW2 3984   0.748   6.340   0.442
 1029SOL     OW 3985   3.298   0.822   5.217
 1029SOL    HW1 3986   3.339   0.795   5.130
 1029SOL    HW2 3987   3.334   0.911   5.245
 1030SOL     OW 3988   3.844   4.409   5.298
 1030SOL    HW1 3989   3.896   4.336   5.254
 1030SOL    HW2 3990   3.753   4.376   5.324
 1031SOL     OW 3991   1.834   5.332   0.839
 1031SOL    HW1 3992   1.786   5.418   0.820
 1031SOL    HW2 3993   1.932   5.344   0.823
 1032SOL     OW 3994   1.739   1.350   4.517
 1032SOL    HW1 3995   1.763   1.254   4.506
 1032SOL    HW2 3996   1.792   1.405   4.452
 1033SOL     OW 3997   2.628   6.258   3.319
 1033SOL    HW1 3998   2.542   6.256   3.269
 1033SOL    HW2 3999   2.679   6.341   3.296
 1034SOL     OW 4000   1.404   6.673   2.066
 1034SOL    HW1 4001   1.402   6.735   1.987
 1034SOL    HW2 4002   1.465   6.710   2.136
 1035SOL     OW 4003   3.052   0.584   4.133
 1035SOL    HW1 4004   3.151   0.580   4.116
 1035SOL    HW2 4005   3.003   0.574   4.047
 1036SOL     OW 4006   4.239   6.832   6.271
 1036SOL    HW1 4007   4.299   6.866   6.199
 1036SOL    HW2 4008   4.171   6.902   6.294
 1037SOL     OW 4009   2.592   2.003   6.444
 1037SOL    HW1 4010   2.614   2.036   6.352
 1037SOL    HW2 4011   2.623   2.071   6.511
 1038SOL     OW 4012   2.469   1.244   5.391
 1038SOL    HW1 4013   2.419   1.213   5.472
 1038SOL    HW2 4014   2.418   1.220   5.308
 1039SOL     OW 4015   4.449   2.170   3.399
 1039SOL    HW1 4016   4.384   2.237   3.363
 1039SOL    HW2 4017   4.472   2.104   3.327
 1040SOL     OW 4018   5.799   3.678   4.145
 1040SOL    HW1 4019   5.864   3.743   4.185
 1040SOL    HW2 4020   5.720   3.669   4.206
 1041SOL     OW 4021   1.610   6.903   4.180
 1041SOL    HW1 4022   1.581   6.907   4.085
 1041SOL    HW2 4023   1.702   6.943   4.189
 1042SOL     OW 4024   4.952   3.792   0.955
 1042SOL    HW1 4025   5.033   3.850   0.960
 1042SOL    HW2 4026   4.979   3.696   0.963
 1043SOL     OW 4027   3.525   0.060   6.713
 1043SOL    HW1 4028   3.500   0.001   6.790
 1043SOL    HW2 4029   3.563   0.146   6.748
 1044SOL     OW 4030   3.915   3.994   1.898
 1044SOL    HW1 4031   3.867   4.082   1.894
 1044SOL    HW2 4032   3.918   3.961   1.992
 1045SOL     OW 4033   3.803   1.439   3.555
 1045SOL    HW1 4034   3.811   1.439   3.455
 1045SOL    HW2 4035   3.708   1.456   3.581
 1046SOL     OW 4036   3.660   1.303   2.158
 1046SOL    HW1 4037   3.714   1.221   2.175
 1046SOL    HW2 4038   3.722   1.381   2.144
 1047SOL     OW 4039   0.691   5.324   1.829
 1047SOL    HW1 4040   0.694   5.407   1.774
 1047SOL    HW2 4041   0.664   5.347   1.923
 1048SOL     OW 4042   6.399   4.542   5.177
 1048SOL    HW1 4043   6.406   4.578   5.084
 1048SOL    HW2 4044   6.484   4.496   5.203
 1049SOL     OW 4045   0.666   3.342   4.643
 1049SOL    HW1 4046   0.685   3.290   4.560
 1049SOL    HW2 4047   0.574   3.382   4.638
 1050SOL     OW 4048   2.976   0.648   0.245
 1050SOL    HW1 4049   2.971   0.714   0.169
 1050SOL    HW2 4050   3.070   0.614   0.253
 1051SOL     OW 4051   4.773   4.749   2.468
 1051SOL    HW1 4052   4.724   4.680   2.521
 1051SOL    HW2 4053   4.871   4.741   2.484
 1052SOL     OW 4054   3.624   0.502   4.311
 1052SOL    HW1 4055   3.610   0.562   4.233
 1052SOL    HW2 4056   3.563   0.528   4.386
 1053SOL     OW 4057   3.724   5.154   3.478
 1053SOL    HW1 4058   3.684   5.245   3.479
 1053SOL    HW2 4059   3.679   5.098   3.408
 1054SOL     OW 4060   4.079   6.286   4.173
 1054SOL    HW1 4061   4.064   6.240   4.261
 1054SOL    HW2 4062   4.017   6.247   4.104
 1055SOL     OW 4063   4.223   5.747   3.719
 1055SOL    HW1 4064   4.239   5.653   3.747
 1055SOL    HW2 4065   4.157   5.749   3.643
 1056SOL     OW 4066   1.954   5.499   5.798
 1056SOL    HW1 4067   1.913   5.430   5.858
 1056SOL    HW2 4068   1.919   5.488   5.705
 1057SOL     OW 4069   3.879   4.014   1.213
 1057SOL    HW1 4070   3.951   4.041   1.277
 1057SOL    HW2 4071   3.908   3.933   1.162
 1058SOL     OW 4072   3.138   6.832   1.950
 1058SOL    HW1 4073   3.075   6.894   1.997
 1058SOL    HW2 4074   3.232   6.866   1.960
 1059SOL     OW 4075   3.470   0.892   0.466
 1059SOL    HW1 4076   3.378   0.854   0.466
 1059SOL    HW2 4077   3.493   0.925   0.374
 1060SOL     OW 4078   2.209   1.780   4.406
 1060SOL    HW1 4079   2.119   1.740   4.421
 1060SOL    HW2 4080   2.247   1.813   4.492
 1061SOL     OW 4081   3.113   5.739   1.324
 1061SOL    HW1 4082   3.189   5.805   1.323
 1061SOL    HW2 4083   3.058   5.751   1.242
 1062SOL     OW 4084   5.099   4.795   5.166
 1062SOL    HW1 4085   5.117   4.845   5.251
 1062SOL    HW2 4086   5.095   4.859   5.089
 1063SOL     OW 4087   2.451   3.160   5.883
 1063SOL    HW1 4088   2.423   3.192   5.973
 1063SOL    HW2 4089   2.416   3.068   5.867
 1064SOL     OW 4090   0.315   3.615   1.869
 1064SOL    HW1 4091   0.242   3.681   1.889
 1064SOL    HW2 4092   0.283   3.523   1.887
 1065SOL     OW 4093   4.416   4.797   5.474
 1065SOL    HW1 4094   4.508   4.821   5.444
 1065SOL    HW2 4095   4.350   4.826   5.406
 1066SOL     OW 4096   4.095   6.986   3.199
 1066SOL    HW1 4097   4.173   6.973   3.260
 1066SOL    HW2 4098   4.022   6.922   3.224
 1067SOL     OW 4099   2.551   3.397   0.881
 1067SOL    HW1 4100   2.594   3.410   0.792
 1067SOL    HW2 4101   2.595   3.322   0.929
 1068SOL     OW 4102   0.396   4.357   0.920
 1068SOL    HW1 4103   0.376   4.386   0.826
 1068SOL    HW2 4104   0.482   4.305   0.920
 1069SOL     OW 4105   3.322   3.409   1.785
 1069SOL    HW1 4106   3.313   3.312   1.764
 1069SOL    HW2 4107   3.415   3.428   1.815
 1070SOL     OW 4108   2.524   6.760   0.892
 1070SOL    HW1 4109   2.528   6.731   0.987
 1070SOL    HW2 4110   2.617   6.776   0.859
 1071SOL     OW 4111   4.652   6.031   3.846
 1071SOL    HW1 4112   4.630   5.974   3.925
 1071SOL    HW2 4113   4.610   5.991   3.764
 1072SOL     OW 4114   3.414   5.621   2.785
 1072SOL    HW1 4115   3.410   5.591   2.689
 1072SOL    HW2 4116   3.329   5.596   2.831
 1073SOL     OW 4117   2.798   5.482   2.950
 1073SOL    HW1 4118   2.778   5.389   2.919
 1073SOL    HW2 4119   2.876   5.481   3.011
 1074SOL     OW 4120   1.325   5.395   2.454
 1074SOL    HW1 4121   1.362   5.330   2.388
 1074SOL    HW2 4122   1.244   5.440   2.414
 1075SOL     OW 4123   0.740   4.108   2.970
 1075SOL    HW1 4124   0.659   4.050   2.976
 1075SOL    HW2 4125   0.766   4.119   2.874
 1076SOL     OW 4126   7.018   4.352   2.724
 1076SOL    HW1 4127   6.992   4.396   2.638
 1076SOL    HW2 4128   0.057   4.412   2.776
 1077SOL     OW 4129   5.542   0.976   1.329
 1077SOL    HW1 4130   5.603   1.037   1.380
 1077SOL    HW2 4131   5.535   0.889   1.377
 1078SOL     OW 4132   0.607   3.306   1.409
 1078SOL    HW1 4133   0.586   3.317   1.311
 1078SOL    HW2 4134   0.650   3.389   1.443
 1079SOL     OW 4135   2.409   5.531   3.122
 1079SOL    HW1 4136   2.466   5.448   3.128
 1079SOL    HW2 4137   2.462   5.603   3.078
 1080SOL     OW 4138   1.647   6.007   3.878
 1080SOL    HW1 4139   1.567   5.978   3.929
 1080SOL    HW2 4140   1.730   5.974   3.924
 1081SOL     OW 4141   1.679   1.470   0.348
 1081SOL    HW1 4142   1.630   1.396   0.394
 1081SOL    HW2 4143   1.717   1.437   0.262
 1082SOL     OW 4144   2.131   6.687   0.662
 1082SOL    HW1 4145   2.083   6.650   0.583
 1082SOL    HW2 4146   2.082   6.768   0.695
 1083SOL     OW 4147   3.507   2.334   1.622
 1083SOL    HW1 4148   3.467   2.248   1.591
 1083SOL    HW2 4149   3.545   2.323   1.714
 1084SOL     OW 4150   6.362   3.122   0.963
 1084SOL    HW1 4151   6.359   3.207   0.911
 1084SOL    HW2 4152   6.316   3.135   1.051
 1085SOL     OW 4153   0.993   4.785   3.124
 1085SOL    HW1 4154   0.970   4.868   3.174
 1085SOL    HW2 4155   0.939   4.709   3.161
 1086SOL     OW 4156   4.043   5.040   2.106
 1086SOL    HW1 4157   3.971   5.003   2.165
 1086SOL    HW2 4158   4.054   4.980   2.026
 1087SOL     OW 4159   3.928   3.705   4.877
 1087SOL    HW1 4160   3.945   3.633   4.945
 1087SOL    HW2 4161   4.013   3.729   4.831
 1088SOL     OW 4162   5.831   4.495   2.772
 1088SOL    HW1 4163   5.929   4.484   2.756
 1088SOL    HW2 4164   5.783   4.490   2.685
 1089SOL     OW 4165   6.369   6.867   3.459
 1089SOL    HW1 4166   6.384   6.955   3.503
 1089SOL    HW2 4167   6.391   6.794   3.523
 1090SOL     OW 4168   1.526   1.883   6.039
 1090SOL    HW1 4169   1.526   1.965   5.981
 1090SOL    HW2 4170   1.491   1.906   6.129
 1091SOL     OW 4171   1.238   3.148   5.229
 1091SOL    HW1 4172   1.161   3.085   5.221
 1091SOL    HW2 4173   1.321   3.097   5.253
 1092SOL     OW 4174   1.931   4.487   1.355
 1092SOL    HW1 4175   1.854   4.550   1.361
 1092SOL    HW2 4176   1.916   4.409   1.416
 1093SOL     OW 4177   0.299   2.354   1.890
 1093SOL    HW1 4178   0.245   2.351   1.807
 1093SOL    HW2 4179   0.350   2.440   1.894
 1094SOL     OW 4180   0.883   6.851   2.156
 1094SOL    HW1 4181   0.791   6.836   2.121
 1094SOL    HW2 4182   0.896   6.948   2.176
 1095SOL     OW 4183   6.451   3.609   5.659
 1095SOL    HW1 4184   6.431   3.676   5.730
 1095SOL    HW2 4185   6.547   3.617   5.632
 1096SOL     OW 4186   3.785   3.512   1.761
 1096SOL    HW1 4187   3.843   3.495   1.681
 1096SOL    HW2 4188   3.739   3.600   1.750
 1097SOL     OW 4189   2.345   4.289   5.584
 1097SOL    HW1 4190   2.419   4.340   5.542
 1097SOL    HW2 4191   2.266   4.350   5.598
 1098SOL     OW 4192   3.950   0.847   2.947
 1098SOL    HW1 4193   4.033   0.883   2.989
 1098SOL    HW2 4194   3.975   0.787   2.871
 1099SOL     OW 4195   3.862   1.068   2.807
 1099SOL    HW1 4196   3.832   1.040   2.716
 1099SOL    HW2 4197   3.867   0.989   2.867
 1100SOL     OW 4198   6.792   0.578   6.873
 1100SOL    HW1 4199   6.804   0.530   6.960
 1100SOL    HW2 4200   6.859   0.651   6.866
 1101SOL     OW 4201   5.719   2.989   1.177
 1101SOL    HW1 4202   5.762   2.898   1.176
 1101SOL    HW2 4203   5.711   3.022   1.083
 1102SOL     OW 4204   0.003   4.274   3.611
 1102SOL    HW1 4205   0.043   4.365   3.624
 1102SOL    HW2 4206   6.963   4.275   3.531
 1103SOL     OW 4207   0.457   3.269   0.628
 1103SOL    HW1 4208   0.415   3.337   0.689
 1103SOL    HW2 4209   0.534   3.311   0.580
 1104SOL     OW 4210   2.699   5.274   5.874
 1104SOL    HW1 4211   2.772   5.240   5.933
 1104SOL    HW2 4212   2.646   5.197   5.839
 1105SOL     OW 4213   4.328   5.076   0.813
 1105SOL    HW1 4214   4.403   5.141   0.799
 1105SOL    HW2 4215   4.249   5.125   0.849
 1106SOL     OW 4216   1.237   1.256   6.475
 1106SOL    HW1 4217   1.162   1.322   6.466
 1106SOL    HW2 4218   1.202   1.171   6.516
 1107SOL     OW 4219   6.851   6.846   0.916
 1107SOL    HW1 4220   6.829   6.941   0.936
 1107SOL    HW2 4221   6.803   6.818   0.833
 1108SOL     OW 4222   0.493   0.672   6.796
 1108SOL    HW1 4223   0.559   0.718   6.855
 1108SOL    HW2 4224   0.524   0.675   6.701
 1109SOL     OW 4225   4.946   0.847   3.676
 1109SOL    HW1 4226   4.943   0.761   3.625
 1109SOL    HW2 4227   5.041   0.873   3.691
 1110SOL     OW 4228   3.147   2.952   2.139
 1110SOL    HW1 4229   3.201   2.909   2.066
 1110SOL    HW2 4230   3.118   2.881   2.204
 1111SOL     OW 4231   4.444   0.193   6.535
 1111SOL    HW1 4232   4.497   0.275   6.558
 1111SOL    HW2 4233   4.399   0.159   6.617
 1112SOL     OW 4234   0.988   1.489   2.780
 1112SOL    HW1 4235   1.031   1.490   2.870
 1112SOL    HW2 4236   0.948   1.399   2.763
 1113SOL     OW 4237   5.686   4.287   2.016
 1113SOL    HW1 4238   5.755   4.236   1.964
 1113SOL    HW2 4239   5.597   4.275   1.972
 1114SOL     OW 4240   5.768   1.124   5.493
 1114SOL    HW1 4241   5.741   1.120   5.397
 1114SOL    HW2 4242   5.818   1.041   5.517
 1115SOL     OW 4243   3.509   4.355   0.701
 1115SOL    HW1 4244   3.508   4.427   0.632
 1115SOL    HW2 4245   3.415   4.326   0.720
 1116SOL     OW 4246   3.489   6.541   5.815
 1116SOL    HW1 4247   3.449   6.633   5.821
 1116SOL    HW2 4248   3.508   6.519   5.719
 1117SOL     OW 4249   2.305   2.606   0.918
 1117SOL    HW1 4250   2.274   2.701   0.913
 1117SOL    HW2 4251   2.290   2.562   0.829
 1118SOL     OW 4252   1.604   3.219   2.509
 1118SOL    HW1 4253   1.547   3.160   2.567
 1118SOL    HW2 4254   1.679   3.165   2.470
 1119SOL     OW 4255   3.058   3.835   2.707
 1119SOL    HW1 4256   3.031   3.891   2.628
 1119SOL    HW2 4257   3.105   3.752   2.675
 1120SOL     OW 4258   5.188   1.225   4.297
 1120SOL    HW1 4259   5.110   1.225   4.361
 1120SOL    HW2 4260   5.162   1.177   4.213
 1121SOL     OW 4261   5.205   3.247   2.665
 1121SOL    HW1 4262   5.236   3.168   2.717
 1121SOL    HW2 4263   5.237   3.331   2.708
 1122SOL     OW 4264   4.382   4.876   0.274
 1122SOL    HW1 4265   4.463   4.820   0.293
 1122SOL    HW2 4266   4.323   4.878   0.355
 1123SOL     OW 4267   3.773   1.064   2.089
 1123SOL    HW1 4268   3.713   1.061   2.009
 1123SOL    HW2 4269   3.806   0.972   2.109
 1124SOL     OW 4270   0.989   4.934   4.588
 1124SOL    HW1 4271   1.053   4.978   4.524
 1124SOL    HW2 4272   0.912   4.995   4.605
 1125SOL     OW 4273   3.178   3.410   4.633
 1125SOL    HW1 4274   3.168   3.503   4.668
 1125SOL    HW2 4275   3.095   3.358   4.650
 1126SOL     OW 4276   6.419   0.150   2.614
 1126SOL    HW1 4277   6.489   0.111   2.674
 1126SOL    HW2 4278   6.329   0.118   2.644
 1127SOL     OW 4279   1.924   5.321   6.381
 1127SOL    HW1 4280   1.964   5.353   6.467
 1127SOL    HW2 4281   1.835   5.279   6.400
 1128SOL     OW 4282   2.347   1.660   3.556
 1128SOL    HW1 4283   2.434   1.686   3.596
 1128SOL    HW2 4284   2.352   1.566   3.523
 1129SOL     OW 4285   4.490   0.052   6.320
 1129SOL    HW1 4286   4.397   0.032   6.288
 1129SOL    HW2 4287   4.485   0.096   6.410
 1130SOL     OW 4288   0.044   5.439   6.226
 1130SOL    HW1 4289   0.041   5.500   6.306
 1130SOL    HW2 4290   0.113   5.368   6.242
 1131SOL     OW 4291   0.752   5.081   5.262
 1131SOL    HW1 4292   0.703   5.100   5.177
 1131SOL    HW2 4293   0.827   5.017   5.244
 1132SOL     OW 4294   5.211   0.323   5.160
 1132SOL    HW1 4295   5.279   0.327   5.087
 1132SOL    HW2 4296   5.237   0.253   5.227
 1133SOL     OW 4297   6.879   2.543   0.250
 1133SOL    HW1 4298   6.780   2.526   0.244
 1133SOL    HW2 4299   6.897   2.640   0.234
 1134SOL     OW 4300   6.415   2.416   5.690
 1134SOL    HW1 4301   6.415   2.514   5.671
 1134SOL    HW2 4302   6.352   2.370   5.627
 1135SOL     OW 4303   6.165   1.475   4.262
 1135SOL    HW1 4304   6.094   1.519   4.208
 1135SOL    HW2 4305   6.217   1.412   4.204
 1136SOL     OW 4306   3.718   5.260   3.891
 1136SOL    HW1 4307   3.784   5.282   3.962
 1136SOL    HW2 4308   3.656   5.338   3.877
 1137SOL     OW 4309   1.187   0.835   6.245
 1137SOL    HW1 4310   1.206   0.823   6.148
 1137SOL    HW2 4311   1.243   0.771   6.298
 1138SOL     OW 4312   0.328   4.379   5.849
 1138SOL    HW1 4313   0.323   4.300   5.909
 1138SOL    HW2 4314   0.378   4.453   5.895
 1139SOL     OW 4315   0.978   6.541   1.237
 1139SOL    HW1 4316   1.044   6.610   1.266
 1139SOL    HW2 4317   1.012   6.495   1.155
 1140SOL     OW 4318   3.890   1.463   3.825
 1140SOL    HW1 4319   3.953   1.385   3.832
 1140SOL    HW2 4320   3.853   1.467   3.732
 1141SOL     OW 4321   6.668   6.060   5.502
 1141SOL    HW1 4322   6.746   6.003   5.528
 1141SOL    HW2 4323   6.696   6.156   5.501
 1142SOL     OW 4324   6.058   0.743   4.149
 1142SOL    HW1 4325   6.030   0.672   4.084
 1142SOL    HW2 4326   6.098   0.700   4.229
 1143SOL     OW 4327   4.799   1.820   2.067
 1143SOL    HW1 4328   4.755   1.739   2.106
 1143SOL    HW2 4329   4.842   1.795   1.980
 1144SOL     OW 4330   1.546   0.026   5.520
 1144SOL    HW1 4331   1.535   6.953   5.551
 1144SOL    HW2 4332   1.557   0.087   5.599
 1145SOL     OW 4333   1.844   4.964   4.891
 1145SOL    HW1 4334   1.839   4.912   4.976
 1145SOL    HW2 4335   1.760   4.950   4.838
 1146SOL     OW 4336   6.438   1.795   1.158
 1146SOL    HW1 4337   6.391   1.720   1.204
 1146SOL    HW2 4338   6.514   1.759   1.105
 1147SOL     OW 4339   6.925   3.309   2.132
 1147SOL    HW1 4340   6.887   3.260   2.054
 1147SOL    HW2 4341   6.852   3.335   2.195
 1148SOL     OW 4342   4.826   1.289   6.864
 1148SOL    HW1 4343   4.866   1.198   6.871
 1148SOL    HW2 4344   4.741   1.293   6.917
 1149SOL     OW 4345   6.398   2.581   3.434
 1149SOL    HW1 4346   6.328   2.514   3.460
 1149SOL    HW2 4347   6.454   2.603   3.514
 1150SOL     OW 4348   0.914   5.254   5.667
 1150SOL    HW1 4349   1.014   5.249   5.665
 1150SOL    HW2 4350   0.877   5.163   5.684
 1151SOL     OW 4351   3.732   5.355   6.724
 1151SOL    HW1 4352   3.730   5.355   6.824
 1151SOL    HW2 4353   3.719   5.262   6.690
 1152SOL     OW 4354   0.458   1.292   4.630
 1152SOL    HW1 4355   0.499   1.240   4.705
 1152SOL    HW2 4356   0.361   1.266   4.621
 1153SOL     OW 4357   2.649   4.610   2.993
 1153SOL    HW1 4358   2.574   4.546   2.985
 1153SOL    HW2 4359   2.680   4.636   2.901
 1154SOL     OW 4360   1.994   4.118   2.209
 1154SOL    HW1 4361   1.901   4.082   2.212
 1154SOL    HW2 4362   2.050   4.058   2.152
 1155SOL     OW 4363   3.857   6.615   2.420
 1155SOL    HW1 4364   3.806   6.630   2.505
 1155SOL    HW2 4365   3.796   6.574   2.352
 1156SOL     OW 4366   1.111   1.609   3.525
 1156SOL    HW1 4367   1.091   1.707   3.522
 1156SOL    HW2 4368   1.095   1.575   3.618
 1157SOL     OW 4369   0.989   3.542   4.494
 1157SOL    HW1 4370   0.938   3.456   4.499
 1157SOL    HW2 4371   1.084   3.526   4.523
 1158SOL     OW 4372   4.398   5.989   6.573
 1158SOL    HW1 4373   4.395   6.033   6.663
 1158SOL    HW2 4374   4.465   5.914   6.574
 1159SOL     OW 4375   5.301   4.883   2.588
 1159SOL    HW1 4376   5.258   4.974   2.588
 1159SOL    HW2 4377   5.380   4.883   2.649
 1160SOL     OW 4378   2.703   2.730   0.665
 1160SOL    HW1 4379   2.777   2.667   0.686
 1160SOL    HW2 4380   2.672   2.774   0.749
 1161SOL     OW 4381   4.138   0.840   4.409
 1161SOL    HW1 4382   4.227   0.804   4.436
 1161SOL    HW2 4383   4.073   0.830   4.485
 1162SOL     OW 4384   3.951   4.547   1.673
 1162SOL    HW1 4385   3.932   4.462   1.624
 1162SOL    HW2 4386   4.048   4.551   1.696
 1163SOL     OW 4387   4.963   1.434   2.435
 1163SOL    HW1 4388   4.910   1.407   2.354
 1163SOL    HW2 4389   4.919   1.398   2.517
 1164SOL     OW 4390   5.941   3.482   4.065
 1164SOL    HW1 4391   6.037   3.498   4.042
 1164SOL    HW2 4392   5.897   3.568   4.088
 1165SOL     OW 4393   1.477   4.390   2.358
 1165SOL    HW1 4394   1.443   4.471   2.408
 1165SOL    HW2 4395   1.486   4.314   2.422
 1166SOL     OW 4396   3.390   2.383   6.526
 1166SOL    HW1 4397   3.356   2.299   6.570
 1166SOL    HW2 4398   3.429   2.443   6.596
 1167SOL     OW 4399   4.174   2.041   4.928
 1167SOL    HW1 4400   4.121   2.009   4.850
 1167SOL    HW2 4401   4.201   2.136   4.914
 1168SOL     OW 4402   6.035   6.395   3.323
 1168SOL    HW1 4403   6.047   6.473   3.384
 1168SOL    HW2 4404   6.091   6.318   3.356
 1169SOL     OW 4405   0.823   4.062   1.237
 1169SOL    HW1 4406   0.738   4.028   1.278
 1169SOL    HW2 4407   0.901   4.024   1.287
 1170SOL     OW 4408   3.111   0.583   1.274
 1170SOL    HW1 4409   3.187   0.647   1.287
 1170SOL    HW2 4410   3.074   0.593   1.181
 1171SOL     OW 4411   2.946   0.309   0.484
 1171SOL    HW1 4412   2.894   0.395   0.477
 1171SOL    HW2 4413   2.973   0.279   0.393
 1172SOL     OW 4414   2.919   3.463   4.384
 1172SOL    HW1 4415   2.870   3.505   4.461
 1172SOL    HW2 4416   2.970   3.384   4.417
 1173SOL     OW 4417   4.736   1.038   6.436
 1173SOL    HW1 4418   4.816   0.986   6.466
 1173SOL    HW2 4419   4.713   1.106   6.506
 1174SOL     OW 4420   3.329   6.084   0.061
 1174SOL    HW1 4421   3.315   6.109   0.156
 1174SOL    HW2 4422   3.399   6.013   0.055
 1175SOL     OW 4423   0.151   5.307   4.462
 1175SOL    HW1 4424   0.232   5.303   4.520
 1175SOL    HW2 4425   0.161   5.381   4.395
 1176SOL     OW 4426   6.230   3.222   1.207
 1176SOL    HW1 4427   6.296   3.286   1.168
 1176SOL    HW2 4428   6.137   3.256   1.192
 1177SOL     OW 4429   5.935   3.279   7.016
 1177SOL    HW1 4430   5.911   3.374   6.997
 1177SOL    HW2 4431   5.886   3.248   0.076
 1178SOL     OW 4432   5.197   3.951   2.021
 1178SOL    HW1 4433   5.202   4.033   1.964
 1178SOL    HW2 4434   5.276   3.950   2.084
 1179SOL     OW 4435   2.283   5.771   5.820
 1179SOL    HW1 4436   2.185   5.770   5.837
 1179SOL    HW2 4437   2.301   5.809   5.730
 1180SOL     OW 4438   1.789   1.492   3.710
 1180SOL    HW1 4439   1.800   1.406   3.760
 1180SOL    HW2 4440   1.807   1.569   3.771
 1181SOL     OW 4441   1.946   4.287   2.845
 1181SOL    HW1 4442   2.001   4.298   2.928
 1181SOL    HW2 4443   1.897   4.372   2.826
 1182SOL     OW 4444   1.551   3.990   3.234
 1182SOL    HW1 4445   1.624   4.003   3.167
 1182SOL    HW2 4446   1.568   3.906   3.286
 1183SOL     OW 4447   4.510   5.921   0.540
 1183SOL    HW1 4448   4.523   6.020   0.537
 1183SOL    HW2 4449   4.438   5.895   0.476
 1184SOL     OW 4450   3.378   3.291   5.864
 1184SOL    HW1 4451   3.427   3.326   5.944
 1184SOL    HW2 4452   3.442   3.278   5.789
 1185SOL     OW 4453   2.450   1.627   6.969
 1185SOL    HW1 4454   2.371   1.575   6.936
 1185SOL    HW2 4455   2.440   1.723   6.942
 1186SOL     OW 4456   2.842   0.921   5.240
 1186SOL    HW1 4457   2.892   1.003   5.210
 1186SOL    HW2 4458   2.744   0.939   5.234
 1187SOL     OW 4459   0.702   1.425   5.381
 1187SOL    HW1 4460   0.673   1.497   5.317
 1187SOL    HW2 4461   0.715   1.340   5.332
 1188SOL     OW 4462   1.828   0.485   4.765
 1188SOL    HW1 4463   1.769   0.489   4.845
 1188SOL    HW2 4464   1.792   0.544   4.693
 1189SOL     OW 4465   6.916   0.730   0.787
 1189SOL    HW1 4466   6.990   0.699   0.847
 1189SOL    HW2 4467   6.836   0.671   0.799
 1190SOL     OW 4468   4.027   4.835   2.468
 1190SOL    HW1 4469   4.123   4.862   2.469
 1190SOL    HW2 4470   4.012   4.761   2.533
 1191SOL     OW 4471   2.740   4.709   0.516
 1191SOL    HW1 4472   2.839   4.695   0.516
 1191SOL    HW2 4473   2.713   4.758   0.599
 1192SOL     OW 4474   4.507   5.013   2.175
 1192SOL    HW1 4475   4.421   5.047   2.137
 1192SOL    HW2 4476   4.498   4.916   2.199
 1193SOL     OW 4477   4.197   6.884   3.959
 1193SOL    HW1 4478   4.147   6.800   3.978
 1193SOL    HW2 4479   4.147   6.938   3.891
 1194SOL     OW 4480   6.559   0.817   1.298
 1194SOL    HW1 4481   6.466   0.780   1.288
 1194SOL    HW2 4482   6.617   0.780   1.226
 1195SOL     OW 4483   3.461   6.560   6.915
 1195SOL    HW1 4484   3.556   6.530   6.905
 1195SOL    HW2 4485   3.400   6.481   6.907
 1196SOL     OW 4486   0.875   5.359   3.105
 1196SOL    HW1 4487   0.851   5.321   3.016
 1196SOL    HW2 4488   0.821   5.316   3.176
 1197SOL     OW 4489   3.257   5.153   6.559
 1197SOL    HW1 4490   3.264   5.058   6.590
 1197SOL    HW2 4491   3.347   5.184   6.527
 1198SOL     OW 4492   3.631   1.537   2.371
 1198SOL    HW1 4493   3.584   1.625   2.377
 1198SOL    HW2 4494   3.644   1.513   2.275
 1199SOL     OW 4495   3.102   3.672   3.727
 1199SOL    HW1 4496   3.065   3.730   3.655
 1199SOL    HW2 4497   3.031   3.653   3.795
 1200SOL     OW 4498   3.851   3.249   1.024
 1200SOL    HW1 4499   3.835   3.170   0.966
 1200SOL    HW2 4500   3.782   3.253   1.096
 1201SOL     OW 4501   0.997   0.961   4.604
 1201SOL    HW1 4502   0.916   0.998   4.649
 1201SOL    HW2 4503   1.012   0.867   4.636
 1202SOL     OW 4504   5.914   0.060   4.758
 1202SOL    HW1 4505   5.961   7.002   4.719
 1202SOL    HW2 4506   5.894   0.042   4.855
 1203SOL     OW 4507   6.232   6.467   1.729
 1203SOL    HW1 4508   6.187   6.538   1.782
 1203SOL    HW2 4509   6.226   6.489   1.632
 1204SOL     OW 4510   1.403   6.538   6.812
 1204SOL    HW1 4511   1.440   6.530   6.904
 1204SOL    HW2 4512   1.356   6.626   6.802
 1205SOL     OW 4513   0.846   2.912   4.997
 1205SOL    HW1 4514   0.766   2.874   5.043
 1205SOL    HW2 4515   0.819   2.948   4.907
 1206SOL     OW 4516   0.262   1.968   4.711
 1206SOL    HW1 4517   0.350   2.015   4.706
 1206SOL    HW2 4518   0.274   1.872   4.687
 1207SOL     OW 4519   5.838   6.082   6.602
 1207SOL    HW1 4520   5.876   5.994   6.632
 1207SOL    HW2 4521   5.912   6.146   6.584
 1208SOL     OW 4522   3.717   3.755   2.847
 1208SOL    HW1 4523   3.637   3.815   2.852
 1208SOL    HW2 4524   3.800   3.811   2.846
 1209SOL     OW 4525   6.949   4.167   4.637
 1209SOL    HW1 4526   6.901   4.086   4.603
 1209SOL    HW2 4527   0.016   4.175   4.591
 1210SOL     OW 4528   3.009   6.841   2.636
 1210SOL    HW1 4529   2.929   6.898   2.618
 1210SOL    HW2 4530   3.081   6.861   2.569
 1211SOL     OW 4531   1.381   2.986   3.327
 1211SOL    HW1 4532   1.363   3.055   3.257
 1211SOL    HW2 4533   1.437   3.026   3.400
 1212SOL     OW 4534   1.447   3.572   3.666
 1212SOL    HW1 4535   1.501   3.636   3.721
 1212SOL    HW2 4536   1.381   3.526   3.724
 1213SOL     OW 4537   5.855   2.715   4.984
 1213SOL    HW1 4538   5.893   2.628   5.016
 1213SOL    HW2 4539   5.756   2.716   4.999
 1214SOL     OW 4540   1.407   2.506   2.376
 1214SOL    HW1 4541   1.308   2.498   2.364
 1214SOL    HW2 4542   1.450   2.521   2.287
 1215SOL     OW 4543   0.233   5.566   2.154
 1215SOL    HW1 4544   0.278   5.644   2.196
 1215SOL    HW2 4545   0.289   5.484   2.169
 1216SOL     OW 4546   2.752   0.815   1.448
 1216SOL    HW1 4547   2.803   0.802   1.362
 1216SOL    HW2 4548   2.812   0.795   1.525
 1217SOL     OW 4549   1.975   1.650   2.518
 1217SOL    HW1 4550   1.913   1.635   2.594
 1217SOL    HW2 4551   1.947   1.731   2.467
 1218SOL     OW 4552   0.311   3.405   3.369
 1218SOL    HW1 4553   0.314   3.442   3.462
 1218SOL    HW2 4554   0.363   3.320   3.364
 1219SOL     OW 4555   2.516   5.971   3.757
 1219SOL    HW1 4556   2.480   6.030   3.685
 1219SOL    HW2 4557   2.597   5.923   3.723
 1220SOL     OW 4558   5.755   4.325   2.985
 1220SOL    HW1 4559   5.663   4.294   3.007
 1220SOL    HW2 4560   5.752   4.382   2.903
 1221SOL     OW 4561   5.006   3.677   6.119
 1221SOL    HW1 4562   5.003   3.612   6.195
 1221SOL    HW2 4563   5.078   3.745   6.135
 1222SOL     OW 4564   6.229   4.803   1.890
 1222SOL    HW1 4565   6.231   4.707   1.862
 1222SOL    HW2 4566   6.178   4.857   1.823
 1223SOL     OW 4567   6.394   4.881   5.054
 1223SOL    HW1 4568   6.311   4.937   5.060
 1223SOL    HW2 4569   6.466   4.934   5.010
 1224SOL     OW 4570   4.957   4.856   1.080
 1224SOL    HW1 4571   4.861   4.846   1.107
 1224SOL    HW2 4572   5.015   4.820   1.153
 1225SOL     OW 4573   3.668   1.991   6.821
 1225SOL    HW1 4574   3.632   2.044   6.744
 1225SOL    HW2 4575   3.616   2.014   6.904
 1226SOL     OW 4576   5.378   5.656   0.835
 1226SOL    HW1 4577   5.340   5.602   0.760
 1226SOL    HW2 4578   5.466   5.694   0.807
 1227SOL     OW 4579   4.598   4.657   6.645
 1227SOL    HW1 4580   4.659   4.604   6.704
 1227SOL    HW2 4581   4.504   4.625   6.657
 1228SOL     OW 4582   3.610   4.149   4.431
 1228SOL    HW1 4583   3.595   4.248   4.432
 1228SOL    HW2 4584   3.542   4.104   4.489
 1229SOL     OW 4585   2.619   6.053   2.900
 1229SOL    HW1 4586   2.577   6.139   2.928
 1229SOL    HW2 4587   2.715   6.051   2.929
 1230SOL     OW 4588   5.950   5.456   1.287
 1230SOL    HW1 4589   5.929   5.424   1.195
 1230SOL    HW2 4590   5.919   5.550   1.298
 1231SOL     OW 4591   2.267   1.649   6.500
 1231SOL    HW1 4592   2.224   1.735   6.472
 1231SOL    HW2 4593   2.247   1.578   6.432
 1232SOL     OW 4594   2.936   1.464   5.115
 1232SOL    HW1 4595   2.865   1.494   5.177
 1232SOL    HW2 4596   3.004   1.536   5.104
 1233SOL     OW 4597   6.951   5.451   4.780
 1233SOL    HW1 4598   6.929   5.517   4.708
 1233SOL    HW2 4599   0.028   5.455   4.799
 1234SOL     OW 4600   6.251   4.573   6.831
 1234SOL    HW1 4601   6.154   4.593   6.845
 1234SOL    HW2 4602   6.306   4.653   6.857
 1235SOL     OW 4603   6.113   4.744   0.971
 1235SOL    HW1 4604   6.144   4.656   1.007
 1235SOL    HW2 4605   6.024   4.734   0.929
 1236SOL     OW 4606   1.494   1.345   2.123
 1236SOL    HW1 4607   1.447   1.276   2.178
 1236SOL    HW2 4608   1.461   1.341   2.029
 1237SOL     OW 4609   0.980   0.118   4.429
 1237SOL    HW1 4610   1.013   0.056   4.358
 1237SOL    HW2 4611   1.008   0.212   4.408
 1238SOL     OW 4612   0.718   0.503   4.629
 1238SOL    HW1 4613   0.680   0.471   4.716
 1238SOL    HW2 4614   0.701   0.600   4.618
 1239SOL     OW 4615   4.830   5.201   3.891
 1239SOL    HW1 4616   4.919   5.229   3.855
 1239SOL    HW2 4617   4.781   5.282   3.925
 1240SOL     OW 4618   0.427   3.613   1.163
 1240SOL    HW1 4619   0.418   3.707   1.131
 1240SOL    HW2 4620   0.502   3.607   1.229
 1241SOL     OW 4621   4.182   5.082   5.938
 1241SOL    HW1 4622   4.211   5.144   6.011
 1241SOL    HW2 4623   4.109   5.022   5.971
 1242SOL     OW 4624   2.392   5.240   0.813
 1242SOL    HW1 4625   2.392   5.150   0.857
 1242SOL    HW2 4626   2.471   5.248   0.753
 1243SOL     OW 4627   0.977   3.286   3.782
 1243SOL    HW1 4628   0.915   3.363   3.791
 1243SOL    HW2 4629   1.061   3.316   3.737
 1244SOL     OW 4630   6.325   0.088   5.075
 1244SOL    HW1 4631   6.261   0.165   5.081
 1244SOL    HW2 4632   6.398   0.100   5.143
 1245SOL     OW 4633   4.838   6.452   1.026
 1245SOL    HW1 4634   4.864   6.421   1.117
 1245SOL    HW2 4635   4.908   6.514   0.990
 1246SOL     OW 4636   5.460   1.784   1.025
 1246SOL    HW1 4637   5.489   1.838   1.104
 1246SOL    HW2 4638   5.483   1.833   0.941
 1247SOL     OW 4639   6.160   6.582   2.923
 1247SOL    HW1 4640   6.100   6.616   2.850
 1247SOL    HW2 4641   6.255   6.590   2.895
 1248SOL     OW 4642   0.748   6.426   4.363
 1248SOL    HW1 4643   0.686   6.404   4.288
 1248SOL    HW2 4644   0.702   6.485   4.429
 1249SOL     OW 4645   5.841   5.873   6.167
 1249SOL    HW1 4646   5.903   5.951   6.172
 1249SOL    HW2 4647   5.804   5.854   6.258
 1250SOL     OW 4648   0.918   4.349   4.906
 1250SOL    HW1 4649   0.849   4.393   4.848
 1250SOL    HW2 4650   0.927   4.253   4.881
 1251SOL     OW 4651   2.899   0.221   2.800
 1251SOL    HW1 4652   2.995   0.247   2.793
 1251SOL    HW2 4653   2.883   0.138   2.746
 1252SOL     OW 4654   2.509   5.333   6.634
 1252SOL    HW1 4655   2.600   5.339   6.592
 1252SOL    HW2 4656   2.517   5.300   6.728
 1253SOL     OW 4657   2.791   6.540   6.936
 1253SOL    HW1 4658   2.820   6.508   6.845
 1253SOL    HW2 4659   2.871   6.549   6.995
 1254SOL     OW 4660   6.719   1.447   3.181
 1254SOL    HW1 4661   6.757   1.401   3.101
 1254SOL    HW2 4662   6.651   1.514   3.152
 1255SOL     OW 4663   6.159   1.808   5.644
 1255SOL    HW1 4664   6.196   1.791   5.552
 1255SOL    HW2 4665   6.117   1.724   5.679
 1256SOL     OW 4666   0.435   5.582   4.322
 1256SOL    HW1 4667   0.526   5.553   4.293
 1256SOL    HW2 4668   0.443   5.665   4.378
 1257SOL     OW 4669   0.191   6.268   3.744
 1257SOL    HW1 4670   0.170   6.229   3.834
 1257SOL    HW2 4671   0.110   6.260   3.685
 1258SOL     OW 4672   4.621   5.831   6.570
 1258SOL    HW1 4673   4.664   5.741   6.568
 1258SOL    HW2 4674   4.671   5.893   6.510
 1259SOL     OW 4675   5.379   0.272   5.577
 1259SOL    HW1 4676   5.339   0.237   5.493
 1259SOL    HW2 4677   5.411   0.196   5.633
 1260SOL     OW 4678   3.072   1.124   1.392
 1260SOL    HW1 4679   3.152   1.080   1.432
 1260SOL    HW2 4680   2.989   1.087   1.433
 1261SOL     OW 4681   0.151   4.533   4.927
 1261SOL    HW1 4682   0.068   4.545   4.873
 1261SOL    HW2 4683   0.198   4.621   4.936
 1262SOL     OW 4684   4.558   5.787   1.379
 1262SOL    HW1 4685   4.656   5.807   1.390
 1262SOL    HW2 4686   4.518   5.851   1.313
 1263SOL     OW 4687   6.479   1.671   0.657
 1263SOL    HW1 4688   6.434   1.761   0.664
 1263SOL    HW2 4689   6.409   1.600   0.653
 1264SOL     OW 4690   6.459   2.578   4.635
 1264SOL    HW1 4691   6.536   2.631   4.670
 1264SOL    HW2 4692   6.382   2.584   4.699
 1265SOL     OW 4693   6.495   5.648   4.895
 1265SOL    HW1 4694   6.459   5.625   4.804
 1265SOL    HW2 4695   6.471   5.575   4.960
 1266SOL     OW 4696   2.489   0.744   3.922
 1266SOL    HW1 4697   2.541   0.680   3.979
 1266SOL    HW2 4698   2.530   0.835   3.928
 1267SOL     OW 4699   6.969   4.738   2.904
 1267SOL    HW1 4700   6.923   4.772   2.823
 1267SOL    HW2 4701   6.920   4.659   2.940
 1268SOL     OW 4702   5.974   4.516   0.062
 1268SOL    HW1 4703   5.918   4.548   7.006
 1268SOL    HW2 4704   5.974   4.417   0.064
 1269SOL     OW 4705   6.731   5.100   6.189
 1269SOL    HW1 4706   6.669   5.042   6.135
 1269SOL    HW2 4707   6.825   5.073   6.170
 1270SOL     OW 4708   1.440   2.033   4.538
 1270SOL    HW1 4709   1.392   1.952   4.505
 1270SOL    HW2 4710   1.517   2.005   4.595
 1271SOL     OW 4711   4.995   2.802   3.260
 1271SOL    HW1 4712   4.956   2.776   3.171
 1271SOL    HW2 4713   4.970   2.734   3.328
 1272SOL     OW 4714   6.543   6.945   1.574
 1272SOL    HW1 4715   6.499   6.863   1.610
 1272SOL    HW2 4716   6.627   6.919   1.525
 1273SOL     OW 4717   2.760   6.234   6.333
 1273SOL    HW1 4718   2.791   6.270   6.244
 1273SOL    HW2 4719   2.674   6.185   6.321
 1274SOL     OW 4720   5.351   2.042   2.159
 1274SOL    HW1 4721   5.409   1.974   2.114
 1274SOL    HW2 4722   5.409   2.107   2.209
 1275SOL     OW 4723   3.901   1.519   4.081
 1275SOL    HW1 4724   3.990   1.538   4.124
 1275SOL    HW2 4725   3.916   1.497   3.984
 1276SOL     OW 4726   6.116   0.234   2.989
 1276SOL    HW1 4727   6.077   0.221   3.081
 1276SOL    HW2 4728   6.215   0.224   2.994
 1277SOL     OW 4729   0.619   1.595   5.201
 1277SOL    HW1 4730   0.606   1.560   5.108
 1277SOL    HW2 4731   0.576   1.684   5.210
 1278SOL     OW 4732   2.644   1.577   5.883
 1278SOL    HW1 4733   2.681   1.561   5.974
 1278SOL    HW2 4734   2.591   1.662   5.882
 1279SOL     OW 4735   2.327   4.896   0.521
 1279SOL    HW1 4736   2.327   4.805   0.562
 1279SOL    HW2 4737   2.250   4.949   0.558
 1280SOL     OW 4738   1.885   6.140   2.940
 1280SOL    HW1 4739   1.978   6.104   2.935
 1280SOL    HW2 4740   1.841   6.108   3.024
 1281SOL     OW 4741   0.495   6.539   4.216
 1281SOL    HW1 4742   0.414   6.548   4.275
 1281SOL    HW2 4743   0.521   6.628   4.181
 1282SOL     OW 4744   1.442   0.078   2.389
 1282SOL    HW1 4745   1.363   0.018   2.399
 1282SOL    HW2 4746   1.524   0.023   2.370
 1283SOL     OW 4747   4.980   4.582   4.784
 1283SOL    HW1 4748   4.884   4.556   4.780
 1283SOL    HW2 4749   5.023   4.540   4.864
 1284SOL     OW 4750   2.807   1.837   2.850
 1284SOL    HW1 4751   2.735   1.769   2.838
 1284SOL    HW2 4752   2.821   1.888   2.765
 1285SOL     OW 4753   6.038   2.562   6.249
 1285SOL    HW1 4754   5.988   2.563   6.335
 1285SOL    HW2 4755   6.117   2.500   6.257
 1286SOL     OW 4756   6.222   6.197   1.771
 1286SOL    HW1 4757   6.219   6.297   1.761
 1286SOL    HW2 4758   6.136   6.165   1.811
 1287SOL     OW 4759   6.246   4.885   6.184
 1287SOL    HW1 4760   6.278   4.790   6.188
 1287SOL    HW2 4761   6.151   4.889   6.217
 1288SOL     OW 4762   6.759   2.434   3.402
 1288SOL    HW1 4763   6.765   2.358   3.337
 1288SOL    HW2 4764   6.817   2.413   3.481
 1289SOL     OW 4765   6.818   5.341   2.426
 1289SOL    HW1 4766   6.818   5.278   2.504
 1289SOL    HW2 4767   6.910   5.377   2.412
 1290SOL     OW 4768   0.272   6.548   1.189
 1290SOL    HW1 4769   0.332   6.473   1.218
 1290SOL    HW2 4770   0.279   6.623   1.254
 1291SOL     OW 4771   1.563   6.724   0.678
 1291SOL    HW1 4772   1.614   6.644   0.649
 1291SOL    HW2 4773   1.518   6.765   0.599
 1292SOL     OW 4774   0.854   6.520   6.209
 1292SOL    HW1 4775   0.860   6.583   6.287
 1292SOL    HW2 4776   0.908   6.439   6.227
 1293SOL     OW 4777   6.628   2.939   5.741
 1293SOL    HW1 4778   6.685   2.871   5.787
 1293SOL    HW2 4779   6.666   2.957   5.650
 1294SOL     OW 4780   0.482   1.660   2.863
 1294SOL    HW1 4781   0.472   1.656   2.962
 1294SOL    HW2 4782   0.496   1.754   2.834
 1295SOL     OW 4783   4.968   3.378   1.550
 1295SOL    HW1 4784   4.983   3.419   1.640
 1295SOL    HW2 4785   4.873   3.346   1.543
 1296SOL     OW 4786   3.441   2.501   6.770
 1296SOL    HW1 4787   3.411   2.426   6.829
 1296SOL    HW2 4788   3.447   2.585   6.823
 1297SOL     OW 4789   6.521   1.342   6.744
 1297SOL    HW1 4790   6.500   1.315   6.839
 1297SOL    HW2 4791   6.565   1.265   6.697
 1298SOL     OW 4792   6.098   3.002   3.526
 1298SOL    HW1 4793   6.145   3.090   3.516
 1298SOL    HW2 4794   6.008   3.017   3.566
 1299SOL     OW 4795   1.263   3.772   4.504
 1299SOL    HW1 4796   1.208   3.729   4.433
 1299SOL    HW2 4797   1.205   3.795   4.582
 1300SOL     OW 4798   2.972   3.273   1.496
 1300SOL    HW1 4799   2.969   3.188   1.548
 1300SOL    HW2 4800   3.037   3.336   1.538
 1301SOL     OW 4801   0.473   0.652   2.967
 1301SOL    HW1 4802   0.524   0.621   3.047
 1301SOL    HW2 4803   0.496   0.747   2.947
 1302SOL     OW 4804   2.835   6.055   5.577
 1302SOL    HW1 4805   2.845   5.998   5.496
 1302SOL    HW2 4806   2.798   5.999   5.652
 1303SOL     OW 4807   3.906   0.291   1.064
 1303SOL    HW1 4808   3.906   0.191   1.067
 1303SOL    HW2 4809   3.946   0.327   1.148
 1304SOL     OW 4810   3.357   0.434   6.207
 1304SOL    HW1 4811   3.277   0.399   6.158
 1304SOL    HW2 4812   3.436   0.435   6.145
 1305SOL     OW 4813   6.002   6.530   4.318
 1305SOL    HW1 4814   6.053   6.454   4.359
 1305SOL    HW2 4815   6.064   6.607   4.303
 1306SOL     OW 4816   1.166   5.044   4.432
 1306SOL    HW1 4817   1.241   5.042   4.497
 1306SOL    HW2 4818   1.184   4.979   4.358
 1307SOL     OW 4819   1.825   1.986   4.407
 1307SOL    HW1 4820   1.759   1.968   4.334
 1307SOL    HW2 4821   1.818   2.082   4.435
 1308SOL     OW 4822   4.850   6.309   3.114
 1308SOL    HW1 4823   4.820   6.366   3.190
 1308SOL    HW2 4824   4.773   6.294   3.052
 1309SOL     OW 4825   5.830   2.948   4.865
 1309SOL    HW1 4826   5.848   2.865   4.918
 1309SOL    HW2 4827   5.861   3.028   4.916
 1310SOL     OW 4828   5.174   3.515   5.302
 1310SOL    HW1 4829   5.247   3.577   5.271
 1310SOL    HW2 4830   5.158   3.528   5.399
 1311SOL     OW 4831   5.575   5.341   5.438
 1311SOL    HW1 4832   5.663   5.387   5.451
 1311SOL    HW2 4833   5.567   5.266   5.504
 1312SOL     OW 4834   6.366   6.965   2.391
 1312SOL    HW1 4835   6.441   6.956   2.325
 1312SOL    HW2 4836   6.380   0.026   2.446
 1313SOL     OW 4837   3.465   4.835   5.220
 1313SOL    HW1 4838   3.418   4.747   5.230
 1313SOL    HW2 4839   3.563   4.823   5.241
 1314SOL     OW 4840   5.529   1.408   5.266
 1314SOL    HW1 4841   5.613   1.452   5.233
 1314SOL    HW2 4842   5.533   1.402   5.366
 1315SOL     OW 4843   2.106   0.485   3.346
 1315SOL    HW1 4844   2.066   0.561   3.296
 1315SOL    HW2 4845   2.035   0.419   3.369
 1316SOL     OW 4846   2.945   6.478   2.276
 1316SOL    HW1 4847   2.984   6.556   2.228
 1316SOL    HW2 4848   2.978   6.476   2.370
 1317SOL     OW 4849   7.012   4.561   3.868
 1317SOL    HW1 4850   6.960   4.643   3.893
 1317SOL    HW2 4851   0.033   4.522   3.950
 1318SOL     OW 4852   0.468   6.070   1.515
 1318SOL    HW1 4853   0.435   5.979   1.490
 1318SOL    HW2 4854   0.506   6.067   1.608
 1319SOL     OW 4855   6.045   0.899   0.336
 1319SOL    HW1 4856   6.031   0.998   0.343
 1319SOL    HW2 4857   6.040   0.871   0.240
 1320SOL     OW 4858   5.471   5.885   5.594
 1320SOL    HW1 4859   5.373   5.905   5.585
 1320SOL    HW2 4860   5.495   5.808   5.534
 1321SOL     OW 4861   2.952   1.688   0.055
 1321SOL    HW1 4862   3.030   1.657   0.001
 1321SOL    HW2 4863   2.951   1.788   0.059
 1322SOL     OW 4864   5.624   1.130   5.733
 1322SOL    HW1 4865   5.664   1.110   5.643
 1322SOL    HW2 4866   5.673   1.207   5.774
 1323SOL     OW 4867   5.955   0.873   3.662
 1323SOL    HW1 4868   5.857   0.868   3.679
 1323SOL    HW2 4869   6.003   0.824   3.735
 1324SOL     OW 4870   1.136   3.748   0.454
 1324SOL    HW1 4871   1.227   3.746   0.412
 1324SOL    HW2 4872   1.137   3.694   0.538
 1325SOL     OW 4873   3.560   5.480   3.157
 1325SOL    HW1 4874   3.532   5.575   3.172
 1325SOL    HW2 4875   3.480   5.421   3.158
 1326SOL     OW 4876   4.688   4.205   4.391
 1326SOL    HW1 4877   4.747   4.281   4.416
 1326SOL    HW2 4878   4.719   4.122   4.437
 1327SOL     OW 4879   3.222   6.043   3.274
 1327SOL    HW1 4880   3.278   6.108   3.326
 1327SOL    HW2 4881   3.252   6.043   3.178
 1328SOL     OW 4882   1.901   1.896   0.069
 1328SOL    HW1 4883   1.951   1.819   0.107
 1328SOL    HW2 4884   1.810   1.900   0.111
 1329SOL     OW 4885   0.983   0.378   1.766
 1329SOL    HW1 4886   0.895   0.426   1.761
 1329SOL    HW2 4887   1.040   0.406   1.689
 1330SOL     OW 4888   5.180   6.554   0.717
 1330SOL    HW1 4889   5.220   6.637   0.679
 1330SOL    HW2 4890   5.228   6.474   0.681
 1331SOL     OW 4891   0.030   1.387   2.831
 1331SOL    HW1 4892   0.032   1.312   2.765
 1331SOL    HW2 4893   0.114   1.441   2.823
 1332SOL     OW 4894   3.755   1.355   1.174
 1332SOL    HW1 4895   3.660   1.348   1.204
 1332SOL    HW2 4896   3.814   1.312   1.243
 1333SOL     OW 4897   3.994   3.148   4.575
 1333SOL    HW1 4898   3.963   3.133   4.481
 1333SOL    HW2 4899   4.050   3.230   4.580
 1334SOL     OW 4900   0.667   4.461   3.426
 1334SOL    HW1 4901   0.716   4.424   3.505
 1334SOL    HW2 4902   0.673   4.561   3.427
 1335SOL     OW 4903   2.466   5.192   1.980
 1335SOL    HW1 4904   2.531   5.142   1.923
 1335SOL    HW2 4905   2.514   5.228   2.060
 1336SOL     OW 4906   0.272   0.338   4.495
 1336SOL    HW1 4907   0.181   0.354   4.457
 1336SOL    HW2 4908   0.318   0.426   4.509
 1337SOL     OW 4909   2.853   0.570   6.809
 1337SOL    HW1 4910   2.855   0.567   6.709
 1337SOL    HW2 4911   2.758   0.564   6.841
 1338SOL     OW 4912   3.696   5.934   0.782
 1338SOL    HW1 4913   3.617   5.916   0.724
 1338SOL    HW2 4914   3.764   5.861   0.771
 1339SOL     OW 4915   0.131   4.825   5.390
 1339SOL    HW1 4916   0.096   4.917   5.405
 1339SOL    HW2 4917   0.224   4.830   5.353
 1340SOL     OW 4918   1.889   1.222   6.406
 1340SOL    HW1 4919   1.808   1.222   6.347
 1340SOL    HW2 4920   1.969   1.195   6.353
 1341SOL     OW 4921   5.753   1.739   3.979
 1341SOL    HW1 4922   5.781   1.823   3.932
 1341SOL    HW2 4923   5.707   1.679   3.914
 1342SOL     OW 4924   0.599   6.520   1.596
 1342SOL    HW1 4925   0.622   6.459   1.672
 1342SOL    HW2 4926   0.659   6.501   1.518
 1343SOL     OW 4927   3.596   5.062   3.199
 1343SOL    HW1 4928   3.592   5.042   3.101
 1343SOL    HW2 4929   3.542   5.144   3.218
 1344SOL     OW 4930   5.722   1.483   2.929
 1344SOL    HW1 4931   5.668   1.441   3.001
 1344SOL    HW2 4932   5.672   1.477   2.842
 1345SOL     OW 4933   1.279   6.892   3.618
 1345SOL    HW1 4934   1.345   6.900   3.543
 1345SOL    HW2 4935   1.292   6.968   3.681
 1346SOL     OW 4936   0.325   1.170   4.072
 1346SOL    HW1 4937   0.335   1.245   4.007
 1346SOL    HW2 4938   0.415   1.128   4.088
 1347SOL     OW 4939   5.050   0.669   3.479
 1347SOL    HW1 4940   5.148   0.692   3.472
 1347SOL    HW2 4941   5.002   0.707   3.400
 1348SOL     OW 4942   4.412   5.893   4.462
 1348SOL    HW1 4943   4.408   5.992   4.471
 1348SOL    HW2 4944   4.345   5.863   4.394
 1349SOL     OW 4945   4.781   2.469   0.210
 1349SOL    HW1 4946   4.774   2.443   0.307
 1349SOL    HW2 4947   4.864   2.523   0.196
 1350SOL     OW 4948   3.637   0.120   5.326
 1350SOL    HW1 4949   3.597   0.155   5.241
 1350SOL    HW2 4950   3.597   0.169   5.404
 1351SOL     OW 4951   1.262   1.445   4.702
 1351SOL    HW1 4952   1.361   1.428   4.708
 1351SOL    HW2 4953   1.227   1.465   4.793
 1352SOL     OW 4954   0.713   6.570   3.994
 1352SOL    HW1 4955   0.650   6.598   3.921
 1352SOL    HW2 4956   0.664   6.567   4.081
 1353SOL     OW 4957   1.752   2.654   4.183
 1353SOL    HW1 4958   1.677   2.656   4.117
 1353SOL    HW2 4959   1.749   2.737   4.239
 1354SOL     OW 4960   0.404   6.625   0.216
 1354SOL    HW1 4961   0.472   6.680   0.168
 1354SOL    HW2 4962   0.369   6.676   0.295
 1355SOL     OW 4963   4.400   3.272   0.153
 1355SOL    HW1 4964   4.483   3.296   0.203
 1355SOL    HW2 4965   4.338   3.223   0.213
 1356SOL     OW 4966   2.986   3.131   1.947
 1356SOL    HW1 4967   3.025   3.217   1.978
 1356SOL    HW2 4968   3.005   3.059   2.014
 1357SOL     OW 4969   2.809   3.078   5.905
 1357SOL    HW1 4970   2.900   3.111   5.878
 1357SOL    HW2 4971   2.744   3.153   5.898
 1358SOL     OW 4972   2.257   3.712   6.071
 1358SOL    HW1 4973   2.310   3.785   6.028
 1358SOL    HW2 4974   2.215   3.655   6.000
 1359SOL     OW 4975   6.835   1.142   0.183
 1359SOL    HW1 4976   6.783   1.170   0.264
 1359SOL    HW2 4977   6.772   1.126   0.107
 1360SOL     OW 4978   3.322   3.163   4.190
 1360SOL    HW1 4979   3.302   3.122   4.279
 1360SOL    HW2 4980   3.408   3.215   4.197
 1361SOL     OW 4981   0.942   6.178   1.198
 1361SOL    HW1 4982   1.024   6.224   1.167
 1361SOL    HW2 4983   0.925   6.199   1.294
 1362SOL     OW 4984   2.689   2.175   5.941
 1362SOL    HW1 4985   2.750   2.193   5.863
 1362SOL    HW2 4986   2.728   2.216   6.023
 1363SOL     OW 4987   0.044   6.517   1.445
 1363SOL    HW1 4988   0.142   6.526   1.460
 1363SOL    HW2 4989   0.027   6.462   1.363
 1364SOL     OW 4990   0.627   3.996   0.636
 1364SOL    HW1 4991   0.658   3.902   0.630
 1364SOL    HW2 4992   0.668   4.040   0.716
 1365SOL     OW 4993   0.520   3.760   5.471
 1365SOL    HW1 4994   0.486   3.815   5.396
 1365SOL    HW2 4995   0.553   3.820   5.544
 1366SOL     OW 4996   4.488   0.702   0.812
 1366SOL    HW1 4997   4.404   0.755   0.806
 1366SOL    HW2 4998   4.496   0.643   0.732
 1367SOL     OW 4999   1.437   6.882   4.371
 1367SOL    HW1 5000   1.513   6.893   4.307
 1367SOL    HW2 5001   1.460   6.812   4.439
 1368SOL     OW 5002   1.349   6.771   4.844
 1368SOL    HW1 5003   1.358   6.811   4.935
 1368SOL    HW2 5004   1.253   6.763   4.820
 1369SOL     OW 5005   2.722   5.806   3.650
 1369SOL    HW1 5006   2.784   5.731   3.675
 1369SOL    HW2 5007   2.770   5.871   3.592
 1370SOL     OW 5008   6.799   2.420   2.939
 1370SOL    HW1 5009   6.866   2.485   2.976
 1370SOL    HW2 5010   6.707   2.453   2.956
 1371SOL     OW 5011   5.902   2.121   5.551
 1371SOL    HW1 5012   5.995   2.143   5.579
 1371SOL    HW2 5013   5.858   2.066   5.622
 1372SOL     OW 5014   5.868   2.819   0.834
 1372SOL    HW1 5015   5.874   2.795   0.931
 1372SOL    HW2 5016   5.960   2.816   0.794
 1373SOL     OW 5017   5.733   2.561   1.520
 1373SOL    HW1 5018   5.828   2.585   1.539
 1373SOL    HW2 5019   5.723   2.462   1.522
 1374SOL     OW 5020   4.451   3.770   1.724
 1374SOL    HW1 5021   4.406   3.683   1.746
 1374SOL    HW2 5022   4.387   3.845   1.741
 1375SOL     OW 5023   5.540   4.778   4.239
 1375SOL    HW1 5024   5.476   4.702   4.252
 1375SOL    HW2 5025   5.573   4.777   4.145
 1376SOL     OW 5026   3.021   4.710   6.042
 1376SOL    HW1 5027   2.960   4.789   6.051
 1376SOL    HW2 5028   2.999   4.643   6.112
 1377SOL     OW 5029   2.145   1.587   2.815
 1377SOL    HW1 5030   2.195   1.598   2.901
 1377SOL    HW2 5031   2.186   1.513   2.761
 1378SOL     OW 5032   5.167   2.379   3.882
 1378SOL    HW1 5033   5.215   2.337   3.805
 1378SOL    HW2 5034   5.234   2.411   3.949
 1379SOL     OW 5035   4.543   5.538   0.685
 1379SOL    HW1 5036   4.520   5.623   0.733
 1379SOL    HW2 5037   4.606   5.559   0.609
 1380SOL     OW 5038   7.018   6.102   2.685
 1380SOL    HW1 5039   0.085   6.059   2.701
 1380SOL    HW2 5040   7.013   6.134   2.590
 1381SOL     OW 5041   6.270   2.389   6.325
 1381SOL    HW1 5042   6.254   2.299   6.366
 1381SOL    HW2 5043   6.365   2.416   6.340
 1382SOL     OW 5044   4.560   2.551   0.074
 1382SOL    HW1 5045   4.646   2.525   0.119
 1382SOL    HW2 5046   4.567   2.645   0.042
 1383SOL     OW 5047   6.767   0.368   1.175
 1383SOL    HW1 5048   6.781   0.325   1.264
 1383SOL    HW2 5049   6.845   0.347   1.116
 1384SOL     OW 5050   6.331   1.631   2.038
 1384SOL    HW1 5051   6.274   1.711   2.021
 1384SOL    HW2 5052   6.278   1.548   2.024
 1385SOL     OW 5053   0.586   5.883   0.884
 1385SOL    HW1 5054   0.652   5.939   0.934
 1385SOL    HW2 5055   0.493   5.905   0.915
 1386SOL     OW 5056   2.292   5.875   3.884
 1386SOL    HW1 5057   2.211   5.905   3.834
 1386SOL    HW2 5058   2.372   5.926   3.853
 1387SOL     OW 5059   2.516   6.166   1.457
 1387SOL    HW1 5060   2.515   6.089   1.520
 1387SOL    HW2 5061   2.606   6.210   1.459
 1388SOL     OW 5062   0.107   0.879   1.941
 1388SOL    HW1 5063   0.194   0.842   1.976
 1388SOL    HW2 5064   0.057   0.920   2.017
 1389SOL     OW 5065   6.333   1.034   2.157
 1389SOL    HW1 5066   6.402   1.106   2.159
 1389SOL    HW2 5067   6.242   1.074   2.171
 1390SOL     OW 5068   1.210   1.612   4.910
 1390SOL    HW1 5069   1.112   1.631   4.921
 1390SOL    HW2 5070   1.261   1.662   4.980
 1391SOL     OW 5071   0.264   3.179   3.722
 1391SOL    HW1 5072   0.273   3.090   3.767
 1391SOL    HW2 5073   0.199   3.171   3.646
 1392SOL     OW 5074   5.153   4.614   4.504
 1392SOL    HW1 5075   5.145   4.565   4.591
 1392SOL    HW2 5076   5.073   4.673   4.492
 1393SOL     OW 5077   3.053   6.198   5.982
 1393SOL    HW1 5078   3.112   6.275   5.960
 1393SOL    HW2 5079   3.089   6.149   6.061
 1394SOL     OW 5080   1.478   5.838   6.068
 1394SOL    HW1 5081   1.542   5.860   5.995
 1394SOL    HW2 5082   1.400   5.901   6.065
 1395SOL     OW 5083   3.525   4.447   5.676
 1395SOL    HW1 5084   3.479   4.384   5.739
 1395SOL    HW2 5085   3.618   4.415   5.659
 1396SOL     OW 5086   6.199   6.205   3.971
 1396SOL    HW1 5087   6.271   6.223   3.904
 1396SOL    HW2 5088   6.189   6.106   3.985
 1397SOL     OW 5089   4.391   5.909   5.458
 1397SOL    HW1 5090   4.345   5.936   5.543
 1397SOL    HW2 5091   4.352   5.823   5.425
 1398SOL     OW 5092   2.196   1.140   4.294
 1398SOL    HW1 5093   2.250   1.145   4.210
 1398SOL    HW2 5094   2.140   1.057   4.293
 1399SOL     OW 5095   3.075   6.233   1.319
 1399SOL    HW1 5096   3.164   6.189   1.314
 1399SOL    HW2 5097   3.025   6.198   1.398
 1400SOL     OW 5098   2.267   6.870   2.291
 1400SOL    HW1 5099   2.195   6.928   2.251
 1400SOL    HW2 5100   2.230   6.820   2.369
 1401SOL     OW 5101   6.401   0.990   4.653
 1401SOL    HW1 5102   6.461   1.052   4.705
 1401SOL    HW2 5103   6.379   1.032   4.565
 1402SOL     OW 5104   0.049   3.066   0.311
 1402SOL    HW1 5105   0.084   3.036   0.399
 1402SOL    HW2 5106   6.989   3.123   0.324
 1403SOL     OW 5107   3.184   0.869   2.414
 1403SOL    HW1 5108   3.202   0.965   2.433
 1403SOL    HW2 5109   3.256   0.813   2.453
 1404SOL     OW 5110   5.288   1.529   0.510
 1404SOL    HW1 5111   5.275   1.581   0.425
 1404SOL    HW2 5112   5.360   1.571   0.564
 1405SOL     OW 5113   2.810   3.259   0.950
 1405SOL    HW1 5114   2.809   3.216   1.041
 1405SOL    HW2 5115   2.835   3.355   0.959
 1406SOL     OW 5116   1.333   3.995   1.194
 1406SOL    HW1 5117   1.426   3.985   1.228
 1406SOL    HW2 5118   1.330   4.068   1.125
 1407SOL     OW 5119   6.197   2.909   3.077
 1407SOL    HW1 5120   6.197   2.838   3.146
 1407SOL    HW2 5121   6.143   2.987   3.110
 1408SOL     OW 5122   6.466   0.085   6.614
 1408SOL    HW1 5123   6.477   0.024   6.536
 1408SOL    HW2 5124   6.403   0.159   6.589
 1409SOL     OW 5125   0.659   1.597   4.402
 1409SOL    HW1 5126   0.634   1.690   4.430
 1409SOL    HW2 5127   0.599   1.566   4.329
 1410SOL     OW 5128   0.252   2.837   0.054
 1410SOL    HW1 5129   0.175   2.774   0.054
 1410SOL    HW2 5130   0.336   2.787   0.031
 1411SOL     OW 5131   1.909   6.978   1.474
 1411SOL    HW1 5132   1.953   6.961   1.386
 1411SOL    HW2 5133   1.857   0.043   1.469
 1412SOL     OW 5134   1.267   3.217   0.389
 1412SOL    HW1 5135   1.330   3.281   0.345
 1412SOL    HW2 5136   1.268   3.130   0.340
 1413SOL     OW 5137   2.858   0.046   4.244
 1413SOL    HW1 5138   2.842   6.999   4.315
 1413SOL    HW2 5139   2.824   0.135   4.275
 1414SOL     OW 5140   2.395   1.154   1.484
 1414SOL    HW1 5141   2.390   1.252   1.468
 1414SOL    HW2 5142   2.429   1.136   1.576
 1415SOL     OW 5143   4.356   6.121   5.843
 1415SOL    HW1 5144   4.294   6.162   5.776
 1415SOL    HW2 5145   4.371   6.186   5.918
 1416SOL     OW 5146   4.411   5.984   2.352
 1416SOL    HW1 5147   4.431   5.964   2.448
 1416SOL    HW2 5148   4.384   6.079   2.342
 1417SOL     OW 5149   3.046   2.348   5.880
 1417SOL    HW1 5150   2.999   2.390   5.802
 1417SOL    HW2 5151   3.063   2.418   5.949
 1418SOL     OW 5152   3.482   4.124   2.767
 1418SOL    HW1 5153   3.430   4.061   2.708
 1418SOL    HW2 5154   3.440   4.214   2.765
 1419SOL     OW 5155   4.911   6.656   5.119
 1419SOL    HW1 5156   4.871   6.595   5.188
 1419SOL    HW2 5157   4.988   6.705   5.158
 1420SOL     OW 5158   0.595   5.872   2.240
 1420SOL    HW1 5159   0.670   5.812   2.265
 1420SOL    HW2 5160   0.509   5.820   2.241
 1421SOL     OW 5161   3.766   1.375   2.798
 1421SOL    HW1 5162   3.764   1.276   2.784
 1421SOL    HW2 5163   3.801   1.395   2.890
 1422SOL     OW 5164   2.622   6.366   0.030
 1422SOL    HW1 5165   2.533   6.407   0.013
 1422SOL    HW2 5166   2.685   6.390   6.977
 1423SOL     OW 5167   4.516   0.656   2.756
 1423SOL    HW1 5168   4.577   0.640   2.678
 1423SOL    HW2 5169   4.568   0.657   2.841
 1424SOL     OW 5170   6.432   4.758   3.065
 1424SOL    HW1 5171   6.371   4.836   3.077
 1424SOL    HW2 5172   6.423   4.724   2.971
 1425SOL     OW 5173   2.149   0.248   4.907
 1425SOL    HW1 5174   2.106   0.325   4.859
 1425SOL    HW2 5175   2.078   0.193   4.951
 1426SOL     OW 5176   1.074   1.811   5.724
 1426SOL    HW1 5177   1.156   1.866   5.708
 1426SOL    HW2 5178   1.090   1.718   5.693
 1427SOL     OW 5179   5.975   0.492   4.724
 1427SOL    HW1 5180   5.949   0.567   4.663
 1427SOL    HW2 5181   6.046   0.524   4.787
 1428SOL     OW 5182   5.282   1.048   0.195
 1428SOL    HW1 5183   5.214   1.107   0.151
 1428SOL    HW2 5184   5.349   1.020   0.126
 1429SOL     OW 5185   5.922   0.651   0.442
 1429SOL    HW1 5186   5.970   0.566   0.465
 1429SOL    HW2 5187   5.985   0.714   0.396
 1430SOL     OW 5188   2.031   4.874   3.934
 1430SOL    HW1 5189   1.942   4.831   3.949
 1430SOL    HW2 5190   2.094   4.807   3.895
 1431SOL     OW 5191   1.644   0.570   0.925
 1431SOL    HW1 5192   1.590   0.488   0.905
 1431SOL    HW2 5193   1.725   0.571   0.867
 1432SOL     OW 5194   2.175   0.937   1.877
 1432SOL    HW1 5195   2.254   0.920   1.936
 1432SOL    HW2 5196   2.204   0.938   1.782
 1433SOL     OW 5197   4.903   0.856   3.960
 1433SOL    HW1 5198   4.929   0.840   3.865
 1433SOL    HW2 5199   4.960   0.929   3.998
 1434SOL     OW 5200   1.204   0.883   5.320
 1434SOL    HW1 5201   1.169   0.956   5.379
 1434SOL    HW2 5202   1.135   0.812   5.309
 1435SOL     OW 5203   0.127   1.978   3.407
 1435SOL    HW1 5204   0.059   2.050   3.405
 1435SOL    HW2 5205   0.211   2.012   3.449
 1436SOL     OW 5206   4.236   3.560   0.784
 1436SOL    HW1 5207   4.260   3.657   0.792
 1436SOL    HW2 5208   4.153   3.541   0.836
 1437SOL     OW 5209   3.834   1.147   2.350
 1437SOL    HW1 5210   3.821   1.103   2.262
 1437SOL    HW2 5211   3.919   1.200   2.349
 1438SOL     OW 5212   2.302   0.357   1.151
 1438SOL    HW1 5213   2.299   0.443   1.200
 1438SOL    HW2 5214   2.394   0.319   1.154
 1439SOL     OW 5215   0.521   5.796   2.572
 1439SOL    HW1 5216   0.522   5.880   2.625
 1439SOL    HW2 5217   0.443   5.797   2.509
 1440SOL     OW 5218   2.558   3.528   1.717
 1440SOL    HW1 5219   2.484   3.508   1.781
 1440SOL    HW2 5220   2.570   3.450   1.655
 1441SOL     OW 5221   5.261   6.296   0.622
 1441SOL    HW1 5222   5.190   6.231   0.652
 1441SOL    HW2 5223   5.245   6.321   0.527
 1442SOL     OW 5224   5.357   5.894   0.667
 1442SOL    HW1 5225   5.267   5.868   0.702
 1442SOL    HW2 5226   5.426   5.834   0.706
 1443SOL     OW 5227   0.233   2.968   3.043
 1443SOL    HW1 5228   0.265   2.959   2.948
 1443SOL    HW2 5229   0.260   3.057   3.079
 1444SOL     OW 5230   6.430   4.798   6.895
 1444SOL    HW1 5231   6.500   4.733   6.921
 1444SOL    HW2 5232   6.472   4.877   6.850
 1445SOL     OW 5233   1.208   3.606   1.327
 1445SOL    HW1 5234   1.184   3.703   1.330
 1445SOL    HW2 5235   1.126   3.552   1.308
 1446SOL     OW 5236   6.338   6.774   0.848
 1446SOL    HW1 5237   6.392   6.720   0.912
 1446SOL    HW2 5238   6.350   6.738   0.756
 1447SOL     OW 5239   6.145   5.119   4.558
 1447SOL    HW1 5240   6.079   5.051   4.591
 1447SOL    HW2 5241   6.230   5.072   4.534
 1448SOL     OW 5242   1.155   3.222   5.700
 1448SOL    HW1 5243   1.153   3.277   5.617
 1448SOL    HW2 5244   1.147   3.281   5.780
 1449SOL     OW 5245   2.151   3.243   3.496
 1449SOL    HW1 5246   2.174   3.339   3.475
 1449SOL    HW2 5247   2.088   3.240   3.573
 1450SOL     OW 5248   2.540   2.538   3.901
 1450SOL    HW1 5249   2.562   2.542   3.999
 1450SOL    HW2 5250   2.607   2.481   3.854
 1451SOL     OW 5251   2.784   0.831   2.836
 1451SOL    HW1 5252   2.813   0.883   2.756
 1451SOL    HW2 5253   2.858   0.772   2.868
 1452SOL     OW 5254   5.057   2.885   6.594
 1452SOL    HW1 5255   5.080   2.883   6.692
 1452SOL    HW2 5256   5.104   2.961   6.551
 1453SOL     OW 5257   6.949   4.699   5.550
 1453SOL    HW1 5258   0.002   4.752   5.508
 1453SOL    HW2 5259   6.874   4.761   5.574
 1454SOL     OW 5260   3.704   2.012   3.545
 1454SOL    HW1 5261   3.762   2.056   3.613
 1454SOL    HW2 5262   3.759   1.982   3.468
 1455SOL     OW 5263   0.655   5.801   1.759
 1455SOL    HW1 5264   0.589   5.728   1.776
 1455SOL    HW2 5265   0.643   5.874   1.825
 1456SOL     OW 5266   6.541   4.719   4.444
 1456SOL    HW1 5267   6.529   4.799   4.385
 1456SOL    HW2 5268   6.452   4.689   4.478
 1457SOL     OW 5269   1.094   5.616   6.057
 1457SOL    HW1 5270   1.016   5.565   6.093
 1457SOL    HW2 5271   1.179   5.565   6.073
 1458SOL     OW 5272   5.222   5.088   5.232
 1458SOL    HW1 5273   5.276   5.005   5.217
 1458SOL    HW2 5274   5.283   5.167   5.234
 1459SOL     OW 5275   5.594   6.752   5.516
 1459SOL    HW1 5276   5.665   6.816   5.487
 1459SOL    HW2 5277   5.567   6.696   5.438
 1460SOL     OW 5278   1.342   6.387   4.819
 1460SOL    HW1 5279   1.244   6.385   4.802
 1460SOL    HW2 5280   1.359   6.404   4.916
 1461SOL     OW 5281   6.635   3.182   3.807
 1461SOL    HW1 5282   6.587   3.099   3.777
 1461SOL    HW2 5283   6.569   3.250   3.838
 1462SOL     OW 5284   0.509   0.705   1.887
 1462SOL    HW1 5285   0.582   0.673   1.947
 1462SOL    HW2 5286   0.548   0.750   1.807
 1463SOL     OW 5287   2.371   5.435   0.079
 1463SOL    HW1 5288   2.412   5.520   0.045
 1463SOL    HW2 5289   2.333   5.383   0.002
 1464SOL     OW 5290   1.358   3.904   3.951
 1464SOL    HW1 5291   1.446   3.943   3.923
 1464SOL    HW2 5292   1.375   3.827   4.013
 1465SOL     OW 5293   0.710   2.947   3.945
 1465SOL    HW1 5294   0.728   2.924   3.849
 1465SOL    HW2 5295   0.780   3.010   3.978
 1466SOL     OW 5296   5.619   2.569   2.505
 1466SOL    HW1 5297   5.615   2.470   2.492
 1466SOL    HW2 5298   5.580   2.592   2.594
 1467SOL     OW 5299   0.746   0.986   4.272
 1467SOL    HW1 5300   0.769   0.897   4.311
 1467SOL    HW2 5301   0.813   1.054   4.302
 1468SOL     OW 5302   2.910   5.058   2.553
 1468SOL    HW1 5303   2.894   4.960   2.539
 1468SOL    HW2 5304   3.003   5.082   2.525
 1469SOL     OW 5305   5.965   3.861   2.924
 1469SOL    HW1 5306   5.868   3.883   2.929
 1469SOL    HW2 5307   5.977   3.762   2.921
 1470SOL     OW 5308   6.039   1.236   1.842
 1470SOL    HW1 5309   6.126   1.256   1.796
 1470SOL    HW2 5310   5.976   1.194   1.777
 1471SOL     OW 5311   4.517   6.811   1.341
 1471SOL    HW1 5312   4.524   6.728   1.285
 1471SOL    HW2 5313   4.469   6.790   1.426
 1472SOL     OW 5314   2.045   0.327   6.126
 1472SOL    HW1 5315   1.953   0.343   6.090
 1472SOL    HW2 5316   2.062   0.228   6.130
 1473SOL     OW 5317   1.565   5.600   3.745
 1473SOL    HW1 5318   1.521   5.624   3.832
 1473SOL    HW2 5319   1.539   5.667   3.675
 1474SOL     OW 5320   2.467   4.915   1.285
 1474SOL    HW1 5321   2.392   4.848   1.290
 1474SOL    HW2 5322   2.517   4.903   1.200
 1475SOL     OW 5323   5.532   0.196   6.278
 1475SOL    HW1 5324   5.494   0.135   6.348
 1475SOL    HW2 5325   5.631   0.195   6.283
 1476SOL     OW 5326   4.636   0.901   0.721
 1476SOL    HW1 5327   4.563   0.851   0.768
 1476SOL    HW2 5328   4.621   0.897   0.622
 1477SOL     OW 5329   3.593   4.854   1.573
 1477SOL    HW1 5330   3.498   4.831   1.555
 1477SOL    HW2 5331   3.606   4.953   1.564
 1478SOL     OW 5332   4.566   5.078   6.909
 1478SOL    HW1 5333   4.609   5.168   6.916
 1478SOL    HW2 5334   4.564   5.034   6.999
 1479SOL     OW 5335   3.890   3.665   1.400
 1479SOL    HW1 5336   3.922   3.733   1.465
 1479SOL    HW2 5337   3.952   3.586   1.402
 1480SOL     OW 5338   3.246   0.558   4.669
 1480SOL    HW1 5339   3.190   0.532   4.748
 1480SOL    HW2 5340   3.189   0.602   4.600
 1481SOL     OW 5341   5.713   2.508   6.135
 1481SOL    HW1 5342   5.745   2.522   6.041
 1481SOL    HW2 5343   5.765   2.432   6.176
 1482SOL     OW 5344   5.432   1.098   1.047
 1482SOL    HW1 5345   5.363   1.169   1.031
 1482SOL    HW2 5346   5.432   1.073   1.144
 1483SOL     OW 5347   5.774   0.964   6.782
 1483SOL    HW1 5348   5.864   0.993   6.750
 1483SOL    HW2 5349   5.765   0.986   6.879
 1484SOL     OW 5350   3.737   5.948   4.971
 1484SOL    HW1 5351   3.786   5.953   5.058
 1484SOL    HW2 5352   3.653   5.894   4.984
 1485SOL     OW 5353   5.317   2.601   3.398
 1485SOL    HW1 5354   5.228   2.641   3.421
 1485SOL    HW2 5355   5.381   2.674   3.372
 1486SOL     OW 5356   4.410   6.494   3.581
 1486SOL    HW1 5357   4.435   6.573   3.637
 1486SOL    HW2 5358   4.418   6.411   3.636
 1487SOL     OW 5359   6.313   0.889   0.393
 1487SOL    HW1 5360   6.215   0.895   0.372
 1487SOL    HW2 5361   6.337   0.958   0.461
 1488SOL     OW 5362   6.690   1.747   2.695
 1488SOL    HW1 5363   6.728   1.738   2.603
 1488SOL    HW2 5364   6.740   1.686   2.757
 1489SOL     OW 5365   3.293   4.538   0.372
 1489SOL    HW1 5366   3.366   4.525   0.440
 1489SOL    HW2 5367   3.284   4.455   0.317
 1490SOL     OW 5368   6.890   2.582   2.276
 1490SOL    HW1 5369   6.918   2.607   2.369
 1490SOL    HW2 5370   6.791   2.564   2.274
 1491SOL     OW 5371   5.999   2.532   3.838
 1491SOL    HW1 5372   5.944   2.532   3.921
 1491SOL    HW2 5373   6.096   2.531   3.862
 1492SOL     OW 5374   6.478   1.489   3.418
 1492SOL    HW1 5375   6.441   1.473   3.326
 1492SOL    HW2 5376   6.473   1.404   3.471
 1493SOL     OW 5377   5.229   1.971   6.136
 1493SOL    HW1 5378   5.280   1.907   6.193
 1493SOL    HW2 5379   5.175   2.032   6.194
 1494SOL     OW 5380   6.341   4.509   5.941
 1494SOL    HW1 5381   6.350   4.531   5.844
 1494SOL    HW2 5382   6.339   4.409   5.953
 1495SOL     OW 5383   0.082   4.112   4.156
 1495SOL    HW1 5384   0.169   4.156   4.179
 1495SOL    HW2 5385   0.100   4.021   4.119
 1496SOL     OW 5386   6.257   6.075   6.286
 1496SOL    HW1 5387   6.250   6.065   6.186
 1496SOL    HW2 5388   6.348   6.111   6.309
 1497SOL     OW 5389   6.014   2.800   2.875
 1497SOL    HW1 5390   6.010   2.703   2.852
 1497SOL    HW2 5391   6.100   2.820   2.923
 1498SOL     OW 5392   3.348   3.779   0.915
 1498SOL    HW1 5393   3.410   3.752   0.841
 1498SOL    HW2 5394   3.261   3.809   0.877
 1499SOL     OW 5395   0.736   4.764   4.633
 1499SOL    HW1 5396   0.762   4.668   4.626
 1499SOL    HW2 5397   0.812   4.821   4.601
 1500SOL     OW 5398   0.802   6.116   1.797
 1500SOL    HW1 5399   0.792   6.049   1.723
 1500SOL    HW2 5400   0.749   6.086   1.876
 1501SOL     OW 5401   5.517   1.988   0.539
 1501SOL    HW1 5402   5.497   2.009   0.444
 1501SOL    HW2 5403   5.568   1.902   0.546
 1502SOL     OW 5404   6.394   0.113   6.309
 1502SOL    HW1 5405   6.381   0.016   6.332
 1502SOL    HW2 5406   6.492   0.133   6.307
 1503SOL     OW 5407   6.798   4.801   1.093
 1503SOL    HW1 5408   6.737   4.817   1.171
 1503SOL    HW2 5409   6.878   4.859   1.100
 1504SOL     OW 5410   2.025   7.010   2.221
 1504SOL    HW1 5411   2.026   0.000   2.122
 1504SOL    HW2 5412   1.972   0.062   2.263
 1505SOL     OW 5413   5.948   5.090   4.842
 1505SOL    HW1 5414   5.862   5.120   4.883
 1505SOL    HW2 5415   5.931   5.065   4.746
 1506SOL     OW 5416   0.527   1.464   1.075
 1506SOL    HW1 5417   0.534   1.484   0.977
 1506SOL    HW2 5418   0.434   1.433   1.095
 1507SOL     OW 5419   1.319   2.701   4.130
 1507SOL    HW1 5420   1.333   2.670   4.224
 1507SOL    HW2 5421   1.371   2.643   4.068
 1508SOL     OW 5422   1.580   0.505   1.171
 1508SOL    HW1 5423   1.488   0.530   1.200
 1508SOL    HW2 5424   1.606   0.559   1.091
 1509SOL     OW 5425   4.951   1.262   4.442
 1509SOL    HW1 5426   4.869   1.278   4.388
 1509SOL    HW2 5427   4.939   1.299   4.534
 1510SOL     OW 5428   3.641   6.303   4.460
 1510SOL    HW1 5429   3.661   6.298   4.362
 1510SOL    HW2 5430   3.573   6.374   4.476
 1511SOL     OW 5431   2.921   3.548   5.049
 1511SOL    HW1 5432   2.866   3.556   5.132
 1511SOL    HW2 5433   2.908   3.457   5.009
 1512SOL     OW 5434   5.500   6.668   1.029
 1512SOL    HW1 5435   5.591   6.691   1.062
 1512SOL    HW2 5436   5.468   6.739   0.966
 1513SOL     OW 5437   2.821   6.993   6.110
 1513SOL    HW1 5438   2.916   6.987   6.138
 1513SOL    HW2 5439   2.792   6.907   6.069
 1514SOL     OW 5440   3.060   2.877   6.238
 1514SOL    HW1 5441   3.001   2.845   6.164
 1514SOL    HW2 5442   3.068   2.804   6.307
 1515SOL     OW 5443   4.651   1.119   2.357
 1515SOL    HW1 5444   4.719   1.174   2.308
 1515SOL    HW2 5445   4.683   1.103   2.451
 1516SOL     OW 5446   5.763   0.458   5.234
 1516SOL    HW1 5447   5.856   0.442   5.268
 1516SOL    HW2 5448   5.723   0.536   5.281
 1517SOL     OW 5449   3.627   6.038   3.825
 1517SOL    HW1 5450   3.659   5.970   3.891
 1517SOL    HW2 5451   3.575   5.993   3.753
 1518SOL     OW 5452   0.883   2.942   7.012
 1518SOL    HW1 5453   0.927   2.855   0.014
 1518SOL    HW2 5454   0.792   2.944   0.032
 1519SOL     OW 5455   6.957   5.103   6.923
 1519SOL    HW1 5456   6.985   5.015   6.886
 1519SOL    HW2 5457   0.008   5.138   6.983
 1520SOL     OW 5458   0.473   6.357   3.110
 1520SOL    HW1 5459   0.482   6.322   3.017
 1520SOL    HW2 5460   0.462   6.281   3.173
 1521SOL     OW 5461   2.184   4.931   5.972
 1521SOL    HW1 5462   2.108   4.995   5.974
 1521SOL    HW2 5463   2.270   4.979   5.990
 1522SOL     OW 5464   5.777   6.088   4.134
 1522SOL    HW1 5465   5.704   6.120   4.195
 1522SOL    HW2 5466   5.857   6.147   4.143
 1523SOL     OW 5467   3.665   6.522   0.648
 1523SOL    HW1 5468   3.708   6.513   0.738
 1523SOL    HW2 5469   3.725   6.574   0.587
 1524SOL     OW 5470   2.536   1.687   2.780
 1524SOL    HW1 5471   2.552   1.670   2.682
 1524SOL    HW2 5472   2.511   1.602   2.825
 1525SOL     OW 5473   5.634   3.743   6.946
 1525SOL    HW1 5474   5.710   3.765   6.886
 1525SOL    HW2 5475   5.549   3.746   6.894
 1526SOL     OW 5476   1.009   1.263   0.289
 1526SOL    HW1 5477   0.926   1.236   0.338
 1526SOL    HW2 5478   1.082   1.198   0.307
 1527SOL     OW 5479   4.531   2.059   3.880
 1527SOL    HW1 5480   4.454   2.081   3.941
 1527SOL    HW2 5481   4.496   2.043   3.788
 1528SOL     OW 5482   3.565   3.831   2.190
 1528SOL    HW1 5483   3.466   3.839   2.186
 1528SOL    HW2 5484   3.596   3.846   2.283
 1529SOL     OW 5485   4.114   1.229   5.665
 1529SOL    HW1 5486   4.176   1.156   5.636
 1529SOL    HW2 5487   4.121   1.305   5.600
 1530SOL     OW 5488   3.068   6.596   1.031
 1530SOL    HW1 5489   2.997   6.592   0.960
 1530SOL    HW2 5490   3.106   6.688   1.034
 1531SOL     OW 5491   4.395   6.744   4.261
 1531SOL    HW1 5492   4.422   6.824   4.208
 1531SOL    HW2 5493   4.365   6.772   4.351
 1532SOL     OW 5494   3.430   5.756   6.444
 1532SOL    HW1 5495   3.339   5.719   6.461
 1532SOL    HW2 5496   3.489   5.683   6.410
 1533SOL     OW 5497   6.192   5.534   1.435
 1533SOL    HW1 5498   6.112   5.497   1.388
 1533SOL    HW2 5499   6.272   5.478   1.415
 1534SOL     OW 5500   3.675   4.856   6.572
 1534SOL    HW1 5501   3.620   4.787   6.619
 1534SOL    HW2 5502   3.645   4.864   6.477
 1535SOL     OW 5503   5.679   5.329   4.033
 1535SOL    HW1 5504   5.640   5.421   4.041
 1535SOL    HW2 5505   5.778   5.334   4.044
 1536SOL     OW 5506   4.949   3.166   6.398
 1536SOL    HW1 5507   5.043   3.135   6.407
 1536SOL    HW2 5508   4.887   3.089   6.408
 1537SOL     OW 5509   3.000   5.207   3.091
 1537SOL    HW1 5510   2.904   5.188   3.068
 1537SOL    HW2 5511   3.021   5.302   3.066
 1538SOL     OW 5512   2.624   1.448   0.278
 1538SOL    HW1 5513   2.650   1.380   0.209
 1538SOL    HW2 5514   2.546   1.501   0.244
 1539SOL     OW 5515   6.108   3.328   0.251
 1539SOL    HW1 5516   6.148   3.293   0.166
 1539SOL    HW2 5517   6.037   3.266   0.282
 1540SOL     OW 5518   3.375   6.977   4.451
 1540SOL    HW1 5519   3.326   7.020   4.375
 1540SOL    HW2 5520   3.464   7.021   4.463
 1541SOL     OW 5521   3.732   3.190   5.349
 1541SOL    HW1 5522   3.724   3.121   5.421
 1541SOL    HW2 5523   3.666   3.171   5.277
 1542SOL     OW 5524   0.348   6.683   2.179
 1542SOL    HW1 5525   0.424   6.743   2.205
 1542SOL    HW2 5526   0.367   6.645   2.088
 1543SOL     OW 5527   3.051   4.608   0.259
 1543SOL    HW1 5528   2.991   4.552   0.316
 1543SOL    HW2 5529   3.143   4.610   0.300
 1544SOL     OW 5530   3.812   3.626   3.995
 1544SOL    HW1 5531   3.854   3.538   4.016
 1544SOL    HW2 5532   3.712   3.617   3.998
 1545SOL     OW 5533   5.938   6.214   1.981
 1545SOL    HW1 5534   5.884   6.153   1.923
 1545SOL    HW2 5535   5.890   6.301   1.991
 1546SOL     OW 5536   5.048   7.009   5.779
 1546SOL    HW1 5537   5.003   6.946   5.843
 1546SOL    HW2 5538   5.101   0.054   5.831
 1547SOL     OW 5539   2.144   3.225   6.418
 1547SOL    HW1 5540   2.065   3.184   6.372
 1547SOL    HW2 5541   2.211   3.254   6.350
 1548SOL     OW 5542   6.103   1.898   6.986
 1548SOL    HW1 5543   6.118   1.838   0.044
 1548SOL    HW2 5544   6.187   1.949   6.967
 1549SOL     OW 5545   4.652   0.804   4.910
 1549SOL    HW1 5546   4.657   0.759   4.999
 1549SOL    HW2 5547   4.701   0.891   4.913
 1550SOL     OW 5548   3.841   3.041   4.076
 1550SOL    HW1 5549   3.751   3.031   4.034
 1550SOL    HW2 5550   3.911   3.014   4.010
 1551SOL     OW 5551   6.399   4.670   6.148
 1551SOL    HW1 5552   6.492   4.657   6.184
 1551SOL    HW2 5553   6.385   4.607   6.072
 1552SOL     OW 5554   1.885   4.256   1.489
 1552SOL    HW1 5555   1.816   4.219   1.550
 1552SOL    HW2 5556   1.975   4.222   1.515
 1553SOL     OW 5557   1.464   1.693   5.823
 1553SOL    HW1 5558   1.506   1.748   5.895
 1553SOL    HW2 5559   1.511   1.711   5.736
 1554SOL     OW 5560   2.947   1.633   3.891
 1554SOL    HW1 5561   3.040   1.596   3.885
 1554SOL    HW2 5562   2.920   1.668   3.801
 1555SOL     OW 5563   6.483   4.155   5.758
 1555SOL    HW1 5564   6.481   4.070   5.707
 1555SOL    HW2 5565   6.554   4.215   5.721
 1556SOL     OW 5566   1.870   0.779   6.070
 1556SOL    HW1 5567   1.816   0.736   5.997
 1556SOL    HW2 5568   1.953   0.724   6.086
 1557SOL     OW 5569   0.175   2.695   6.498
 1557SOL    HW1 5570   0.136   2.653   6.581
 1557SOL    HW2 5571   0.241   2.632   6.457
 1558SOL     OW 5572   0.481   6.799   4.737
 1558SOL    HW1 5573   0.500   6.758   4.826
 1558SOL    HW2 5574   0.567   6.826   4.693
 1559SOL     OW 5575   1.269   1.788   6.508
 1559SOL    HW1 5576   1.264   1.751   6.415
 1559SOL    HW2 5577   1.179   1.819   6.537
 1560SOL     OW 5578   6.940   0.175   6.548
 1560SOL    HW1 5579   6.872   0.226   6.600
 1560SOL    HW2 5580   6.997   0.238   6.496
 1561SOL     OW 5581   5.748   6.082   2.585
 1561SOL    HW1 5582   5.759   6.098   2.487
 1561SOL    HW2 5583   5.661   6.036   2.602
 1562SOL     OW 5584   5.997   0.880   3.396
 1562SOL    HW1 5585   6.016   0.790   3.358
 1562SOL    HW2 5586   5.963   0.871   3.489
 1563SOL     OW 5587   3.912   6.834   5.111
 1563SOL    HW1 5588   3.975   6.911   5.106
 1563SOL    HW2 5589   3.945   6.759   5.053
 1564SOL     OW 5590   1.348   2.037   2.390
 1564SOL    HW1 5591   1.385   1.962   2.336
 1564SOL    HW2 5592   1.252   2.052   2.366
 1565SOL     OW 5593   5.519   4.605   1.684
 1565SOL    HW1 5594   5.512   4.648   1.593
 1565SOL    HW2 5595   5.526   4.676   1.754
 1566SOL     OW 5596   5.771   4.595   3.126
 1566SOL    HW1 5597   5.868   4.580   3.107
 1566SOL    HW2 5598   5.729   4.509   3.153
 1567SOL     OW 5599   6.583   5.695   5.270
 1567SOL    HW1 5600   6.530   5.616   5.302
 1567SOL    HW2 5601   6.529   5.778   5.282
 1568SOL     OW 5602   0.441   6.956   0.264
 1568SOL    HW1 5603   0.500   6.899   0.320
 1568SOL    HW2 5604   0.353   6.910   0.250
 1569SOL     OW 5605   3.602   6.466   4.809
 1569SOL    HW1 5606   3.642   6.374   4.807
 1569SOL    HW2 5607   3.539   6.476   4.732
 1570SOL     OW 5608   3.450   2.091   1.566
 1570SOL    HW1 5609   3.539   2.093   1.611
 1570SOL    HW2 5610   3.441   2.008   1.511
 1571SOL     OW 5611   6.659   4.428   0.915
 1571SOL    HW1 5612   6.593   4.355   0.898
 1571SOL    HW2 5613   6.718   4.439   0.835
 1572SOL     OW 5614   1.419   6.346   2.048
 1572SOL    HW1 5615   1.428   6.260   2.098
 1572SOL    HW2 5616   1.489   6.410   2.080
 1573SOL     OW 5617   3.801   0.192   0.759
 1573SOL    HW1 5618   3.741   0.221   0.834
 1573SOL    HW2 5619   3.780   0.244   0.677
 1574SOL     OW 5620   6.176   3.029   2.350
 1574SOL    HW1 5621   6.274   3.010   2.357
 1574SOL    HW2 5622   6.142   3.060   2.438
 1575SOL     OW 5623   3.298   2.493   0.436
 1575SOL    HW1 5624   3.315   2.501   0.534
 1575SOL    HW2 5625   3.258   2.579   0.402
 1576SOL     OW 5626   6.548   5.941   3.863
 1576SOL    HW1 5627   6.460   5.944   3.815
 1576SOL    HW2 5628   6.536   5.973   3.957
 1577SOL     OW 5629   1.329   0.669   0.278
 1577SOL    HW1 5630   1.347   0.620   0.193
 1577SOL    HW2 5631   1.389   0.749   0.283
 1578SOL     OW 5632   5.872   5.436   4.491
 1578SOL    HW1 5633   5.827   5.374   4.427
 1578SOL    HW2 5634   5.849   5.410   4.585
 1579SOL     OW 5635   0.780   6.924   3.451
 1579SOL    HW1 5636   0.841   6.859   3.407
 1579SOL    HW2 5637   0.691   6.881   3.469
 1580SOL     OW 5638   3.399   3.857   5.785
 1580SOL    HW1 5639   3.305   3.830   5.809
 1580SOL    HW2 5640   3.461   3.781   5.802
 1581SOL     OW 5641   6.364   4.010   4.317
 1581SOL    HW1 5642   6.349   3.937   4.251
 1581SOL    HW2 5643   6.418   4.083   4.276
 1582SOL     OW 5644   6.086   5.333   4.382
 1582SOL    HW1 5645   6.115   5.266   4.451
 1582SOL    HW2 5646   6.017   5.393   4.421
 1583SOL     OW 5647   2.081   2.621   2.826
 1583SOL    HW1 5648   2.006   2.634   2.892
 1583SOL    HW2 5649   2.091   2.523   2.808
 1584SOL     OW 5650   2.089   0.555   6.496
 1584SOL    HW1 5651   2.177   0.507   6.495
 1584SOL    HW2 5652   2.015   0.489   6.490
 1585SOL     OW 5653   6.158   1.438   5.292
 1585SOL    HW1 5654   6.174   1.351   5.245
 1585SOL    HW2 5655   6.237   1.459   5.350
 1586SOL     OW 5656   3.801   4.003   3.099
 1586SOL    HW1 5657   3.799   3.950   3.184
 1586SOL    HW2 5658   3.766   4.095   3.117
 1587SOL     OW 5659   2.384   6.572   6.568
 1587SOL    HW1 5660   2.455   6.631   6.530
 1587SOL    HW2 5661   2.419   6.479   6.577
 1588SOL     OW 5662   6.112   3.935   1.380
 1588SOL    HW1 5663   6.070   3.850   1.411
 1588SOL    HW2 5664   6.059   4.012   1.415
 1589SOL     OW 5665   5.089   4.236   3.800
 1589SOL    HW1 5666   5.121   4.316   3.851
 1589SOL    HW2 5667   5.151   4.159   3.815
 1590SOL     OW 5668   1.817   0.621   5.841
 1590SOL    HW1 5669   1.906   0.591   5.808
 1590SOL    HW2 5670   1.792   0.708   5.797
 1591SOL     OW 5671   0.085   4.477   1.442
 1591SOL    HW1 5672   0.081   4.554   1.505
 1591SOL    HW2 5673   0.018   4.491   1.368
 1592SOL     OW 5674   2.922   3.608   3.397
 1592SOL    HW1 5675   2.944   3.512   3.414
 1592SOL    HW2 5676   2.925   3.626   3.299
 1593SOL     OW 5677   1.125   5.245   4.958
 1593SOL    HW1 5678   1.110   5.344   4.970
 1593SOL    HW2 5679   1.116   5.199   5.047
 1594SOL     OW 5680   0.308   5.003   3.220
 1594SOL    HW1 5681   0.241   4.959   3.160
 1594SOL    HW2 5682   0.289   4.979   3.315
 1595SOL     OW 5683   0.201   5.175   5.922
 1595SOL    HW1 5684   0.166   5.083   5.901
 1595SOL    HW2 5685   0.299   5.177   5.907
 1596SOL     OW 5686   3.074   4.980   6.948
 1596SOL    HW1 5687   3.005   5.033   6.997
 1596SOL    HW2 5688   3.085   4.891   6.993
 1597SOL     OW 5689   2.723   0.053   0.867
 1597SOL    HW1 5690   2.764   7.018   0.795
 1597SOL    HW2 5691   2.727   0.004   0.954
 1598SOL     OW 5692   0.135   5.460   1.460
 1598SOL    HW1 5693   0.217   5.414   1.493
 1598SOL    HW2 5694   0.055   5.424   1.507
 1599SOL     OW 5695   3.533   4.853   0.111
 1599SOL    HW1 5696   3.537   4.916   0.189
 1599SOL    HW2 5697   3.593   4.887   0.038
 1600SOL     OW 5698   3.282   1.268   5.257
 1600SOL    HW1 5699   3.292   1.173   5.288
 1600SOL    HW2 5700   3.373   1.310   5.250
 1601SOL     OW 5701   1.374   4.602   4.652
 1601SOL    HW1 5702   1.283   4.621   4.615
 1601SOL    HW2 5703   1.437   4.582   4.577
 1602SOL     OW 5704   0.298   5.210   2.801
 1602SOL    HW1 5705   0.212   5.185   2.757
 1602SOL    HW2 5706   0.374   5.197   2.737
 1603SOL     OW 5707   5.860   6.805   0.942
 1603SOL    HW1 5708   5.816   6.798   0.852
 1603SOL    HW2 5709   5.791   6.812   1.013
 1604SOL     OW 5710   0.494   5.416   5.139
 1604SOL    HW1 5711   0.491   5.502   5.189
 1604SOL    HW2 5712   0.587   5.378   5.143
 1605SOL     OW 5713   4.927   6.451   2.756
 1605SOL    HW1 5714   4.864   6.528   2.770
 1605SOL    HW2 5715   4.888   6.389   2.688
 1606SOL     OW 5716   4.678   0.203   6.073
 1606SOL    HW1 5717   4.653   0.196   5.976
 1606SOL    HW2 5718   4.718   0.116   6.102
 1607SOL     OW 5719   4.825   2.333   0.809
 1607SOL    HW1 5720   4.732   2.312   0.779
 1607SOL    HW2 5721   4.871   2.249   0.838
 1608SOL     OW 5722   2.252   0.102   0.698
 1608SOL    HW1 5723   2.304   0.070   0.777
 1608SOL    HW2 5724   2.314   0.140   0.630
 1609SOL     OW 5725   5.213   1.275   5.569
 1609SOL    HW1 5726   5.306   1.278   5.533
 1609SOL    HW2 5727   5.149   1.311   5.501
 1610SOL     OW 5728   5.581   6.199   4.298
 1610SOL    HW1 5729   5.545   6.291   4.281
 1610SOL    HW2 5730   5.509   6.142   4.338
 1611SOL     OW 5731   3.479   3.371   1.007
 1611SOL    HW1 5732   3.552   3.348   1.073
 1611SOL    HW2 5733   3.391   3.368   1.053
 1612SOL     OW 5734   3.337   1.580   4.486
 1612SOL    HW1 5735   3.288   1.501   4.448
 1612SOL    HW2 5736   3.431   1.580   4.451
 1613SOL     OW 5737   2.005   6.412   1.012
 1613SOL    HW1 5738   2.072   6.449   0.948
 1613SOL    HW2 5739   2.036   6.322   1.044
 1614SOL     OW 5740   0.316   2.960   6.519
 1614SOL    HW1 5741   0.367   2.999   6.596
 1614SOL    HW2 5742   0.219   2.982   6.529
 1615SOL     OW 5743   6.224   5.136   6.291
 1615SOL    HW1 5744   6.244   5.050   6.243
 1615SOL    HW2 5745   6.305   5.166   6.341
 1616SOL     OW 5746   2.231   1.804   5.771
 1616SOL    HW1 5747   2.166   1.768   5.839
 1616SOL    HW2 5748   2.186   1.874   5.715
 1617SOL     OW 5749   4.648   0.876   4.491
 1617SOL    HW1 5750   4.662   0.949   4.423
 1617SOL    HW2 5751   4.558   0.835   4.479
 1618SOL     OW 5752   5.747   2.434   1.034
 1618SOL    HW1 5753   5.775   2.428   0.939
 1618SOL    HW2 5754   5.819   2.479   1.088
 1619SOL     OW 5755   1.817   3.088   4.533
 1619SOL    HW1 5756   1.887   3.078   4.462
 1619SOL    HW2 5757   1.850   3.050   4.619
 1620SOL     OW 5758   4.174   5.749   1.571
 1620SOL    HW1 5759   4.178   5.847   1.551
 1620SOL    HW2 5760   4.266   5.712   1.579
 1621SOL     OW 5761   2.158   1.504   1.545
 1621SOL    HW1 5762   2.116   1.427   1.593
 1621SOL    HW2 5763   2.126   1.590   1.586
 1622SOL     OW 5764   2.084   2.205   4.659
 1622SOL    HW1 5765   2.087   2.220   4.560
 1622SOL    HW2 5766   2.167   2.241   4.700
 1623SOL     OW 5767   2.692   2.458   5.005
 1623SOL    HW1 5768   2.606   2.441   5.053
 1623SOL    HW2 5769   2.761   2.491   5.070
 1624SOL     OW 5770   2.431   0.262   0.564
 1624SOL    HW1 5771   2.395   0.330   0.627
 1624SOL    HW2 5772   2.453   0.306   0.476
 1625SOL     OW 5773   7.001   5.461   2.135
 1625SOL    HW1 5774   6.930   5.531   2.147
 1625SOL    HW2 5775   0.070   5.501   2.153
 1626SOL     OW 5776   1.848   2.932   6.041
 1626SOL    HW1 5777   1.904   2.875   5.981
 1626SOL    HW2 5778   1.826   3.018   5.995
 1627SOL     OW 5779   5.274   3.133   3.698
 1627SOL    HW1 5780   5.219   3.091   3.627
 1627SOL    HW2 5781   5.363   3.158   3.661
 1628SOL     OW 5782   2.868   3.001   0.539
 1628SOL    HW1 5783   2.948   3.048   0.576
 1628SOL    HW2 5784   2.857   3.024   0.442
 1629SOL     OW 5785   4.430   2.069   3.133
 1629SOL    HW1 5786   4.371   2.134   3.084
 1629SOL    HW2 5787   4.524   2.076   3.098
 1630SOL     OW 5788   0.439   4.797   4.593
 1630SOL    HW1 5789   0.501   4.744   4.535
 1630SOL    HW2 5790   0.354   4.814   4.543
 1631SOL     OW 5791   0.228   6.768   5.679
 1631SOL    HW1 5792   0.264   6.805   5.764
 1631SOL    HW2 5793   0.276   6.683   5.656
 1632SOL     OW 5794   5.842   0.203   1.734
 1632SOL    HW1 5795   5.846   0.298   1.767
 1632SOL    HW2 5796   5.930   0.179   1.694
 1633SOL     OW 5797   5.672   2.656   3.319
 1633SOL    HW1 5798   5.593   2.708   3.285
 1633SOL    HW2 5799   5.752   2.716   3.322
 1634SOL     OW 5800   3.447   0.833   0.067
 1634SOL    HW1 5801   3.480   0.844   6.994
 1634SOL    HW2 5802   3.460   0.919   0.116
 1635SOL     OW 5803   0.931   4.983   4.167
 1635SOL    HW1 5804   0.846   5.030   4.145
 1635SOL    HW2 5805   1.008   5.046   4.154
 1636SOL     OW 5806   2.789   6.673   1.166
 1636SOL    HW1 5807   2.860   6.643   1.229
 1636SOL    HW2 5808   2.795   6.619   1.081
 1637SOL     OW 5809   0.043   3.190   2.792
 1637SOL    HW1 5810   7.020   3.240   2.717
 1637SOL    HW2 5811   0.103   3.119   2.754
 1638SOL     OW 5812   1.678   2.996   5.308
 1638SOL    HW1 5813   1.755   2.932   5.306
 1638SOL    HW2 5814   1.680   3.049   5.392
 1639SOL     OW 5815   4.746   4.789   2.808
 1639SOL    HW1 5816   4.727   4.737   2.725
 1639SOL    HW2 5817   4.840   4.822   2.806
 1640SOL     OW 5818   6.248   0.116   1.125
 1640SOL    HW1 5819   6.250   0.214   1.143
 1640SOL    HW2 5820   6.159   0.091   1.085
 1641SOL     OW 5821   6.899   2.581   5.322
 1641SOL    HW1 5822   6.970   2.632   5.371
 1641SOL    HW2 5823   6.903   2.603   5.224
 1642SOL     OW 5824   0.123   2.031   1.675
 1642SOL    HW1 5825   0.086   2.119   1.645
 1642SOL    HW2 5826   0.200   2.047   1.738
 1643SOL     OW 5827   3.628   0.812   6.286
 1643SOL    HW1 5828   3.651   0.899   6.243
 1643SOL    HW2 5829   3.543   0.777   6.247
 1644SOL     OW 5830   3.331   0.838   1.303
 1644SOL    HW1 5831   3.282   0.919   1.270
 1644SOL    HW2 5832   3.321   0.831   1.402
 1645SOL     OW 5833   2.385   6.487   5.726
 1645SOL    HW1 5834   2.435   6.417   5.776
 1645SOL    HW2 5835   2.291   6.457   5.711
 1646SOL     OW 5836   0.813   3.479   0.899
 1646SOL    HW1 5837   0.756   3.400   0.919
 1646SOL    HW2 5838   0.829   3.484   0.800
 1647SOL     OW 5839   5.841   2.646   3.616
 1647SOL    HW1 5840   5.907   2.639   3.692
 1647SOL    HW2 5841   5.819   2.554   3.582
 1648SOL     OW 5842   4.614   0.172   2.599
 1648SOL    HW1 5843   4.554   0.145   2.524
 1648SOL    HW2 5844   4.562   0.176   2.684
 1649SOL     OW 5845   3.226   6.997   2.771
 1649SOL    HW1 5846   3.255   6.945   2.851
 1649SOL    HW2 5847   3.150   6.951   2.726
 1650SOL     OW 5848   3.126   6.708   4.151
 1650SOL    HW1 5849   3.116   6.795   4.198
 1650SOL    HW2 5850   3.141   6.635   4.219
 1651SOL     OW 5851   1.581   6.282   1.155
 1651SOL    HW1 5852   1.646   6.318   1.088
 1651SOL    HW2 5853   1.488   6.294   1.122
 1652SOL     OW 5854   2.991   2.766   1.631
 1652SOL    HW1 5855   2.924   2.695   1.654
 1652SOL    HW2 5856   2.992   2.781   1.533
 1653SOL     OW 5857   1.205   5.094   0.479
 1653SOL    HW1 5858   1.229   5.150   0.399
 1653SOL    HW2 5859   1.114   5.055   0.466
 1654SOL     OW 5860   0.413   2.342   3.617
 1654SOL    HW1 5861   0.375   2.401   3.688
 1654SOL    HW2 5862   0.449   2.398   3.543
 1655SOL     OW 5863   5.345   4.777   5.827
 1655SOL    HW1 5864   5.337   4.777   5.926
 1655SOL    HW2 5865   5.275   4.717   5.788
 1656SOL     OW 5866   0.557   4.204   3.446
 1656SOL    HW1 5867   0.491   4.170   3.379
 1656SOL    HW2 5868   0.586   4.296   3.421
 1657SOL     OW 5869   0.808   0.043   5.391
 1657SOL    HW1 5870   0.757   0.083   5.467
 1657SOL    HW2 5871   0.826   0.113   5.322
 1658SOL     OW 5872   6.460   5.896   2.588
 1658SOL    HW1 5873   6.386   5.847   2.634
 1658SOL    HW2 5874   6.427   5.932   2.501
 1659SOL     OW 5875   4.725   2.422   6.028
 1659SOL    HW1 5876   4.713   2.474   6.113
 1659SOL    HW2 5877   4.774   2.477   5.961
 1660SOL     OW 5878   1.848   6.015   3.202
 1660SOL    HW1 5879   1.945   6.039   3.196
 1660SOL    HW2 5880   1.805   6.066   3.277
 1661SOL     OW 5881   2.806   0.007   2.644
 1661SOL    HW1 5882   2.837   0.038   2.554
 1661SOL    HW2 5883   2.710   0.030   2.656
 1662SOL     OW 5884   0.056   0.180   3.517
 1662SOL    HW1 5885   0.118   0.252   3.487
 1662SOL    HW2 5886   0.094   0.091   3.493
 1663SOL     OW 5887   2.769   6.874   3.665
 1663SOL    HW1 5888   2.777   6.776   3.686
 1663SOL    HW2 5889   2.682   6.908   3.701
 1664SOL     OW 5890   2.580   5.853   4.217
 1664SOL    HW1 5891   2.490   5.858   4.260
 1664SOL    HW2 5892   2.649   5.836   4.288
 1665SOL     OW 5893   0.660   0.293   4.856
 1665SOL    HW1 5894   0.608   0.261   4.777
 1665SOL    HW2 5895   0.673   0.218   4.921
 1666SOL     OW 5896   5.672   3.097   6.531
 1666SOL    HW1 5897   5.628   3.107   6.442
 1666SOL    HW2 5898   5.603   3.073   6.599
 1667SOL     OW 5899   6.359   0.777   5.997
 1667SOL    HW1 5900   6.313   0.738   5.917
 1667SOL    HW2 5901   6.427   0.844   5.966
 1668SOL     OW 5902   2.926   0.736   5.027
 1668SOL    HW1 5903   2.918   0.788   4.943
 1668SOL    HW2 5904   2.919   0.798   5.106
 1669SOL     OW 5905   5.567   6.437   5.876
 1669SOL    HW1 5906   5.665   6.445   5.893
 1669SOL    HW2 5907   5.549   6.448   5.778
 1670SOL     OW 5908   5.980   4.036   5.913
 1670SOL    HW1 5909   6.060   4.023   5.855
 1670SOL    HW2 5910   5.903   4.068   5.857
 1671SOL     OW 5911   5.759   4.872   6.969
 1671SOL    HW1 5912   5.836   4.858   0.010
 1671SOL    HW2 5913   5.697   4.794   6.975
 1672SOL     OW 5914   2.574   5.253   2.230
 1672SOL    HW1 5915   2.505   5.268   2.302
 1672SOL    HW2 5916   2.664   5.244   2.272
 1673SOL     OW 5917   6.929   1.904   3.773
 1673SOL    HW1 5918   7.013   1.957   3.762
 1673SOL    HW2 5919   6.945   1.810   3.745
 1674SOL     OW 5920   1.858   5.020   6.621
 1674SOL    HW1 5921   1.917   4.992   6.545
 1674SOL    HW2 5922   1.766   5.036   6.587
 1675SOL     OW 5923   4.868   2.712   0.456
 1675SOL    HW1 5924   4.886   2.618   0.487
 1675SOL    HW2 5925   4.950   2.748   0.412
 1676SOL     OW 5926   2.300   0.877   3.515
 1676SOL    HW1 5927   2.200   0.885   3.520
 1676SOL    HW2 5928   2.333   0.825   3.594
 1677SOL     OW 5929   6.292   0.332   5.310
 1677SOL    HW1 5930   6.313   0.234   5.304
 1677SOL    HW2 5931   6.351   0.382   5.247
 1678SOL     OW 5932   4.536   0.054   1.187
 1678SOL    HW1 5933   4.486   6.990   1.201
 1678SOL    HW2 5934   4.617   0.056   1.246
 1679SOL     OW 5935   6.113   4.230   0.397
 1679SOL    HW1 5936   6.169   4.221   0.479
 1679SOL    HW2 5937   6.076   4.141   0.372
 1680SOL     OW 5938   1.106   2.290   5.089
 1680SOL    HW1 5939   1.026   2.311   5.033
 1680SOL    HW2 5940   1.110   2.353   5.166
 1681SOL     OW 5941   5.701   5.687   1.009
 1681SOL    HW1 5942   5.775   5.689   0.943
 1681SOL    HW2 5943   5.666   5.779   1.024
 1682SOL     OW 5944   6.676   3.471   5.344
 1682SOL    HW1 5945   6.601   3.527   5.309
 1682SOL    HW2 5946   6.668   3.462   5.443
 1683SOL     OW 5947   6.243   6.072   6.679
 1683SOL    HW1 5948   6.268   5.980   6.651
 1683SOL    HW2 5949   6.200   6.119   6.602
 1684SOL     OW 5950   0.630   5.745   4.619
 1684SOL    HW1 5951   0.728   5.742   4.597
 1684SOL    HW2 5952   0.584   5.668   4.575
 1685SOL     OW 5953   1.531   1.969   0.331
 1685SOL    HW1 5954   1.518   1.992   0.235
 1685SOL    HW2 5955   1.502   1.875   0.347
 1686SOL     OW 5956   1.992   6.045   6.626
 1686SOL    HW1 5957   1.928   5.968   6.626
 1686SOL    HW2 5958   2.082   6.014   6.598
 1687SOL     OW 5959   1.745   0.069   1.763
 1687SOL    HW1 5960   1.678   0.100   1.830
 1687SOL    HW2 5961   1.746   6.990   1.762
 1688SOL     OW 5962   0.081   1.604   4.101
 1688SOL    HW1 5963   0.072   1.548   4.183
 1688SOL    HW2 5964   0.036   1.693   4.115
 1689SOL     OW 5965   3.324   1.618   2.598
 1689SOL    HW1 5966   3.285   1.695   2.648
 1689SOL    HW2 5967   3.295   1.621   2.502
 1690SOL     OW 5968   0.453   2.031   0.867
 1690SOL    HW1 5969   0.408   1.945   0.842
 1690SOL    HW2 5970   0.394   2.108   0.844
 1691SOL     OW 5971   4.619   4.617   2.632
 1691SOL    HW1 5972   4.535   4.667   2.653
 1691SOL    HW2 5973   4.602   4.519   2.641
 1692SOL     OW 5974   1.452   0.565   3.407
 1692SOL    HW1 5975   1.408   0.633   3.465
 1692SOL    HW2 5976   1.542   0.543   3.443
 1693SOL     OW 5977   2.403   2.175   4.068
 1693SOL    HW1 5978   2.340   2.124   4.128
 1693SOL    HW2 5979   2.415   2.124   3.983
 1694SOL     OW 5980   4.694   6.251   5.649
 1694SOL    HW1 5981   4.710   6.181   5.719
 1694SOL    HW2 5982   4.648   6.209   5.571
 1695SOL     OW 5983   2.512   1.431   6.198
 1695SOL    HW1 5984   2.594   1.487   6.186
 1695SOL    HW2 5985   2.497   1.376   6.116
 1696SOL     OW 5986   3.043   5.406   1.545
 1696SOL    HW1 5987   3.054   5.311   1.575
 1696SOL    HW2 5988   3.102   5.423   1.465
 1697SOL     OW 5989   1.086   0.930   2.115
 1697SOL    HW1 5990   1.177   0.922   2.158
 1697SOL    HW2 5991   1.064   1.027   2.101
 1698SOL     OW 5992   5.483   1.615   0.719
 1698SOL    HW1 5993   5.504   1.687   0.785
 1698SOL    HW2 5994   5.564   1.595   0.664
 1699SOL     OW 5995   2.312   4.102   0.854
 1699SOL    HW1 5996   2.331   4.005   0.840
 1699SOL    HW2 5997   2.238   4.112   0.921
 1700SOL     OW 5998   6.709   2.841   4.440
 1700SOL    HW1 5999   6.665   2.920   4.482
 1700SOL    HW2 6000   6.705   2.763   4.503
 1701SOL     OW 6001   5.932   3.243   4.888
 1701SOL    HW1 6002   5.857   3.292   4.844
 1701SOL    HW2 6003   5.925   3.254   4.987
 1702SOL     OW 6004   4.963   3.043   1.830
 1702SOL    HW1 6005   4.906   3.069   1.752
 1702SOL    HW2 6006   4.921   3.078   1.914
 1703SOL     OW 6007   2.109   4.041   0.107
 1703SOL    HW1 6008   2.073   4.103   0.177
 1703SOL    HW2 6009   2.182   4.086   0.056
 1704SOL     OW 6010   0.868   1.106   2.005
 1704SOL    HW1 6011   0.884   1.094   2.103
 1704SOL    HW2 6012   0.815   1.029   1.970
 1705SOL     OW 6013   4.046   3.242   2.554
 1705SOL    HW1 6014   4.059   3.341   2.565
 1705SOL    HW2 6015   4.041   3.199   2.644
 1706SOL     OW 6016   2.701   0.347   6.874
 1706SOL    HW1 6017   2.603   0.364   6.890
 1706SOL    HW2 6018   2.755   0.394   6.944
 1707SOL     OW 6019   6.360   1.415   3.173
 1707SOL    HW1 6020   6.375   1.440   3.077
 1707SOL    HW2 6021   6.262   1.403   3.189
 1708SOL     OW 6022   0.394   4.666   2.242
 1708SOL    HW1 6023   0.406   4.653   2.144
 1708SOL    HW2 6024   0.484   4.671   2.286
 1709SOL     OW 6025   3.533   5.886   4.276
 1709SOL    HW1 6026   3.582   5.799   4.288
 1709SOL    HW2 6027   3.549   5.944   4.356
 1710SOL     OW 6028   0.485   5.914   4.166
 1710SOL    HW1 6029   0.472   6.009   4.194
 1710SOL    HW2 6030   0.485   5.909   4.066
 1711SOL     OW 6031   2.201   4.548   5.618
 1711SOL    HW1 6032   2.110   4.521   5.649
 1711SOL    HW2 6033   2.201   4.554   5.518
 1712SOL     OW 6034   1.392   4.793   0.837
 1712SOL    HW1 6035   1.338   4.872   0.808
 1712SOL    HW2 6036   1.471   4.824   0.889
 1713SOL     OW 6037   1.808   3.206   0.312
 1713SOL    HW1 6038   1.794   3.305   0.304
 1713SOL    HW2 6039   1.878   3.188   0.382
 1714SOL     OW 6040   3.697   1.823   1.092
 1714SOL    HW1 6041   3.638   1.853   1.018
 1714SOL    HW2 6042   3.744   1.902   1.132
 1715SOL     OW 6043   0.388   3.054   4.064
 1715SOL    HW1 6044   0.324   3.013   4.000
 1715SOL    HW2 6045   0.481   3.046   4.029
 1716SOL     OW 6046   0.126   6.841   6.859
 1716SOL    HW1 6047   0.210   6.804   6.820
 1716SOL    HW2 6048   0.075   6.890   6.788
 1717SOL     OW 6049   3.398   0.315   6.901
 1717SOL    HW1 6050   3.344   0.249   6.953
 1717SOL    HW2 6051   3.386   0.406   6.939
 1718SOL     OW 6052   1.334   4.950   5.562
 1718SOL    HW1 6053   1.253   4.906   5.525
 1718SOL    HW2 6054   1.359   4.906   5.649
 1719SOL     OW 6055   2.439   3.513   1.416
 1719SOL    HW1 6056   2.510   3.507   1.346
 1719SOL    HW2 6057   2.381   3.432   1.411
 1720SOL     OW 6058   6.558   1.267   2.006
 1720SOL    HW1 6059   6.559   1.327   1.927
 1720SOL    HW2 6060   6.647   1.223   2.016
 1721SOL     OW 6061   2.136   6.275   3.331
 1721SOL    HW1 6062   2.060   6.337   3.345
 1721SOL    HW2 6063   2.150   6.221   3.415
 1722SOL     OW 6064   5.633   6.800   1.706
 1722SOL    HW1 6065   5.541   6.777   1.739
 1722SOL    HW2 6066   5.670   6.724   1.653
 1723SOL     OW 6067   6.085   1.177   2.166
 1723SOL    HW1 6068   6.017   1.176   2.093
 1723SOL    HW2 6069   6.039   1.184   2.255
 1724SOL     OW 6070   5.007   0.594   0.204
 1724SOL    HW1 6071   5.075   0.604   0.278
 1724SOL    HW2 6072   5.050   0.550   0.125
 1725SOL     OW 6073   4.209   5.235   2.089
 1725SOL    HW1 6074   4.232   5.256   1.994
 1725SOL    HW2 6075   4.136   5.167   2.092
 1726SOL     OW 6076   0.218   4.953   4.489
 1726SOL    HW1 6077   0.207   5.041   4.536
 1726SOL    HW2 6078   0.185   4.879   4.548
 1727SOL     OW 6079   3.643   2.982   5.512
 1727SOL    HW1 6080   3.543   2.979   5.520
 1727SOL    HW2 6081   3.683   2.913   5.573
 1728SOL     OW 6082   4.620   4.538   3.420
 1728SOL    HW1 6083   4.695   4.604   3.416
 1728SOL    HW2 6084   4.623   4.479   3.339
 1729SOL     OW 6085   1.805   3.361   2.817
 1729SOL    HW1 6086   1.896   3.401   2.807
 1729SOL    HW2 6087   1.808   3.264   2.792
 1730SOL     OW 6088   5.631   2.430   4.373
 1730SOL    HW1 6089   5.705   2.449   4.437
 1730SOL    HW2 6090   5.593   2.339   4.391
 1731SOL     OW 6091   1.024   5.841   0.370
 1731SOL    HW1 6092   0.932   5.836   0.411
 1731SOL    HW2 6093   1.043   5.755   0.323
 1732SOL     OW 6094   0.293   4.903   6.682
 1732SOL    HW1 6095   0.329   4.832   6.621
 1732SOL    HW2 6096   0.317   4.881   6.777
 1733SOL     OW 6097   1.331   4.136   0.948
 1733SOL    HW1 6098   1.300   4.077   0.874
 1733SOL    HW2 6099   1.401   4.199   0.914
 1734SOL     OW 6100   4.754   2.835   1.451
 1734SOL    HW1 6101   4.775   2.918   1.504
 1734SOL    HW2 6102   4.691   2.858   1.377
 1735SOL     OW 6103   5.790   6.001   1.441
 1735SOL    HW1 6104   5.704   5.949   1.439
 1735SOL    HW2 6105   5.850   5.964   1.512
 1736SOL     OW 6106   3.098   3.858   0.856
 1736SOL    HW1 6107   3.023   3.837   0.919
 1736SOL    HW2 6108   3.064   3.916   0.781
 1737SOL     OW 6109   1.221   5.939   4.027
 1737SOL    HW1 6110   1.196   5.888   4.110
 1737SOL    HW2 6111   1.216   6.037   4.046
 1738SOL     OW 6112   0.909   1.869   1.231
 1738SOL    HW1 6113   0.810   1.884   1.227
 1738SOL    HW2 6114   0.931   1.815   1.312
 1739SOL     OW 6115   4.382   2.119   5.725
 1739SOL    HW1 6116   4.449   2.145   5.795
 1739SOL    HW2 6117   4.430   2.103   5.638
 1740SOL     OW 6118   1.008   1.005   5.794
 1740SOL    HW1 6119   1.005   1.007   5.894
 1740SOL    HW2 6120   0.965   1.087   5.758
 1741SOL     OW 6121   2.288   0.957   2.545
 1741SOL    HW1 6122   2.266   0.880   2.485
 1741SOL    HW2 6123   2.208   1.016   2.553
 1742SOL     OW 6124   6.121   6.300   4.426
 1742SOL    HW1 6125   6.057   6.241   4.475
 1742SOL    HW2 6126   6.174   6.246   4.361
 1743SOL     OW 6127   4.430   1.427   0.429
 1743SOL    HW1 6128   4.331   1.435   0.425
 1743SOL    HW2 6129   4.468   1.434   0.337
 1744SOL     OW 6130   3.051   0.385   1.669
 1744SOL    HW1 6131   3.055   0.285   1.672
 1744SOL    HW2 6132   2.965   0.416   1.709
 1745SOL     OW 6133   6.657   3.059   4.612
 1745SOL    HW1 6134   6.559   3.072   4.626
 1745SOL    HW2 6135   6.706   3.075   4.698
 1746SOL     OW 6136   2.753   0.731   5.871
 1746SOL    HW1 6137   2.832   0.789   5.892
 1746SOL    HW2 6138   2.712   0.699   5.956
 1747SOL     OW 6139   4.569   0.796   6.471
 1747SOL    HW1 6140   4.632   0.872   6.457
 1747SOL    HW2 6141   4.589   0.751   6.558
 1748SOL     OW 6142   6.174   1.987   1.809
 1748SOL    HW1 6143   6.147   1.948   1.897
 1748SOL    HW2 6144   6.131   1.934   1.735
 1749SOL     OW 6145   4.829   6.709   6.389
 1749SOL    HW1 6146   4.892   6.679   6.460
 1749SOL    HW2 6147   4.787   6.796   6.416
 1750SOL     OW 6148   4.951   0.495   3.665
 1750SOL    HW1 6149   4.867   0.444   3.643
 1750SOL    HW2 6150   4.988   0.535   3.582
 1751SOL     OW 6151   2.010   5.945   3.802
 1751SOL    HW1 6152   1.965   5.891   3.873
 1751SOL    HW2 6153   1.972   6.037   3.800
 1752SOL     OW 6154   6.616   2.462   0.215
 1752SOL    HW1 6155   6.605   2.363   0.217
 1752SOL    HW2 6156   6.538   2.505   0.259
 1753SOL     OW 6157   2.407   0.121   2.377
 1753SOL    HW1 6158   2.389   0.034   2.330
 1753SOL    HW2 6159   2.351   0.193   2.336
 1754SOL     OW 6160   3.921   2.581   1.292
 1754SOL    HW1 6161   3.890   2.490   1.317
 1754SOL    HW2 6162   3.842   2.640   1.276
 1755SOL     OW 6163   5.289   3.296   0.258
 1755SOL    HW1 6164   5.235   3.343   0.187
 1755SOL    HW2 6165   5.369   3.352   0.281
 1756SOL     OW 6166   5.937   5.676   4.567
 1756SOL    HW1 6167   5.915   5.677   4.665
 1756SOL    HW2 6168   5.924   5.584   4.531
 1757SOL     OW 6169   3.291   0.371   5.102
 1757SOL    HW1 6170   3.234   0.447   5.132
 1757SOL    HW2 6171   3.309   0.381   5.004
 1758SOL     OW 6172   2.447   1.115   3.542
 1758SOL    HW1 6173   2.500   1.142   3.462
 1758SOL    HW2 6174   2.382   1.044   3.517
 1759SOL     OW 6175   0.871   5.479   6.127
 1759SOL    HW1 6176   0.851   5.484   6.029
 1759SOL    HW2 6177   0.797   5.429   6.174
 1760SOL     OW 6178   5.645   0.897   2.338
 1760SOL    HW1 6179   5.727   0.894   2.396
 1760SOL    HW2 6180   5.565   0.871   2.393
 1761SOL     OW 6181   6.137   2.960   1.121
 1761SOL    HW1 6182   6.210   2.901   1.156
 1761SOL    HW2 6183   6.129   3.041   1.179
 1762SOL     OW 6184   5.769   2.247   0.437
 1762SOL    HW1 6185   5.688   2.229   0.494
 1762SOL    HW2 6186   5.767   2.187   0.357
 1763SOL     OW 6187   2.008   4.038   3.724
 1763SOL    HW1 6188   2.015   3.945   3.688
 1763SOL    HW2 6189   1.951   4.037   3.807
 1764SOL     OW 6190   6.222   2.896   4.379
 1764SOL    HW1 6191   6.242   2.801   4.354
 1764SOL    HW2 6192   6.138   2.900   4.432
 1765SOL     OW 6193   2.410   2.774   6.214
 1765SOL    HW1 6194   2.490   2.736   6.167
 1765SOL    HW2 6195   2.345   2.808   6.146
 1766SOL     OW 6196   6.125   3.434   5.546
 1766SOL    HW1 6197   6.199   3.369   5.564
 1766SOL    HW2 6198   6.110   3.490   5.627
 1767SOL     OW 6199   5.546   4.020   1.885
 1767SOL    HW1 6200   5.600   4.008   1.802
 1767SOL    HW2 6201   5.450   3.999   1.865
 1768SOL     OW 6202   5.903   6.340   4.119
 1768SOL    HW1 6203   5.930   6.378   4.208
 1768SOL    HW2 6204   5.966   6.372   4.048
 1769SOL     OW 6205   5.728   1.274   3.582
 1769SOL    HW1 6206   5.767   1.332   3.511
 1769SOL    HW2 6207   5.801   1.222   3.626
 1770SOL     OW 6208   3.138   5.488   4.783
 1770SOL    HW1 6209   3.110   5.584   4.794
 1770SOL    HW2 6210   3.237   5.482   4.779
 1771SOL     OW 6211   4.973   6.198   6.349
 1771SOL    HW1 6212   4.914   6.123   6.378
 1771SOL    HW2 6213   4.924   6.285   6.356
 1772SOL     OW 6214   3.455   6.479   2.594
 1772SOL    HW1 6215   3.390   6.513   2.662
 1772SOL    HW2 6216   3.404   6.446   2.514
 1773SOL     OW 6217   0.814   5.613   6.814
 1773SOL    HW1 6218   0.876   5.651   6.745
 1773SOL    HW2 6219   0.745   5.682   6.836
 1774SOL     OW 6220   3.392   4.900   1.993
 1774SOL    HW1 6221   3.439   4.822   1.952
 1774SOL    HW2 6222   3.381   4.972   1.925
 1775SOL     OW 6223   0.665   4.525   1.499
 1775SOL    HW1 6224   0.579   4.511   1.451
 1775SOL    HW2 6225   0.702   4.436   1.527
 1776SOL     OW 6226   3.469   5.853   4.712
 1776SOL    HW1 6227   3.533   5.862   4.636
 1776SOL    HW2 6228   3.375   5.854   4.678
 1777SOL     OW 6229   3.471   5.490   6.855
 1777SOL    HW1 6230   3.534   5.555   6.897
 1777SOL    HW2 6231   3.396   5.470   6.917
 1778SOL     OW 6232   6.480   3.965   5.519
 1778SOL    HW1 6233   6.446   3.943   5.427
 1778SOL    HW2 6234   6.529   3.886   5.556
 1779SOL     OW 6235   3.382   0.067   5.773
 1779SOL    HW1 6236   3.414   0.014   5.695
 1779SOL    HW2 6237   3.442   0.146   5.787
 1780SOL     OW 6238   3.105   3.444   6.573
 1780SOL    HW1 6239   3.017   3.491   6.566
 1780SOL    HW2 6240   3.089   3.347   6.593
 1781SOL     OW 6241   3.856   5.175   3.071
 1781SOL    HW1 6242   3.787   5.108   3.043
 1781SOL    HW2 6243   3.889   5.152   3.162
 1782SOL     OW 6244   3.600   1.926   4.222
 1782SOL    HW1 6245   3.531   1.988   4.259
 1782SOL    HW2 6246   3.652   1.973   4.150
 1783SOL     OW 6247   1.952   5.665   6.990
 1783SOL    HW1 6248   1.864   5.631   6.957
 1783SOL    HW2 6249   1.968   5.631   0.062
 1784SOL     OW 6250   3.383   6.694   5.509
 1784SOL    HW1 6251   3.441   6.677   5.429
 1784SOL    HW2 6252   3.354   6.607   5.548
 1785SOL     OW 6253   6.305   4.189   1.954
 1785SOL    HW1 6254   6.276   4.282   1.977
 1785SOL    HW2 6255   6.235   4.124   1.984
 1786SOL     OW 6256   3.704   2.711   0.931
 1786SOL    HW1 6257   3.707   2.645   0.856
 1786SOL    HW2 6258   3.691   2.663   1.018
 1787SOL     OW 6259   3.633   0.417   6.080
 1787SOL    HW1 6260   3.709   0.457   6.028
 1787SOL    HW2 6261   3.631   0.456   6.172
 1788SOL     OW 6262   1.897   4.570   5.717
 1788SOL    HW1 6263   1.971   4.562   5.783
 1788SOL    HW2 6264   1.867   4.479   5.689
 1789SOL     OW 6265   5.741   1.020   0.064
 1789SOL    HW1 6266   5.754   1.046   0.160
 1789SOL    HW2 6267   5.752   0.921   0.054
 1790SOL     OW 6268   3.734   0.146   3.427
 1790SOL    HW1 6269   3.749   0.185   3.336
 1790SOL    HW2 6270   3.641   0.166   3.456
 1791SOL     OW 6271   0.317   6.668   2.641
 1791SOL    HW1 6272   0.224   6.641   2.666
 1791SOL    HW2 6273   0.340   6.754   2.687
 1792SOL     OW 6274   1.129   3.511   5.822
 1792SOL    HW1 6275   1.050   3.523   5.763
 1792SOL    HW2 6276   1.113   3.436   5.885
 1793SOL     OW 6277   0.323   0.499   3.647
 1793SOL    HW1 6278   0.236   0.548   3.650
 1793SOL    HW2 6279   0.325   0.429   3.719
 1794SOL     OW 6280   4.599   6.162   6.130
 1794SOL    HW1 6281   4.553   6.151   6.218
 1794SOL    HW2 6282   4.675   6.097   6.123
 1795SOL     OW 6283   0.379   3.360   0.247
 1795SOL    HW1 6284   0.398   3.456   0.227
 1795SOL    HW2 6285   0.283   3.339   0.225
 1796SOL     OW 6286   3.421   0.407   6.623
 1796SOL    HW1 6287   3.403   0.371   6.715
 1796SOL    HW2 6288   3.518   0.398   6.603
 1797SOL     OW 6289   0.433   0.498   1.043
 1797SOL    HW1 6290   0.506   0.445   1.000
 1797SOL    HW2 6291   0.378   0.542   0.972
 1798SOL     OW 6292   5.959   2.518   3.309
 1798SOL    HW1 6293   5.934   2.611   3.336
 1798SOL    HW2 6294   6.035   2.521   3.245
 1799SOL     OW 6295   1.597   1.789   6.566
 1799SOL    HW1 6296   1.610   1.690   6.571
 1799SOL    HW2 6297   1.661   1.827   6.500
 1800SOL     OW 6298   4.020   5.466   2.118
 1800SOL    HW1 6299   4.072   5.523   2.180
 1800SOL    HW2 6300   4.082   5.415   2.058
 1801SOL     OW 6301   5.801   0.022   0.757
 1801SOL    HW1 6302   5.849   6.956   0.757
 1801SOL    HW2 6303   5.752   0.033   0.844
 1802SOL     OW 6304   5.248   5.444   4.063
 1802SOL    HW1 6305   5.280   5.522   4.117
 1802SOL    HW2 6306   5.199   5.477   3.982
 1803SOL     OW 6307   6.307   5.532   1.068
 1803SOL    HW1 6308   6.234   5.552   1.002
 1803SOL    HW2 6309   6.288   5.445   1.113
 1804SOL     OW 6310   3.342   3.290   5.460
 1804SOL    HW1 6311   3.244   3.304   5.476
 1804SOL    HW2 6312   3.392   3.372   5.489
 1805SOL     OW 6313   5.001   2.728   6.920
 1805SOL    HW1 6314   4.936   2.768   6.985
 1805SOL    HW2 6315   5.077   2.791   6.907
 1806SOL     OW 6316   0.916   6.907   0.867
 1806SOL    HW1 6317   0.939   6.810   0.854
 1806SOL    HW2 6318   0.896   6.949   0.779
 1807SOL     OW 6319   5.486   1.388   5.572
 1807SOL    HW1 6320   5.420   1.462   5.588
 1807SOL    HW2 6321   5.564   1.399   5.634
 1808SOL     OW 6322   1.581   4.849   3.964
 1808SOL    HW1 6323   1.560   4.774   4.027
 1808SOL    HW2 6324   1.626   4.812   3.882
 1809SOL     OW 6325   3.351   6.829   6.137
 1809SOL    HW1 6326   3.447   6.837   6.109
 1809SOL    HW2 6327   3.345   6.768   6.217
 1810SOL     OW 6328   3.306   5.954   2.671
 1810SOL    HW1 6329   3.365   6.032   2.695
 1810SOL    HW2 6330   3.274   5.910   2.755
 1811SOL     OW 6331   6.031   5.343   2.871
 1811SOL    HW1 6332   5.972   5.354   2.951
 1811SOL    HW2 6333   5.996   5.401   2.797
 1812SOL     OW 6334   4.068   5.436   6.244
 1812SOL    HW1 6335   4.084   5.340   6.268
 1812SOL    HW2 6336   4.131   5.463   6.171
 1813SOL     OW 6337   6.451   4.788   5.736
 1813SOL    HW1 6338   6.370   4.733   5.712
 1813SOL    HW2 6339   6.423   4.870   5.784
 1814SOL     OW 6340   4.861   6.829   1.982
 1814SOL    HW1 6341   4.911   6.743   1.990
 1814SOL    HW2 6342   4.920   6.905   2.010
 1815SOL     OW 6343   0.289   0.910   2.636
 1815SOL    HW1 6344   0.237   0.826   2.653
 1815SOL    HW2 6345   0.333   0.939   2.721
 1816SOL     OW 6346   0.649   4.399   0.000
 1816SOL    HW1 6347   0.713   4.380   0.074
 1816SOL    HW2 6348   0.612   4.491   0.011
 1817SOL     OW 6349   1.904   5.597   2.015
 1817SOL    HW1 6350   1.871   5.515   1.967
 1817SOL    HW2 6351   1.825   5.651   2.046
 1818SOL     OW 6352   2.414   0.831   3.215
 1818SOL    HW1 6353   2.499   0.875   3.185
 1818SOL    HW2 6354   2.417   0.815   3.313
 1819SOL     OW 6355   1.697   4.411   1.685
 1819SOL    HW1 6356   1.618   4.454   1.729
 1819SOL    HW2 6357   1.769   4.479   1.671
 1820SOL     OW 6358   5.494   6.909   2.735
 1820SOL    HW1 6359   5.427   6.902   2.809
 1820SOL    HW2 6360   5.541   6.997   2.741
 1821SOL     OW 6361   2.569   1.845   3.006
 1821SOL    HW1 6362   2.548   1.790   2.926
 1821SOL    HW2 6363   2.668   1.860   3.010
 1822SOL     OW 6364   3.450   3.286   1.413
 1822SOL    HW1 6365   3.457   3.382   1.441
 1822SOL    HW2 6366   3.372   3.243   1.458
 1823SOL     OW 6367   4.100   6.989   2.688
 1823SOL    HW1 6368   4.191   6.964   2.720
 1823SOL    HW2 6369   4.107   0.043   2.623
 1824SOL     OW 6370   5.390   2.579   1.797
 1824SOL    HW1 6371   5.439   2.638   1.733
 1824SOL    HW2 6372   5.336   2.636   1.860
 1825SOL     OW 6373   1.229   0.841   1.228
 1825SOL    HW1 6374   1.322   0.869   1.201
 1825SOL    HW2 6375   1.202   0.892   1.309
 1826SOL     OW 6376   3.187   6.322   6.632
 1826SOL    HW1 6377   3.175   6.320   6.533
 1826SOL    HW2 6378   3.229   6.237   6.662
 1827SOL     OW 6379   6.416   6.698   1.622
 1827SOL    HW1 6380   6.437   6.602   1.639
 1827SOL    HW2 6381   6.321   6.707   1.592
 1828SOL     OW 6382   1.810   2.029   0.446
 1828SOL    HW1 6383   1.721   2.031   0.402
 1828SOL    HW2 6384   1.860   1.947   0.419
 1829SOL     OW 6385   6.257   5.818   1.427
 1829SOL    HW1 6386   6.356   5.814   1.441
 1829SOL    HW2 6387   6.216   5.730   1.453
 1830SOL     OW 6388   5.263   6.163   3.681
 1830SOL    HW1 6389   5.326   6.231   3.645
 1830SOL    HW2 6390   5.233   6.190   3.772
 1831SOL     OW 6391   4.929   0.825   3.276
 1831SOL    HW1 6392   4.983   0.797   3.196
 1831SOL    HW2 6393   4.941   0.923   3.291
 1832SOL     OW 6394   5.465   2.701   0.267
 1832SOL    HW1 6395   5.445   2.656   0.354
 1832SOL    HW2 6396   5.517   2.639   0.208
 1833SOL     OW 6397   5.741   1.972   5.733
 1833SOL    HW1 6398   5.779   2.022   5.811
 1833SOL    HW2 6399   5.725   1.877   5.759
 1834SOL     OW 6400   2.891   3.539   0.962
 1834SOL    HW1 6401   2.983   3.535   0.922
 1834SOL    HW2 6402   2.847   3.625   0.938
 1835SOL     OW 6403   1.676   4.376   0.267
 1835SOL    HW1 6404   1.730   4.458   0.247
 1835SOL    HW2 6405   1.579   4.397   0.258
 1836SOL     OW 6406   0.676   6.026   0.619
 1836SOL    HW1 6407   0.634   5.978   0.696
 1836SOL    HW2 6408   0.749   6.087   0.653
 1837SOL     OW 6409   1.327   2.856   5.039
 1837SOL    HW1 6410   1.356   2.893   5.127
 1837SOL    HW2 6411   1.367   2.910   4.965
 1838SOL     OW 6412   0.074   2.782   4.215
 1838SOL    HW1 6413   0.136   2.726   4.161
 1838SOL    HW2 6414   7.002   2.748   4.205
 1839SOL     OW 6415   6.690   2.415   5.714
 1839SOL    HW1 6416   6.694   2.337   5.651
 1839SOL    HW2 6417   6.598   2.422   5.752
 1840SOL     OW 6418   1.245   4.995   0.747
 1840SOL    HW1 6419   1.188   5.046   0.811
 1840SOL    HW2 6420   1.257   5.049   0.663
 1841SOL     OW 6421   1.752   2.785   3.555
 1841SOL    HW1 6422   1.836   2.731   3.559
 1841SOL    HW2 6423   1.708   2.772   3.466
 1842SOL     OW 6424   1.048   4.614   6.971
 1842SOL    HW1 6425   1.015   4.613   0.044
 1842SOL    HW2 6426   1.075   4.522   6.944
 1843SOL     OW 6427   3.319   1.822   4.778
 1843SOL    HW1 6428   3.310   1.902   4.720
 1843SOL    HW2 6429   3.246   1.757   4.758
 1844SOL     OW 6430   5.195   3.536   3.849
 1844SOL    HW1 6431   5.101   3.550   3.820
 1844SOL    HW2 6432   5.212   3.585   3.935
 1845SOL     OW 6433   4.439   0.531   0.129
 1845SOL    HW1 6434   4.434   0.432   0.118
 1845SOL    HW2 6435   4.380   0.576   0.062
 1846SOL     OW 6436   3.108   1.392   5.426
 1846SOL    HW1 6437   3.164   1.355   5.352
 1846SOL    HW2 6438   3.071   1.481   5.398
 1847SOL     OW 6439   1.482   6.878   0.469
 1847SOL    HW1 6440   1.534   6.962   0.485
 1847SOL    HW2 6441   1.385   6.900   0.460
 1848SOL     OW 6442   3.293   6.625   2.292
 1848SOL    HW1 6443   3.286   6.529   2.320
 1848SOL    HW2 6444   3.224   6.645   2.223
 1849SOL     OW 6445   2.556   1.185   6.293
 1849SOL    HW1 6446   2.479   1.151   6.346
 1849SOL    HW2 6447   2.537   1.278   6.263
 1850SOL     OW 6448   5.737   1.590   1.813
 1850SOL    HW1 6449   5.829   1.561   1.839
 1850SOL    HW2 6450   5.726   1.688   1.834
 1851SOL     OW 6451   6.389   3.119   3.173
 1851SOL    HW1 6452   6.365   3.023   3.186
 1851SOL    HW2 6453   6.477   3.137   3.217
 1852SOL     OW 6454   5.271   3.172   6.823
 1852SOL    HW1 6455   5.276   3.217   6.734
 1852SOL    HW2 6456   5.359   3.178   6.869
 1853SOL     OW 6457   1.816   4.728   0.504
 1853SOL    HW1 6458   1.759   4.690   0.431
 1853SOL    HW2 6459   1.773   4.810   0.542
 1854SOL     OW 6460   3.222   5.859   3.926
 1854SOL    HW1 6461   3.283   5.798   3.978
 1854SOL    HW2 6462   3.129   5.852   3.963
 1855SOL     OW 6463   5.168   4.545   1.858
 1855SOL    HW1 6464   5.267   4.560   1.869
 1855SOL    HW2 6465   5.121   4.633   1.859
 1856SOL     OW 6466   4.880   2.508   5.753
 1856SOL    HW1 6467   4.957   2.477   5.698
 1856SOL    HW2 6468   4.803   2.529   5.694
 1857SOL     OW 6469   4.396   1.423   3.147
 1857SOL    HW1 6470   4.452   1.478   3.085
 1857SOL    HW2 6471   4.311   1.472   3.168
 1858SOL     OW 6472   4.981   4.291   3.477
 1858SOL    HW1 6473   4.992   4.371   3.536
 1858SOL    HW2 6474   4.884   4.268   3.470
 1859SOL     OW 6475   5.864   1.512   3.451
 1859SOL    HW1 6476   5.836   1.481   3.360
 1859SOL    HW2 6477   5.821   1.600   3.471
 1860SOL     OW 6478   4.445   1.701   4.961
 1860SOL    HW1 6479   4.375   1.698   5.032
 1860SOL    HW2 6480   4.426   1.778   4.899
 1861SOL     OW 6481   5.768   6.457   2.387
 1861SOL    HW1 6482   5.809   6.366   2.398
 1861SOL    HW2 6483   5.798   6.516   2.461
 1862SOL     OW 6484   1.938   1.774   0.463
 1862SOL    HW1 6485   1.993   1.789   0.545
 1862SOL    HW2 6486   1.883   1.690   0.475
 1863SOL     OW 6487   2.682   3.211   1.607
 1863SOL    HW1 6488   2.782   3.204   1.608
 1863SOL    HW2 6489   2.648   3.182   1.517
 1864SOL     OW 6490   0.982   6.558   4.024
 1864SOL    HW1 6491   1.011   6.476   4.073
 1864SOL    HW2 6492   0.882   6.561   4.020
 1865SOL     OW 6493   4.567   2.146   6.628
 1865SOL    HW1 6494   4.567   2.206   6.708
 1865SOL    HW2 6495   4.612   2.193   6.552
 1866SOL     OW 6496   5.078   5.364   2.770
 1866SOL    HW1 6497   5.081   5.464   2.768
 1866SOL    HW2 6498   5.104   5.331   2.860
 1867SOL     OW 6499   0.977   4.105   6.719
 1867SOL    HW1 6500   0.901   4.053   6.680
 1867SOL    HW2 6501   1.049   4.116   6.651
 1868SOL     OW 6502   5.741   3.978   4.978
 1868SOL    HW1 6503   5.680   3.912   5.023
 1868SOL    HW2 6504   5.818   3.929   4.938
 1869SOL     OW 6505   6.292   1.462   4.711
 1869SOL    HW1 6506   6.243   1.435   4.795
 1869SOL    HW2 6507   6.225   1.480   4.639
 1870SOL     OW 6508   2.105   4.704   4.302
 1870SOL    HW1 6509   2.061   4.775   4.247
 1870SOL    HW2 6510   2.144   4.746   4.384
 1871SOL     OW 6511   1.332   0.205   0.421
 1871SOL    HW1 6512   1.419   0.176   0.461
 1871SOL    HW2 6513   1.315   0.301   0.443
 1872SOL     OW 6514   2.510   4.897   0.338
 1872SOL    HW1 6515   2.596   4.896   0.390
 1872SOL    HW2 6516   2.435   4.928   0.397
 1873SOL     OW 6517   4.528   1.730   0.322
 1873SOL    HW1 6518   4.505   1.665   0.249
 1873SOL    HW2 6519   4.453   1.734   0.388
 1874SOL     OW 6520   0.934   3.122   2.764
 1874SOL    HW1 6521   0.900   3.160   2.678
 1874SOL    HW2 6522   0.891   3.169   2.841
 1875SOL     OW 6523   0.948   6.667   0.300
 1875SOL    HW1 6524   0.939   6.747   0.359
 1875SOL    HW2 6525   1.032   6.617   0.323
 1876SOL     OW 6526   2.141   6.773   4.612
 1876SOL    HW1 6527   2.085   6.842   4.567
 1876SOL    HW2 6528   2.113   6.765   4.708
 1877SOL     OW 6529   0.300   6.741   3.419
 1877SOL    HW1 6530   0.305   6.706   3.326
 1877SOL    HW2 6531   0.237   6.685   3.473
 1878SOL     OW 6532   5.820   2.631   5.891
 1878SOL    HW1 6533   5.918   2.612   5.887
 1878SOL    HW2 6534   5.784   2.644   5.799
 1879SOL     OW 6535   1.495   4.592   5.672
 1879SOL    HW1 6536   1.431   4.551   5.607
 1879SOL    HW2 6537   1.576   4.624   5.623
 1880SOL     OW 6538   6.092   0.351   5.489
 1880SOL    HW1 6539   6.137   0.419   5.547
 1880SOL    HW2 6540   6.155   0.323   5.416
 1881SOL     OW 6541   7.013   2.257   6.819
 1881SOL    HW1 6542   6.997   2.327   6.888
 1881SOL    HW2 6543   0.069   2.283   6.761
 1882SOL     OW 6544   0.923   5.668   6.355
 1882SOL    HW1 6545   0.866   5.595   6.318
 1882SOL    HW2 6546   1.003   5.680   6.296
 1883SOL     OW 6547   6.945   2.074   4.050
 1883SOL    HW1 6548   6.951   1.985   4.096
 1883SOL    HW2 6549   6.854   2.083   4.008
 1884SOL     OW 6550   6.918   2.966   1.222
 1884SOL    HW1 6551   6.889   2.872   1.234
 1884SOL    HW2 6552   6.861   3.027   1.277
 1885SOL     OW 6553   1.955   1.726   4.490
 1885SOL    HW1 6554   1.905   1.807   4.459
 1885SOL    HW2 6555   1.939   1.714   4.588
 1886SOL     OW 6556   1.292   6.853   3.218
 1886SOL    HW1 6557   1.310   6.775   3.277
 1886SOL    HW2 6558   1.309   6.938   3.269
 1887SOL     OW 6559   2.069   6.581   5.822
 1887SOL    HW1 6560   2.091   6.672   5.787
 1887SOL    HW2 6561   2.072   6.515   5.747
 1888SOL     OW 6562   2.578   1.012   2.885
 1888SOL    HW1 6563   2.643   0.955   2.835
 1888SOL    HW2 6564   2.578   1.104   2.845
 1889SOL     OW 6565   0.290   3.536   3.120
 1889SOL    HW1 6566   0.291   3.501   3.213
 1889SOL    HW2 6567   0.220   3.487   3.067
 1890SOL     OW 6568   1.003   5.470   4.019
 1890SOL    HW1 6569   1.025   5.483   4.115
 1890SOL    HW2 6570   0.945   5.390   4.008
 1891SOL     OW 6571   3.665   3.189   3.577
 1891SOL    HW1 6572   3.688   3.212   3.483
 1891SOL    HW2 6573   3.731   3.122   3.612
 1892SOL     OW 6574   0.889   0.665   2.727
 1892SOL    HW1 6575   0.902   0.724   2.808
 1892SOL    HW2 6576   0.808   0.694   2.677
 1893SOL     OW 6577   3.677   3.266   4.671
 1893SOL    HW1 6578   3.703   3.180   4.716
 1893SOL    HW2 6579   3.746   3.336   4.688
 1894SOL     OW 6580   3.057   3.137   4.153
 1894SOL    HW1 6581   3.049   3.050   4.201
 1894SOL    HW2 6582   3.153   3.167   4.153
 1895SOL     OW 6583   1.950   6.030   0.147
 1895SOL    HW1 6584   1.937   5.990   0.056
 1895SOL    HW2 6585   1.993   5.962   0.207
 1896SOL     OW 6586   5.432   2.764   1.109
 1896SOL    HW1 6587   5.500   2.751   1.182
 1896SOL    HW2 6588   5.472   2.819   1.036
 1897SOL     OW 6589   1.655   4.313   4.543
 1897SOL    HW1 6590   1.607   4.344   4.625
 1897SOL    HW2 6591   1.605   4.343   4.462
 1898SOL     OW 6592   1.541   6.623   3.384
 1898SOL    HW1 6593   1.535   6.719   3.412
 1898SOL    HW2 6594   1.614   6.578   3.436
 1899SOL     OW 6595   0.280   0.551   2.482
 1899SOL    HW1 6596   0.249   0.617   2.413
 1899SOL    HW2 6597   0.324   0.600   2.558
 1900SOL     OW 6598   2.448   0.172   0.156
 1900SOL    HW1 6599   2.395   0.149   0.238
 1900SOL    HW2 6600   2.427   0.106   0.084
 1901SOL     OW 6601   2.965   3.813   1.229
 1901SOL    HW1 6602   3.034   3.859   1.173
 1901SOL    HW2 6603   2.982   3.715   1.228
 1902SOL     OW 6604   1.111   7.017   4.205
 1902SOL    HW1 6605   1.081   0.090   4.188
 1902SOL    HW2 6606   1.067   6.956   4.140
 1903SOL     OW 6607   1.005   2.465   4.101
 1903SOL    HW1 6608   0.978   2.374   4.132
 1903SOL    HW2 6609   1.055   2.457   4.015
 1904SOL     OW 6610   6.089   5.651   1.663
 1904SOL    HW1 6611   6.052   5.588   1.731
 1904SOL    HW2 6612   6.107   5.601   1.578
 1905SOL     OW 6613   0.510   1.477   4.221
 1905SOL    HW1 6614   0.540   1.402   4.281
 1905SOL    HW2 6615   0.410   1.478   4.217
 1906SOL     OW 6616   1.574   0.054   5.038
 1906SOL    HW1 6617   1.637   0.065   5.114
 1906SOL    HW2 6618   1.539   0.143   5.009
 1907SOL     OW 6619   5.661   2.845   0.412
 1907SOL    HW1 6620   5.656   2.797   0.499
 1907SOL    HW2 6621   5.593   2.807   0.349
 1908SOL     OW 6622   3.019   1.247   1.153
 1908SOL    HW1 6623   3.042   1.209   1.243
 1908SOL    HW2 6624   3.082   1.211   1.084
 1909SOL     OW 6625   6.646   4.909   4.666
 1909SOL    HW1 6626   6.598   4.834   4.621
 1909SOL    HW2 6627   6.715   4.947   4.603
 1910SOL     OW 6628   0.673   6.071   5.495
 1910SOL    HW1 6629   0.684   6.049   5.398
 1910SOL    HW2 6630   0.612   6.005   5.538
 1911SOL     OW 6631   6.659   5.116   3.880
 1911SOL    HW1 6632   6.563   5.118   3.907
 1911SOL    HW2 6633   6.713   5.070   3.950
 1912SOL     OW 6634   3.372   5.101   1.795
 1912SOL    HW1 6635   3.409   5.170   1.732
 1912SOL    HW2 6636   3.309   5.042   1.746
 1913SOL     OW 6637   3.756   4.200   6.659
 1913SOL    HW1 6638   3.813   4.123   6.630
 1913SOL    HW2 6639   3.755   4.204   6.759
 1914SOL     OW 6640   2.897   4.561   6.595
 1914SOL    HW1 6641   2.938   4.647   6.626
 1914SOL    HW2 6642   2.965   4.487   6.601
 1915SOL     OW 6643   4.043   2.564   5.834
 1915SOL    HW1 6644   4.021   2.632   5.905
 1915SOL    HW2 6645   3.960   2.516   5.807
 1916SOL     OW 6646   4.009   0.932   2.451
 1916SOL    HW1 6647   3.937   0.943   2.520
 1916SOL    HW2 6648   4.053   1.020   2.434
 1917SOL     OW 6649   2.093   4.148   1.623
 1917SOL    HW1 6650   2.182   4.109   1.599
 1917SOL    HW2 6651   2.055   4.098   1.701
 1918SOL     OW 6652   5.702   2.229   3.935
 1918SOL    HW1 6653   5.627   2.166   3.953
 1918SOL    HW2 6654   5.692   2.311   3.993
 1919SOL     OW 6655   6.603   2.582   6.962
 1919SOL    HW1 6656   6.590   2.575   0.040
 1919SOL    HW2 6657   6.543   2.652   6.925
 1920SOL     OW 6658   4.620   2.948   1.232
 1920SOL    HW1 6659   4.575   2.937   1.143
 1920SOL    HW2 6660   4.719   2.935   1.221
 1921SOL     OW 6661   2.505   2.782   6.942
 1921SOL    HW1 6662   2.492   2.687   6.972
 1921SOL    HW2 6663   2.418   2.820   6.912
 1922SOL     OW 6664   3.165   3.021   2.842
 1922SOL    HW1 6665   3.157   3.037   2.940
 1922SOL    HW2 6666   3.200   2.929   2.826
 1923SOL     OW 6667   3.935   0.834   4.598
 1923SOL    HW1 6668   3.846   0.872   4.623
 1923SOL    HW2 6669   4.007   0.896   4.629
 1924SOL     OW 6670   4.452   1.255   6.758
 1924SOL    HW1 6671   4.378   1.192   6.734
 1924SOL    HW2 6672   4.501   1.219   6.837
 1925SOL     OW 6673   1.445   3.659   1.240
 1925SOL    HW1 6674   1.350   3.636   1.261
 1925SOL    HW2 6675   1.506   3.599   1.292
 1926SOL     OW 6676   3.957   0.373   1.318
 1926SOL    HW1 6677   4.016   0.454   1.326
 1926SOL    HW2 6678   4.006   0.294   1.353
 1927SOL     OW 6679   1.840   5.115   1.233
 1927SOL    HW1 6680   1.874   5.197   1.279
 1927SOL    HW2 6681   1.913   5.047   1.228
 1928SOL     OW 6682   5.145   4.483   3.224
 1928SOL    HW1 6683   5.065   4.422   3.230
 1928SOL    HW2 6684   5.161   4.507   3.128
 1929SOL     OW 6685   3.084   0.023   3.133
 1929SOL    HW1 6686   3.066   7.009   3.224
 1929SOL    HW2 6687   3.144   6.981   3.084
 1930SOL     OW 6688   4.114   3.423   0.164
 1930SOL    HW1 6689   4.041   3.485   0.134
 1930SOL    HW2 6690   4.194   3.433   0.104
 1931SOL     OW 6691   6.630   2.114   4.548
 1931SOL    HW1 6692   6.548   2.090   4.496
 1931SOL    HW2 6693   6.659   2.206   4.523
 1932SOL     OW 6694   4.536   2.190   2.209
 1932SOL    HW1 6695   4.560   2.285   2.229
 1932SOL    HW2 6696   4.618   2.139   2.184
 1933SOL     OW 6697   0.963   0.762   1.207
 1933SOL    HW1 6698   1.061   0.782   1.202
 1933SOL    HW2 6699   0.944   0.680   1.153
 1934SOL     OW 6700   0.030   0.612   6.575
 1934SOL    HW1 6701   6.978   0.672   6.545
 1934SOL    HW2 6702   0.003   0.517   6.562
 1935SOL     OW 6703   6.548   4.776   3.741
 1935SOL    HW1 6704   6.636   4.747   3.777
 1935SOL    HW2 6705   6.477   4.766   3.811
 1936SOL     OW 6706   4.678   2.949   6.024
 1936SOL    HW1 6707   4.687   2.874   5.959
 1936SOL    HW2 6708   4.769   2.980   6.052
 1937SOL     OW 6709   6.170   5.173   6.812
 1937SOL    HW1 6710   6.229   5.136   6.884
 1937SOL    HW2 6711   6.074   5.150   6.832
 1938SOL     OW 6712   6.766   2.832   6.807
 1938SOL    HW1 6713   6.739   2.928   6.818
 1938SOL    HW2 6714   6.700   2.786   6.748
 1939SOL     OW 6715   0.986   0.464   4.691
 1939SOL    HW1 6716   1.006   0.367   4.700
 1939SOL    HW2 6717   0.888   0.476   4.670
 1940SOL     OW 6718   0.034   5.229   0.659
 1940SOL    HW1 6719   0.049   5.176   0.742
 1940SOL    HW2 6720   6.993   5.305   0.679
 1941SOL     OW 6721   5.770   1.575   4.675
 1941SOL    HW1 6722   5.800   1.546   4.584
 1941SOL    HW2 6723   5.744   1.671   4.672
 1942SOL     OW 6724   6.525   4.385   1.893
 1942SOL    HW1 6725   6.590   4.334   1.949
 1942SOL    HW2 6726   6.437   4.388   1.939
 1943SOL     OW 6727   0.826   2.614   3.080
 1943SOL    HW1 6728   0.924   2.603   3.063
 1943SOL    HW2 6729   0.812   2.663   3.166
 1944SOL     OW 6730   0.610   3.370   3.624
 1944SOL    HW1 6731   0.631   3.339   3.531
 1944SOL    HW2 6732   0.520   3.414   3.624
 1945SOL     OW 6733   4.735   1.238   1.751
 1945SOL    HW1 6734   4.789   1.321   1.737
 1945SOL    HW2 6735   4.705   1.233   1.846
 1946SOL     OW 6736   6.600   6.325   0.867
 1946SOL    HW1 6737   6.555   6.253   0.815
 1946SOL    HW2 6738   6.699   6.319   0.853
 1947SOL     OW 6739   6.296   5.019   3.039
 1947SOL    HW1 6740   6.241   5.082   3.093
 1947SOL    HW2 6741   6.263   5.018   2.944
 1948SOL     OW 6742   5.262   3.274   3.961
 1948SOL    HW1 6743   5.252   3.216   3.881
 1948SOL    HW2 6744   5.251   3.370   3.934
 1949SOL     OW 6745   3.419   4.665   6.395
 1949SOL    HW1 6746   3.460   4.745   6.350
 1949SOL    HW2 6747   3.480   4.587   6.386
 1950SOL     OW 6748   3.766   3.862   3.320
 1950SOL    HW1 6749   3.790   3.884   3.415
 1950SOL    HW2 6750   3.670   3.834   3.316
 1951SOL     OW 6751   6.104   4.999   5.931
 1951SOL    HW1 6752   6.116   5.096   5.951
 1951SOL    HW2 6753   6.163   4.945   5.991
 1952SOL     OW 6754   6.040   5.741   0.043
 1952SOL    HW1 6755   5.980   5.821   0.046
 1952SOL    HW2 6756   6.070   5.725   6.970
 1953SOL     OW 6757   0.846   1.053   6.720
 1953SOL    HW1 6758   0.887   1.079   6.633
 1953SOL    HW2 6759   0.798   0.966   6.709
 1954SOL     OW 6760   4.841   6.727   1.566
 1954SOL    HW1 6761   4.840   6.822   1.598
 1954SOL    HW2 6762   4.829   6.666   1.644
 1955SOL     OW 6763   0.183   2.568   4.056
 1955SOL    HW1 6764   0.226   2.496   4.002
 1955SOL    HW2 6765   0.143   2.530   4.139
 1956SOL     OW 6766   5.546   0.699   1.874
 1956SOL    HW1 6767   5.560   0.751   1.958
 1956SOL    HW2 6768   5.548   0.762   1.796
 1957SOL     OW 6769   6.541   2.593   4.162
 1957SOL    HW1 6770   6.515   2.501   4.190
 1957SOL    HW2 6771   6.634   2.612   4.193
 1958SOL     OW 6772   3.981   1.746   0.539
 1958SOL    HW1 6773   4.028   1.672   0.587
 1958SOL    HW2 6774   4.028   1.832   0.556
 1959SOL     OW 6775   1.017   2.321   5.465
 1959SOL    HW1 6776   1.029   2.398   5.402
 1959SOL    HW2 6777   0.924   2.285   5.458
 1960SOL     OW 6778   5.696   4.269   3.999
 1960SOL    HW1 6779   5.732   4.195   3.943
 1960SOL    HW2 6780   5.596   4.264   4.001
 1961SOL     OW 6781   0.781   3.579   3.518
 1961SOL    HW1 6782   0.746   3.528   3.597
 1961SOL    HW2 6783   0.712   3.645   3.488
 1962SOL     OW 6784   0.847   0.391   2.755
 1962SOL    HW1 6785   0.852   0.486   2.723
 1962SOL    HW2 6786   0.832   0.389   2.854
 1963SOL     OW 6787   0.495   2.778   6.939
 1963SOL    HW1 6788   0.523   2.700   6.883
 1963SOL    HW2 6789   0.574   2.815   6.986
 1964SOL     OW 6790   5.616   3.441   0.680
 1964SOL    HW1 6791   5.672   3.522   0.668
 1964SOL    HW2 6792   5.660   3.363   0.635
 1965SOL     OW 6793   5.893   4.370   3.574
 1965SOL    HW1 6794   5.848   4.283   3.554
 1965SOL    HW2 6795   5.988   4.354   3.601
 1966SOL     OW 6796   1.104   4.337   6.866
 1966SOL    HW1 6797   1.065   4.248   6.841
 1966SOL    HW2 6798   1.186   4.323   6.921
 1967SOL     OW 6799   6.250   3.327   4.365
 1967SOL    HW1 6800   6.231   3.311   4.268
 1967SOL    HW2 6801   6.165   3.353   4.412
 1968SOL     OW 6802   2.703   1.576   5.256
 1968SOL    HW1 6803   2.682   1.564   5.352
 1968SOL    HW2 6804   2.770   1.650   5.246
 1969SOL     OW 6805   1.938   6.046   1.031
 1969SOL    HW1 6806   2.011   6.088   1.086
 1969SOL    HW2 6807   1.853   6.048   1.084
 1970SOL     OW 6808   5.491   5.507   4.424
 1970SOL    HW1 6809   5.559   5.439   4.396
 1970SOL    HW2 6810   5.537   5.583   4.470
 1971SOL     OW 6811   1.574   4.966   4.853
 1971SOL    HW1 6812   1.563   5.021   4.936
 1971SOL    HW2 6813   1.515   4.885   4.859
 1972SOL     OW 6814   6.053   2.069   2.768
 1972SOL    HW1 6815   6.043   1.971   2.750
 1972SOL    HW2 6816   6.102   2.082   2.855
 1973SOL     OW 6817   3.266   2.532   1.101
 1973SOL    HW1 6818   3.224   2.537   1.192
 1973SOL    HW2 6819   3.225   2.602   1.042
 1974SOL     OW 6820   2.335   6.412   4.692
 1974SOL    HW1 6821   2.410   6.458   4.740
 1974SOL    HW2 6822   2.301   6.471   4.619
 1975SOL     OW 6823   2.047   2.696   3.506
 1975SOL    HW1 6824   2.111   2.771   3.493
 1975SOL    HW2 6825   2.072   2.620   3.446
 1976SOL     OW 6826   0.949   0.715   5.298
 1976SOL    HW1 6827   0.976   0.734   5.393
 1976SOL    HW2 6828   0.852   0.735   5.286
 1977SOL     OW 6829   1.927   4.267   6.250
 1977SOL    HW1 6830   1.873   4.349   6.234
 1977SOL    HW2 6831   1.947   4.259   6.347
 1978SOL     OW 6832   2.822   0.082   2.379
 1978SOL    HW1 6833   2.853   0.150   2.313
 1978SOL    HW2 6834   2.786   0.002   2.330
 1979SOL     OW 6835   6.008   4.350   5.957
 1979SOL    HW1 6836   6.085   4.409   5.984
 1979SOL    HW2 6837   6.040   4.256   5.951
 1980SOL     OW 6838   3.421   0.765   0.960
 1980SOL    HW1 6839   3.461   0.728   1.043
 1980SOL    HW2 6840   3.384   0.691   0.904
 1981SOL     OW 6841   3.610   1.814   2.415
 1981SOL    HW1 6842   3.576   1.790   2.323
 1981SOL    HW2 6843   3.709   1.798   2.418
 1982SOL     OW 6844   1.051   2.845   5.893
 1982SOL    HW1 6845   0.967   2.885   5.855
 1982SOL    HW2 6846   1.045   2.846   5.993
 1983SOL     OW 6847   0.413   0.812   2.259
 1983SOL    HW1 6848   0.371   0.895   2.295
 1983SOL    HW2 6849   0.358   0.777   2.183
 1984SOL     OW 6850   4.579   3.394   5.742
 1984SOL    HW1 6851   4.564   3.303   5.781
 1984SOL    HW2 6852   4.581   3.462   5.815
 1985SOL     OW 6853   6.720   3.484   3.486
 1985SOL    HW1 6854   6.811   3.474   3.446
 1985SOL    HW2 6855   6.660   3.531   3.421
 1986SOL     OW 6856   3.002   3.568   2.412
 1986SOL    HW1 6857   2.971   3.473   2.409
 1986SOL    HW2 6858   3.081   3.575   2.473
 1987SOL     OW 6859   2.013   1.178   1.372
 1987SOL    HW1 6860   2.039   1.233   1.451
 1987SOL    HW2 6861   2.041   1.225   1.288
 1988SOL     OW 6862   0.766   1.720   1.793
 1988SOL    HW1 6863   0.764   1.633   1.744
 1988SOL    HW2 6864   0.673   1.757   1.800
 1989SOL     OW 6865   3.012   5.209   4.656
 1989SOL    HW1 6866   3.071   5.272   4.605
 1989SOL    HW2 6867   3.068   5.153   4.717
 1990SOL     OW 6868   4.129   0.539   0.009
 1990SOL    HW1 6869   4.119   0.546   6.931
 1990SOL    HW2 6870   4.062   0.474   0.045
 1991SOL     OW 6871   2.620   5.295   1.594
 1991SOL    HW1 6872   2.682   5.355   1.645
 1991SOL    HW2 6873   2.569   5.348   1.527
 1992SOL     OW 6874   0.983   6.530   2.694
 1992SOL    HW1 6875   0.981   6.493   2.786
 1992SOL    HW2 6876   1.061   6.493   2.644
 1993SOL     OW 6877   2.429   2.053   3.082
 1993SOL    HW1 6878   2.335   2.019   3.087
 1993SOL    HW2 6879   2.489   1.980   3.048
 1994SOL     OW 6880   3.931   2.567   0.576
 1994SOL    HW1 6881   3.941   2.531   0.483
 1994SOL    HW2 6882   3.847   2.530   0.617
 1995SOL     OW 6883   5.577   1.756   4.324
 1995SOL    HW1 6884   5.556   1.798   4.236
 1995SOL    HW2 6885   5.492   1.727   4.368
 1996SOL     OW 6886   4.720   0.722   0.997
 1996SOL    HW1 6887   4.657   0.686   0.928
 1996SOL    HW2 6888   4.798   0.765   0.952
 1997SOL     OW 6889   3.249   1.360   4.332
 1997SOL    HW1 6890   3.214   1.416   4.256
 1997SOL    HW2 6891   3.321   1.300   4.298
 1998SOL     OW 6892   2.247   3.958   1.837
 1998SOL    HW1 6893   2.275   3.971   1.742
 1998SOL    HW2 6894   2.208   4.043   1.873
 1999SOL     OW 6895   0.694   0.429   7.012
 1999SOL    HW1 6896   0.763   0.359   6.993
 1999SOL    HW2 6897   0.697   0.453   0.088
 2000SOL     OW 6898   4.222   4.382   5.694
 2000SOL    HW1 6899   4.221   4.363   5.792
 2000SOL    HW2 6900   4.163   4.318   5.646
 2001SOL     OW 6901   1.648   2.368   1.519
 2001SOL    HW1 6902   1.560   2.320   1.513
 2001SOL    HW2 6903   1.688   2.353   1.610
 2002SOL     OW 6904   6.958   5.610   0.675
 2002SOL    HW1 6905   6.898   5.531   0.673
 2002SOL    HW2 6906   6.906   5.691   0.701
 2003SOL     OW 6907   5.644   5.246   2.344
 2003SOL    HW1 6908   5.592   5.216   2.424
 2003SOL    HW2 6909   5.603   5.209   2.261
 2004SOL     OW 6910   3.550   6.780   3.179
 2004SOL    HW1 6911   3.618   6.820   3.117
 2004SOL    HW2 6912   3.591   6.703   3.228
 2005SOL     OW 6913   1.459   6.009   0.539
 2005SOL    HW1 6914   1.535   6.044   0.484
 2005SOL    HW2 6915   1.477   5.914   0.565
 2006SOL     OW 6916   5.608   6.530   2.163
 2006SOL    HW1 6917   5.650   6.501   2.248
 2006SOL    HW2 6918   5.594   6.629   2.165
 2007SOL     OW 6919   5.177   4.694   6.369
 2007SOL    HW1 6920   5.098   4.633   6.362
 2007SOL    HW2 6921   5.203   4.724   6.278
 2008SOL     OW 6922   2.082   3.352   3.001
 2008SOL    HW1 6923   2.124   3.275   2.954
 2008SOL    HW2 6924   2.016   3.319   3.068
 2009SOL     OW 6925   6.266   6.798   2.600
 2009SOL    HW1 6926   6.283   6.852   2.518
 2009SOL    HW2 6927   6.175   6.757   2.595
 2010SOL     OW 6928   6.903   1.904   2.003
 2010SOL    HW1 6929   6.810   1.912   1.967
 2010SOL    HW2 6930   6.962   1.860   1.935
 2011SOL     OW 6931   0.709   6.945   4.660
 2011SOL    HW1 6932   0.759   6.975   4.741
 2011SOL    HW2 6933   0.751   6.984   4.578
 2012SOL     OW 6934   0.665   2.880   1.474
 2012SOL    HW1 6935   0.567   2.898   1.467
 2012SOL    HW2 6936   0.699   2.909   1.563
 2013SOL     OW 6937   0.319   2.786   2.060
 2013SOL    HW1 6938   0.340   2.759   1.967
 2013SOL    HW2 6939   0.274   2.711   2.108
 2014SOL     OW 6940   4.108   0.999   4.699
 2014SOL    HW1 6941   4.206   0.987   4.689
 2014SOL    HW2 6942   4.087   1.093   4.725
 2015SOL     OW 6943   4.210   6.978   1.692
 2015SOL    HW1 6944   4.238   0.051   1.673
 2015SOL    HW2 6945   4.211   6.962   1.791
 2016SOL     OW 6946   2.034   0.636   4.393
 2016SOL    HW1 6947   2.048   0.552   4.340
 2016SOL    HW2 6948   2.083   0.629   4.480
 2017SOL     OW 6949   3.626   6.378   3.760
 2017SOL    HW1 6950   3.707   6.408   3.709
 2017SOL    HW2 6951   3.637   6.282   3.785
 2018SOL     OW 6952   1.166   0.709   4.104
 2018SOL    HW1 6953   1.199   0.616   4.122
 2018SOL    HW2 6954   1.243   0.767   4.079
 2019SOL     OW 6955   5.363   5.254   6.618
 2019SOL    HW1 6956   5.351   5.304   6.704
 2019SOL    HW2 6957   5.375   5.319   6.543
 2020SOL     OW 6958   1.953   6.795   0.022
 2020SOL    HW1 6959   1.928   6.712   0.070
 2020SOL    HW2 6960   2.048   6.788   7.011
 2021SOL     OW 6961   0.114   6.214   4.385
 2021SOL    HW1 6962   0.057   6.239   4.463
 2021SOL    HW2 6963   0.211   6.217   4.412
 2022SOL     OW 6964   2.067   3.408   4.007
 2022SOL    HW1 6965   2.123   3.395   4.089
 2022SOL    HW2 6966   2.107   3.481   3.951
 2023SOL     OW 6967   6.440   6.538   6.773
 2023SOL    HW1 6968   6.378   6.509   6.700
 2023SOL    HW2 6969   6.428   6.478   6.852
 2024SOL     OW 6970   0.303   5.658   4.077
 2024SOL    HW1 6971   0.306   5.558   4.083
 2024SOL    HW2 6972   0.369   5.697   4.140
 2025SOL     OW 6973   1.946   5.626   4.885
 2025SOL    HW1 6974   1.898   5.592   4.967
 2025SOL    HW2 6975   1.910   5.579   4.804
 2026SOL     OW 6976   6.865   0.464   6.071
 2026SOL    HW1 6977   6.939   0.476   6.137
 2026SOL    HW2 6978   6.873   0.375   6.027
 2027SOL     OW 6979   0.284   6.056   2.132
 2027SOL    HW1 6980   0.346   6.081   2.207
 2027SOL    HW2 6981   0.335   6.054   2.046
 2028SOL     OW 6982   3.130   5.033   4.840
 2028SOL    HW1 6983   3.129   4.971   4.761
 2028SOL    HW2 6984   3.095   4.985   4.920
 2029SOL     OW 6985   6.445   2.696   6.205
 2029SOL    HW1 6986   6.452   2.699   6.106
 2029SOL    HW2 6987   6.356   2.732   6.233
 2030SOL     OW 6988   2.513   6.755   2.363
 2030SOL    HW1 6989   2.537   6.660   2.384
 2030SOL    HW2 6990   2.427   6.757   2.311
 2031SOL     OW 6991   0.822   5.934   4.815
 2031SOL    HW1 6992   0.828   5.968   4.721
 2031SOL    HW2 6993   0.725   5.926   4.841
 2032SOL     OW 6994   2.321   2.913   5.810
 2032SOL    HW1 6995   2.282   2.902   5.901
 2032SOL    HW2 6996   2.369   2.829   5.784
 2033SOL     OW 6997   2.286   1.582   0.802
 2033SOL    HW1 6998   2.299   1.568   0.900
 2033SOL    HW2 6999   2.362   1.634   0.765
 2034SOL     OW 7000   0.786   4.619   5.314
 2034SOL    HW1 7001   0.741   4.569   5.387
 2034SOL    HW2 7002   0.731   4.613   5.231
 2035SOL     OW 7003   5.391   6.391   3.260
 2035SOL    HW1 7004   5.472   6.449   3.258
 2035SOL    HW2 7005   5.319   6.431   3.204
 2036SOL     OW 7006   0.377   4.797   6.407
 2036SOL    HW1 7007   0.295   4.806   6.351
 2036SOL    HW2 7008   0.404   4.701   6.411
 2037SOL     OW 7009   0.897   2.334   0.310
 2037SOL    HW1 7010   0.814   2.292   0.345
 2037SOL    HW2 7011   0.948   2.266   0.257
 2038SOL     OW 7012   0.881   0.982   6.064
 2038SOL    HW1 7013   0.907   0.996   6.160
 2038SOL    HW2 7014   0.798   0.928   6.059
 2039SOL     OW 7015   5.154   6.254   3.324
 2039SOL    HW1 7016   5.248   6.280   3.302
 2039SOL    HW2 7017   5.153   6.162   3.364
 2040SOL     OW 7018   2.396   2.225   6.857
 2040SOL    HW1 7019   2.313   2.280   6.851
 2040SOL    HW2 7020   2.476   2.284   6.866
 2041SOL     OW 7021   2.796   6.893   6.570
 2041SOL    HW1 7022   2.801   6.894   6.470
 2041SOL    HW2 7023   2.786   6.986   6.604
 2042SOL     OW 7024   5.930   0.852   5.968
 2042SOL    HW1 7025   5.935   0.808   6.058
 2042SOL    HW2 7026   5.835   0.859   5.939
 2043SOL     OW 7027   0.791   3.908   1.005
 2043SOL    HW1 7028   0.797   3.962   1.089
 2043SOL    HW2 7029   0.871   3.849   0.997
 2044SOL     OW 7030   4.106   0.630   1.382
 2044SOL    HW1 7031   4.201   0.651   1.358
 2044SOL    HW2 7032   4.044   0.680   1.322
 2045SOL     OW 7033   2.221   6.398   4.042
 2045SOL    HW1 7034   2.158   6.354   4.106
 2045SOL    HW2 7035   2.258   6.330   3.979
 2046SOL     OW 7036   0.551   3.236   5.429
 2046SOL    HW1 7037   0.460   3.217   5.394
 2046SOL    HW2 7038   0.614   3.164   5.400
 2047SOL     OW 7039   6.823   0.096   0.606
 2047SOL    HW1 7040   6.785   0.188   0.594
 2047SOL    HW2 7041   6.922   0.103   0.622
 2048SOL     OW 7042   2.181   1.595   3.820
 2048SOL    HW1 7043   2.238   1.675   3.802
 2048SOL    HW2 7044   2.085   1.617   3.801
 2049SOL     OW 7045   4.752   2.986   4.785
 2049SOL    HW1 7046   4.824   2.945   4.840
 2049SOL    HW2 7047   4.771   2.971   4.688
 2050SOL     OW 7048   0.380   0.821   3.501
 2050SOL    HW1 7049   0.386   0.921   3.504
 2050SOL    HW2 7050   0.322   0.789   3.577
 2051SOL     OW 7051   3.107   5.954   0.713
 2051SOL    HW1 7052   3.156   5.891   0.773
 2051SOL    HW2 7053   3.053   6.018   0.769
 2052SOL     OW 7054   1.022   4.012   0.482
 2052SOL    HW1 7055   0.985   4.015   0.575
 2052SOL    HW2 7056   1.078   3.930   0.472
 2053SOL     OW 7057   6.524   5.115   2.489
 2053SOL    HW1 7058   6.514   5.214   2.500
 2053SOL    HW2 7059   6.460   5.083   2.419
 2054SOL     OW 7060   3.257   4.122   3.051
 2054SOL    HW1 7061   3.247   4.034   3.003
 2054SOL    HW2 7062   3.230   4.196   2.990
 2055SOL     OW 7063   4.048   2.692   5.588
 2055SOL    HW1 7064   4.124   2.753   5.566
 2055SOL    HW2 7065   4.072   2.636   5.667
 2056SOL     OW 7066   3.072   5.125   1.596
 2056SOL    HW1 7067   3.134   5.048   1.612
 2056SOL    HW2 7068   3.001   5.126   1.666
 2057SOL     OW 7069   5.651   3.157   4.259
 2057SOL    HW1 7070   5.565   3.205   4.276
 2057SOL    HW2 7071   5.721   3.222   4.229
 2058SOL     OW 7072   6.216   6.497   3.689
 2058SOL    HW1 7073   6.278   6.575   3.691
 2058SOL    HW2 7074   6.266   6.413   3.712
 2059SOL     OW 7075   1.769   1.670   5.287
 2059SOL    HW1 7076   1.735   1.763   5.291
 2059SOL    HW2 7077   1.838   1.657   5.359
 2060SOL     OW 7078   1.974   2.843   6.853
 2060SOL    HW1 7079   1.894   2.783   6.851
 2060SOL    HW2 7080   1.945   2.937   6.837
 2061SOL     OW 7081   1.852   2.685   2.951
 2061SOL    HW1 7082   1.866   2.757   3.020
 2061SOL    HW2 7083   1.761   2.696   2.911
 2062SOL     OW 7084   6.124   5.018   4.290
 2062SOL    HW1 7085   6.099   5.066   4.206
 2062SOL    HW2 7086   6.044   4.971   4.327
 2063SOL     OW 7087   0.582   2.217   4.051
 2063SOL    HW1 7088   0.532   2.292   4.094
 2063SOL    HW2 7089   0.579   2.228   3.951
 2064SOL     OW 7090   0.731   3.422   3.860
 2064SOL    HW1 7091   0.681   3.407   3.775
 2064SOL    HW2 7092   0.699   3.358   3.930
 2065SOL     OW 7093   4.086   3.693   5.755
 2065SOL    HW1 7094   4.027   3.618   5.727
 2065SOL    HW2 7095   4.165   3.700   5.693
 2066SOL     OW 7096   1.293   3.410   5.098
 2066SOL    HW1 7097   1.376   3.449   5.138
 2066SOL    HW2 7098   1.271   3.324   5.144
 2067SOL     OW 7099   6.726   4.810   1.834
 2067SOL    HW1 7100   6.757   4.752   1.910
 2067SOL    HW2 7101   6.664   4.880   1.869
 2068SOL     OW 7102   4.374   0.635   4.164
 2068SOL    HW1 7103   4.398   0.574   4.240
 2068SOL    HW2 7104   4.449   0.698   4.148
 2069SOL     OW 7105   6.745   1.018   3.731
 2069SOL    HW1 7106   6.647   1.017   3.711
 2069SOL    HW2 7107   6.797   1.022   3.645
 2070SOL     OW 7108   1.418   5.048   1.385
 2070SOL    HW1 7109   1.412   4.956   1.424
 2070SOL    HW2 7110   1.478   5.104   1.442
 2071SOL     OW 7111   0.493   2.169   5.516
 2071SOL    HW1 7112   0.482   2.258   5.473
 2071SOL    HW2 7113   0.448   2.169   5.605
 2072SOL     OW 7114   5.573   4.431   5.408
 2072SOL    HW1 7115   5.475   4.417   5.394
 2072SOL    HW2 7116   5.590   4.453   5.504
 2073SOL     OW 7117   3.183   5.672   6.497
 2073SOL    HW1 7118   3.145   5.693   6.587
 2073SOL    HW2 7119   3.112   5.635   6.438
 2074SOL     OW 7120   2.388   4.853   5.795
 2074SOL    HW1 7121   2.418   4.759   5.779
 2074SOL    HW2 7122   2.294   4.853   5.827
 2075SOL     OW 7123   5.879   2.470   1.823
 2075SOL    HW1 7124   5.913   2.429   1.737
 2075SOL    HW2 7125   5.954   2.472   1.890
 2076SOL     OW 7126   6.631   6.369   4.509
 2076SOL    HW1 7127   6.650   6.333   4.417
 2076SOL    HW2 7128   6.555   6.434   4.504
 2077SOL     OW 7129   6.173   4.644   0.218
 2077SOL    HW1 7130   6.248   4.578   0.224
 2077SOL    HW2 7131   6.091   4.598   0.182
 2078SOL     OW 7132   0.730   3.362   5.740
 2078SOL    HW1 7133   0.692   3.421   5.669
 2078SOL    HW2 7134   0.785   3.290   5.698
 2079SOL     OW 7135   5.436   1.120   2.909
 2079SOL    HW1 7136   5.506   1.104   2.840
 2079SOL    HW2 7137   5.479   1.154   2.993
 2080SOL     OW 7138   2.572   3.587   6.446
 2080SOL    HW1 7139   2.541   3.673   6.406
 2080SOL    HW2 7140   2.495   3.539   6.486
 2081SOL     OW 7141   6.531   6.139   1.937
 2081SOL    HW1 7142   6.612   6.132   1.995
 2081SOL    HW2 7143   6.490   6.048   1.925
 2082SOL     OW 7144   7.013   5.166   4.225
 2082SOL    HW1 7145   7.013   5.265   4.241
 2082SOL    HW2 7146   0.029   5.119   4.305
 2083SOL     OW 7147   0.174   6.213   4.129
 2083SOL    HW1 7148   0.145   6.231   4.223
 2083SOL    HW2 7149   0.093   6.196   4.072
 2084SOL     OW 7150   6.774   1.486   1.239
 2084SOL    HW1 7151   6.823   1.549   1.178
 2084SOL    HW2 7152   6.792   1.512   1.334
 2085SOL     OW 7153   6.413   6.012   0.815
 2085SOL    HW1 7154   6.384   6.089   0.758
 2085SOL    HW2 7155   6.373   6.022   0.907
 2086SOL     OW 7156   4.820   0.694   6.887
 2086SOL    HW1 7157   4.890   0.623   6.878
 2086SOL    HW2 7158   4.856   0.771   6.940
 2087SOL     OW 7159   3.984   1.492   0.132
 2087SOL    HW1 7160   4.076   1.513   0.099
 2087SOL    HW2 7161   3.919   1.503   0.057
 2088SOL     OW 7162   0.505   4.591   5.941
 2088SOL    HW1 7163   0.603   4.581   5.957
 2088SOL    HW2 7164   0.489   4.620   5.846
 2089SOL     OW 7165   2.651   4.114   6.334
 2089SOL    HW1 7166   2.591   4.046   6.375
 2089SOL    HW2 7167   2.713   4.070   6.269
 2090SOL     OW 7168   5.201   2.909   6.859
 2090SOL    HW1 7169   5.266   2.841   6.828
 2090SOL    HW2 7170   5.241   3.000   6.850
 2091SOL     OW 7171   5.411   6.517   0.271
 2091SOL    HW1 7172   5.459   6.449   0.215
 2091SOL    HW2 7173   5.448   6.516   0.364
 2092SOL     OW 7174   3.241   3.415   2.262
 2092SOL    HW1 7175   3.201   3.472   2.334
 2092SOL    HW2 7176   3.340   3.414   2.272
 2093SOL     OW 7177   4.092   0.765   1.624
 2093SOL    HW1 7178   4.170   0.820   1.654
 2093SOL    HW2 7179   4.111   0.727   1.534
 2094SOL     OW 7180   5.446   2.036   0.289
 2094SOL    HW1 7181   5.488   1.995   0.208
 2094SOL    HW2 7182   5.439   2.135   0.276
 2095SOL     OW 7183   5.235   5.187   4.174
 2095SOL    HW1 7184   5.236   5.284   4.149
 2095SOL    HW2 7185   5.268   5.132   4.097
 2096SOL     OW 7186   3.747   0.067   2.262
 2096SOL    HW1 7187   3.741   0.166   2.269
 2096SOL    HW2 7188   3.676   0.025   2.319
 2097SOL     OW 7189   0.759   5.717   5.574
 2097SOL    HW1 7190   0.670   5.758   5.594
 2097SOL    HW2 7191   0.800   5.682   5.658
 2098SOL     OW 7192   2.978   6.871   3.923
 2098SOL    HW1 7193   2.976   6.792   3.861
 2098SOL    HW2 7194   3.024   6.845   4.008
 2099SOL     OW 7195   4.074   2.002   6.800
 2099SOL    HW1 7196   4.113   1.948   6.726
 2099SOL    HW2 7197   4.130   2.084   6.814
 2100SOL     OW 7198   4.650   0.384   0.383
 2100SOL    HW1 7199   4.565   0.437   0.386
 2100SOL    HW2 7200   4.714   0.420   0.452
 2101SOL     OW 7201   1.425   0.593   2.505
 2101SOL    HW1 7202   1.435   0.537   2.422
 2101SOL    HW2 7203   1.332   0.585   2.540
 2102SOL     OW 7204   4.059   2.688   1.068
 2102SOL    HW1 7205   4.037   2.630   0.989
 2102SOL    HW2 7206   4.004   2.659   1.147
 2103SOL     OW 7207   1.710   6.202   0.777
 2103SOL    HW1 7208   1.719   6.264   0.700
 2103SOL    HW2 7209   1.747   6.112   0.752
 2104SOL     OW 7210   1.835   3.755   3.329
 2104SOL    HW1 7211   1.812   3.730   3.423
 2104SOL    HW2 7212   1.916   3.813   3.330
 2105SOL     OW 7213   5.657   0.373   4.980
 2105SOL    HW1 7214   5.689   0.324   4.899
 2105SOL    HW2 7215   5.730   0.377   5.048
 2106SOL     OW 7216   4.149   3.059   1.219
 2106SOL    HW1 7217   4.127   3.014   1.133
 2106SOL    HW2 7218   4.174   2.990   1.287
 2107SOL     OW 7219   5.077   4.847   4.717
 2107SOL    HW1 7220   5.028   4.763   4.739
 2107SOL    HW2 7221   5.080   4.906   4.797
 2108SOL     OW 7222   5.107   6.973   5.346
 2108SOL    HW1 7223   5.120   6.946   5.441
 2108SOL    HW2 7224   5.012   7.003   5.332
 2109SOL     OW 7225   2.486   6.107   1.947
 2109SOL    HW1 7226   2.509   6.056   2.029
 2109SOL    HW2 7227   2.531   6.066   1.868
 2110SOL     OW 7228   3.587   5.996   6.972
 2110SOL    HW1 7229   3.676   5.959   6.998
 2110SOL    HW2 7230   3.579   6.089   7.008
 2111SOL     OW 7231   1.338   2.437   6.076
 2111SOL    HW1 7232   1.315   2.503   6.004
 2111SOL    HW2 7233   1.387   2.483   6.149
 2112SOL     OW 7234   0.990   0.184   6.915
 2112SOL    HW1 7235   1.077   0.197   6.869
 2112SOL    HW2 7236   1.003   0.126   6.996
 2113SOL     OW 7237   6.557   1.678   5.219
 2113SOL    HW1 7238   6.493   1.651   5.147
 2113SOL    HW2 7239   6.589   1.597   5.267
 2114SOL     OW 7240   2.016   1.034   5.715
 2114SOL    HW1 7241   1.926   1.075   5.728
 2114SOL    HW2 7242   2.006   0.945   5.670
 2115SOL     OW 7243   6.589   5.682   3.252
 2115SOL    HW1 7244   6.497   5.681   3.213
 2115SOL    HW2 7245   6.591   5.746   3.329
 2116SOL     OW 7246   1.441   1.641   6.988
 2116SOL    HW1 7247   1.486   1.553   7.001
 2116SOL    HW2 7248   1.412   1.651   6.893
 2117SOL     OW 7249   6.474   2.382   2.690
 2117SOL    HW1 7250   6.574   2.376   2.696
 2117SOL    HW2 7251   6.436   2.290   2.683
 2118SOL     OW 7252   0.109   2.143   2.698
 2118SOL    HW1 7253   0.028   2.090   2.671
 2118SOL    HW2 7254   0.165   2.088   2.760
 2119SOL     OW 7255   0.187   2.624   0.446
 2119SOL    HW1 7256   0.230   2.707   0.411
 2119SOL    HW2 7257   0.092   2.643   0.469
 2120SOL     OW 7258   5.499   1.899   0.792
 2120SOL    HW1 7259   5.513   1.990   0.830
 2120SOL    HW2 7260   5.514   1.902   0.693
 2121SOL     OW 7261   2.128   6.695   1.270
 2121SOL    HW1 7262   2.059   6.660   1.206
 2121SOL    HW2 7263   2.114   6.792   1.285
 2122SOL     OW 7264   6.178   0.593   4.369
 2122SOL    HW1 7265   6.190   0.501   4.408
 2122SOL    HW2 7266   6.251   0.652   4.403
 2123SOL     OW 7267   1.140   5.088   3.062
 2123SOL    HW1 7268   1.236   5.065   3.053
 2123SOL    HW2 7269   1.093   5.070   2.975
 2124SOL     OW 7270   4.677   3.201   6.162
 2124SOL    HW1 7271   4.674   3.101   6.169
 2124SOL    HW2 7272   4.591   3.239   6.197
 2125SOL     OW 7273   1.666   5.609   4.106
 2125SOL    HW1 7274   1.678   5.622   4.204
 2125SOL    HW2 7275   1.588   5.662   4.074
 2126SOL     OW 7276   2.700   3.449   0.655
 2126SOL    HW1 7277   2.706   3.385   0.578
 2126SOL    HW2 7278   2.777   3.512   0.652
 2127SOL     OW 7279   1.528   3.202   4.157
 2127SOL    HW1 7280   1.500   3.109   4.133
 2127SOL    HW2 7281   1.605   3.199   4.221
 2128SOL     OW 7282   5.261   3.154   2.399
 2128SOL    HW1 7283   5.235   3.196   2.486
 2128SOL    HW2 7284   5.285   3.058   2.414
 2129SOL     OW 7285   4.735   4.665   4.257
 2129SOL    HW1 7286   4.667   4.592   4.266
 2129SOL    HW2 7287   4.797   4.644   4.182
 2130SOL     OW 7288   2.238   0.466   1.623
 2130SOL    HW1 7289   2.185   0.386   1.653
 2130SOL    HW2 7290   2.182   0.523   1.563
 2131SOL     OW 7291   5.695   0.583   6.148
 2131SOL    HW1 7292   5.725   0.597   6.243
 2131SOL    HW2 7293   5.604   0.542   6.148
 2132SOL     OW 7294   2.707   2.663   0.362
 2132SOL    HW1 7295   2.608   2.655   0.372
 2132SOL    HW2 7296   2.730   2.748   0.315
 2133SOL     OW 7297   3.506   2.247   1.240
 2133SOL    HW1 7298   3.477   2.341   1.255
 2133SOL    HW2 7299   3.430   2.195   1.201
 2134SOL     OW 7300   1.915   6.312   5.172
 2134SOL    HW1 7301   1.946   6.370   5.247
 2134SOL    HW2 7302   1.871   6.230   5.209
 2135SOL     OW 7303   1.198   6.235   4.014
 2135SOL    HW1 7304   1.142   6.269   4.089
 2135SOL    HW2 7305   1.138   6.203   3.940
 2136SOL     OW 7306   1.631   4.742   3.704
 2136SOL    HW1 7307   1.555   4.683   3.676
 2136SOL    HW2 7308   1.707   4.733   3.640
 2137SOL     OW 7309   0.815   1.082   4.737
 2137SOL    HW1 7310   0.729   1.096   4.785
 2137SOL    HW2 7311   0.879   1.156   4.760
 2138SOL     OW 7312   1.247   2.649   5.929
 2138SOL    HW1 7313   1.333   2.700   5.928
 2138SOL    HW2 7314   1.173   2.706   5.895
 2139SOL     OW 7315   3.036   6.868   4.543
 2139SOL    HW1 7316   2.995   6.880   4.634
 2139SOL    HW2 7317   3.106   6.798   4.547
 2140SOL     OW 7318   1.570   6.022   3.609
 2140SOL    HW1 7319   1.620   6.008   3.694
 2140SOL    HW2 7320   1.618   6.089   3.552
 2141SOL     OW 7321   6.558   1.994   6.441
 2141SOL    HW1 7322   6.574   1.910   6.494
 2141SOL    HW2 7323   6.641   2.019   6.392
 2142SOL     OW 7324   3.229   1.223   3.687
 2142SOL    HW1 7325   3.269   1.132   3.681
 2142SOL    HW2 7326   3.141   1.218   3.735
 2143SOL     OW 7327   3.904   6.441   0.123
 2143SOL    HW1 7328   3.905   6.344   0.100
 2143SOL    HW2 7329   3.873   6.493   0.043
 2144SOL     OW 7330   1.092   0.656   1.761
 2144SOL    HW1 7331   1.080   0.598   1.680
 2144SOL    HW2 7332   1.186   0.648   1.794
 2145SOL     OW 7333   3.116   5.601   2.492
 2145SOL    HW1 7334   3.076   5.510   2.504
 2145SOL    HW2 7335   3.084   5.662   2.564
 2146SOL     OW 7336   2.627   2.035   0.844
 2146SOL    HW1 7337   2.540   2.072   0.810
 2146SOL    HW2 7338   2.699   2.055   0.778
 2147SOL     OW 7339   0.068   0.996   5.161
 2147SOL    HW1 7340   0.138   0.928   5.141
 2147SOL    HW2 7341   0.061   1.007   5.260
 2148SOL     OW 7342   5.371   3.743   4.107
 2148SOL    HW1 7343   5.286   3.702   4.141
 2148SOL    HW2 7344   5.376   3.839   4.136
 2149SOL     OW 7345   2.864   0.197   3.099
 2149SOL    HW1 7346   2.932   0.125   3.087
 2149SOL    HW2 7347   2.829   0.224   3.009
 2150SOL     OW 7348   4.070   0.343   3.406
 2150SOL    HW1 7349   4.048   0.429   3.452
 2150SOL    HW2 7350   3.991   0.313   3.352
 2151SOL     OW 7351   3.775   4.084   5.507
 2151SOL    HW1 7352   3.735   4.106   5.419
 2151SOL    HW2 7353   3.724   4.131   5.579
 2152SOL     OW 7354   6.682   6.697   2.410
 2152SOL    HW1 7355   6.747   6.772   2.405
 2152SOL    HW2 7356   6.664   6.661   2.319
 2153SOL     OW 7357   4.882   1.729   3.145
 2153SOL    HW1 7358   4.830   1.744   3.230
 2153SOL    HW2 7359   4.933   1.812   3.123
 2154SOL     OW 7360   4.199   6.335   5.339
 2154SOL    HW1 7361   4.162   6.382   5.419
 2154SOL    HW2 7362   4.296   6.359   5.328
 2155SOL     OW 7363   6.341   4.145   0.047
 2155SOL    HW1 7364   6.420   4.102   0.091
 2155SOL    HW2 7365   6.319   4.096   6.984
 2156SOL     OW 7366   0.030   0.316   1.289
 2156SOL    HW1 7367   0.038   0.268   1.376
 2156SOL    HW2 7368   0.074   0.263   1.217
 2157SOL     OW 7369   6.325   0.858   4.109
 2157SOL    HW1 7370   6.227   0.848   4.126
 2157SOL    HW2 7371   6.376   0.816   4.184
 2158SOL     OW 7372   4.958   0.192   3.528
 2158SOL    HW1 7373   4.866   0.182   3.491
 2158SOL    HW2 7374   5.025   0.165   3.458
 2159SOL     OW 7375   2.329   0.372   5.332
 2159SOL    HW1 7376   2.366   0.358   5.240
 2159SOL    HW2 7377   2.284   0.461   5.337
 2160SOL     OW 7378   2.894   2.492   0.739
 2160SOL    HW1 7379   2.977   2.438   0.751
 2160SOL    HW2 7380   2.845   2.461   0.658
 2161SOL     OW 7381   5.045   2.083   3.420
 2161SOL    HW1 7382   4.976   2.134   3.472
 2161SOL    HW2 7383   5.113   2.146   3.384
 2162SOL     OW 7384   1.560   0.983   0.811
 2162SOL    HW1 7385   1.655   0.961   0.831
 2162SOL    HW2 7386   1.556   1.054   0.740
 2163SOL     OW 7387   2.287   1.730   1.390
 2163SOL    HW1 7388   2.200   1.688   1.365
 2163SOL    HW2 7389   2.317   1.791   1.316
 2164SOL     OW 7390   6.776   6.749   1.170
 2164SOL    HW1 7391   6.805   6.754   1.074
 2164SOL    HW2 7392   6.676   6.740   1.174
 2165SOL     OW 7393   2.986   0.521   2.110
 2165SOL    HW1 7394   3.082   0.543   2.130
 2165SOL    HW2 7395   2.958   0.570   2.027
 2166SOL     OW 7396   6.092   2.710   5.747
 2166SOL    HW1 7397   6.070   2.792   5.801
 2166SOL    HW2 7398   6.138   2.737   5.663
 2167SOL     OW 7399   2.805   1.092   1.480
 2167SOL    HW1 7400   2.740   1.028   1.439
 2167SOL    HW2 7401   2.764   1.183   1.486
 2168SOL     OW 7402   5.888   6.625   4.776
 2168SOL    HW1 7403   5.891   6.613   4.875
 2168SOL    HW2 7404   5.792   6.627   4.746
 2169SOL     OW 7405   6.165   1.637   5.993
 2169SOL    HW1 7406   6.246   1.584   5.968
 2169SOL    HW2 7407   6.101   1.639   5.917
 2170SOL     OW 7408   5.415   4.355   4.518
 2170SOL    HW1 7409   5.323   4.333   4.552
 2170SOL    HW2 7410   5.412   4.441   4.467
 2171SOL     OW 7411   0.069   3.454   0.332
 2171SOL    HW1 7412   0.010   3.529   0.303
 2171SOL    HW2 7413   0.098   3.401   0.252
 2172SOL     OW 7414   2.490   0.323   2.022
 2172SOL    HW1 7415   2.570   0.298   2.077
 2172SOL    HW2 7416   2.518   0.383   1.947
 2173SOL     OW 7417   4.454   2.200   4.809
 2173SOL    HW1 7418   4.501   2.288   4.797
 2173SOL    HW2 7419   4.495   2.151   4.886
 2174SOL     OW 7420   1.531   5.589   4.794
 2174SOL    HW1 7421   1.567   5.680   4.775
 2174SOL    HW2 7422   1.485   5.590   4.883
 2175SOL     OW 7423   1.933   5.911   6.026
 2175SOL    HW1 7424   1.995   5.834   6.044
 2175SOL    HW2 7425   1.855   5.906   6.089
 2176SOL     OW 7426   1.731   2.757   2.442
 2176SOL    HW1 7427   1.822   2.799   2.449
 2176SOL    HW2 7428   1.733   2.686   2.371
 2177SOL     OW 7429   0.408   2.131   1.580
 2177SOL    HW1 7430   0.493   2.184   1.587
 2177SOL    HW2 7431   0.376   2.107   1.672
 2178SOL     OW 7432   6.601   6.317   1.163
 2178SOL    HW1 7433   6.611   6.284   1.069
 2178SOL    HW2 7434   6.688   6.357   1.193
 2179SOL     OW 7435   1.460   3.705   4.107
 2179SOL    HW1 7436   1.394   3.668   4.172
 2179SOL    HW2 7437   1.522   3.631   4.078
 2180SOL     OW 7438   3.613   2.934   1.490
 2180SOL    HW1 7439   3.672   3.000   1.537
 2180SOL    HW2 7440   3.565   2.877   1.557
 2181SOL     OW 7441   3.572   6.677   1.538
 2181SOL    HW1 7442   3.632   6.757   1.531
 2181SOL    HW2 7443   3.512   6.674   1.458
 2182SOL     OW 7444   5.162   2.080   1.029
 2182SOL    HW1 7445   5.182   2.081   1.127
 2182SOL    HW2 7446   5.202   2.161   0.986
 2183SOL     OW 7447   2.796   2.417   0.498
 2183SOL    HW1 7448   2.744   2.488   0.451
 2183SOL    HW2 7449   2.734   2.347   0.533
 2184SOL     OW 7450   4.404   3.237   6.229
 2184SOL    HW1 7451   4.354   3.322   6.216
 2184SOL    HW2 7452   4.364   3.166   6.170
 2185SOL     OW 7453   6.826   6.874   1.994
 2185SOL    HW1 7454   6.861   6.784   1.969
 2185SOL    HW2 7455   6.819   6.931   1.912
 2186SOL     OW 7456   0.133   4.505   2.999
 2186SOL    HW1 7457   0.078   4.438   3.050
 2186SOL    HW2 7458   0.076   4.584   2.976
 2187SOL     OW 7459   6.233   1.510   6.989
 2187SOL    HW1 7460   6.180   1.570   0.027
 2187SOL    HW2 7461   6.174   1.470   6.919
 2188SOL     OW 7462   4.933   1.283   4.061
 2188SOL    HW1 7463   4.859   1.286   4.129
 2188SOL    HW2 7464   4.976   1.192   4.063
 2189SOL     OW 7465   2.843   0.108   6.991
 2189SOL    HW1 7466   2.845   0.153   6.902
 2189SOL    HW2 7467   2.771   0.039   6.993
 2190SOL     OW 7468   5.042   2.467   0.909
 2190SOL    HW1 7469   5.019   2.476   1.006
 2190SOL    HW2 7470   4.958   2.464   0.855
 2191SOL     OW 7471   2.351   1.872   0.276
 2191SOL    HW1 7472   2.306   1.950   0.232
 2191SOL    HW2 7473   2.292   1.835   0.348
 2192SOL     OW 7474   3.756   5.593   2.353
 2192SOL    HW1 7475   3.667   5.596   2.307
 2192SOL    HW2 7476   3.800   5.505   2.336
 2193SOL     OW 7477   6.611   5.880   4.675
 2193SOL    HW1 7478   6.534   5.928   4.635
 2193SOL    HW2 7479   6.695   5.908   4.629
 2194SOL     OW 7480   2.821   0.504   1.804
 2194SOL    HW1 7481   2.836   0.603   1.810
 2194SOL    HW2 7482   2.724   0.483   1.816
 2195SOL     OW 7483   0.707   4.896   2.260
 2195SOL    HW1 7484   0.727   4.808   2.303
 2195SOL    HW2 7485   0.728   4.892   2.163
 2196SOL     OW 7486   4.350   3.162   0.521
 2196SOL    HW1 7487   4.351   3.160   0.620
 2196SOL    HW2 7488   4.298   3.242   0.490
 2197SOL     OW 7489   4.469   4.318   6.538
 2197SOL    HW1 7490   4.425   4.369   6.465
 2197SOL    HW2 7491   4.496   4.228   6.504
 2198SOL     OW 7492   6.410   4.349   0.778
 2198SOL    HW1 7493   6.381   4.397   0.695
 2198SOL    HW2 7494   6.367   4.391   0.858
 2199SOL     OW 7495   4.126   1.149   2.808
 2199SOL    HW1 7496   4.149   1.072   2.868
 2199SOL    HW2 7497   4.028   1.167   2.813
 2200SOL     OW 7498   2.800   6.843   4.402
 2200SOL    HW1 7499   2.896   6.847   4.432
 2200SOL    HW2 7500   2.786   6.760   4.349
 2201SOL     OW 7501   4.696   4.139   4.129
 2201SOL    HW1 7502   4.679   4.162   4.224
 2201SOL    HW2 7503   4.747   4.213   4.085
 2202SOL     OW 7504   4.582   5.858   4.049
 2202SOL    HW1 7505   4.593   5.782   3.985
 2202SOL    HW2 7506   4.607   5.828   4.141
 2203SOL     OW 7507   3.032   1.833   2.983
 2203SOL    HW1 7508   2.955   1.856   2.924
 2203SOL    HW2 7509   3.098   1.779   2.931
 2204SOL     OW 7510   2.556   2.322   0.239
 2204SOL    HW1 7511   2.556   2.376   0.323
 2204SOL    HW2 7512   2.537   2.381   0.161
 2205SOL     OW 7513   2.498   1.153   1.749
 2205SOL    HW1 7514   2.569   1.214   1.712
 2205SOL    HW2 7515   2.435   1.206   1.806
 2206SOL     OW 7516   1.660   2.938   0.096
 2206SOL    HW1 7517   1.581   2.949   0.156
 2206SOL    HW2 7518   1.744   2.959   0.145
 2207SOL     OW 7519   0.542   4.660   4.837
 2207SOL    HW1 7520   0.462   4.696   4.885
 2207SOL    HW2 7521   0.548   4.703   4.747
 2208SOL     OW 7522   6.631   4.760   2.102
 2208SOL    HW1 7523   6.542   4.714   2.104
 2208SOL    HW2 7524   6.617   4.859   2.104
 2209SOL     OW 7525   0.908   7.012   1.616
 2209SOL    HW1 7526   0.861   0.016   1.531
 2209SOL    HW2 7527   0.918   6.912   1.619
 2210SOL     OW 7528   2.056   5.277   3.245
 2210SOL    HW1 7529   1.966   5.300   3.207
 2210SOL    HW2 7530   2.109   5.360   3.258
 2211SOL     OW 7531   0.273   1.551   5.224
 2211SOL    HW1 7532   0.193   1.490   5.223
 2211SOL    HW2 7533   0.246   1.641   5.190
 2212SOL     OW 7534   1.629   6.703   6.439
 2212SOL    HW1 7535   1.612   6.775   6.506
 2212SOL    HW2 7536   1.680   6.740   6.361
 2213SOL     OW 7537   3.437   0.839   3.254
 2213SOL    HW1 7538   3.501   0.867   3.182
 2213SOL    HW2 7539   3.489   0.800   3.330
 2214SOL     OW 7540   4.422   0.749   4.529
 2214SOL    HW1 7541   4.426   0.777   4.625
 2214SOL    HW2 7542   4.441   0.652   4.522
 2215SOL     OW 7543   5.755   2.112   5.330
 2215SOL    HW1 7544   5.664   2.102   5.370
 2215SOL    HW2 7545   5.824   2.111   5.403
 2216SOL     OW 7546   2.892   1.026   2.623
 2216SOL    HW1 7547   2.981   1.072   2.631
 2216SOL    HW2 7548   2.895   0.962   2.546
 2217SOL     OW 7549   4.411   1.014   2.087
 2217SOL    HW1 7550   4.312   1.022   2.089
 2217SOL    HW2 7551   4.437   0.933   2.034
 2218SOL     OW 7552   1.178   0.442   2.939
 2218SOL    HW1 7553   1.277   0.426   2.935
 2218SOL    HW2 7554   1.148   0.488   2.856
 2219SOL     OW 7555   1.266   2.532   2.738
 2219SOL    HW1 7556   1.232   2.453   2.686
 2219SOL    HW2 7557   1.361   2.551   2.712
 2220SOL     OW 7558   0.888   0.417   2.233
 2220SOL    HW1 7559   0.909   0.512   2.210
 2220SOL    HW2 7560   0.878   0.408   2.332
 2221SOL     OW 7561   0.573   0.783   6.492
 2221SOL    HW1 7562   0.647   0.794   6.558
 2221SOL    HW2 7563   0.578   0.692   6.450
 2222SOL     OW 7564   6.284   5.667   3.239
 2222SOL    HW1 7565   6.265   5.612   3.158
 2222SOL    HW2 7566   6.225   5.748   3.239
 2223SOL     OW 7567   6.762   6.355   1.776
 2223SOL    HW1 7568   6.667   6.372   1.803
 2223SOL    HW2 7569   6.820   6.355   1.857
 2224SOL     OW 7570   1.124   4.781   1.292
 2224SOL    HW1 7571   1.043   4.735   1.329
 2224SOL    HW2 7572   1.109   4.803   1.196
 2225SOL     OW 7573   0.554   3.834   0.886
 2225SOL    HW1 7574   0.606   3.820   0.802
 2225SOL    HW2 7575   0.616   3.855   0.961
 2226SOL     OW 7576   4.107   3.830   2.059
 2226SOL    HW1 7577   4.185   3.885   2.087
 2226SOL    HW2 7578   4.060   3.796   2.140
 2227SOL     OW 7579   0.894   2.922   4.285
 2227SOL    HW1 7580   0.938   2.862   4.218
 2227SOL    HW2 7581   0.934   2.906   4.375
 2228SOL     OW 7582   3.043   4.861   4.037
 2228SOL    HW1 7583   2.956   4.813   4.038
 2228SOL    HW2 7584   3.100   4.826   3.962
 2229SOL     OW 7585   5.628   6.505   3.296
 2229SOL    HW1 7586   5.658   6.519   3.390
 2229SOL    HW2 7587   5.701   6.460   3.244
 2230SOL     OW 7588   2.667   5.109   1.828
 2230SOL    HW1 7589   2.765   5.102   1.846
 2230SOL    HW2 7590   2.652   5.165   1.747
 2231SOL     OW 7591   2.616   5.991   1.239
 2231SOL    HW1 7592   2.586   6.054   1.310
 2231SOL    HW2 7593   2.667   5.916   1.280
 2232SOL     OW 7594   5.458   2.544   3.651
 2232SOL    HW1 7595   5.391   2.521   3.580
 2232SOL    HW2 7596   5.507   2.462   3.680
 2233SOL     OW 7597   3.002   1.460   6.135
 2233SOL    HW1 7598   2.952   1.439   6.051
 2233SOL    HW2 7599   2.991   1.384   6.200
 2234SOL     OW 7600   3.656   2.673   1.214
 2234SOL    HW1 7601   3.624   2.764   1.240
 2234SOL    HW2 7602   3.587   2.606   1.241
 2235SOL     OW 7603   1.960   2.137   1.674
 2235SOL    HW1 7604   1.896   2.060   1.671
 2235SOL    HW2 7605   1.980   2.160   1.769
 2236SOL     OW 7606   1.230   4.994   6.243
 2236SOL    HW1 7607   1.180   4.963   6.325
 2236SOL    HW2 7608   1.199   5.085   6.218
 2237SOL     OW 7609   6.229   3.247   4.112
 2237SOL    HW1 7610   6.223   3.320   4.044
 2237SOL    HW2 7611   6.151   3.185   4.101
 2238SOL     OW 7612   6.224   6.066   1.032
 2238SOL    HW1 7613   6.198   6.030   1.122
 2238SOL    HW2 7614   6.147   6.057   0.969
 2239SOL     OW 7615   6.124   6.002   2.210
 2239SOL    HW1 7616   6.087   6.091   2.233
 2239SOL    HW2 7617   6.093   5.975   2.118
 2240SOL     OW 7618   5.847   3.673   2.001
 2240SOL    HW1 7619   5.946   3.668   1.991
 2240SOL    HW2 7620   5.804   3.676   1.911
 2241SOL     OW 7621   1.068   0.443   3.191
 2241SOL    HW1 7622   1.104   0.363   3.238
 2241SOL    HW2 7623   1.107   0.448   3.099
 2242SOL     OW 7624   3.396   1.607   2.152
 2242SOL    HW1 7625   3.476   1.571   2.103
 2242SOL    HW2 7626   3.397   1.707   2.148
 2243SOL     OW 7627   2.778   0.025   5.158
 2243SOL    HW1 7628   2.712   0.062   5.092
 2243SOL    HW2 7629   2.749   0.049   5.251
 2244SOL     OW 7630   2.809   1.324   4.886
 2244SOL    HW1 7631   2.848   1.391   4.950
 2244SOL    HW2 7632   2.750   1.261   4.937
 2245SOL     OW 7633   0.362   1.903   2.127
 2245SOL    HW1 7634   0.454   1.901   2.167
 2245SOL    HW2 7635   0.309   1.825   2.161
 2246SOL     OW 7636   1.779   4.841   5.186
 2246SOL    HW1 7637   1.866   4.799   5.157
 2246SOL    HW2 7638   1.704   4.778   5.167
 2247SOL     OW 7639   1.889   1.503   4.333
 2247SOL    HW1 7640   1.889   1.597   4.368
 2247SOL    HW2 7641   1.982   1.476   4.307
 2248SOL     OW 7642   4.193   3.994   5.347
 2248SOL    HW1 7643   4.158   4.059   5.415
 2248SOL    HW2 7644   4.116   3.953   5.298
 2249SOL     OW 7645   3.688   5.381   5.100
 2249SOL    HW1 7646   3.731   5.423   5.019
 2249SOL    HW2 7647   3.684   5.282   5.088
 2250SOL     OW 7648   4.311   4.822   1.553
 2250SOL    HW1 7649   4.240   4.871   1.603
 2250SOL    HW2 7650   4.401   4.847   1.588
 2251SOL     OW 7651   0.266   0.346   6.387
 2251SOL    HW1 7652   0.328   0.267   6.385
 2251SOL    HW2 7653   0.264   0.384   6.480
 2252SOL     OW 7654   3.075   0.489   6.332
 2252SOL    HW1 7655   2.987   0.448   6.352
 2252SOL    HW2 7656   3.147   0.419   6.339
 2253SOL     OW 7657   1.029   3.436   6.373
 2253SOL    HW1 7658   1.047   3.372   6.447
 2253SOL    HW2 7659   0.992   3.386   6.295
 2254SOL     OW 7660   2.029   4.606   6.274
 2254SOL    HW1 7661   2.008   4.548   6.353
 2254SOL    HW2 7662   2.113   4.657   6.291
 2255SOL     OW 7663   6.249   3.554   6.772
 2255SOL    HW1 7664   6.328   3.506   6.810
 2255SOL    HW2 7665   6.266   3.653   6.773
 2256SOL     OW 7666   2.632   4.651   2.258
 2256SOL    HW1 7667   2.582   4.731   2.226
 2256SOL    HW2 7668   2.713   4.638   2.200
 2257SOL     OW 7669   1.721   3.648   4.513
 2257SOL    HW1 7670   1.760   3.557   4.524
 2257SOL    HW2 7671   1.718   3.694   4.602
 2258SOL     OW 7672   2.033   4.842   5.378
 2258SOL    HW1 7673   1.955   4.900   5.402
 2258SOL    HW2 7674   2.109   4.860   5.440
 2259SOL     OW 7675   6.671   3.222   6.698
 2259SOL    HW1 7676   6.761   3.184   6.678
 2259SOL    HW2 7677   6.605   3.189   6.632
 2260SOL     OW 7678   4.332   3.173   1.048
 2260SOL    HW1 7679   4.251   3.155   1.104
 2260SOL    HW2 7680   4.388   3.091   1.042
 2261SOL     OW 7681   2.874   6.620   4.816
 2261SOL    HW1 7682   2.810   6.626   4.739
 2261SOL    HW2 7683   2.850   6.688   4.885
 2262SOL     OW 7684   3.813   1.431   3.062
 2262SOL    HW1 7685   3.883   1.388   3.119
 2262SOL    HW2 7686   3.800   1.526   3.089
 2263SOL     OW 7687   0.740   4.358   5.828
 2263SOL    HW1 7688   0.777   4.430   5.887
 2263SOL    HW2 7689   0.730   4.392   5.735
 2264SOL     OW 7690   3.039   3.909   3.229
 2264SOL    HW1 7691   2.943   3.923   3.208
 2264SOL    HW2 7692   3.069   3.979   3.295
 2265SOL     OW 7693   0.601   6.717   3.507
 2265SOL    HW1 7694   0.643   6.642   3.455
 2265SOL    HW2 7695   0.519   6.748   3.460
 2266SOL     OW 7696   6.357   0.673   6.241
 2266SOL    HW1 7697   6.273   0.618   6.234
 2266SOL    HW2 7698   6.380   0.711   6.151
 2267SOL     OW 7699   5.417   2.045   5.243
 2267SOL    HW1 7700   5.382   1.958   5.277
 2267SOL    HW2 7701   5.468   2.091   5.315
 2268SOL     OW 7702   6.908   5.439   6.768
 2268SOL    HW1 7703   6.824   5.490   6.787
 2268SOL    HW2 7704   6.896   5.343   6.795
 2269SOL     OW 7705   0.093   6.964   3.323
 2269SOL    HW1 7706   0.191   6.950   3.315
 2269SOL    HW2 7707   0.045   6.897   3.265
 2270SOL     OW 7708   3.457   3.231   3.186
 2270SOL    HW1 7709   3.545   3.235   3.233
 2270SOL    HW2 7710   3.409   3.147   3.212
 2271SOL     OW 7711   0.802   5.200   3.309
 2271SOL    HW1 7712   0.883   5.141   3.310
 2271SOL    HW2 7713   0.733   5.163   3.371
 2272SOL     OW 7714   5.542   2.098   5.508
 2272SOL    HW1 7715   5.457   2.115   5.558
 2272SOL    HW2 7716   5.609   2.055   5.569
 2273SOL     OW 7717   0.399   0.989   2.851
 2273SOL    HW1 7718   0.478   0.952   2.899
 2273SOL    HW2 7719   0.368   1.073   2.896
 2274SOL     OW 7720   0.850   4.530   3.179
 2274SOL    HW1 7721   0.829   4.549   3.275
 2274SOL    HW2 7722   0.889   4.439   3.171
 2275SOL     OW 7723   4.723   6.399   3.829
 2275SOL    HW1 7724   4.738   6.494   3.801
 2275SOL    HW2 7725   4.627   6.376   3.819
 2276SOL     OW 7726   3.053   5.679   2.236
 2276SOL    HW1 7727   3.077   5.657   2.331
 2276SOL    HW2 7728   3.134   5.712   2.188
 2277SOL     OW 7729   3.191   3.573   1.178
 2277SOL    HW1 7730   3.269   3.635   1.190
 2277SOL    HW2 7731   3.187   3.541   1.084
 2278SOL     OW 7732   4.771   6.171   1.193
 2278SOL    HW1 7733   4.684   6.206   1.159
 2278SOL    HW2 7734   4.755   6.084   1.240
 2279SOL     OW 7735   6.089   3.986   5.646
 2279SOL    HW1 7736   6.000   3.968   5.604
 2279SOL    HW2 7737   6.153   3.914   5.620
 2280SOL     OW 7738   5.669   6.883   6.241
 2280SOL    HW1 7739   5.726   6.962   6.268
 2280SOL    HW2 7740   5.621   6.848   6.321
 2281SOL     OW 7741   2.225   1.813   6.920
 2281SOL    HW1 7742   2.152   1.776   6.978
 2281SOL    HW2 7743   2.256   1.743   6.856
 2282SOL     OW 7744   4.023   6.336   2.081
 2282SOL    HW1 7745   4.027   6.263   2.012
 2282SOL    HW2 7746   3.950   6.400   2.058
 2283SOL     OW 7747   0.138   3.963   1.861
 2283SOL    HW1 7748   0.172   4.055   1.845
 2283SOL    HW2 7749   0.055   3.967   1.917
 2284SOL     OW 7750   2.303   1.865   2.063
 2284SOL    HW1 7751   2.227   1.814   2.104
 2284SOL    HW2 7752   2.362   1.900   2.135
 2285SOL     OW 7753   1.853   3.846   6.631
 2285SOL    HW1 7754   1.772   3.788   6.635
 2285SOL    HW2 7755   1.845   3.909   6.553
 2286SOL     OW 7756   6.479   6.367   4.244
 2286SOL    HW1 7757   6.473   6.403   4.151
 2286SOL    HW2 7758   6.434   6.431   4.307
 2287SOL     OW 7759   2.200   2.013   0.611
 2287SOL    HW1 7760   2.181   1.926   0.659
 2287SOL    HW2 7761   2.125   2.077   0.629
 2288SOL     OW 7762   2.562   5.219   4.736
 2288SOL    HW1 7763   2.594   5.263   4.820
 2288SOL    HW2 7764   2.464   5.236   4.725
 2289SOL     OW 7765   3.975   1.195   0.041
 2289SOL    HW1 7766   3.990   1.293   0.055
 2289SOL    HW2 7767   3.905   1.182   6.991
 2290SOL     OW 7768   3.396   3.762   4.118
 2290SOL    HW1 7769   3.354   3.813   4.043
 2290SOL    HW2 7770   3.476   3.812   4.151
 2291SOL     OW 7771   1.885   2.401   0.222
 2291SOL    HW1 7772   1.792   2.438   0.221
 2291SOL    HW2 7773   1.886   2.317   0.277
 2292SOL     OW 7774   4.768   1.757   2.888
 2292SOL    HW1 7775   4.754   1.856   2.882
 2292SOL    HW2 7776   4.855   1.738   2.932
 2293SOL     OW 7777   0.329   0.665   7.007
 2293SOL    HW1 7778   0.248   0.607   6.999
 2293SOL    HW2 7779   0.366   0.684   6.916
 2294SOL     OW 7780   0.143   0.756   5.664
 2294SOL    HW1 7781   0.100   0.817   5.598
 2294SOL    HW2 7782   0.073   0.700   5.708
 2295SOL     OW 7783   5.563   6.040   0.925
 2295SOL    HW1 7784   5.483   6.097   0.907
 2295SOL    HW2 7785   5.575   5.974   0.851
 2296SOL     OW 7786   3.839   5.317   4.363
 2296SOL    HW1 7787   3.816   5.394   4.423
 2296SOL    HW2 7788   3.755   5.272   4.334
 2297SOL     OW 7789   5.747   3.706   5.569
 2297SOL    HW1 7790   5.691   3.781   5.604
 2297SOL    HW2 7791   5.720   3.684   5.476
 2298SOL     OW 7792   2.898   3.410   4.741
 2298SOL    HW1 7793   2.886   3.354   4.659
 2298SOL    HW2 7794   2.908   3.350   4.821
 2299SOL     OW 7795   6.045   3.414   4.542
 2299SOL    HW1 7796   6.070   3.500   4.587
 2299SOL    HW2 7797   5.946   3.412   4.527
 2300SOL     OW 7798   5.127   0.240   2.649
 2300SOL    HW1 7799   5.082   0.155   2.676
 2300SOL    HW2 7800   5.225   0.232   2.666
 2301SOL     OW 7801   3.974   3.144   5.122
 2301SOL    HW1 7802   3.933   3.101   5.203
 2301SOL    HW2 7803   3.902   3.170   5.058
 2302SOL     OW 7804   6.334   3.507   6.092
 2302SOL    HW1 7805   6.385   3.421   6.096
 2302SOL    HW2 7806   6.359   3.564   6.170
 2303SOL     OW 7807   2.885   2.057   6.670
 2303SOL    HW1 7808   2.948   2.115   6.721
 2303SOL    HW2 7809   2.911   1.961   6.681
 2304SOL     OW 7810   6.528   6.745   2.654
 2304SOL    HW1 7811   6.433   6.748   2.623
 2304SOL    HW2 7812   6.588   6.735   2.574
 2305SOL     OW 7813   2.569   6.921   5.617
 2305SOL    HW1 7814   2.613   6.874   5.540
 2305SOL    HW2 7815   2.481   6.959   5.587
 2306SOL     OW 7816   1.984   4.436   4.684
 2306SOL    HW1 7817   1.958   4.491   4.605
 2306SOL    HW2 7818   2.073   4.466   4.718
 2307SOL     OW 7819   6.889   3.347   4.830
 2307SOL    HW1 7820   6.866   3.434   4.788
 2307SOL    HW2 7821   6.901   3.360   4.929
 2308SOL     OW 7822   0.796   5.671   2.250
 2308SOL    HW1 7823   0.849   5.750   2.279
 2308SOL    HW2 7824   0.834   5.588   2.289
 2309SOL     OW 7825   2.416   0.339   4.697
 2309SOL    HW1 7826   2.488   0.385   4.748
 2309SOL    HW2 7827   2.358   0.286   4.759
 2310SOL     OW 7828   4.528   0.079   0.845
 2310SOL    HW1 7829   4.467   0.038   0.913
 2310SOL    HW2 7830   4.474   0.134   0.781
 2311SOL     OW 7831   2.139   5.773   0.673
 2311SOL    HW1 7832   2.210   5.729   0.728
 2311SOL    HW2 7833   2.083   5.833   0.731
 2312SOL     OW 7834   3.592   5.146   2.451
 2312SOL    HW1 7835   3.531   5.066   2.447
 2312SOL    HW2 7836   3.542   5.227   2.419
 2313SOL     OW 7837   5.111   4.448   1.622
 2313SOL    HW1 7838   5.131   4.478   1.715
 2313SOL    HW2 7839   5.014   4.463   1.602
 2314SOL     OW 7840   2.831   4.716   4.021
 2314SOL    HW1 7841   2.746   4.707   4.073
 2314SOL    HW2 7842   2.827   4.657   3.941
 2315SOL     OW 7843   4.848   1.999   0.030
 2315SOL    HW1 7844   4.792   2.047   0.098
 2315SOL    HW2 7845   4.910   2.064   7.007
 2316SOL     OW 7846   4.948   3.280   2.026
 2316SOL    HW1 7847   4.980   3.308   2.117
 2316SOL    HW2 7848   4.876   3.212   2.035
 2317SOL     OW 7849   0.938   6.021   3.217
 2317SOL    HW1 7850   1.020   6.044   3.270
 2317SOL    HW2 7851   0.955   5.938   3.164
 2318SOL     OW 7852   0.248   1.423   4.256
 2318SOL    HW1 7853   0.209   1.452   4.344
 2318SOL    HW2 7854   0.224   1.327   4.240
 2319SOL     OW 7855   0.944   4.686   1.830
 2319SOL    HW1 7856   0.992   4.698   1.916
 2319SOL    HW2 7857   0.915   4.590   1.820
 2320SOL     OW 7858   6.782   4.599   4.628
 2320SOL    HW1 7859   6.778   4.674   4.562
 2320SOL    HW2 7860   6.689   4.576   4.658
 2321SOL     OW 7861   4.122   5.412   4.467
 2321SOL    HW1 7862   4.025   5.402   4.443
 2321SOL    HW2 7863   4.150   5.507   4.453
 2322SOL     OW 7864   3.060   0.455   4.852
 2322SOL    HW1 7865   2.979   0.466   4.793
 2322SOL    HW2 7866   3.045   0.502   4.938
 2323SOL     OW 7867   4.922   3.624   2.152
 2323SOL    HW1 7868   4.897   3.618   2.249
 2323SOL    HW2 7869   5.019   3.601   2.141
 2324SOL     OW 7870   1.054   4.947   3.645
 2324SOL    HW1 7871   1.010   4.858   3.658
 2324SOL    HW2 7872   1.125   4.939   3.576
 2325SOL     OW 7873   0.160   2.209   0.154
 2325SOL    HW1 7874   0.166   2.309   0.153
 2325SOL    HW2 7875   0.215   2.173   0.230
 2326SOL     OW 7876   0.827   4.260   0.181
 2326SOL    HW1 7877   0.746   4.205   0.202
 2326SOL    HW2 7878   0.909   4.208   0.206
 2327SOL     OW 7879   5.148   1.179   3.815
 2327SOL    HW1 7880   5.176   1.208   3.723
 2327SOL    HW2 7881   5.185   1.243   3.883
 2328SOL     OW 7882   6.389   5.610   3.546
 2328SOL    HW1 7883   6.465   5.671   3.569
 2328SOL    HW2 7884   6.330   5.653   3.478
 2329SOL     OW 7885   0.830   5.616   2.975
 2329SOL    HW1 7886   0.808   5.519   2.969
 2329SOL    HW2 7887   0.746   5.670   2.969
 2330SOL     OW 7888   0.613   3.957   1.373
 2330SOL    HW1 7889   0.524   3.976   1.331
 2330SOL    HW2 7890   0.603   3.951   1.472
 2331SOL     OW 7891   1.447   4.415   5.874
 2331SOL    HW1 7892   1.444   4.492   5.810
 2331SOL    HW2 7893   1.410   4.333   5.830
 2332SOL     OW 7894   5.122   2.876   5.773
 2332SOL    HW1 7895   5.218   2.894   5.750
 2332SOL    HW2 7896   5.063   2.928   5.711
 2333SOL     OW 7897   3.180   4.858   3.800
 2333SOL    HW1 7898   3.227   4.901   3.723
 2333SOL    HW2 7899   3.107   4.798   3.766
 2334SOL     OW 7900   2.544   0.236   6.516
 2334SOL    HW1 7901   2.638   0.234   6.482
 2334SOL    HW2 7902   2.481   0.243   6.440
 2335SOL     OW 7903   4.401   4.758   4.719
 2335SOL    HW1 7904   4.357   4.734   4.632
 2335SOL    HW2 7905   4.332   4.763   4.791
 2336SOL     OW 7906   4.494   3.055   5.601
 2336SOL    HW1 7907   4.503   3.043   5.700
 2336SOL    HW2 7908   4.411   3.108   5.582
 2337SOL     OW 7909   6.204   0.366   4.509
 2337SOL    HW1 7910   6.249   0.296   4.454
 2337SOL    HW2 7911   6.155   0.323   4.584
 2338SOL     OW 7912   1.327   6.815   6.852
 2338SOL    HW1 7913   1.274   6.800   6.936
 2338SOL    HW2 7914   1.270   6.862   6.784
 2339SOL     OW 7915   4.279   5.241   0.133
 2339SOL    HW1 7916   4.289   5.228   0.231
 2339SOL    HW2 7917   4.307   5.334   0.108
 2340SOL     OW 7918   3.905   4.992   3.968
 2340SOL    HW1 7919   3.812   4.957   3.959
 2340SOL    HW2 7920   3.920   5.022   4.063
 2341SOL     OW 7921   5.610   4.927   6.563
 2341SOL    HW1 7922   5.675   5.002   6.572
 2341SOL    HW2 7923   5.524   4.952   6.608
 2342SOL     OW 7924   6.958   0.034   4.996
 2342SOL    HW1 7925   0.010   0.102   4.985
 2342SOL    HW2 7926   6.870   0.076   4.977
 2343SOL     OW 7927   0.728   0.239   0.524
 2343SOL    HW1 7928   0.645   0.295   0.532
 2343SOL    HW2 7929   0.808   0.298   0.528
 2344SOL     OW 7930   2.583   1.273   2.776
 2344SOL    HW1 7931   2.606   1.263   2.680
 2344SOL    HW2 7932   2.488   1.245   2.790
 2345SOL     OW 7933   1.428   1.774   2.280
 2345SOL    HW1 7934   1.356   1.704   2.275
 2345SOL    HW2 7935   1.517   1.729   2.288
 2346SOL     OW 7936   4.864   3.161   5.248
 2346SOL    HW1 7937   4.781   3.117   5.282
 2346SOL    HW2 7938   4.893   3.232   5.313
 2347SOL     OW 7939   1.784   3.491   1.036
 2347SOL    HW1 7940   1.827   3.568   0.988
 2347SOL    HW2 7941   1.819   3.487   1.129
 2348SOL     OW 7942   2.801   0.015   1.786
 2348SOL    HW1 7943   2.741   0.004   1.865
 2348SOL    HW2 7944   2.845   6.948   1.766
 2349SOL     OW 7945   4.584   4.310   6.244
 2349SOL    HW1 7946   4.570   4.334   6.148
 2349SOL    HW2 7947   4.597   4.393   6.297
 2350SOL     OW 7948   2.289   5.865   5.125
 2350SOL    HW1 7949   2.202   5.902   5.094
 2350SOL    HW2 7950   2.361   5.889   5.060
 2351SOL     OW 7951   1.741   5.124   3.037
 2351SOL    HW1 7952   1.751   5.204   3.097
 2351SOL    HW2 7953   1.770   5.149   2.944
 2352SOL     OW 7954   5.960   4.624   0.557
 2352SOL    HW1 7955   6.039   4.676   0.527
 2352SOL    HW2 7956   5.940   4.646   0.653
 2353SOL     OW 7957   2.286   3.643   6.576
 2353SOL    HW1 7958   2.285   3.630   6.675
 2353SOL    HW2 7959   2.256   3.736   6.555
 2354SOL     OW 7960   4.259   1.796   2.303
 2354SOL    HW1 7961   4.240   1.848   2.220
 2354SOL    HW2 7962   4.274   1.700   2.279
 2355SOL     OW 7963   0.328   1.292   1.749
 2355SOL    HW1 7964   0.301   1.272   1.843
 2355SOL    HW2 7965   0.345   1.206   1.700
 2356SOL     OW 7966   2.892   5.093   4.028
 2356SOL    HW1 7967   2.909   5.168   4.092
 2356SOL    HW2 7968   2.936   5.010   4.062
 2357SOL     OW 7969   0.343   4.483   0.681
 2357SOL    HW1 7970   0.414   4.517   0.619
 2357SOL    HW2 7971   0.288   4.561   0.713
 2358SOL     OW 7972   3.017   1.146   5.126
 2358SOL    HW1 7973   2.975   1.222   5.175
 2358SOL    HW2 7974   3.116   1.147   5.140
 2359SOL     OW 7975   1.996   1.938   5.411
 2359SOL    HW1 7976   1.951   1.934   5.321
 2359SOL    HW2 7977   2.088   1.900   5.403
 2360SOL     OW 7978   3.149   5.273   0.637
 2360SOL    HW1 7979   3.234   5.237   0.674
 2360SOL    HW2 7980   3.170   5.347   0.572
 2361SOL     OW 7981   3.830   5.932   1.242
 2361SOL    HW1 7982   3.805   5.836   1.229
 2361SOL    HW2 7983   3.792   5.987   1.168
 2362SOL     OW 7984   3.329   4.993   3.966
 2362SOL    HW1 7985   3.372   5.064   3.910
 2362SOL    HW2 7986   3.259   4.947   3.912
 2363SOL     OW 7987   1.922   4.040   1.091
 2363SOL    HW1 7988   1.883   4.119   1.137
 2363SOL    HW2 7989   1.849   3.976   1.068
 2364SOL     OW 7990   3.896   1.766   2.407
 2364SOL    HW1 7991   3.981   1.793   2.451
 2364SOL    HW2 7992   3.889   1.666   2.404
 2365SOL     OW 7993   4.847   4.443   2.750
 2365SOL    HW1 7994   4.777   4.426   2.819
 2365SOL    HW2 7995   4.806   4.488   2.671
 2366SOL     OW 7996   3.041   5.127   5.506
 2366SOL    HW1 7997   2.968   5.078   5.553
 2366SOL    HW2 7998   3.010   5.155   5.415
 2367SOL     OW 7999   5.843   5.191   6.151
 2367SOL    HW1 8000   5.751   5.201   6.115
 2367SOL    HW2 8001   5.859   5.258   6.223
 2368SOL     OW 8002   5.198   0.789   5.859
 2368SOL    HW1 8003   5.204   0.858   5.787
 2368SOL    HW2 8004   5.273   0.724   5.849
 2369SOL     OW 8005   3.952   2.124   4.004
 2369SOL    HW1 8006   4.017   2.199   3.990
 2369SOL    HW2 8007   3.955   2.095   4.099
 2370SOL     OW 8008   5.195   1.886   1.835
 2370SOL    HW1 8009   5.163   1.900   1.929
 2370SOL    HW2 8010   5.194   1.973   1.786
 2371SOL     OW 8011   1.295   6.481   1.824
 2371SOL    HW1 8012   1.317   6.451   1.917
 2371SOL    HW2 8013   1.368   6.540   1.790
 2372SOL     OW 8014   6.659   0.237   6.309
 2372SOL    HW1 8015   6.743   0.263   6.262
 2372SOL    HW2 8016   6.642   0.301   6.384
 2373SOL     OW 8017   5.853   4.602   6.014
 2373SOL    HW1 8018   5.846   4.622   6.111
 2373SOL    HW2 8019   5.901   4.515   6.001
 2374SOL     OW 8020   6.323   6.444   2.408
 2374SOL    HW1 8021   6.231   6.478   2.386
 2374SOL    HW2 8022   6.346   6.369   2.346
 2375SOL     OW 8023   2.245   0.530   4.545
 2375SOL    HW1 8024   2.320   0.481   4.588
 2375SOL    HW2 8025   2.282   0.599   4.483
 2376SOL     OW 8026   5.372   1.855   3.167
 2376SOL    HW1 8027   5.407   1.949   3.169
 2376SOL    HW2 8028   5.441   1.794   3.128
 2377SOL     OW 8029   4.278   3.732   5.554
 2377SOL    HW1 8030   4.358   3.681   5.522
 2377SOL    HW2 8031   4.245   3.793   5.482
 2378SOL     OW 8032   0.703   1.626   0.210
 2378SOL    HW1 8033   0.760   1.660   0.136
 2378SOL    HW2 8034   0.760   1.604   0.289
 2379SOL     OW 8035   0.146   5.246   2.372
 2379SOL    HW1 8036   0.079   5.178   2.400
 2379SOL    HW2 8037   0.103   5.336   2.367
 2380SOL     OW 8038   4.699   5.622   6.893
 2380SOL    HW1 8039   4.789   5.658   6.918
 2380SOL    HW2 8040   4.697   5.607   6.794
 2381SOL     OW 8041   2.153   3.589   3.831
 2381SOL    HW1 8042   2.121   3.586   3.736
 2381SOL    HW2 8043   2.253   3.585   3.832
 2382SOL     OW 8044   0.182   5.268   3.098
 2382SOL    HW1 8045   0.158   5.312   3.185
 2382SOL    HW2 8046   0.280   5.278   3.082
 2383SOL     OW 8047   5.001   4.184   5.608
 2383SOL    HW1 8048   4.970   4.244   5.682
 2383SOL    HW2 8049   4.928   4.118   5.585
 2384SOL     OW 8050   0.389   2.086   2.473
 2384SOL    HW1 8051   0.318   2.155   2.481
 2384SOL    HW2 8052   0.351   2.002   2.434
 2385SOL     OW 8053   0.203   1.426   0.508
 2385SOL    HW1 8054   0.113   1.387   0.492
 2385SOL    HW2 8055   0.203   1.522   0.481
 2386SOL     OW 8056   5.910   6.128   4.545
 2386SOL    HW1 8057   5.927   6.066   4.468
 2386SOL    HW2 8058   5.907   6.075   4.630
 2387SOL     OW 8059   1.173   1.234   4.179
 2387SOL    HW1 8060   1.186   1.207   4.083
 2387SOL    HW2 8061   1.129   1.159   4.229
 2388SOL     OW 8062   0.628   3.481   5.530
 2388SOL    HW1 8063   0.590   3.568   5.500
 2388SOL    HW2 8064   0.586   3.406   5.478
 2389SOL     OW 8065   4.521   5.725   3.018
 2389SOL    HW1 8066   4.608   5.764   3.049
 2389SOL    HW2 8067   4.529   5.626   3.010
 2390SOL     OW 8068   4.685   2.778   6.770
 2390SOL    HW1 8069   4.703   2.874   6.749
 2390SOL    HW2 8070   4.678   2.767   6.869
 2391SOL     OW 8071   3.595   4.402   6.653
 2391SOL    HW1 8072   3.642   4.444   6.730
 2391SOL    HW2 8073   3.640   4.316   6.629
 2392SOL     OW 8074   4.251   4.751   5.694
 2392SOL    HW1 8075   4.330   4.769   5.636
 2392SOL    HW2 8076   4.185   4.825   5.685
 2393SOL     OW 8077   4.261   4.447   1.158
 2393SOL    HW1 8078   4.245   4.496   1.243
 2393SOL    HW2 8079   4.211   4.361   1.159
 2394SOL     OW 8080   6.582   1.383   3.834
 2394SOL    HW1 8081   6.670   1.337   3.821
 2394SOL    HW2 8082   6.568   1.401   3.932
 2395SOL     OW 8083   1.281   3.026   3.884
 2395SOL    HW1 8084   1.283   3.003   3.787
 2395SOL    HW2 8085   1.366   2.997   3.927
 2396SOL     OW 8086   6.906   0.242   6.874
 2396SOL    HW1 8087   6.858   0.280   6.953
 2396SOL    HW2 8088   6.973   0.309   6.840
 2397SOL     OW 8089   1.739   4.088   5.135
 2397SOL    HW1 8090   1.663   4.147   5.109
 2397SOL    HW2 8091   1.794   4.133   5.205
 2398SOL     OW 8092   4.382   6.765   3.744
 2398SOL    HW1 8093   4.423   6.807   3.663
 2398SOL    HW2 8094   4.324   6.832   3.790
 2399SOL     OW 8095   3.338   2.115   3.059
 2399SOL    HW1 8096   3.432   2.095   3.085
 2399SOL    HW2 8097   3.332   2.126   2.960
 2400SOL     OW 8098   1.821   3.610   0.602
 2400SOL    HW1 8099   1.827   3.607   0.502
 2400SOL    HW2 8100   1.909   3.639   0.640
 2401SOL     OW 8101   1.751   6.460   6.485
 2401SOL    HW1 8102   1.709   6.543   6.449
 2401SOL    HW2 8103   1.783   6.403   6.409
 2402SOL     OW 8104   1.157   3.916   2.191
 2402SOL    HW1 8105   1.189   3.971   2.269
 2402SOL    HW2 8106   1.095   3.970   2.135
 2403SOL     OW 8107   3.175   3.635   5.047
 2403SOL    HW1 8108   3.089   3.584   5.042
 2403SOL    HW2 8109   3.172   3.699   5.124
 2404SOL     OW 8110   5.936   1.517   1.037
 2404SOL    HW1 8111   5.936   1.417   1.042
 2404SOL    HW2 8112   6.030   1.549   1.031
 2405SOL     OW 8113   1.925   3.130   0.685
 2405SOL    HW1 8114   1.985   3.200   0.647
 2405SOL    HW2 8115   1.831   3.164   0.686
 2406SOL     OW 8116   3.656   5.605   4.704
 2406SOL    HW1 8117   3.731   5.558   4.750
 2406SOL    HW2 8118   3.666   5.704   4.714
 2407SOL     OW 8119   2.730   1.399   3.257
 2407SOL    HW1 8120   2.798   1.471   3.247
 2407SOL    HW2 8121   2.767   1.313   3.222
 2408SOL     OW 8122   2.717   0.235   5.386
 2408SOL    HW1 8123   2.617   0.231   5.383
 2408SOL    HW2 8124   2.748   0.235   5.482
 2409SOL     OW 8125   0.700   3.148   0.332
 2409SOL    HW1 8126   0.602   3.128   0.338
 2409SOL    HW2 8127   0.742   3.136   0.422
 2410SOL     OW 8128   0.071   3.208   4.397
 2410SOL    HW1 8129   0.167   3.187   4.377
 2410SOL    HW2 8130   0.065   3.257   4.484
 2411SOL     OW 8131   2.676   2.041   0.022
 2411SOL    HW1 8132   2.585   2.001   0.005
 2411SOL    HW2 8133   2.746   1.983   7.002
 2412SOL     OW 8134   3.174   2.154   5.744
 2412SOL    HW1 8135   3.153   2.240   5.791
 2412SOL    HW2 8136   3.251   2.110   5.789
 2413SOL     OW 8137   0.298   3.111   0.022
 2413SOL    HW1 8138   0.283   3.014   0.042
 2413SOL    HW2 8139   0.394   3.125   7.017
 2414SOL     OW 8140   6.695   1.073   5.233
 2414SOL    HW1 8141   6.618   1.087   5.295
 2414SOL    HW2 8142   6.750   0.996   5.266
 2415SOL     OW 8143   3.180   4.916   6.275
 2415SOL    HW1 8144   3.256   4.982   6.274
 2415SOL    HW2 8145   3.107   4.950   6.333
 2416SOL     OW 8146   6.769   2.150   3.007
 2416SOL    HW1 8147   6.750   2.247   2.992
 2416SOL    HW2 8148   6.765   2.102   2.919
 2417SOL     OW 8149   2.810   2.494   1.336
 2417SOL    HW1 8150   2.772   2.457   1.252
 2417SOL    HW2 8151   2.843   2.419   1.394
 2418SOL     OW 8152   4.879   3.782   6.813
 2418SOL    HW1 8153   4.804   3.733   6.768
 2418SOL    HW2 8154   4.855   3.798   6.909
 2419SOL     OW 8155   2.885   0.904   3.364
 2419SOL    HW1 8156   2.972   0.919   3.316
 2419SOL    HW2 8157   2.902   0.901   3.463
 2420SOL     OW 8158   1.137   3.803   2.821
 2420SOL    HW1 8159   1.044   3.775   2.798
 2420SOL    HW2 8160   1.195   3.722   2.832
 2421SOL     OW 8161   3.210   6.707   3.417
 2421SOL    HW1 8162   3.200   6.608   3.425
 2421SOL    HW2 8163   3.260   6.742   3.496
 2422SOL     OW 8164   4.529   4.853   0.727
 2422SOL    HW1 8165   4.463   4.902   0.670
 2422SOL    HW2 8166   4.594   4.804   0.668
 2423SOL     OW 8167   2.553   5.289   3.485
 2423SOL    HW1 8168   2.630   5.229   3.504
 2423SOL    HW2 8169   2.469   5.246   3.516
 2424SOL     OW 8170   4.754   6.974   6.382
 2424SOL    HW1 8171   4.791   6.951   6.291
 2424SOL    HW2 8172   4.660   7.006   6.373
 2425SOL     OW 8173   4.414   5.498   5.213
 2425SOL    HW1 8174   4.465   5.415   5.233
 2425SOL    HW2 8175   4.472   5.560   5.159
 2426SOL     OW 8176   2.463   2.498   5.163
 2426SOL    HW1 8177   2.367   2.515   5.142
 2426SOL    HW2 8178   2.471   2.441   5.244
 2427SOL     OW 8179   4.751   1.192   0.653
 2427SOL    HW1 8180   4.838   1.226   0.618
 2427SOL    HW2 8181   4.747   1.092   0.641
 2428SOL     OW 8182   1.655   1.691   2.641
 2428SOL    HW1 8183   1.564   1.669   2.675
 2428SOL    HW2 8184   1.717   1.707   2.718
 2429SOL     OW 8185   6.529   5.427   1.267
 2429SOL    HW1 8186   6.487   5.408   1.178
 2429SOL    HW2 8187   6.624   5.395   1.267
 2430SOL     OW 8188   6.249   1.055   6.149
 2430SOL    HW1 8189   6.165   1.101   6.179
 2430SOL    HW2 8190   6.236   1.019   6.057
 2431SOL     OW 8191   0.749   3.410   1.966
 2431SOL    HW1 8192   0.820   3.412   2.037
 2431SOL    HW2 8193   0.752   3.322   1.919
 2432SOL     OW 8194   2.227   5.081   1.911
 2432SOL    HW1 8195   2.247   5.052   1.818
 2432SOL    HW2 8196   2.313   5.102   1.959
 2433SOL     OW 8197   0.039   4.086   5.487
 2433SOL    HW1 8198   6.973   4.109   5.529
 2433SOL    HW2 8199   0.076   4.166   5.440
 2434SOL     OW 8200   4.462   1.033   3.012
 2434SOL    HW1 8201   4.543   1.092   3.022
 2434SOL    HW2 8202   4.477   0.947   3.062
 2435SOL     OW 8203   5.771   6.490   6.736
 2435SOL    HW1 8204   5.769   6.557   6.661
 2435SOL    HW2 8205   5.734   6.532   6.818
 2436SOL     OW 8206   0.290   2.888   0.822
 2436SOL    HW1 8207   0.289   2.984   0.850
 2436SOL    HW2 8208   0.245   2.878   0.733
 2437SOL     OW 8209   6.748   3.770   1.237
 2437SOL    HW1 8210   6.685   3.752   1.161
 2437SOL    HW2 8211   6.725   3.857   1.280
 2438SOL     OW 8212   3.682   1.788   4.462
 2438SOL    HW1 8213   3.647   1.854   4.395
 2438SOL    HW2 8214   3.648   1.697   4.439
 2439SOL     OW 8215   1.366   5.297   0.936
 2439SOL    HW1 8216   1.461   5.268   0.948
 2439SOL    HW2 8217   1.306   5.221   0.960
 2440SOL     OW 8218   6.580   0.726   5.405
 2440SOL    HW1 8219   6.597   0.674   5.489
 2440SOL    HW2 8220   6.668   0.746   5.361
 2441SOL     OW 8221   5.802   0.823   0.787
 2441SOL    HW1 8222   5.800   0.839   0.885
 2441SOL    HW2 8223   5.713   0.846   0.747
 2442SOL     OW 8224   5.851   2.962   1.676
 2442SOL    HW1 8225   5.834   2.984   1.580
 2442SOL    HW2 8226   5.780   3.003   1.733
 2443SOL     OW 8227   0.421   3.341   1.697
 2443SOL    HW1 8228   0.322   3.337   1.684
 2443SOL    HW2 8229   0.462   3.253   1.673
 2444SOL     OW 8230   3.732   5.132   2.089
 2444SOL    HW1 8231   3.683   5.052   2.123
 2444SOL    HW2 8232   3.745   5.198   2.163
 2445SOL     OW 8233   0.253   1.507   1.258
 2445SOL    HW1 8234   0.308   1.455   1.323
 2445SOL    HW2 8235   0.180   1.448   1.221
 2446SOL     OW 8236   0.655   5.507   2.080
 2446SOL    HW1 8237   0.698   5.449   2.150
 2446SOL    HW2 8238   0.665   5.603   2.106
 2447SOL     OW 8239   2.336   0.041   0.348
 2447SOL    HW1 8240   2.305   6.995   0.280
 2447SOL    HW2 8241   2.419   0.008   0.392
 2448SOL     OW 8242   5.619   1.153   4.849
 2448SOL    HW1 8243   5.568   1.180   4.931
 2448SOL    HW2 8244   5.623   1.054   4.843
 2449SOL     OW 8245   1.486   4.265   1.556
 2449SOL    HW1 8246   1.570   4.319   1.564
 2449SOL    HW2 8247   1.489   4.211   1.471
 2450SOL     OW 8248   1.093   6.435   4.805
 2450SOL    HW1 8249   1.067   6.468   4.714
 2450SOL    HW2 8250   1.012   6.434   4.864
 2451SOL     OW 8251   1.719   6.582   5.434
 2451SOL    HW1 8252   1.746   6.665   5.483
 2451SOL    HW2 8253   1.666   6.606   5.353
 2452SOL     OW 8254   2.534   1.885   3.669
 2452SOL    HW1 8255   2.623   1.893   3.713
 2452SOL    HW2 8256   2.544   1.834   3.583
 2453SOL     OW 8257   1.208   1.555   5.962
 2453SOL    HW1 8258   1.272   1.616   5.914
 2453SOL    HW2 8259   1.257   1.474   5.994
 2454SOL     OW 8260   3.410   6.068   1.027
 2454SOL    HW1 8261   3.381   6.096   0.935
 2454SOL    HW2 8262   3.367   5.981   1.051
 2455SOL     OW 8263   4.236   2.161   0.981
 2455SOL    HW1 8264   4.176   2.154   1.060
 2455SOL    HW2 8265   4.258   2.069   0.948
 2456SOL     OW 8266   0.539   3.469   6.117
 2456SOL    HW1 8267   0.582   3.519   6.042
 2456SOL    HW2 8268   0.563   3.373   6.112
 2457SOL     OW 8269   4.159   2.167   5.410
 2457SOL    HW1 8270   4.258   2.158   5.393
 2457SOL    HW2 8271   4.125   2.084   5.454
 2458SOL     OW 8272   0.362   6.908   3.168
 2458SOL    HW1 8273   0.353   6.809   3.175
 2458SOL    HW2 8274   0.459   6.932   3.165
 2459SOL     OW 8275   1.889   6.855   0.425
 2459SOL    HW1 8276   1.926   6.925   0.486
 2459SOL    HW2 8277   1.800   6.885   0.390
 2460SOL     OW 8278   0.561   1.120   4.829
 2460SOL    HW1 8279   0.527   1.028   4.846
 2460SOL    HW2 8280   0.576   1.167   4.916
 2461SOL     OW 8281   4.491   1.301   3.526
 2461SOL    HW1 8282   4.494   1.326   3.623
 2461SOL    HW2 8283   4.447   1.212   3.516
 2462SOL     OW 8284   0.518   5.319   0.103
 2462SOL    HW1 8285   0.472   5.261   0.169
 2462SOL    HW2 8286   0.458   5.395   0.077
 2463SOL     OW 8287   6.189   0.539   0.252
 2463SOL    HW1 8288   6.139   0.481   0.317
 2463SOL    HW2 8289   6.278   0.562   0.290
 2464SOL     OW 8290   0.623   2.391   4.374
 2464SOL    HW1 8291   0.530   2.354   4.378
 2464SOL    HW2 8292   0.624   2.475   4.320
 2465SOL     OW 8293   0.018   6.796   6.031
 2465SOL    HW1 8294   0.033   6.702   6.000
 2465SOL    HW2 8295   0.069   6.812   6.115
 2466SOL     OW 8296   0.919   1.755   1.508
 2466SOL    HW1 8297   0.986   1.782   1.578
 2466SOL    HW2 8298   0.854   1.690   1.548
 2467SOL     OW 8299   5.986   2.768   5.271
 2467SOL    HW1 8300   6.046   2.801   5.198
 2467SOL    HW2 8301   5.901   2.821   5.272
 2468SOL     OW 8302   3.457   6.949   5.569
 2468SOL    HW1 8303   3.415   6.858   5.567
 2468SOL    HW2 8304   3.541   6.948   5.515
 2469SOL     OW 8305   3.669   1.492   5.721
 2469SOL    HW1 8306   3.595   1.559   5.727
 2469SOL    HW2 8307   3.755   1.539   5.704
 2470SOL     OW 8308   2.392   5.158   6.276
 2470SOL    HW1 8309   2.395   5.097   6.197
 2470SOL    HW2 8310   2.402   5.252   6.245
 2471SOL     OW 8311   2.933   5.119   1.816
 2471SOL    HW1 8312   2.981   5.203   1.840
 2471SOL    HW2 8313   2.958   5.047   1.881
 2472SOL     OW 8314   4.858   1.348   3.758
 2472SOL    HW1 8315   4.941   1.307   3.796
 2472SOL    HW2 8316   4.858   1.446   3.776
 2473SOL     OW 8317   0.355   4.109   3.862
 2473SOL    HW1 8318   0.451   4.089   3.880
 2473SOL    HW2 8319   0.347   4.191   3.806
 2474SOL     OW 8320   0.982   5.869   2.030
 2474SOL    HW1 8321   0.887   5.898   2.042
 2474SOL    HW2 8322   1.042   5.948   2.038
 2475SOL     OW 8323   4.618   1.154   0.332
 2475SOL    HW1 8324   4.590   1.194   0.419
 2475SOL    HW2 8325   4.613   1.055   0.338
 2476SOL     OW 8326   4.826   0.503   0.557
 2476SOL    HW1 8327   4.893   0.457   0.614
 2476SOL    HW2 8328   4.861   0.591   0.527
 2477SOL     OW 8329   3.842   0.261   3.202
 2477SOL    HW1 8330   3.814   0.340   3.148
 2477SOL    HW2 8331   3.886   0.194   3.143
 2478SOL     OW 8332   5.009   0.196   4.988
 2478SOL    HW1 8333   5.010   0.266   5.060
 2478SOL    HW2 8334   4.915   0.174   4.964
 2479SOL     OW 8335   5.937   3.237   0.616
 2479SOL    HW1 8336   5.880   3.159   0.642
 2479SOL    HW2 8337   6.030   3.204   0.598
 2480SOL     OW 8338   3.458   2.492   1.353
 2480SOL    HW1 8339   3.483   2.463   1.446
 2480SOL    HW2 8340   3.364   2.525   1.353
 2481SOL     OW 8341   3.051   0.125   1.604
 2481SOL    HW1 8342   3.146   0.097   1.595
 2481SOL    HW2 8343   2.991   0.048   1.584
 2482SOL     OW 8344   6.144   3.323   6.860
 2482SOL    HW1 8345   6.064   3.302   6.916
 2482SOL    HW2 8346   6.145   3.421   6.839
 2483SOL     OW 8347   1.363   2.674   1.050
 2483SOL    HW1 8348   1.343   2.705   0.957
 2483SOL    HW2 8349   1.342   2.746   1.116
 2484SOL     OW 8350   4.235   1.118   0.654
 2484SOL    HW1 8351   4.322   1.167   0.654
 2484SOL    HW2 8352   4.159   1.184   0.653
 2485SOL     OW 8353   0.184   2.053   6.511
 2485SOL    HW1 8354   0.182   2.095   6.420
 2485SOL    HW2 8355   0.092   2.057   6.551
 2486SOL     OW 8356   6.922   5.686   4.327
 2486SOL    HW1 8357   6.994   5.618   4.308
 2486SOL    HW2 8358   6.953   5.776   4.298
 2487SOL     OW 8359   4.827   6.427   6.714
 2487SOL    HW1 8360   4.860   6.423   6.809
 2487SOL    HW2 8361   4.868   6.506   6.669
 2488SOL     OW 8362   6.049   4.053   0.843
 2488SOL    HW1 8363   6.073   3.997   0.923
 2488SOL    HW2 8364   5.950   4.062   0.838
 2489SOL     OW 8365   6.654   5.487   4.546
 2489SOL    HW1 8366   6.731   5.525   4.597
 2489SOL    HW2 8367   6.569   5.513   4.590
 2490SOL     OW 8368   2.680   5.854   3.294
 2490SOL    HW1 8369   2.607   5.837   3.360
 2490SOL    HW2 8370   2.707   5.767   3.252
 2491SOL     OW 8371   3.736   4.592   1.458
 2491SOL    HW1 8372   3.807   4.620   1.393
 2491SOL    HW2 8373   3.658   4.555   1.407
 2492SOL     OW 8374   6.836   4.953   1.572
 2492SOL    HW1 8375   6.834   4.904   1.659
 2492SOL    HW2 8376   6.925   5.000   1.564
 2493SOL     OW 8377   5.457   6.841   0.832
 2493SOL    HW1 8378   5.392   6.909   0.867
 2493SOL    HW2 8379   5.484   6.866   0.739
 2494SOL     OW 8380   6.244   3.853   1.752
 2494SOL    HW1 8381   6.287   3.930   1.706
 2494SOL    HW2 8382   6.200   3.884   1.836
 2495SOL     OW 8383   0.277   4.564   2.717
 2495SOL    HW1 8384   0.337   4.549   2.638
 2495SOL    HW2 8385   0.318   4.522   2.798
 2496SOL     OW 8386   5.850   4.627   6.291
 2496SOL    HW1 8387   5.932   4.669   6.331
 2496SOL    HW2 8388   5.770   4.652   6.346
 2497SOL     OW 8389   0.340   0.018   2.087
 2497SOL    HW1 8390   0.241   0.013   2.082
 2497SOL    HW2 8391   0.372   0.100   2.038
 2498SOL     OW 8392   2.494   4.086   5.726
 2498SOL    HW1 8393   2.438   4.152   5.675
 2498SOL    HW2 8394   2.557   4.136   5.786
 2499SOL     OW 8395   6.540   3.517   1.810
 2499SOL    HW1 8396   6.441   3.528   1.801
 2499SOL    HW2 8397   6.569   3.544   1.902
 2500SOL     OW 8398   3.489   3.651   0.680
 2500SOL    HW1 8399   3.548   3.589   0.628
 2500SOL    HW2 8400   3.393   3.629   0.663
 2501SOL     OW 8401   5.606   5.537   6.673
 2501SOL    HW1 8402   5.558   5.530   6.585
 2501SOL    HW2 8403   5.674   5.610   6.668
 2502SOL     OW 8404   2.770   5.816   4.394
 2502SOL    HW1 8405   2.846   5.804   4.330
 2502SOL    HW2 8406   2.795   5.779   4.483
 2503SOL     OW 8407   2.821   6.697   5.637
 2503SOL    HW1 8408   2.817   6.780   5.583
 2503SOL    HW2 8409   2.907   6.695   5.689
 2504SOL     OW 8410   3.215   6.936   3.796
 2504SOL    HW1 8411   3.147   6.899   3.860
 2504SOL    HW2 8412   3.224   0.013   3.811
 2505SOL     OW 8413   0.181   4.828   3.816
 2505SOL    HW1 8414   0.106   4.872   3.766
 2505SOL    HW2 8415   0.227   4.763   3.755
 2506SOL     OW 8416   5.202   5.327   5.899
 2506SOL    HW1 8417   5.107   5.348   5.877
 2506SOL    HW2 8418   5.232   5.247   5.847
 2507SOL     OW 8419   6.697   3.110   1.331
 2507SOL    HW1 8420   6.662   3.204   1.334
 2507SOL    HW2 8421   6.620   3.046   1.334
 2508SOL     OW 8422   5.016   1.865   4.701
 2508SOL    HW1 8423   5.011   1.786   4.640
 2508SOL    HW2 8424   5.109   1.872   4.738
 2509SOL     OW 8425   6.996   4.288   5.818
 2509SOL    HW1 8426   7.014   4.305   5.721
 2509SOL    HW2 8427   6.912   4.335   5.844
 2510SOL     OW 8428   3.353   4.021   1.834
 2510SOL    HW1 8429   3.432   4.031   1.893
 2510SOL    HW2 8430   3.376   4.050   1.741
 2511SOL     OW 8431   1.734   0.619   4.568
 2511SOL    HW1 8432   1.646   0.649   4.603
 2511SOL    HW2 8433   1.720   0.557   4.491
 2512SOL     OW 8434   3.395   4.871   4.209
 2512SOL    HW1 8435   3.399   4.902   4.114
 2512SOL    HW2 8436   3.306   4.830   4.226
 2513SOL     OW 8437   2.608   5.540   5.942
 2513SOL    HW1 8438   2.660   5.456   5.933
 2513SOL    HW2 8439   2.510   5.519   5.948
 2514SOL     OW 8440   1.663   2.318   2.404
 2514SOL    HW1 8441   1.724   2.347   2.478
 2514SOL    HW2 8442   1.645   2.395   2.344
 2515SOL     OW 8443   1.476   1.361   1.315
 2515SOL    HW1 8444   1.438   1.452   1.332
 2515SOL    HW2 8445   1.403   1.301   1.280
 2516SOL     OW 8446   6.101   1.960   4.164
 2516SOL    HW1 8447   6.010   1.925   4.185
 2516SOL    HW2 8448   6.104   1.989   4.068
 2517SOL     OW 8449   1.610   1.362   3.926
 2517SOL    HW1 8450   1.662   1.406   4.000
 2517SOL    HW2 8451   1.644   1.269   3.912
 2518SOL     OW 8452   2.649   4.879   1.060
 2518SOL    HW1 8453   2.721   4.810   1.077
 2518SOL    HW2 8454   2.686   4.970   1.077
 2519SOL     OW 8455   1.203   1.331   0.796
 2519SOL    HW1 8456   1.162   1.364   0.881
 2519SOL    HW2 8457   1.255   1.248   0.815
 2520SOL     OW 8458   2.558   1.821   0.488
 2520SOL    HW1 8459   2.636   1.881   0.472
 2520SOL    HW2 8460   2.494   1.828   0.412
 2521SOL     OW 8461   4.744   1.527   5.313
 2521SOL    HW1 8462   4.691   1.518   5.228
 2521SOL    HW2 8463   4.684   1.509   5.391
 2522SOL     OW 8464   1.159   2.682   6.196
 2522SOL    HW1 8465   1.175   2.592   6.236
 2522SOL    HW2 8466   1.173   2.677   6.097
 2523SOL     OW 8467   2.209   5.040   6.776
 2523SOL    HW1 8468   2.177   4.970   6.712
 2523SOL    HW2 8469   2.133   5.072   6.832
 2524SOL     OW 8470   1.641   0.175   4.004
 2524SOL    HW1 8471   1.729   0.128   4.009
 2524SOL    HW2 8472   1.578   0.122   3.947
 2525SOL     OW 8473   6.434   2.629   5.082
 2525SOL    HW1 8474   6.511   2.692   5.071
 2525SOL    HW2 8475   6.380   2.626   4.997
 2526SOL     OW 8476   1.351   6.741   1.080
 2526SOL    HW1 8477   1.431   6.785   1.120
 2526SOL    HW2 8478   1.378   6.655   1.037
 2527SOL     OW 8479   4.956   4.537   6.283
 2527SOL    HW1 8480   4.880   4.576   6.231
 2527SOL    HW2 8481   4.920   4.467   6.345
 2528SOL     OW 8482   4.707   5.571   6.586
 2528SOL    HW1 8483   4.627   5.515   6.609
 2528SOL    HW2 8484   4.783   5.512   6.559
 2529SOL     OW 8485   0.453   6.897   6.854
 2529SOL    HW1 8486   0.515   6.950   6.911
 2529SOL    HW2 8487   0.400   6.960   6.796
 2530SOL     OW 8488   2.075   5.663   6.131
 2530SOL    HW1 8489   2.152   5.675   6.194
 2530SOL    HW2 8490   2.094   5.586   6.070
 2531SOL     OW 8491   6.488   5.251   5.888
 2531SOL    HW1 8492   6.432   5.172   5.864
 2531SOL    HW2 8493   6.583   5.223   5.897
 2532SOL     OW 8494   5.936   6.196   0.940
 2532SOL    HW1 8495   5.982   6.263   0.998
 2532SOL    HW2 8496   5.875   6.140   0.997
 2533SOL     OW 8497   4.839   1.150   3.553
 2533SOL    HW1 8498   4.846   1.071   3.614
 2533SOL    HW2 8499   4.817   1.232   3.607
 2534SOL     OW 8500   4.169   1.425   2.979
 2534SOL    HW1 8501   4.188   1.347   3.039
 2534SOL    HW2 8502   4.207   1.409   2.888
 2535SOL     OW 8503   3.976   2.965   6.234
 2535SOL    HW1 8504   3.880   2.955   6.209
 2535SOL    HW2 8505   3.985   3.030   6.309
 2536SOL     OW 8506   1.212   0.479   0.441
 2536SOL    HW1 8507   1.226   0.487   0.539
 2536SOL    HW2 8508   1.282   0.531   0.393
 2537SOL     OW 8509   3.908   0.173   6.560
 2537SOL    HW1 8510   3.948   0.093   6.516
 2537SOL    HW2 8511   3.981   0.225   6.606
 2538SOL     OW 8512   6.697   3.555   3.743
 2538SOL    HW1 8513   6.632   3.495   3.790
 2538SOL    HW2 8514   6.697   3.533   3.646
 2539SOL     OW 8515   5.264   2.171   5.592
 2539SOL    HW1 8516   5.264   2.212   5.501
 2539SOL    HW2 8517   5.222   2.235   5.657
 2540SOL     OW 8518   3.361   1.890   2.242
 2540SOL    HW1 8519   3.392   1.948   2.167
 2540SOL    HW2 8520   3.359   1.944   2.327
 2541SOL     OW 8521   3.429   6.472   4.610
 2541SOL    HW1 8522   3.367   6.393   4.610
 2541SOL    HW2 8523   3.392   6.544   4.551
 2542SOL     OW 8524   1.709   4.924   6.324
 2542SOL    HW1 8525   1.684   4.852   6.260
 2542SOL    HW2 8526   1.808   4.939   6.320
 2543SOL     OW 8527   1.840   1.218   3.879
 2543SOL    HW1 8528   1.822   1.120   3.880
 2543SOL    HW2 8529   1.913   1.239   3.945
 2544SOL     OW 8530   1.018   4.838   0.190
 2544SOL    HW1 8531   1.108   4.835   0.233
 2544SOL    HW2 8532   0.979   4.746   0.188
 2545SOL     OW 8533   3.008   5.712   2.725
 2545SOL    HW1 8534   3.061   5.766   2.791
 2545SOL    HW2 8535   2.912   5.714   2.750
 2546SOL     OW 8536   6.681   1.223   1.225
 2546SOL    HW1 8537   6.628   1.265   1.151
 2546SOL    HW2 8538   6.763   1.180   1.188
 2547SOL     OW 8539   0.651   3.857   4.884
 2547SOL    HW1 8540   0.567   3.803   4.879
 2547SOL    HW2 8541   0.717   3.810   4.943
 2548SOL     OW 8542   0.781   6.761   4.341
 2548SOL    HW1 8543   0.714   6.774   4.268
 2548SOL    HW2 8544   0.863   6.717   4.303
 2549SOL     OW 8545   6.625   2.396   1.252
 2549SOL    HW1 8546   6.671   2.342   1.182
 2549SOL    HW2 8547   6.527   2.374   1.253
 2550SOL     OW 8548   6.361   5.959   0.211
 2550SOL    HW1 8549   6.280   6.009   0.181
 2550SOL    HW2 8550   6.362   5.869   0.166
 2551SOL     OW 8551   1.401   4.322   6.919
 2551SOL    HW1 8552   1.396   4.408   6.867
 2551SOL    HW2 8553   1.488   4.276   6.898
 2552SOL     OW 8554   1.899   5.940   3.484
 2552SOL    HW1 8555   1.886   5.908   3.390
 2552SOL    HW2 8556   1.829   5.898   3.543
 2553SOL     OW 8557   3.859   3.891   6.845
 2553SOL    HW1 8558   3.935   3.953   6.861
 2553SOL    HW2 8559   3.894   3.804   6.809
 2554SOL     OW 8560   1.521   1.365   6.964
 2554SOL    HW1 8561   1.561   1.274   6.970
 2554SOL    HW2 8562   1.438   1.361   6.907
 2555SOL     OW 8563   6.057   1.354   0.167
 2555SOL    HW1 8564   6.101   1.275   0.210
 2555SOL    HW2 8565   6.082   1.437   0.215
 2556SOL     OW 8566   2.991   6.141   0.871
 2556SOL    HW1 8567   2.906   6.113   0.825
 2556SOL    HW2 8568   2.972   6.159   0.968
 2557SOL     OW 8569   2.318   3.801   0.290
 2557SOL    HW1 8570   2.234   3.750   0.271
 2557SOL    HW2 8571   2.294   3.895   0.316
 2558SOL     OW 8572   4.116   0.595   5.874
 2558SOL    HW1 8573   4.092   0.509   5.829
 2558SOL    HW2 8574   4.215   0.597   5.890
 2559SOL     OW 8575   0.281   4.790   4.947
 2559SOL    HW1 8576   0.209   4.845   4.989
 2559SOL    HW2 8577   0.304   4.829   4.857
 2560SOL     OW 8578   5.882   1.995   6.907
 2560SOL    HW1 8579   5.968   1.960   6.942
 2560SOL    HW2 8580   5.816   1.921   6.898
 2561SOL     OW 8581   3.454   5.388   4.436
 2561SOL    HW1 8582   3.498   5.318   4.378
 2561SOL    HW2 8583   3.397   5.343   4.504
 2562SOL     OW 8584   1.807   4.044   6.892
 2562SOL    HW1 8585   1.849   3.956   6.912
 2562SOL    HW2 8586   1.831   4.109   6.963
 2563SOL     OW 8587   2.266   1.393   0.022
 2563SOL    HW1 8588   2.276   1.418   0.118
 2563SOL    HW2 8589   2.322   1.312   0.002
 2564SOL     OW 8590   1.782   5.501   1.464
 2564SOL    HW1 8591   1.709   5.550   1.511
 2564SOL    HW2 8592   1.752   5.479   1.371
 2565SOL     OW 8593   2.052   0.477   1.124
 2565SOL    HW1 8594   2.118   0.403   1.139
 2565SOL    HW2 8595   2.072   0.553   1.187
 2566SOL     OW 8596   1.308   6.352   6.234
 2566SOL    HW1 8597   1.360   6.432   6.263
 2566SOL    HW2 8598   1.361   6.301   6.166
 2567SOL     OW 8599   1.342   6.095   0.209
 2567SOL    HW1 8600   1.377   6.076   0.117
 2567SOL    HW2 8601   1.408   6.151   0.259
 2568SOL     OW 8602   4.496   3.074   6.855
 2568SOL    HW1 8603   4.471   3.079   6.951
 2568SOL    HW2 8604   4.582   3.024   6.845
 2569SOL     OW 8605   2.396   0.371   2.974
 2569SOL    HW1 8606   2.323   0.423   2.932
 2569SOL    HW2 8607   2.426   0.416   3.058
 2570SOL     OW 8608   5.495   2.048   6.318
 2570SOL    HW1 8609   5.429   2.086   6.382
 2570SOL    HW2 8610   5.504   2.109   6.239
 2571SOL     OW 8611   1.275   4.248   4.591
 2571SOL    HW1 8612   1.323   4.179   4.537
 2571SOL    HW2 8613   1.308   4.246   4.685
 2572SOL     OW 8614   1.856   4.497   3.137
 2572SOL    HW1 8615   1.805   4.577   3.167
 2572SOL    HW2 8616   1.814   4.414   3.177
 2573SOL     OW 8617   1.062   0.337   0.824
 2573SOL    HW1 8618   1.052   0.343   0.725
 2573SOL    HW2 8619   0.973   0.347   0.868
 2574SOL     OW 8620   6.260   3.178   0.089
 2574SOL    HW1 8621   6.305   3.113   0.150
 2574SOL    HW2 8622   6.329   3.220   0.029
 2575SOL     OW 8623   0.437   5.452   6.264
 2575SOL    HW1 8624   0.505   5.380   6.253
 2575SOL    HW2 8625   0.345   5.411   6.262
 2576SOL     OW 8626   4.469   6.316   3.795
 2576SOL    HW1 8627   4.417   6.344   3.876
 2576SOL    HW2 8628   4.455   6.219   3.778
 2577SOL     OW 8629   2.295   4.382   2.467
 2577SOL    HW1 8630   2.262   4.294   2.433
 2577SOL    HW2 8631   2.317   4.441   2.389
 2578SOL     OW 8632   4.230   2.024   3.787
 2578SOL    HW1 8633   4.171   2.087   3.839
 2578SOL    HW2 8634   4.173   1.954   3.744
 2579SOL     OW 8635   0.919   6.452   3.740
 2579SOL    HW1 8636   0.839   6.512   3.735
 2579SOL    HW2 8637   0.995   6.496   3.693
 2580SOL     OW 8638   1.339   2.244   6.779
 2580SOL    HW1 8639   1.350   2.161   6.723
 2580SOL    HW2 8640   1.421   2.301   6.770
 2581SOL     OW 8641   3.467   0.553   5.246
 2581SOL    HW1 8642   3.424   0.626   5.299
 2581SOL    HW2 8643   3.402   0.479   5.232
 2582SOL     OW 8644   6.941   2.957   1.804
 2582SOL    HW1 8645   7.019   3.011   1.771
 2582SOL    HW2 8646   6.893   2.916   1.726
 2583SOL     OW 8647   6.119   0.342   0.772
 2583SOL    HW1 8648   6.176   0.360   0.852
 2583SOL    HW2 8649   6.147   0.403   0.697
 2584SOL     OW 8650   4.681   4.835   5.677
 2584SOL    HW1 8651   4.620   4.836   5.757
 2584SOL    HW2 8652   4.627   4.847   5.594
 2585SOL     OW 8653   3.524   5.211   6.419
 2585SOL    HW1 8654   3.520   5.186   6.322
 2585SOL    HW2 8655   3.515   5.310   6.427
 2586SOL     OW 8656   2.275   0.881   4.110
 2586SOL    HW1 8657   2.241   0.810   4.048
 2586SOL    HW2 8658   2.323   0.951   4.057
 2587SOL     OW 8659   6.851   1.264   3.832
 2587SOL    HW1 8660   6.866   1.243   3.929
 2587SOL    HW2 8661   6.816   1.183   3.785
 2588SOL     OW 8662   4.224   1.107   6.320
 2588SOL    HW1 8663   4.282   1.178   6.360
 2588SOL    HW2 8664   4.186   1.139   6.233
 2589SOL     OW 8665   1.906   6.548   0.149
 2589SOL    HW1 8666   1.989   6.501   0.177
 2589SOL    HW2 8667   1.838   6.481   0.120
 2590SOL     OW 8668   2.667   5.173   0.727
 2590SOL    HW1 8669   2.751   5.121   0.710
 2590SOL    HW2 8670   2.667   5.256   0.672
 2591SOL     OW 8671   6.113   5.461   3.919
 2591SOL    HW1 8672   6.194   5.407   3.940
 2591SOL    HW2 8673   6.138   5.539   3.861
 2592SOL     OW 8674   2.470   4.018   1.185
 2592SOL    HW1 8675   2.506   4.111   1.176
 2592SOL    HW2 8676   2.374   4.017   1.157
 2593SOL     OW 8677   3.276   4.273   0.287
 2593SOL    HW1 8678   3.212   4.247   0.360
 2593SOL    HW2 8679   3.352   4.209   0.285
 2594SOL     OW 8680   1.475   3.497   4.465
 2594SOL    HW1 8681   1.534   3.578   4.462
 2594SOL    HW2 8682   1.532   3.415   4.472
 2595SOL     OW 8683   1.779   1.264   2.526
 2595SOL    HW1 8684   1.781   1.225   2.618
 2595SOL    HW2 8685   1.863   1.317   2.511
 2596SOL     OW 8686   1.082   2.189   0.141
 2596SOL    HW1 8687   1.166   2.242   0.155
 2596SOL    HW2 8688   1.074   2.165   0.044
 2597SOL     OW 8689   6.919   6.179   6.349
 2597SOL    HW1 8690   6.868   6.256   6.312
 2597SOL    HW2 8691   6.953   6.202   6.440
 2598SOL     OW 8692   5.823   2.434   2.672
 2598SOL    HW1 8693   5.764   2.497   2.722
 2598SOL    HW2 8694   5.883   2.485   2.611
 2599SOL     OW 8695   2.944   5.939   1.595
 2599SOL    HW1 8696   2.878   5.907   1.663
 2599SOL    HW2 8697   3.018   5.873   1.587
 2600SOL     OW 8698   5.991   4.399   4.427
 2600SOL    HW1 8699   6.086   4.382   4.453
 2600SOL    HW2 8700   5.971   4.352   4.341
 2601SOL     OW 8701   6.924   1.628   3.646
 2601SOL    HW1 8702   6.960   1.536   3.660
 2601SOL    HW2 8703   6.887   1.636   3.553
 2602SOL     OW 8704   1.273   4.116   3.202
 2602SOL    HW1 8705   1.329   4.093   3.122
 2602SOL    HW2 8706   1.244   4.031   3.247
 2603SOL     OW 8707   3.048   6.558   2.563
 2603SOL    HW1 8708   3.029   6.634   2.500
 2603SOL    HW2 8709   2.991   6.567   2.645
 2604SOL     OW 8710   4.568   2.593   3.724
 2604SOL    HW1 8711   4.599   2.684   3.697
 2604SOL    HW2 8712   4.567   2.533   3.644
 2605SOL     OW 8713   1.955   4.040   1.857
 2605SOL    HW1 8714   1.933   3.953   1.901
 2605SOL    HW2 8715   1.878   4.070   1.801
 2606SOL     OW 8716   4.431   3.328   1.482
 2606SOL    HW1 8717   4.422   3.245   1.427
 2606SOL    HW2 8718   4.388   3.405   1.435
 2607SOL     OW 8719   2.618   2.620   1.499
 2607SOL    HW1 8720   2.715   2.595   1.493
 2607SOL    HW2 8721   2.573   2.601   1.412
 2608SOL     OW 8722   2.896   4.933   5.743
 2608SOL    HW1 8723   2.993   4.958   5.743
 2608SOL    HW2 8724   2.863   4.932   5.838
 2609SOL     OW 8725   6.998   2.500   1.089
 2609SOL    HW1 8726   0.060   2.499   1.033
 2609SOL    HW2 8727   6.920   2.474   1.033
 2610SOL     OW 8728   1.566   4.446   4.822
 2610SOL    HW1 8729   1.516   4.361   4.836
 2610SOL    HW2 8730   1.505   4.514   4.782
 2611SOL     OW 8731   4.886   0.048   6.628
 2611SOL    HW1 8732   4.872   6.992   6.690
 2611SOL    HW2 8733   4.852   0.024   6.537
 2612SOL     OW 8734   6.421   0.127   5.675
 2612SOL    HW1 8735   6.342   0.144   5.735
 2612SOL    HW2 8736   6.505   0.152   5.722
 2613SOL     OW 8737   1.078   6.484   6.752
 2613SOL    HW1 8738   1.114   6.467   6.843
 2613SOL    HW2 8739   1.037   6.400   6.715
 2614SOL     OW 8740   6.373   1.460   6.552
 2614SOL    HW1 8741   6.453   1.502   6.508
 2614SOL    HW2 8742   6.403   1.405   6.630
 2615SOL     OW 8743   0.748   3.226   0.085
 2615SOL    HW1 8744   0.765   3.184   0.174
 2615SOL    HW2 8745   0.780   3.321   0.086
 2616SOL     OW 8746   1.281   0.676   5.659
 2616SOL    HW1 8747   1.262   0.769   5.628
 2616SOL    HW2 8748   1.258   0.668   5.756
 2617SOL     OW 8749   4.914   0.093   1.319
 2617SOL    HW1 8750   4.855   0.171   1.341
 2617SOL    HW2 8751   4.918   0.081   1.220
 2618SOL     OW 8752   0.758   6.385   5.819
 2618SOL    HW1 8753   0.794   6.321   5.752
 2618SOL    HW2 8754   0.828   6.451   5.844
 2619SOL     OW 8755   5.583   1.212   2.591
 2619SOL    HW1 8756   5.498   1.162   2.575
 2619SOL    HW2 8757   5.613   1.198   2.686
 2620SOL     OW 8758   5.759   1.389   1.443
 2620SOL    HW1 8759   5.701   1.322   1.490
 2620SOL    HW2 8760   5.701   1.459   1.400
 2621SOL     OW 8761   1.561   6.263   1.825
 2621SOL    HW1 8762   1.621   6.190   1.857
 2621SOL    HW2 8763   1.501   6.292   1.900
 2622SOL     OW 8764   3.352   3.499   6.716
 2622SOL    HW1 8765   3.306   3.534   6.797
 2622SOL    HW2 8766   3.283   3.478   6.646
 2623SOL     OW 8767   0.456   6.357   3.727
 2623SOL    HW1 8768   0.367   6.321   3.755
 2623SOL    HW2 8769   0.478   6.322   3.636
 2624SOL     OW 8770   0.382   1.303   5.152
 2624SOL    HW1 8771   0.338   1.386   5.187
 2624SOL    HW2 8772   0.382   1.233   5.223
 2625SOL     OW 8773   2.406   4.947   6.463
 2625SOL    HW1 8774   2.499   4.946   6.499
 2625SOL    HW2 8775   2.392   5.030   6.408
 2626SOL     OW 8776   6.630   5.878   6.883
 2626SOL    HW1 8777   6.638   5.949   6.812
 2626SOL    HW2 8778   6.682   5.905   6.963
 2627SOL     OW 8779   1.701   7.019   6.156
 2627SOL    HW1 8780   1.741   0.010   6.247
 2627SOL    HW2 8781   1.647   0.078   6.133
 2628SOL     OW 8782   0.287   4.624   1.758
 2628SOL    HW1 8783   0.225   4.572   1.699
 2628SOL    HW2 8784   0.367   4.654   1.705
 2629SOL     OW 8785   3.329   3.984   2.608
 2629SOL    HW1 8786   3.232   3.985   2.585
 2629SOL    HW2 8787   3.383   4.004   2.526
 2630SOL     OW 8788   3.651   0.928   4.277
 2630SOL    HW1 8789   3.689   1.004   4.224
 2630SOL    HW2 8790   3.672   0.842   4.232
 2631SOL     OW 8791   5.580   0.435   0.302
 2631SOL    HW1 8792   5.503   0.425   0.239
 2631SOL    HW2 8793   5.586   0.529   0.334
 2632SOL     OW 8794   5.992   5.039   2.366
 2632SOL    HW1 8795   6.074   5.065   2.315
 2632SOL    HW2 8796   5.910   5.061   2.312
 2633SOL     OW 8797   0.124   3.188   6.177
 2633SOL    HW1 8798   0.112   3.089   6.186
 2633SOL    HW2 8799   0.190   3.206   6.104
 2634SOL     OW 8800   0.453   0.394   5.722
 2634SOL    HW1 8801   0.371   0.424   5.772
 2634SOL    HW2 8802   0.474   0.461   5.651
 2635SOL     OW 8803   4.743   5.777   3.531
 2635SOL    HW1 8804   4.662   5.739   3.487
 2635SOL    HW2 8805   4.759   5.869   3.496
 2636SOL     OW 8806   3.847   5.926   5.202
 2636SOL    HW1 8807   3.921   5.988   5.230
 2636SOL    HW2 8808   3.762   5.953   5.247
 2637SOL     OW 8809   0.793   0.783   3.391
 2637SOL    HW1 8810   0.887   0.751   3.392
 2637SOL    HW2 8811   0.787   0.868   3.338
 2638SOL     OW 8812   0.893   6.245   4.500
 2638SOL    HW1 8813   0.981   6.267   4.457
 2638SOL    HW2 8814   0.820   6.293   4.452
 2639SOL     OW 8815   4.262   4.845   5.254
 2639SOL    HW1 8816   4.295   4.824   5.162
 2639SOL    HW2 8817   4.179   4.901   5.249
 2640SOL     OW 8818   1.869   0.423   3.552
 2640SOL    HW1 8819   1.830   0.378   3.633
 2640SOL    HW2 8820   1.855   0.365   3.472
 2641SOL     OW 8821   6.122   2.257   6.759
 2641SOL    HW1 8822   6.221   2.268   6.753
 2641SOL    HW2 8823   6.094   2.179   6.704
 2642SOL     OW 8824   6.228   0.621   3.505
 2642SOL    HW1 8825   6.263   0.658   3.418
 2642SOL    HW2 8826   6.246   0.687   3.578
 2643SOL     OW 8827   2.292   4.781   3.839
 2643SOL    HW1 8828   2.262   4.707   3.779
 2643SOL    HW2 8829   2.358   4.838   3.789
 2644SOL     OW 8830   5.252   5.606   4.618
 2644SOL    HW1 8831   5.243   5.508   4.633
 2644SOL    HW2 8832   5.237   5.627   4.522
 2645SOL     OW 8833   4.881   6.010   3.522
 2645SOL    HW1 8834   4.850   5.971   3.609
 2645SOL    HW2 8835   4.981   6.013   3.521
 2646SOL     OW 8836   1.306   2.858   6.359
 2646SOL    HW1 8837   1.267   2.936   6.310
 2646SOL    HW2 8838   1.269   2.773   6.322
 2647SOL     OW 8839   4.937   0.414   2.735
 2647SOL    HW1 8840   4.873   0.423   2.659
 2647SOL    HW2 8841   5.017   0.363   2.704
 2648SOL     OW 8842   0.848   6.632   6.471
 2648SOL    HW1 8843   0.825   6.651   6.566
 2648SOL    HW2 8844   0.915   6.699   6.439
 2649SOL     OW 8845   5.003   1.404   3.438
 2649SOL    HW1 8846   4.904   1.419   3.431
 2649SOL    HW2 8847   5.036   1.362   3.353
 2650SOL     OW 8848   3.281   6.352   3.967
 2650SOL    HW1 8849   3.334   6.267   3.976
 2650SOL    HW2 8850   3.332   6.418   3.913
 2651SOL     OW 8851   4.627   2.209   4.600
 2651SOL    HW1 8852   4.552   2.199   4.666
 2651SOL    HW2 8853   4.660   2.304   4.601
 2652SOL     OW 8854   4.983   4.239   5.007
 2652SOL    HW1 8855   4.905   4.297   5.030
 2652SOL    HW2 8856   4.997   4.172   5.080
 2653SOL     OW 8857   2.314   6.038   6.963
 2653SOL    HW1 8858   2.288   5.942   6.977
 2653SOL    HW2 8859   2.232   6.095   6.966
 2654SOL     OW 8860   6.932   0.975   0.431
 2654SOL    HW1 8861   6.901   1.031   0.354
 2654SOL    HW2 8862   6.856   0.920   0.465
 2655SOL     OW 8863   5.254   6.899   2.585
 2655SOL    HW1 8864   5.231   6.805   2.558
 2655SOL    HW2 8865   5.345   6.900   2.627
 2656SOL     OW 8866   4.392   6.074   3.090
 2656SOL    HW1 8867   4.380   6.173   3.097
 2656SOL    HW2 8868   4.443   6.040   3.169
 2657SOL     OW 8869   0.834   3.746   6.831
 2657SOL    HW1 8870   0.774   3.826   6.824
 2657SOL    HW2 8871   0.864   3.737   6.926
 2658SOL     OW 8872   3.679   5.240   0.960
 2658SOL    HW1 8873   3.645   5.146   0.959
 2658SOL    HW2 8874   3.766   5.244   1.009
 2659SOL     OW 8875   0.060   2.049   5.197
 2659SOL    HW1 8876   0.101   2.124   5.249
 2659SOL    HW2 8877   0.004   2.085   5.123
 2660SOL     OW 8878   0.502   1.461   1.634
 2660SOL    HW1 8879   0.452   1.392   1.687
 2660SOL    HW2 8880   0.508   1.546   1.687
 2661SOL     OW 8881   1.327   1.085   0.918
 2661SOL    HW1 8882   1.410   1.030   0.905
 2661SOL    HW2 8883   1.247   1.025   0.914
 2662SOL     OW 8884   2.622   1.587   2.229
 2662SOL    HW1 8885   2.636   1.535   2.145
 2662SOL    HW2 8886   2.679   1.549   2.302
 2663SOL     OW 8887   4.017   6.796   0.157
 2663SOL    HW1 8888   3.980   6.788   0.065
 2663SOL    HW2 8889   4.074   6.717   0.178
 2664SOL     OW 8890   4.894   3.710   5.426
 2664SOL    HW1 8891   4.898   3.808   5.448
 2664SOL    HW2 8892   4.859   3.660   5.505
 2665SOL     OW 8893   1.914   3.431   4.494
 2665SOL    HW1 8894   1.948   3.370   4.565
 2665SOL    HW2 8895   1.969   3.515   4.492
 2666SOL     OW 8896   1.762   4.146   1.699
 2666SOL    HW1 8897   1.732   4.241   1.712
 2666SOL    HW2 8898   1.694   4.084   1.738
 2667SOL     OW 8899   6.923   2.667   5.062
 2667SOL    HW1 8900   6.915   2.579   5.014
 2667SOL    HW2 8901   6.857   2.731   5.024
 2668SOL     OW 8902   6.201   0.628   3.011
 2668SOL    HW1 8903   6.252   0.564   3.069
 2668SOL    HW2 8904   6.264   0.672   2.947
 2669SOL     OW 8905   2.233   0.465   0.121
 2669SOL    HW1 8906   2.205   0.559   0.135
 2669SOL    HW2 8907   2.152   0.405   0.120
 2670SOL     OW 8908   0.439   0.079   6.329
 2670SOL    HW1 8909   0.442   0.143   6.252
 2670SOL    HW2 8910   0.344   0.062   6.355
 2671SOL     OW 8911   5.208   4.387   5.919
 2671SOL    HW1 8912   5.299   4.346   5.926
 2671SOL    HW2 8913   5.167   4.393   6.011
 2672SOL     OW 8914   3.466   1.005   2.178
 2672SOL    HW1 8915   3.444   1.006   2.276
 2672SOL    HW2 8916   3.412   1.075   2.131
 2673SOL     OW 8917   3.744   0.991   2.575
 2673SOL    HW1 8918   3.720   0.917   2.512
 2673SOL    HW2 8919   3.751   1.077   2.524
 2674SOL     OW 8920   0.441   5.848   3.173
 2674SOL    HW1 8921   0.473   5.757   3.149
 2674SOL    HW2 8922   0.349   5.862   3.136
 2675SOL     OW 8923   4.739   1.253   4.269
 2675SOL    HW1 8924   4.690   1.218   4.349
 2675SOL    HW2 8925   4.735   1.353   4.270
 2676SOL     OW 8926   3.662   4.140   3.917
 2676SOL    HW1 8927   3.628   4.186   3.999
 2676SOL    HW2 8928   3.584   4.103   3.866
 2677SOL     OW 8929   1.915   5.915   1.679
 2677SOL    HW1 8930   1.924   5.816   1.690
 2677SOL    HW2 8931   1.842   5.935   1.613
 2678SOL     OW 8932   3.780   1.869   2.854
 2678SOL    HW1 8933   3.717   1.813   2.799
 2678SOL    HW2 8934   3.787   1.960   2.814
 2679SOL     OW 8935   2.190   2.785   2.555
 2679SOL    HW1 8936   2.263   2.717   2.551
 2679SOL    HW2 8937   2.207   2.848   2.631
 2680SOL     OW 8938   5.780   2.077   0.241
 2680SOL    HW1 8939   5.843   2.014   0.285
 2680SOL    HW2 8940   5.715   2.026   0.184
 2681SOL     OW 8941   2.124   2.460   3.379
 2681SOL    HW1 8942   2.146   2.436   3.285
 2681SOL    HW2 8943   2.158   2.389   3.441
 2682SOL     OW 8944   3.499   4.452   1.315
 2682SOL    HW1 8945   3.407   4.429   1.348
 2682SOL    HW2 8946   3.548   4.368   1.291
 2683SOL     OW 8947   2.350   4.163   2.066
 2683SOL    HW1 8948   2.449   4.150   2.061
 2683SOL    HW2 8949   2.320   4.157   2.161
 2684SOL     OW 8950   6.651   0.229   4.073
 2684SOL    HW1 8951   6.676   0.169   3.996
 2684SOL    HW2 8952   6.614   0.315   4.038
 2685SOL     OW 8953   0.889   5.800   5.201
 2685SOL    HW1 8954   0.837   5.738   5.142
 2685SOL    HW2 8955   0.965   5.839   5.150
 2686SOL     OW 8956   1.111   1.113   5.475
 2686SOL    HW1 8957   1.108   1.207   5.440
 2686SOL    HW2 8958   1.018   1.077   5.482
 2687SOL     OW 8959   4.166   2.026   1.722
 2687SOL    HW1 8960   4.070   2.003   1.739
 2687SOL    HW2 8961   4.199   1.976   1.642
 2688SOL     OW 8962   3.898   2.626   6.682
 2688SOL    HW1 8963   3.872   2.589   6.593
 2688SOL    HW2 8964   3.869   2.721   6.689
 2689SOL     OW 8965   0.989   4.018   3.410
 2689SOL    HW1 8966   1.053   3.947   3.383
 2689SOL    HW2 8967   1.007   4.044   3.505
 2690SOL     OW 8968   4.602   1.541   5.649
 2690SOL    HW1 8969   4.509   1.512   5.623
 2690SOL    HW2 8970   4.596   1.604   5.726
 2691SOL     OW 8971   0.103   3.866   5.354
 2691SOL    HW1 8972   0.048   3.871   5.271
 2691SOL    HW2 8973   0.085   3.945   5.412
 2692SOL     OW 8974   2.420   5.858   2.170
 2692SOL    HW1 8975   2.403   5.791   2.098
 2692SOL    HW2 8976   2.332   5.889   2.208
 2693SOL     OW 8977   1.298   6.027   3.654
 2693SOL    HW1 8978   1.283   6.106   3.713
 2693SOL    HW2 8979   1.395   6.022   3.628
 2694SOL     OW 8980   2.530   0.034   2.609
 2694SOL    HW1 8981   2.483   0.042   2.520
 2694SOL    HW2 8982   2.506   0.112   2.667
 2695SOL     OW 8983   0.466   5.204   3.786
 2695SOL    HW1 8984   0.536   5.268   3.754
 2695SOL    HW2 8985   0.509   5.125   3.829
 2696SOL     OW 8986   4.846   5.007   6.411
 2696SOL    HW1 8987   4.822   4.933   6.348
 2696SOL    HW2 8988   4.764   5.036   6.460
 2697SOL     OW 8989   3.880   2.062   6.987
 2697SOL    HW1 8990   3.818   2.024   6.918
 2697SOL    HW2 8991   3.968   2.083   6.945
 2698SOL     OW 8992   1.593   5.375   6.133
 2698SOL    HW1 8993   1.613   5.345   6.227
 2698SOL    HW2 8994   1.679   5.391   6.085
 2699SOL     OW 8995   2.797   6.251   1.936
 2699SOL    HW1 8996   2.872   6.233   1.999
 2699SOL    HW2 8997   2.759   6.165   1.903
 2700SOL     OW 8998   4.065   1.639   1.253
 2700SOL    HW1 8999   3.991   1.647   1.186
 2700SOL    HW2 9000   4.045   1.566   1.317
 2701SOL     OW 9001   4.845   3.392   4.319
 2701SOL    HW1 9002   4.776   3.325   4.293
 2701SOL    HW2 9003   4.851   3.464   4.249
 2702SOL     OW 9004   2.310   1.136   5.106
 2702SOL    HW1 9005   2.265   1.207   5.160
 2702SOL    HW2 9006   2.326   1.169   5.013
 2703SOL     OW 9007   2.626   6.510   2.412
 2703SOL    HW1 9008   2.646   6.472   2.502
 2703SOL    HW2 9009   2.664   6.451   2.341
 2704SOL     OW 9010   4.983   1.064   3.331
 2704SOL    HW1 9011   4.981   1.156   3.292
 2704SOL    HW2 9012   4.949   1.066   3.425
 2705SOL     OW 9013   0.215   0.273   5.204
 2705SOL    HW1 9014   0.155   0.195   5.189
 2705SOL    HW2 9015   0.291   0.246   5.264
 2706SOL     OW 9016   6.572   3.621   3.269
 2706SOL    HW1 9017   6.604   3.716   3.265
 2706SOL    HW2 9018   6.578   3.580   3.178
 2707SOL     OW 9019   4.339   1.063   3.510
 2707SOL    HW1 9020   4.282   1.081   3.591
 2707SOL    HW2 9021   4.401   0.988   3.530
 2708SOL     OW 9022   5.404   3.790   5.767
 2708SOL    HW1 9023   5.429   3.693   5.773
 2708SOL    HW2 9024   5.398   3.828   5.859
 2709SOL     OW 9025   5.256   1.398   5.792
 2709SOL    HW1 9026   5.235   1.358   5.703
 2709SOL    HW2 9027   5.351   1.428   5.794
 2710SOL     OW 9028   0.745   2.795   4.661
 2710SOL    HW1 9029   0.738   2.789   4.561
 2710SOL    HW2 9030   0.745   2.891   4.689
 2711SOL     OW 9031   4.266   1.169   1.772
 2711SOL    HW1 9032   4.291   1.252   1.822
 2711SOL    HW2 9033   4.168   1.153   1.781
 2712SOL     OW 9034   4.688   6.410   2.019
 2712SOL    HW1 9035   4.679   6.509   2.010
 2712SOL    HW2 9036   4.642   6.365   1.943
 2713SOL     OW 9037   3.759   5.106   5.123
 2713SOL    HW1 9038   3.796   5.036   5.185
 2713SOL    HW2 9039   3.834   5.149   5.074
 2714SOL     OW 9040   3.319   4.886   6.581
 2714SOL    HW1 9041   3.330   4.867   6.679
 2714SOL    HW2 9042   3.354   4.809   6.528
 2715SOL     OW 9043   4.113   0.120   6.335
 2715SOL    HW1 9044   4.188   0.179   6.306
 2715SOL    HW2 9045   4.030   0.143   6.283
 2716SOL     OW 9046   3.870   1.485   2.571
 2716SOL    HW1 9047   3.793   1.513   2.513
 2716SOL    HW2 9048   3.834   1.443   2.655
 2717SOL     OW 9049   1.138   1.786   1.698
 2717SOL    HW1 9050   1.106   1.846   1.771
 2717SOL    HW2 9051   1.186   1.708   1.737
 2718SOL     OW 9052   6.882   1.269   5.688
 2718SOL    HW1 9053   6.830   1.213   5.753
 2718SOL    HW2 9054   6.978   1.274   5.718
 2719SOL     OW 9055   1.283   4.978   3.483
 2719SOL    HW1 9056   1.248   4.888   3.456
 2719SOL    HW2 9057   1.374   4.968   3.522
 2720SOL     OW 9058   1.302   6.065   6.032
 2720SOL    HW1 9059   1.232   6.097   6.096
 2720SOL    HW2 9060   1.384   6.120   6.041
 2721SOL     OW 9061   2.928   6.793   1.767
 2721SOL    HW1 9062   2.875   6.719   1.809
 2721SOL    HW2 9063   3.018   6.797   1.810
 2722SOL     OW 9064   3.682   5.638   6.321
 2722SOL    HW1 9065   3.711   5.619   6.414
 2722SOL    HW2 9066   3.626   5.563   6.287
 2723SOL     OW 9067   3.634   6.130   6.721
 2723SOL    HW1 9068   3.616   6.050   6.777
 2723SOL    HW2 9069   3.727   6.125   6.684
 2724SOL     OW 9070   0.451   6.174   0.783
 2724SOL    HW1 9071   0.435   6.269   0.810
 2724SOL    HW2 9072   0.365   6.134   0.751
 2725SOL     OW 9073   5.875   4.259   4.210
 2725SOL    HW1 9074   5.812   4.284   4.136
 2725SOL    HW2 9075   5.869   4.161   4.229
 2726SOL     OW 9076   6.624   1.866   2.234
 2726SOL    HW1 9077   6.587   1.940   2.292
 2726SOL    HW2 9078   6.626   1.897   2.139
 2727SOL     OW 9079   1.878   5.469   3.435
 2727SOL    HW1 9080   1.826   5.451   3.518
 2727SOL    HW2 9081   1.966   5.511   3.459
 2728SOL     OW 9082   4.751   5.437   6.224
 2728SOL    HW1 9083   4.717   5.430   6.130
 2728SOL    HW2 9084   4.678   5.413   6.288
 2729SOL     OW 9085   5.764   0.433   6.478
 2729SOL    HW1 9086   5.690   0.421   6.544
 2729SOL    HW2 9087   5.772   0.530   6.454
 2730SOL     OW 9088   1.160   5.680   2.594
 2730SOL    HW1 9089   1.186   5.586   2.614
 2730SOL    HW2 9090   1.242   5.738   2.590
 2731SOL     OW 9091   3.077   3.977   4.169
 2731SOL    HW1 9092   3.028   3.920   4.236
 2731SOL    HW2 9093   3.072   4.072   4.196
 2732SOL     OW 9094   5.584   0.732   2.135
 2732SOL    HW1 9095   5.527   0.660   2.173
 2732SOL    HW2 9096   5.630   0.781   2.209
 2733SOL     OW 9097   0.835   5.965   6.829
 2733SOL    HW1 9098   0.928   5.934   6.809
 2733SOL    HW2 9099   0.787   5.985   6.743
 2734SOL     OW 9100   3.544   6.039   2.444
 2734SOL    HW1 9101   3.590   6.127   2.431
 2734SOL    HW2 9102   3.497   6.038   2.533
 2735SOL     OW 9103   0.823   1.454   1.591
 2735SOL    HW1 9104   0.806   1.373   1.647
 2735SOL    HW2 9105   0.916   1.451   1.554
 2736SOL     OW 9106   5.317   4.233   3.042
 2736SOL    HW1 9107   5.351   4.260   3.132
 2736SOL    HW2 9108   5.386   4.256   2.972
 2737SOL     OW 9109   2.995   0.603   5.521
 2737SOL    HW1 9110   2.993   0.703   5.511
 2737SOL    HW2 9111   2.922   0.563   5.466
 2738SOL     OW 9112   5.113   5.733   1.452
 2738SOL    HW1 9113   5.110   5.725   1.552
 2738SOL    HW2 9114   5.022   5.717   1.415
 2739SOL     OW 9115   7.013   5.318   1.652
 2739SOL    HW1 9116   0.011   5.228   1.613
 2739SOL    HW2 9117   0.022   5.320   1.748
 2740SOL     OW 9118   0.536   5.591   3.136
 2740SOL    HW1 9119   0.591   5.546   3.206
 2740SOL    HW2 9120   0.539   5.538   3.051
 2741SOL     OW 9121   0.791   0.355   5.549
 2741SOL    HW1 9122   0.697   0.379   5.523
 2741SOL    HW2 9123   0.851   0.361   5.469
 2742SOL     OW 9124   3.275   5.500   1.829
 2742SOL    HW1 9125   3.251   5.593   1.803
 2742SOL    HW2 9126   3.368   5.480   1.800
 2743SOL     OW 9127   5.468   1.599   2.140
 2743SOL    HW1 9128   5.430   1.522   2.192
 2743SOL    HW2 9129   5.554   1.572   2.097
 2744SOL     OW 9130   3.421   4.092   2.361
 2744SOL    HW1 9131   3.409   4.053   2.270
 2744SOL    HW2 9132   3.389   4.187   2.362
 2745SOL     OW 9133   0.554   6.176   0.394
 2745SOL    HW1 9134   0.594   6.108   0.332
 2745SOL    HW2 9135   0.584   6.158   0.488
 2746SOL     OW 9136   1.872   1.278   3.206
 2746SOL    HW1 9137   1.923   1.359   3.178
 2746SOL    HW2 9138   1.774   1.296   3.195
 2747SOL     OW 9139   3.751   4.912   0.893
 2747SOL    HW1 9140   3.768   4.902   0.795
 2747SOL    HW2 9141   3.779   4.829   0.941
 2748SOL     OW 9142   4.376   0.201   0.252
 2748SOL    HW1 9143   4.318   0.277   0.280
 2748SOL    HW2 9144   4.392   0.141   0.330
 2749SOL     OW 9145   3.338   1.425   0.696
 2749SOL    HW1 9146   3.345   1.326   0.685
 2749SOL    HW2 9147   3.304   1.465   0.611
 2750SOL     OW 9148   3.291   5.541   2.100
 2750SOL    HW1 9149   3.202   5.511   2.134
 2750SOL    HW2 9150   3.288   5.550   2.001
 2751SOL     OW 9151   5.905   5.361   1.037
 2751SOL    HW1 9152   5.925   5.326   0.945
 2751SOL    HW2 9153   5.810   5.390   1.042
 2752SOL     OW 9154   4.214   5.492   6.945
 2752SOL    HW1 9155   4.286   5.536   6.892
 2752SOL    HW2 9156   4.126   5.536   6.924
 2753SOL     OW 9157   5.558   5.780   5.199
 2753SOL    HW1 9158   5.493   5.855   5.187
 2753SOL    HW2 9159   5.528   5.720   5.273
 2754SOL     OW 9160   1.341   6.828   5.859
 2754SOL    HW1 9161   1.259   6.842   5.914
 2754SOL    HW2 9162   1.385   6.916   5.842
 2755SOL     OW 9163   3.568   0.680   2.174
 2755SOL    HW1 9164   3.649   0.622   2.158
 2755SOL    HW2 9165   3.562   0.749   2.103
 2756SOL     OW 9166   4.729   5.735   0.279
 2756SOL    HW1 9167   4.797   5.800   0.314
 2756SOL    HW2 9168   4.717   5.661   0.345
 2757SOL     OW 9169   0.046   4.956   1.102
 2757SOL    HW1 9170   0.091   4.993   1.182
 2757SOL    HW2 9171   0.114   4.914   1.041
 2758SOL     OW 9172   3.816   0.558   5.919
 2758SOL    HW1 9173   3.883   0.630   5.939
 2758SOL    HW2 9174   3.775   0.575   5.830
 2759SOL     OW 9175   5.097   5.567   4.930
 2759SOL    HW1 9176   5.064   5.526   5.014
 2759SOL    HW2 9177   5.021   5.610   4.881
 2760SOL     OW 9178   2.203   6.656   3.705
 2760SOL    HW1 9179   2.189   6.754   3.691
 2760SOL    HW2 9180   2.161   6.629   3.792
 2761SOL     OW 9181   2.173   5.130   3.967
 2761SOL    HW1 9182   2.088   5.180   3.985
 2761SOL    HW2 9183   2.153   5.041   3.927
 2762SOL     OW 9184   1.255   0.443   4.914
 2762SOL    HW1 9185   1.235   0.503   4.992
 2762SOL    HW2 9186   1.179   0.380   4.901
 2763SOL     OW 9187   5.244   1.919   2.467
 2763SOL    HW1 9188   5.343   1.903   2.466
 2763SOL    HW2 9189   5.199   1.858   2.403
 2764SOL     OW 9190   6.549   0.898   1.999
 2764SOL    HW1 9191   6.540   0.836   1.921
 2764SOL    HW2 9192   6.458   0.918   2.036
 2765SOL     OW 9193   5.526   2.197   2.296
 2765SOL    HW1 9194   5.562   2.208   2.389
 2765SOL    HW2 9195   5.529   2.285   2.249
 2766SOL     OW 9196   5.970   0.246   2.713
 2766SOL    HW1 9197   6.016   0.173   2.662
 2766SOL    HW2 9198   6.008   0.252   2.805
 2767SOL     OW 9199   6.486   4.286   5.463
 2767SOL    HW1 9200   6.418   4.358   5.448
 2767SOL    HW2 9201   6.441   4.204   5.499
 2768SOL     OW 9202   5.877   1.305   6.519
 2768SOL    HW1 9203   5.940   1.383   6.522
 2768SOL    HW2 9204   5.783   1.337   6.530
 2769SOL     OW 9205   1.030   4.428   1.522
 2769SOL    HW1 9206   1.013   4.521   1.489
 2769SOL    HW2 9207   1.101   4.385   1.466
 2770SOL     OW 9208   6.542   5.905   1.772
 2770SOL    HW1 9209   6.484   5.829   1.743
 2770SOL    HW2 9210   6.505   5.991   1.736
 2771SOL     OW 9211   5.081   0.985   1.270
 2771SOL    HW1 9212   4.983   0.991   1.287
 2771SOL    HW2 9213   5.124   1.074   1.285
 2772SOL     OW 9214   3.843   2.550   6.403
 2772SOL    HW1 9215   3.754   2.576   6.366
 2772SOL    HW2 9216   3.915   2.601   6.354
 2773SOL     OW 9217   4.009   4.311   0.479
 2773SOL    HW1 9218   3.984   4.252   0.402
 2773SOL    HW2 9219   4.034   4.255   0.558
 2774SOL     OW 9220   5.601   3.135   2.593
 2774SOL    HW1 9221   5.595   3.110   2.496
 2774SOL    HW2 9222   5.590   3.234   2.602
 2775SOL     OW 9223   6.842   6.901   2.276
 2775SOL    HW1 9224   6.873   6.886   2.182
 2775SOL    HW2 9225   6.917   6.938   2.330
 2776SOL     OW 9226   3.427   5.926   5.897
 2776SOL    HW1 9227   3.397   5.839   5.858
 2776SOL    HW2 9228   3.520   5.947   5.865
 2777SOL     OW 9229   2.980   1.269   3.436
 2777SOL    HW1 9230   2.926   1.242   3.356
 2777SOL    HW2 9231   3.069   1.303   3.406
 2778SOL     OW 9232   2.382   1.819   4.638
 2778SOL    HW1 9233   2.339   1.819   4.729
 2778SOL    HW2 9234   2.479   1.797   4.647
 2779SOL     OW 9235   5.591   1.002   0.750
 2779SOL    HW1 9236   5.602   1.097   0.780
 2779SOL    HW2 9237   5.582   1.000   0.650
 2780SOL     OW 9238   4.414   5.857   0.270
 2780SOL    HW1 9239   4.510   5.830   0.264
 2780SOL    HW2 9240   4.359   5.778   0.298
 2781SOL     OW 9241   4.812   4.458   0.303
 2781SOL    HW1 9242   4.839   4.513   0.382
 2781SOL    HW2 9243   4.722   4.418   0.319
 2782SOL     OW 9244   2.613   1.751   6.353
 2782SOL    HW1 9245   2.594   1.685   6.425
 2782SOL    HW2 9246   2.585   1.842   6.382
 2783SOL     OW 9247   0.078   4.493   6.000
 2783SOL    HW1 9248   0.015   4.424   5.962
 2783SOL    HW2 9249   0.169   4.452   6.009
 2784SOL     OW 9250   2.376   2.303   2.177
 2784SOL    HW1 9251   2.402   2.225   2.233
 2784SOL    HW2 9252   2.309   2.275   2.109
 2785SOL     OW 9253   6.024   1.342   1.366
 2785SOL    HW1 9254   5.931   1.351   1.404
 2785SOL    HW2 9255   6.018   1.317   1.269
 2786SOL     OW 9256   3.181   0.130   7.018
 2786SOL    HW1 9257   3.154   0.044   0.040
 2786SOL    HW2 9258   3.106   0.165   6.963
 2787SOL     OW 9259   2.043   2.565   5.441
 2787SOL    HW1 9260   2.121   2.625   5.459
 2787SOL    HW2 9261   1.958   2.618   5.447
 2788SOL     OW 9262   1.010   3.287   0.599
 2788SOL    HW1 9263   1.077   3.243   0.540
 2788SOL    HW2 9264   0.925   3.234   0.598
 2789SOL     OW 9265   6.994   2.268   4.552
 2789SOL    HW1 9266   0.050   2.216   4.589
 2789SOL    HW2 9267   6.965   2.228   4.465
 2790SOL     OW 9268   4.054   6.037   3.420
 2790SOL    HW1 9269   4.027   5.966   3.355
 2790SOL    HW2 9270   3.994   6.034   3.500
 2791SOL     OW 9271   2.039   2.903   2.818
 2791SOL    HW1 9272   1.999   2.812   2.807
 2791SOL    HW2 9273   2.112   2.901   2.887
 2792SOL     OW 9274   1.128   2.551   4.788
 2792SOL    HW1 9275   1.195   2.606   4.739
 2792SOL    HW2 9276   1.040   2.554   4.740
 2793SOL     OW 9277   5.383   0.815   3.895
 2793SOL    HW1 9278   5.440   0.878   3.949
 2793SOL    HW2 9279   5.316   0.868   3.842
 2794SOL     OW 9280   0.571   0.704   1.155
 2794SOL    HW1 9281   0.506   0.628   1.158
 2794SOL    HW2 9282   0.612   0.716   1.245
 2795SOL     OW 9283   1.896   4.293   1.956
 2795SOL    HW1 9284   1.855   4.344   1.881
 2795SOL    HW2 9285   1.960   4.225   1.920
 2796SOL     OW 9286   5.244   4.185   2.474
 2796SOL    HW1 9287   5.254   4.279   2.441
 2796SOL    HW2 9288   5.188   4.132   2.411
 2797SOL     OW 9289   4.203   4.815   4.916
 2797SOL    HW1 9290   4.108   4.840   4.931
 2797SOL    HW2 9291   4.221   4.724   4.953
 2798SOL     OW 9292   1.626   3.474   4.047
 2798SOL    HW1 9293   1.556   3.405   4.062
 2798SOL    HW2 9294   1.716   3.437   4.071
 2799SOL     OW 9295   6.474   5.568   5.638
 2799SOL    HW1 9296   6.471   5.666   5.658
 2799SOL    HW2 9297   6.542   5.524   5.697
 2800SOL     OW 9298   3.123   2.532   6.847
 2800SOL    HW1 9299   3.096   2.525   6.751
 2800SOL    HW2 9300   3.215   2.570   6.853
 2801SOL     OW 9301   4.454   5.582   2.238
 2801SOL    HW1 9302   4.479   5.598   2.333
 2801SOL    HW2 9303   4.426   5.487   2.227
 2802SOL     OW 9304   5.441   0.653   5.761
 2802SOL    HW1 9305   5.446   0.574   5.823
 2802SOL    HW2 9306   5.371   0.635   5.691
 2803SOL     OW 9307   1.973   5.770   5.784
 2803SOL    HW1 9308   1.954   5.677   5.814
 2803SOL    HW2 9309   1.935   5.836   5.849
 2804SOL     OW 9310   6.816   4.828   2.699
 2804SOL    HW1 9311   6.718   4.833   2.717
 2804SOL    HW2 9312   6.833   4.845   2.602
 2805SOL     OW 9313   5.218   4.055   5.912
 2805SOL    HW1 9314   5.271   4.133   5.945
 2805SOL    HW2 9315   5.241   4.037   5.817
 2806SOL     OW 9316   0.169   5.824   3.081
 2806SOL    HW1 9317   0.196   5.778   2.996
 2806SOL    HW2 9318   0.080   5.867   3.069
 2807SOL     OW 9319   4.119   4.844   3.890
 2807SOL    HW1 9320   4.028   4.876   3.917
 2807SOL    HW2 9321   4.137   4.871   3.795
 2808SOL     OW 9322   4.947   6.220   3.814
 2808SOL    HW1 9323   4.920   6.135   3.858
 2808SOL    HW2 9324   4.866   6.274   3.793
 2809SOL     OW 9325   5.395   3.056   0.889
 2809SOL    HW1 9326   5.383   3.139   0.834
 2809SOL    HW2 9327   5.378   2.976   0.831
 2810SOL     OW 9328   1.454   0.215   5.272
 2810SOL    HW1 9329   1.415   0.156   5.342
 2810SOL    HW2 9330   1.452   0.310   5.303
 2811SOL     OW 9331   6.934   0.938   4.259
 2811SOL    HW1 9332   6.883   0.932   4.345
 2811SOL    HW2 9333   6.959   0.847   4.227
 2812SOL     OW 9334   5.352   3.704   2.501
 2812SOL    HW1 9335   5.399   3.633   2.449
 2812SOL    HW2 9336   5.386   3.706   2.595
 2813SOL     OW 9337   6.098   1.494   6.511
 2813SOL    HW1 9338   6.096   1.567   6.442
 2813SOL    HW2 9339   6.190   1.488   6.550
 2814SOL     OW 9340   5.270   4.498   5.092
 2814SOL    HW1 9341   5.330   4.570   5.128
 2814SOL    HW2 9342   5.175   4.523   5.109
 2815SOL     OW 9343   0.174   1.172   5.378
 2815SOL    HW1 9344   0.161   1.136   5.470
 2815SOL    HW2 9345   0.271   1.168   5.354
 2816SOL     OW 9346   5.595   6.161   3.356
 2816SOL    HW1 9347   5.676   6.219   3.342
 2816SOL    HW2 9348   5.549   6.146   3.269
 2817SOL     OW 9349   1.125   1.849   1.069
 2817SOL    HW1 9350   1.097   1.881   0.978
 2817SOL    HW2 9351   1.045   1.844   1.128
 2818SOL     OW 9352   0.242   4.265   5.388
 2818SOL    HW1 9353   0.238   4.365   5.387
 2818SOL    HW2 9354   0.282   4.235   5.475
 2819SOL     OW 9355   6.086   2.814   0.381
 2819SOL    HW1 9356   5.996   2.853   0.363
 2819SOL    HW2 9357   6.141   2.879   0.433
 2820SOL     OW 9358   6.299   2.651   4.416
 2820SOL    HW1 9359   6.319   2.617   4.324
 2820SOL    HW2 9360   6.360   2.607   4.482
 2821SOL     OW 9361   1.350   3.159   4.432
 2821SOL    HW1 9362   1.269   3.212   4.407
 2821SOL    HW2 9363   1.409   3.214   4.491
 2822SOL     OW 9364   3.182   1.669   0.229
 2822SOL    HW1 9365   3.087   1.657   0.201
 2822SOL    HW2 9366   3.212   1.762   0.209
 2823SOL     OW 9367   1.935   6.704   3.223
 2823SOL    HW1 9368   1.911   6.630   3.161
 2823SOL    HW2 9369   2.011   6.757   3.185
 2824SOL     OW 9370   2.965   1.553   4.513
 2824SOL    HW1 9371   3.019   1.570   4.595
 2824SOL    HW2 9372   2.959   1.455   4.497
 2825SOL     OW 9373   6.330   6.294   1.141
 2825SOL    HW1 9374   6.318   6.203   1.099
 2825SOL    HW2 9375   6.427   6.309   1.159
 2826SOL     OW 9376   4.576   2.449   4.767
 2826SOL    HW1 9377   4.534   2.460   4.857
 2826SOL    HW2 9378   4.605   2.538   4.732
 2827SOL     OW 9379   5.671   0.844   5.807
 2827SOL    HW1 9380   5.645   0.939   5.788
 2827SOL    HW2 9381   5.589   0.786   5.803
 2828SOL     OW 9382   2.801   2.285   6.168
 2828SOL    HW1 9383   2.865   2.360   6.183
 2828SOL    HW2 9384   2.804   2.223   6.246
 2829SOL     OW 9385   1.576   6.818   6.704
 2829SOL    HW1 9386   1.634   6.758   6.759
 2829SOL    HW2 9387   1.501   6.852   6.760
 2830SOL     OW 9388   3.652   3.193   6.588
 2830SOL    HW1 9389   3.601   3.205   6.673
 2830SOL    HW2 9390   3.589   3.193   6.510
 2831SOL     OW 9391   6.051   5.608   4.152
 2831SOL    HW1 9392   6.050   5.532   4.087
 2831SOL    HW2 9393   6.135   5.604   4.207
 2832SOL     OW 9394   0.290   0.694   2.044
 2832SOL    HW1 9395   0.289   0.596   2.064
 2832SOL    HW2 9396   0.360   0.714   1.976
 2833SOL     OW 9397   6.013   3.148   2.167
 2833SOL    HW1 9398   5.925   3.100   2.170
 2833SOL    HW2 9399   6.079   3.101   2.226
 2834SOL     OW 9400   3.197   0.883   6.078
 2834SOL    HW1 9401   3.238   0.936   6.004
 2834SOL    HW2 9402   3.187   0.941   6.159
 2835SOL     OW 9403   0.671   6.629   3.219
 2835SOL    HW1 9404   0.639   6.711   3.171
 2835SOL    HW2 9405   0.761   6.647   3.259
 2836SOL     OW 9406   6.549   0.871   0.722
 2836SOL    HW1 9407   6.546   0.849   0.819
 2836SOL    HW2 9408   6.458   0.859   0.682
 2837SOL     OW 9409   5.858   3.056   3.654
 2837SOL    HW1 9410   5.763   3.060   3.626
 2837SOL    HW2 9411   5.875   3.125   3.725
 2838SOL     OW 9412   2.400   5.057   3.788
 2838SOL    HW1 9413   2.485   5.066   3.839
 2838SOL    HW2 9414   2.328   5.110   3.834
 2839SOL     OW 9415   4.976   2.198   1.362
 2839SOL    HW1 9416   4.898   2.256   1.387
 2839SOL    HW2 9417   4.948   2.102   1.364
 2840SOL     OW 9418   0.180   1.883   5.584
 2840SOL    HW1 9419   0.267   1.894   5.536
 2840SOL    HW2 9420   0.110   1.853   5.520
 2841SOL     OW 9421   0.539   6.425   1.173
 2841SOL    HW1 9422   0.547   6.327   1.157
 2841SOL    HW2 9423   0.616   6.456   1.229
 2842SOL     OW 9424   6.202   3.247   3.538
 2842SOL    HW1 9425   6.288   3.287   3.570
 2842SOL    HW2 9426   6.129   3.315   3.548
 2843SOL     OW 9427   3.998   1.979   4.707
 2843SOL    HW1 9428   4.006   1.908   4.637
 2843SOL    HW2 9429   4.019   2.068   4.668
 2844SOL     OW 9430   6.785   3.896   5.692
 2844SOL    HW1 9431   6.829   3.904   5.782
 2844SOL    HW2 9432   6.787   3.985   5.646
 2845SOL     OW 9433   6.506   4.067   5.101
 2845SOL    HW1 9434   6.485   4.000   5.172
 2845SOL    HW2 9435   6.424   4.084   5.046
 2846SOL     OW 9436   4.766   1.764   6.655
 2846SOL    HW1 9437   4.696   1.769   6.726
 2846SOL    HW2 9438   4.724   1.772   6.565
 2847SOL     OW 9439   4.679   4.587   3.974
 2847SOL    HW1 9440   4.772   4.621   3.986
 2847SOL    HW2 9441   4.624   4.657   3.927
 2848SOL     OW 9442   1.290   5.927   4.717
 2848SOL    HW1 9443   1.240   5.856   4.666
 2848SOL    HW2 9444   1.254   6.017   4.693
 2849SOL     OW 9445   2.491   2.875   1.468
 2849SOL    HW1 9446   2.405   2.855   1.421
 2849SOL    HW2 9447   2.554   2.799   1.456
 2850SOL     OW 9448   3.599   1.290   0.121
 2850SOL    HW1 9449   3.564   1.384   0.129
 2850SOL    HW2 9450   3.564   1.249   0.037
 2851SOL     OW 9451   2.464   4.532   6.438
 2851SOL    HW1 9452   2.536   4.536   6.370
 2851SOL    HW2 9453   2.483   4.599   6.511
 2852SOL     OW 9454   0.253   3.382   6.371
 2852SOL    HW1 9455   0.189   3.338   6.308
 2852SOL    HW2 9456   0.285   3.468   6.330
 2853SOL     OW 9457   3.434   3.556   1.474
 2853SOL    HW1 9458   3.495   3.624   1.513
 2853SOL    HW2 9459   3.340   3.592   1.472
 2854SOL     OW 9460   1.411   1.129   3.602
 2854SOL    HW1 9461   1.384   1.204   3.542
 2854SOL    HW2 9462   1.510   1.129   3.615
 2855SOL     OW 9463   3.097   0.876   5.422
 2855SOL    HW1 9464   3.012   0.867   5.369
 2855SOL    HW2 9465   3.175   0.864   5.360
 2856SOL     OW 9466   2.190   1.558   4.893
 2856SOL    HW1 9467   2.190   1.506   4.808
 2856SOL    HW2 9468   2.276   1.543   4.942
 2857SOL     OW 9469   3.171   3.870   2.973
 2857SOL    HW1 9470   3.108   3.863   2.896
 2857SOL    HW2 9471   3.120   3.867   3.058
 2858SOL     OW 9472   5.899   3.342   2.748
 2858SOL    HW1 9473   5.937   3.265   2.697
 2858SOL    HW2 9474   5.819   3.378   2.701
 2859SOL     OW 9475   6.370   6.657   0.588
 2859SOL    HW1 9476   6.331   6.726   0.527
 2859SOL    HW2 9477   6.470   6.657   0.580
 2860SOL     OW 9478   4.324   1.725   1.832
 2860SOL    HW1 9479   4.330   1.778   1.747
 2860SOL    HW2 9480   4.415   1.718   1.873
 2861SOL     OW 9481   3.479   5.678   5.731
 2861SOL    HW1 9482   3.533   5.638   5.806
 2861SOL    HW2 9483   3.405   5.616   5.707
 2862SOL     OW 9484   5.763   0.316   4.707
 2862SOL    HW1 9485   5.800   0.223   4.703
 2862SOL    HW2 9486   5.839   0.381   4.712
 2863SOL     OW 9487   6.120   1.689   0.155
 2863SOL    HW1 9488   6.197   1.681   0.218
 2863SOL    HW2 9489   6.035   1.691   0.207
 2864SOL     OW 9490   3.153   1.304   7.013
 2864SOL    HW1 9491   3.173   1.206   7.020
 2864SOL    HW2 9492   3.056   1.316   6.989
 2865SOL     OW 9493   4.734   5.091   4.721
 2865SOL    HW1 9494   4.723   5.054   4.813
 2865SOL    HW2 9495   4.688   5.032   4.655
 2866SOL     OW 9496   6.867   6.779   6.540
 2866SOL    HW1 9497   6.824   6.855   6.491
 2866SOL    HW2 9498   6.812   6.754   6.619
 2867SOL     OW 9499   6.509   4.103   3.352
 2867SOL    HW1 9500   6.549   4.102   3.443
 2867SOL    HW2 9501   6.409   4.105   3.360
 2868SOL     OW 9502   1.645   4.889   5.700
 2868SOL    HW1 9503   1.610   4.971   5.745
 2868SOL    HW2 9504   1.680   4.825   5.769
 2869SOL     OW 9505   6.193   1.457   2.311
 2869SOL    HW1 9506   6.230   1.394   2.243
 2869SOL    HW2 9507   6.118   1.509   2.270
 2870SOL     OW 9508   4.945   1.748   2.558
 2870SOL    HW1 9509   4.872   1.685   2.584
 2870SOL    HW2 9510   4.931   1.836   2.603
 2871SOL     OW 9511   1.580   2.001   5.740
 2871SOL    HW1 9512   1.652   2.047   5.793
 2871SOL    HW2 9513   1.615   1.914   5.705
 2872SOL     OW 9514   2.479   6.294   4.201
 2872SOL    HW1 9515   2.541   6.369   4.179
 2872SOL    HW2 9516   2.485   6.274   4.299
 2873SOL     OW 9517   0.079   5.304   1.901
 2873SOL    HW1 9518   0.169   5.269   1.924
 2873SOL    HW2 9519   0.047   5.366   1.973
 2874SOL     OW 9520   6.019   1.631   2.124
 2874SOL    HW1 9521   5.929   1.643   2.165
 2874SOL    HW2 9522   6.010   1.585   2.035
 2875SOL     OW 9523   3.249   4.965   0.357
 2875SOL    HW1 9524   3.341   4.947   0.323
 2875SOL    HW2 9525   3.238   4.926   0.448
 2876SOL     OW 9526   7.018   1.154   2.611
 2876SOL    HW1 9527   7.003   1.069   2.561
 2876SOL    HW2 9528   0.036   1.222   2.550
 2877SOL     OW 9529   2.377   3.252   6.120
 2877SOL    HW1 9530   2.424   3.217   6.201
 2877SOL    HW2 9531   2.362   3.350   6.131
 2878SOL     OW 9532   3.143   4.500   6.858
 2878SOL    HW1 9533   3.204   4.454   6.793
 2878SOL    HW2 9534   3.180   4.490   6.951
 2879SOL     OW 9535   5.152   4.873   6.579
 2879SOL    HW1 9536   5.173   4.796   6.640
 2879SOL    HW2 9537   5.151   4.840   6.484
 2880SOL     OW 9538   0.945   6.213   1.478
 2880SOL    HW1 9539   0.850   6.244   1.474
 2880SOL    HW2 9540   1.001   6.284   1.522
 2881SOL     OW 9541   0.122   0.220   0.215
 2881SOL    HW1 9542   0.114   0.282   0.137
 2881SOL    HW2 9543   0.032   0.183   0.238
 2882SOL     OW 9544   0.105   3.245   3.166
 2882SOL    HW1 9545   0.075   3.283   3.254
 2882SOL    HW2 9546   0.025   3.222   3.111
 2883SOL     OW 9547   4.434   6.904   2.156
 2883SOL    HW1 9548   4.493   6.977   2.123
 2883SOL    HW2 9549   4.409   6.921   2.251
 2884SOL     OW 9550   1.434   6.154   3.108
 2884SOL    HW1 9551   1.436   6.063   3.066
 2884SOL    HW2 9552   1.518   6.167   3.161
 2885SOL     OW 9553   0.352   2.099   3.491
 2885SOL    HW1 9554   0.371   2.174   3.555
 2885SOL    HW2 9555   0.437   2.049   3.473
 2886SOL     OW 9556   2.188   2.530   5.966
 2886SOL    HW1 9557   2.136   2.516   5.882
 2886SOL    HW2 9558   2.285   2.512   5.949
 2887SOL     OW 9559   1.989   1.338   4.732
 2887SOL    HW1 9560   1.896   1.338   4.694
 2887SOL    HW2 9561   1.984   1.357   4.830
 2888SOL     OW 9562   6.630   4.999   6.769
 2888SOL    HW1 9563   6.700   5.042   6.712
 2888SOL    HW2 9564   6.608   5.059   6.846
 2889SOL     OW 9565   0.719   0.123   2.305
 2889SOL    HW1 9566   0.641   0.183   2.288
 2889SOL    HW2 9567   0.735   0.117   2.404
 2890SOL     OW 9568   3.419   6.772   0.933
 2890SOL    HW1 9569   3.511   6.791   0.967
 2890SOL    HW2 9570   3.389   6.847   0.874
 2891SOL     OW 9571   2.504   4.979   4.256
 2891SOL    HW1 9572   2.437   4.951   4.187
 2891SOL    HW2 9573   2.596   4.966   4.220
 2892SOL     OW 9574   4.572   4.170   5.473
 2892SOL    HW1 9575   4.555   4.254   5.526
 2892SOL    HW2 9576   4.655   4.181   5.419
 2893SOL     OW 9577   2.982   0.856   6.414
 2893SOL    HW1 9578   3.007   0.933   6.473
 2893SOL    HW2 9579   3.064   0.802   6.394
 2894SOL     OW 9580   3.276   2.963   1.035
 2894SOL    HW1 9581   3.221   2.913   1.102
 2894SOL    HW2 9582   3.363   2.990   1.076
 2895SOL     OW 9583   2.876   3.598   6.532
 2895SOL    HW1 9584   2.855   3.668   6.464
 2895SOL    HW2 9585   2.801   3.532   6.537
 2896SOL     OW 9586   2.106   5.339   1.035
 2896SOL    HW1 9587   2.062   5.421   1.070
 2896SOL    HW2 9588   2.073   5.320   0.943
 2897SOL     OW 9589   1.695   6.666   3.691
 2897SOL    HW1 9590   1.628   6.679   3.764
 2897SOL    HW2 9591   1.758   6.744   3.690
 2898SOL     OW 9592   3.002   5.090   2.208
 2898SOL    HW1 9593   2.971   4.995   2.214
 2898SOL    HW2 9594   3.082   5.094   2.148
 2899SOL     OW 9595   6.535   0.459   6.877
 2899SOL    HW1 9596   6.609   0.524   6.859
 2899SOL    HW2 9597   6.463   0.505   6.929
 2900SOL     OW 9598   2.390   5.396   6.173
 2900SOL    HW1 9599   2.375   5.480   6.225
 2900SOL    HW2 9600   2.356   5.408   6.079
 2901SOL     OW 9601   2.823   0.917   1.703
 2901SOL    HW1 9602   2.733   0.921   1.747
 2901SOL    HW2 9603   2.824   0.979   1.624
 2902SOL     OW 9604   5.521   5.865   1.413
 2902SOL    HW1 9605   5.565   5.779   1.386
 2902SOL    HW2 9606   5.470   5.902   1.335
 2903SOL     OW 9607   2.559   2.110   2.281
 2903SOL    HW1 9608   2.633   2.106   2.348
 2903SOL    HW2 9609   2.591   2.158   2.200
 2904SOL     OW 9610   1.872   3.118   4.969
 2904SOL    HW1 9611   1.897   3.081   4.880
 2904SOL    HW2 9612   1.942   3.183   4.998
 2905SOL     OW 9613   1.384   2.639   1.398
 2905SOL    HW1 9614   1.383   2.738   1.381
 2905SOL    HW2 9615   1.291   2.604   1.403
 2906SOL     OW 9616   5.554   5.811   1.878
 2906SOL    HW1 9617   5.511   5.868   1.808
 2906SOL    HW2 9618   5.484   5.762   1.929
 2907SOL     OW 9619   6.647   0.877   3.990
 2907SOL    HW1 9620   6.717   0.946   4.007
 2907SOL    HW2 9621   6.602   0.895   3.903
 2908SOL     OW 9622   4.200   6.138   4.669
 2908SOL    HW1 9623   4.176   6.091   4.585
 2908SOL    HW2 9624   4.117   6.173   4.713
 2909SOL     OW 9625   2.183   5.496   4.917
 2909SOL    HW1 9626   2.090   5.532   4.909
 2909SOL    HW2 9627   2.203   5.476   5.013
 2910SOL     OW 9628   5.397   6.177   5.774
 2910SOL    HW1 9629   5.362   6.114   5.705
 2910SOL    HW2 9630   5.324   6.240   5.801
 2911SOL     OW 9631   1.575   4.209   3.378
 2911SOL    HW1 9632   1.562   4.128   3.322
 2911SOL    HW2 9633   1.601   4.182   3.471
 2912SOL     OW 9634   2.928   5.516   0.632
 2912SOL    HW1 9635   2.991   5.444   0.661
 2912SOL    HW2 9636   2.837   5.477   0.617
 2913SOL     OW 9637   0.799   2.692   2.742
 2913SOL    HW1 9638   0.779   2.773   2.797
 2913SOL    HW2 9639   0.732   2.621   2.762
 2914SOL     OW 9640   5.051   5.440   5.446
 2914SOL    HW1 9641   5.148   5.421   5.432
 2914SOL    HW2 9642   5.039   5.484   5.535
 2915SOL     OW 9643   4.230   1.229   4.232
 2915SOL    HW1 9644   4.259   1.293   4.161
 2915SOL    HW2 9645   4.206   1.280   4.315
 2916SOL     OW 9646   4.993   5.856   4.571
 2916SOL    HW1 9647   5.030   5.946   4.547
 2916SOL    HW2 9648   5.038   5.786   4.516
 2917SOL     OW 9649   4.535   1.319   2.757
 2917SOL    HW1 9650   4.458   1.304   2.695
 2917SOL    HW2 9651   4.546   1.417   2.775
 2918SOL     OW 9652   0.020   3.990   3.650
 2918SOL    HW1 9653   6.949   3.989   3.612
 2918SOL    HW2 9654   0.055   4.084   3.650
 2919SOL     OW 9655   6.749   6.001   0.083
 2919SOL    HW1 9656   6.715   5.990   0.176
 2919SOL    HW2 9657   6.849   6.003   0.083
 2920SOL     OW 9658   4.326   2.379   3.279
 2920SOL    HW1 9659   4.284   2.441   3.345
 2920SOL    HW2 9660   4.254   2.338   3.222
 2921SOL     OW 9661   0.703   0.345   2.031
 2921SOL    HW1 9662   0.759   0.276   1.984
 2921SOL    HW2 9663   0.756   0.384   2.107
 2922SOL     OW 9664   4.045   6.899   5.497
 2922SOL    HW1 9665   4.062   6.890   5.595
 2922SOL    HW2 9666   4.014   6.991   5.477
 2923SOL     OW 9667   6.552   4.241   1.259
 2923SOL    HW1 9668   6.536   4.340   1.254
 2923SOL    HW2 9669   6.477   4.198   1.310
 2924SOL     OW 9670   5.874   0.855   5.613
 2924SOL    HW1 9671   5.788   0.839   5.661
 2924SOL    HW2 9672   5.947   0.800   5.655
 2925SOL     OW 9673   5.548   3.971   1.354
 2925SOL    HW1 9674   5.587   3.930   1.272
 2925SOL    HW2 9675   5.465   4.021   1.330
 2926SOL     OW 9676   0.206   1.253   4.568
 2926SOL    HW1 9677   0.191   1.204   4.482
 2926SOL    HW2 9678   0.144   1.217   4.638
 2927SOL     OW 9679   0.522   2.319   2.690
 2927SOL    HW1 9680   0.439   2.270   2.718
 2927SOL    HW2 9681   0.564   2.362   2.769
 2928SOL     OW 9682   5.946   6.433   0.633
 2928SOL    HW1 9683   5.896   6.419   0.718
 2928SOL    HW2 9684   6.043   6.441   0.653
 2929SOL     OW 9685   0.875   6.842   5.967
 2929SOL    HW1 9686   0.794   6.850   5.909
 2929SOL    HW2 9687   0.957   6.841   5.910
 2930SOL     OW 9688   3.680   6.665   4.576
 2930SOL    HW1 9689   3.593   6.709   4.555
 2930SOL    HW2 9690   3.690   6.656   4.675
 2931SOL     OW 9691   3.963   5.842   6.289
 2931SOL    HW1 9692   4.024   5.921   6.281
 2931SOL    HW2 9693   3.887   5.865   6.349
 2932SOL     OW 9694   1.252   4.464   1.988
 2932SOL    HW1 9695   1.231   4.397   2.059
 2932SOL    HW2 9696   1.181   4.535   1.988
 2933SOL     OW 9697   4.894   1.625   3.766
 2933SOL    HW1 9698   4.901   1.655   3.671
 2933SOL    HW2 9699   4.975   1.655   3.817
 2934SOL     OW 9700   2.756   0.508   0.104
 2934SOL    HW1 9701   2.838   0.541   0.150
 2934SOL    HW2 9702   2.730   0.419   0.141
 2935SOL     OW 9703   6.198   2.127   1.325
 2935SOL    HW1 9704   6.163   2.118   1.231
 2935SOL    HW2 9705   6.278   2.069   1.337
 2936SOL     OW 9706   3.904   6.231   0.719
 2936SOL    HW1 9707   3.942   6.288   0.646
 2936SOL    HW2 9708   3.829   6.176   0.682
 2937SOL     OW 9709   3.244   4.402   0.777
 2937SOL    HW1 9710   3.212   4.496   0.790
 2937SOL    HW2 9711   3.278   4.366   0.864
 2938SOL     OW 9712   4.833   5.284   5.509
 2938SOL    HW1 9713   4.789   5.241   5.430
 2938SOL    HW2 9714   4.920   5.324   5.482
 2939SOL     OW 9715   0.083   6.149   5.503
 2939SOL    HW1 9716   0.094   6.088   5.425
 2939SOL    HW2 9717   0.080   6.244   5.470
 2940SOL     OW 9718   4.328   0.557   5.530
 2940SOL    HW1 9719   4.374   0.645   5.529
 2940SOL    HW2 9720   4.262   0.553   5.455
 2941SOL     OW 9721   2.450   1.998   5.135
 2941SOL    HW1 9722   2.506   2.042   5.205
 2941SOL    HW2 9723   2.471   1.900   5.132
 2942SOL     OW 9724   3.996   6.663   4.216
 2942SOL    HW1 9725   4.085   6.636   4.180
 2942SOL    HW2 9726   3.924   6.639   4.151
 2943SOL     OW 9727   5.915   4.018   3.392
 2943SOL    HW1 9728   5.850   4.058   3.456
 2943SOL    HW2 9729   5.868   3.995   3.306
 2944SOL     OW 9730   3.599   6.077   6.115
 2944SOL    HW1 9731   3.631   5.983   6.128
 2944SOL    HW2 9732   3.541   6.103   6.192
 2945SOL     OW 9733   3.097   3.043   3.528
 2945SOL    HW1 9734   3.186   3.088   3.521
 2945SOL    HW2 9735   3.085   3.007   3.621
 2946SOL     OW 9736   6.661   6.031   5.815
 2946SOL    HW1 9737   6.595   5.983   5.758
 2946SOL    HW2 9738   6.750   5.987   5.807
 2947SOL     OW 9739   6.785   4.712   0.230
 2947SOL    HW1 9740   6.857   4.669   0.176
 2947SOL    HW2 9741   6.766   4.656   0.310
 2948SOL     OW 9742   6.351   4.634   4.932
 2948SOL    HW1 9743   6.358   4.729   4.961
 2948SOL    HW2 9744   6.258   4.616   4.900
 2949SOL     OW 9745   1.217   6.296   0.582
 2949SOL    HW1 9746   1.246   6.206   0.615
 2949SOL    HW2 9747   1.161   6.284   0.500
 2950SOL     OW 9748   5.195   3.722   4.397
 2950SOL    HW1 9749   5.253   3.802   4.412
 2950SOL    HW2 9750   5.150   3.697   4.484
 2951SOL     OW 9751   6.519   1.111   1.666
 2951SOL    HW1 9752   6.618   1.121   1.664
 2951SOL    HW2 9753   6.495   1.015   1.677
 2952SOL     OW 9754   1.603   3.635   2.095
 2952SOL    HW1 9755   1.656   3.704   2.144
 2952SOL    HW2 9756   1.649   3.546   2.103
 2953SOL     OW 9757   5.599   0.620   3.102
 2953SOL    HW1 9758   5.527   0.685   3.077
 2953SOL    HW2 9759   5.616   0.558   3.025
 2954SOL     OW 9760   6.029   6.634   1.827
 2954SOL    HW1 9761   5.944   6.616   1.777
 2954SOL    HW2 9762   6.015   6.611   1.924
 2955SOL     OW 9763   6.185   3.175   0.528
 2955SOL    HW1 9764   6.208   3.259   0.478
 2955SOL    HW2 9765   6.230   3.097   0.484
 2956SOL     OW 9766   6.462   5.630   2.395
 2956SOL    HW1 9767   6.440   5.728   2.402
 2956SOL    HW2 9768   6.378   5.579   2.374
 2957SOL     OW 9769   0.628   3.598   1.331
 2957SOL    HW1 9770   0.606   3.589   1.428
 2957SOL    HW2 9771   0.720   3.635   1.320
 2958SOL     OW 9772   2.426   5.044   6.034
 2958SOL    HW1 9773   2.483   4.962   6.029
 2958SOL    HW2 9774   2.443   5.102   5.954
 2959SOL     OW 9775   4.014   5.289   7.016
 2959SOL    HW1 9776   4.051   5.354   6.950
 2959SOL    HW2 9777   4.086   5.261   0.058
 2960SOL     OW 9778   2.421   1.963   6.977
 2960SOL    HW1 9779   2.338   1.931   6.932
 2960SOL    HW2 9780   2.429   2.062   6.965
 2961SOL     OW 9781   5.548   3.099   4.566
 2961SOL    HW1 9782   5.512   3.028   4.506
 2961SOL    HW2 9783   5.583   3.174   4.510
 2962SOL     OW 9784   3.716   1.119   4.107
 2962SOL    HW1 9785   3.708   1.185   4.032
 2962SOL    HW2 9786   3.813   1.098   4.122
 2963SOL     OW 9787   1.946   2.676   4.814
 2963SOL    HW1 9788   1.867   2.710   4.866
 2963SOL    HW2 9789   1.965   2.581   4.840
 2964SOL     OW 9790   3.149   5.958   0.421
 2964SOL    HW1 9791   3.131   5.970   0.518
 2964SOL    HW2 9792   3.217   5.885   0.408
 2965SOL     OW 9793   0.752   2.529   5.938
 2965SOL    HW1 9794   0.729   2.487   6.026
 2965SOL    HW2 9795   0.809   2.466   5.886
 2966SOL     OW 9796   4.525   4.509   3.682
 2966SOL    HW1 9797   4.426   4.500   3.668
 2966SOL    HW2 9798   4.568   4.531   3.594
 2967SOL     OW 9799   5.961   1.608   4.100
 2967SOL    HW1 9800   6.033   1.602   4.031
 2967SOL    HW2 9801   5.875   1.636   4.056
 2968SOL     OW 9802   6.761   4.000   3.583
 2968SOL    HW1 9803   6.751   4.073   3.651
 2968SOL    HW2 9804   6.680   3.941   3.585
 2969SOL     OW 9805   4.591   1.515   5.094
 2969SOL    HW1 9806   4.533   1.590   5.064
 2969SOL    HW2 9807   4.622   1.462   5.015
 2970SOL     OW 9808   1.070   4.473   6.622
 2970SOL    HW1 9809   1.101   4.439   6.711
 2970SOL    HW2 9810   1.139   4.453   6.553
 2971SOL     OW 9811   4.975   3.416   3.396
 2971SOL    HW1 9812   4.877   3.401   3.385
 2971SOL    HW2 9813   5.022   3.328   3.401
 2972SOL     OW 9814   0.349   4.195   6.050
 2972SOL    HW1 9815   0.447   4.209   6.044
 2972SOL    HW2 9816   0.325   4.170   6.144
 2973SOL     OW 9817   5.475   5.935   4.455
 2973SOL    HW1 9818   5.385   5.946   4.499
 2973SOL    HW2 9819   5.546   5.972   4.515
 2974SOL     OW 9820   0.525   3.696   2.113
 2974SOL    HW1 9821   0.509   3.631   2.038
 2974SOL    HW2 9822   0.617   3.683   2.149
 2975SOL     OW 9823   0.274   0.873   4.711
 2975SOL    HW1 9824   0.211   0.820   4.654
 2975SOL    HW2 9825   0.228   0.954   4.745
 2976SOL     OW 9826   3.377   6.961   1.964
 2976SOL    HW1 9827   3.449   6.898   1.996
 2976SOL    HW2 9828   3.416   0.031   1.952
 2977SOL     OW 9829   3.526   6.770   3.977
 2977SOL    HW1 9830   3.517   6.726   4.067
 2977SOL    HW2 9831   3.512   6.869   3.987
 2978SOL     OW 9832   4.313   6.399   6.968
 2978SOL    HW1 9833   4.290   6.364   0.037
 2978SOL    HW2 9834   4.264   6.485   6.952
 2979SOL     OW 9835   3.070   0.796   3.552
 2979SOL    HW1 9836   3.094   0.892   3.565
 2979SOL    HW2 9837   2.984   0.776   3.598
 2980SOL     OW 9838   6.954   6.213   3.940
 2980SOL    HW1 9839   6.865   6.170   3.951
 2980SOL    HW2 9840   0.002   6.143   3.921
 2981SOL     OW 9841   1.930   1.319   5.256
 2981SOL    HW1 9842   1.924   1.381   5.334
 2981SOL    HW2 9843   1.863   1.246   5.266
 2982SOL     OW 9844   4.581   0.280   3.185
 2982SOL    HW1 9845   4.497   0.287   3.237
 2982SOL    HW2 9846   4.611   0.184   3.182
 2983SOL     OW 9847   6.291   0.402   3.156
 2983SOL    HW1 9848   6.331   0.314   3.131
 2983SOL    HW2 9849   6.213   0.387   3.216
 2984SOL     OW 9850   5.105   4.837   1.759
 2984SOL    HW1 9851   5.055   4.917   1.726
 2984SOL    HW2 9852   5.127   4.849   1.856
 2985SOL     OW 9853   6.431   2.234   3.155
 2985SOL    HW1 9854   6.458   2.218   3.250
 2985SOL    HW2 9855   6.476   2.317   3.121
 2986SOL     OW 9856   2.189   3.907   5.281
 2986SOL    HW1 9857   2.254   3.909   5.205
 2986SOL    HW2 9858   2.099   3.879   5.247
 2987SOL     OW 9859   4.467   2.528   5.003
 2987SOL    HW1 9860   4.464   2.617   5.048
 2987SOL    HW2 9861   4.377   2.484   5.009
 2988SOL     OW 9862   0.806   0.404   2.487
 2988SOL    HW1 9863   0.712   0.407   2.455
 2988SOL    HW2 9864   0.807   0.389   2.586
 2989SOL     OW 9865   6.273   5.182   0.903
 2989SOL    HW1 9866   6.267   5.092   0.860
 2989SOL    HW2 9867   6.203   5.242   0.864
 2990SOL     OW 9868   3.672   0.304   0.957
 2990SOL    HW1 9869   3.629   0.220   0.991
 2990SOL    HW2 9870   3.764   0.312   0.996
 2991SOL     OW 9871   6.494   4.992   0.669
 2991SOL    HW1 9872   6.462   5.085   0.650
 2991SOL    HW2 9873   6.439   4.953   0.743
 2992SOL     OW 9874   4.275   4.424   6.373
 2992SOL    HW1 9875   4.274   4.523   6.368
 2992SOL    HW2 9876   4.192   4.392   6.421
 2993SOL     OW 9877   1.715   5.250   0.516
 2993SOL    HW1 9878   1.618   5.267   0.505
 2993SOL    HW2 9879   1.762   5.337   0.534
 2994SOL     OW 9880   4.430   6.710   0.179
 2994SOL    HW1 9881   4.441   6.687   0.276
 2994SOL    HW2 9882   4.336   6.689   0.151
 2995SOL     OW 9883   2.869   1.290   5.907
 2995SOL    HW1 9884   2.782   1.289   5.857
 2995SOL    HW2 9885   2.944   1.285   5.842
 2996SOL     OW 9886   4.111   5.760   5.822
 2996SOL    HW1 9887   4.098   5.819   5.902
 2996SOL    HW2 9888   4.195   5.707   5.833
 2997SOL     OW 9889   5.297   6.773   0.316
 2997SOL    HW1 9890   5.201   6.750   0.331
 2997SOL    HW2 9891   5.337   6.707   0.252
 2998SOL     OW 9892   6.781   5.698   5.088
 2998SOL    HW1 9893   6.722   5.688   5.168
 2998SOL    HW2 9894   6.833   5.614   5.074
 2999SOL     OW 9895   3.339   6.345   2.368
 2999SOL    HW1 9896   3.271   6.272   2.378
 2999SOL    HW2 9897   3.401   6.322   2.292
 3000SOL     OW 9898   1.961   2.959   4.731
 3000SOL    HW1 9899   2.056   2.989   4.742
 3000SOL    HW2 9900   1.956   2.860   4.737
 3001SOL     OW 9901   4.348   0.265   5.990
 3001SOL    HW1 9902   4.351   0.281   6.088
 3001SOL    HW2 9903   4.406   0.331   5.943
 3002SOL     OW 9904   3.824   0.269   5.656
 3002SOL    HW1 9905   3.895   0.339   5.646
 3002SOL    HW2 9906   3.737   0.312   5.679
 3003SOL     OW 9907   2.557   0.224   6.218
 3003SOL    HW1 9908   2.536   0.130   6.193
 3003SOL    HW2 9909   2.529   0.285   6.143
 3004SOL     OW 9910   6.508   3.480   4.772
 3004SOL    HW1 9911   6.579   3.543   4.739
 3004SOL    HW2 9912   6.437   3.471   4.702
 3005SOL     OW 9913   4.561   2.166   1.879
 3005SOL    HW1 9914   4.525   2.259   1.877
 3005SOL    HW2 9915   4.658   2.168   1.904
 3006SOL     OW 9916   5.551   0.555   1.629
 3006SOL    HW1 9917   5.621   0.492   1.595
 3006SOL    HW2 9918   5.567   0.573   1.727
 3007SOL     OW 9919   6.522   5.741   2.154
 3007SOL    HW1 9920   6.461   5.722   2.077
 3007SOL    HW2 9921   6.519   5.664   2.218
 3008SOL     OW 9922   4.038   5.397   5.741
 3008SOL    HW1 9923   3.992   5.474   5.696
 3008SOL    HW2 9924   3.971   5.327   5.764
 3009SOL     OW 9925   1.348   1.183   3.266
 3009SOL    HW1 9926   1.265   1.159   3.317
 3009SOL    HW2 9927   1.335   1.163   3.169
 3010SOL     OW 9928   3.747   0.118   1.963
 3010SOL    HW1 9929   3.683   0.191   1.986
 3010SOL    HW2 9930   3.718   0.033   2.006
 3011SOL     OW 9931   5.385   0.643   6.670
 3011SOL    HW1 9932   5.424   0.712   6.609
 3011SOL    HW2 9933   5.436   0.643   6.756
 3012SOL     OW 9934   6.982   4.265   2.245
 3012SOL    HW1 9935   0.051   4.267   2.289
 3012SOL    HW2 9936   6.911   4.274   2.315
 3013SOL     OW 9937   5.716   4.671   2.295
 3013SOL    HW1 9938   5.704   4.572   2.304
 3013SOL    HW2 9939   5.789   4.690   2.230
 3014SOL     OW 9940   4.790   1.025   4.895
 3014SOL    HW1 9941   4.825   1.083   4.969
 3014SOL    HW2 9942   4.864   1.004   4.831
 3015SOL     OW 9943   2.999   2.445   6.591
 3015SOL    HW1 9944   2.908   2.437   6.551
 3015SOL    HW2 9945   3.049   2.360   6.577
 3016SOL     OW 9946   3.644   6.080   3.406
 3016SOL    HW1 9947   3.699   6.160   3.384
 3016SOL    HW2 9948   3.550   6.108   3.425
 3017SOL     OW 9949   0.064   5.855   1.271
 3017SOL    HW1 9950   0.071   5.955   1.273
 3017SOL    HW2 9951   6.996   5.829   1.234
 3018SOL     OW 9952   3.748   6.590   6.209
 3018SOL    HW1 9953   3.826   6.576   6.148
 3018SOL    HW2 9954   3.666   6.548   6.168
 3019SOL     OW 9955   5.186   0.455   2.003
 3019SOL    HW1 9956   5.088   0.435   2.003
 3019SOL    HW2 9957   5.237   0.370   2.018
 3020SOL     OW 9958   1.281   1.696   0.830
 3020SOL    HW1 9959   1.289   1.788   0.792
 3020SOL    HW2 9960   1.185   1.672   0.838
 3021SOL     OW 9961   3.283   1.045   6.609
 3021SOL    HW1 9962   3.281   0.960   6.557
 3021SOL    HW2 9963   3.376   1.081   6.611
 3022SOL     OW 9964   5.002   6.903   2.964
 3022SOL    HW1 9965   4.978   6.990   3.006
 3022SOL    HW2 9966   4.991   6.829   3.031
 3023SOL     OW 9967   5.722   6.812   2.210
 3023SOL    HW1 9968   5.694   6.864   2.129
 3023SOL    HW2 9969   5.691   6.859   2.293
 3024SOL     OW 9970   3.084   6.131   6.981
 3024SOL    HW1 9971   3.008   6.069   7.000
 3024SOL    HW2 9972   3.169   6.092   7.016
 3025SOL     OW 9973   1.772   2.373   1.791
 3025SOL    HW1 9974   1.871   2.363   1.803
 3025SOL    HW2 9975   1.725   2.329   1.868
 3026SOL     OW 9976   2.206   4.475   1.363
 3026SOL    HW1 9977   2.245   4.386   1.341
 3026SOL    HW2 9978   2.108   4.473   1.344
 3027SOL     OW 9979   1.116   1.862   3.953
 3027SOL    HW1 9980   1.206   1.818   3.957
 3027SOL    HW2 9981   1.053   1.815   4.016
 3028SOL     OW 9982   1.852   0.274   4.611
 3028SOL    HW1 9983   1.761   0.234   4.623
 3028SOL    HW2 9984   1.865   0.348   4.677
 3029SOL     OW 9985   5.107   6.791   5.577
 3029SOL    HW1 9986   5.061   6.703   5.591
 3029SOL    HW2 9987   5.070   6.858   5.643
 3030SOL     OW 9988   1.411   2.183   5.966
 3030SOL    HW1 9989   1.371   2.265   6.007
 3030SOL    HW2 9990   1.431   2.200   5.870
 3031SOL     OW 9991   1.646   4.809   6.900
 3031SOL    HW1 9992   1.737   4.773   6.919
 3031SOL    HW2 9993   1.600   4.749   6.834
 3032SOL     OW 9994   4.755   0.480   6.065
 3032SOL    HW1 9995   4.725   0.387   6.041
 3032SOL    HW2 9996   4.679   0.529   6.107
 3033SOL     OW 9997   5.262   4.052   6.453
 3033SOL    HW1 9998   5.212   4.099   6.526
 3033SOL    HW2 9999   5.209   3.972   6.423
 3034SOL     OW10000   2.478   0.152   4.516
 3034SOL    HW110001   2.388   0.120   4.487
 3034SOL    HW210002   2.468   0.229   4.579
 3035SOL     OW10003   6.534   0.204   7.002
 3035SOL    HW110004   6.440   0.215   0.014
 3035SOL    HW210005   6.552   0.271   6.930
 3036SOL     OW10006   1.464   4.612   6.469
 3036SOL    HW110007   1.526   4.675   6.517
 3036SOL    HW210008   1.434   4.654   6.383
 3037SOL     OW10009   6.711   6.616   5.542
 3037SOL    HW110010   6.756   6.527   5.544
 3037SOL    HW210011   6.696   6.644   5.447
 3038SOL     OW10012   5.876   0.211   5.890
 3038SOL    HW110013   5.777   0.220   5.889
 3038SOL    HW210014   5.904   0.133   5.833
 3039SOL     OW10015   0.635   5.256   0.745
 3039SOL    HW110016   0.669   5.176   0.794
 3039SOL    HW210017   0.668   5.254   0.651
 3040SOL     OW10018   2.867   2.738   6.711
 3040SOL    HW110019   2.850   2.775   6.620
 3040SOL    HW210020   2.867   2.638   6.706
 3041SOL     OW10021   1.827   2.072   5.882
 3041SOL    HW110022   1.876   2.142   5.935
 3041SOL    HW210023   1.893   2.017   5.831
 3042SOL     OW10024   4.534   0.603   1.619
 3042SOL    HW110025   4.466   0.604   1.692
 3042SOL    HW210026   4.578   0.693   1.613
 3043SOL     OW10027   0.110   5.319   0.410
 3043SOL    HW110028   0.047   5.295   0.336
 3043SOL    HW210029   0.078   5.277   0.495
 3044SOL     OW10030   3.312   4.072   6.285
 3044SOL    HW110031   3.351   4.091   6.195
 3044SOL    HW210032   3.271   3.981   6.286
 3045SOL     OW10033   5.432   2.055   3.609
 3045SOL    HW110034   5.364   1.996   3.565
 3045SOL    HW210035   5.501   2.082   3.543
 3046SOL     OW10036   2.103   2.496   5.726
 3046SOL    HW110037   2.176   2.441   5.685
 3046SOL    HW210038   2.041   2.528   5.654
 3047SOL     OW10039   6.525   4.522   2.380
 3047SOL    HW110040   6.576   4.436   2.382
 3047SOL    HW210041   6.479   4.531   2.292
 3048SOL     OW10042   3.288   2.505   1.634
 3048SOL    HW110043   3.368   2.450   1.657
 3048SOL    HW210044   3.206   2.463   1.672
 3049SOL     OW10045   1.009   0.234   2.457
 3049SOL    HW110046   1.034   0.225   2.360
 3049SOL    HW210047   0.942   0.307   2.467
 3050SOL     OW10048   3.866   5.519   3.702
 3050SOL    HW110049   3.937   5.469   3.653
 3050SOL    HW210050   3.808   5.455   3.753
 3051SOL     OW10051   2.643   4.574   6.162
 3051SOL    HW110052   2.617   4.478   6.158
 3051SOL    HW210053   2.720   4.585   6.225
 3052SOL     OW10054   4.304   6.811   3.048
 3052SOL    HW110055   4.300   6.712   3.035
 3052SOL    HW210056   4.214   6.845   3.074
 3053SOL     OW10057   5.051   6.686   0.437
 3053SOL    HW110058   5.035   6.589   0.419
 3053SOL    HW210059   5.104   6.697   0.521
 3054SOL     OW10060   1.723   3.425   6.248
 3054SOL    HW110061   1.796   3.417   6.315
 3054SOL    HW210062   1.636   3.438   6.295
 3055SOL     OW10063   6.247   6.165   2.803
 3055SOL    HW110064   6.346   6.148   2.795
 3055SOL    HW210065   6.227   6.207   2.891
 3056SOL     OW10066   6.584   0.798   0.981
 3056SOL    HW110067   6.660   0.762   1.035
 3056SOL    HW210068   6.498   0.757   1.012
 3057SOL     OW10069   6.182   5.816   2.695
 3057SOL    HW110070   6.179   5.732   2.640
 3057SOL    HW210071   6.104   5.874   2.672
 3058SOL     OW10072   6.388   4.687   1.591
 3058SOL    HW110073   6.361   4.780   1.614
 3058SOL    HW210074   6.487   4.682   1.582
 3059SOL     OW10075   1.994   2.690   4.506
 3059SOL    HW110076   1.938   2.772   4.492
 3059SOL    HW210077   2.026   2.687   4.601
 3060SOL     OW10078   6.772   6.864   0.660
 3060SOL    HW110079   6.776   6.953   0.613
 3060SOL    HW210080   6.699   6.809   0.621
 3061SOL     OW10081   6.888   0.221   5.940
 3061SOL    HW110082   6.796   0.233   5.903
 3061SOL    HW210083   6.929   0.139   5.900
 3062SOL     OW10084   2.793   6.270   6.612
 3062SOL    HW110085   2.792   6.302   6.518
 3062SOL    HW210086   2.851   6.330   6.668
 3063SOL     OW10087   1.650   5.223   1.011
 3063SOL    HW110088   1.702   5.239   0.927
 3063SOL    HW210089   1.704   5.164   1.072
 3064SOL     OW10090   6.747   4.239   2.796
 3064SOL    HW110091   6.749   4.218   2.894
 3064SOL    HW210092   6.788   4.329   2.781
 3065SOL     OW10093   1.937   0.942   0.660
 3065SOL    HW110094   1.886   0.908   0.739
 3065SOL    HW210095   1.920   0.884   0.581
 3066SOL     OW10096   6.145   5.107   1.346
 3066SOL    HW110097   6.060   5.115   1.397
 3066SOL    HW210098   6.139   5.031   1.282
 3067SOL     OW10099   5.200   6.776   3.655
 3067SOL    HW110100   5.191   6.712   3.731
 3067SOL    HW210101   5.131   6.848   3.664
 3068SOL     OW10102   5.991   5.039   0.383
 3068SOL    HW110103   6.000   4.962   0.320
 3068SOL    HW210104   5.918   5.099   0.352
 3069SOL     OW10105   1.081   5.663   3.234
 3069SOL    HW110106   1.026   5.620   3.306
 3069SOL    HW210107   1.094   5.598   3.159
 3070SOL     OW10108   4.065   1.367   4.402
 3070SOL    HW110109   4.011   1.432   4.457
 3070SOL    HW210110   4.023   1.277   4.407
 3071SOL     OW10111   5.790   6.501   3.555
 3071SOL    HW110112   5.875   6.542   3.522
 3071SOL    HW210113   5.810   6.414   3.600
 3072SOL     OW10114   0.357   0.082   2.411
 3072SOL    HW110115   0.335   0.021   2.335
 3072SOL    HW210116   0.288   0.155   2.416
 3073SOL     OW10117   1.421   3.719   4.708
 3073SOL    HW110118   1.363   3.712   4.627
 3073SOL    HW210119   1.385   3.659   4.780
 3074SOL     OW10120   5.290   3.216   5.886
 3074SOL    HW110121   5.320   3.122   5.898
 3074SOL    HW210122   5.207   3.232   5.938
 3075SOL     OW10123   1.812   5.665   1.714
 3075SOL    HW110124   1.748   5.700   1.646
 3075SOL    HW210125   1.849   5.578   1.682
 3076SOL     OW10126   0.316   0.313   4.919
 3076SOL    HW110127   0.369   0.244   4.871
 3076SOL    HW210128   0.281   0.275   5.005
 3077SOL     OW10129   4.939   4.700   4.027
 3077SOL    HW110130   4.963   4.753   3.946
 3077SOL    HW210131   5.013   4.703   4.093
 3078SOL     OW10132   2.396   2.944   1.152
 3078SOL    HW110133   2.357   2.895   1.074
 3078SOL    HW210134   2.325   3.001   1.194
 3079SOL     OW10135   6.413   2.733   5.687
 3079SOL    HW110136   6.342   2.731   5.617
 3079SOL    HW210137   6.452   2.825   5.693
 3080SOL     OW10138   6.478   5.845   0.614
 3080SOL    HW110139   6.392   5.856   0.564
 3080SOL    HW210140   6.469   5.886   0.705
 3081SOL     OW10141   6.679   4.775   5.578
 3081SOL    HW110142   6.603   4.776   5.643
 3081SOL    HW210143   6.665   4.701   5.512
 3082SOL     OW10144   2.553   6.777   2.701
 3082SOL    HW110145   2.459   6.744   2.708
 3082SOL    HW210146   2.558   6.850   2.633
 3083SOL     OW10147   3.287   0.555   2.099
 3083SOL    HW110148   3.380   0.540   2.133
 3083SOL    HW210149   3.260   0.480   2.040
 3084SOL     OW10150   5.092   6.596   4.931
 3084SOL    HW110151   5.073   6.543   4.848
 3084SOL    HW210152   5.015   6.587   4.994
 3085SOL     OW10153   0.802   5.578   1.711
 3085SOL    HW110154   0.890   5.545   1.745
 3085SOL    HW210155   0.787   5.672   1.742
 3086SOL     OW10156   5.212   0.936   3.710
 3086SOL    HW110157   5.185   1.022   3.753
 3086SOL    HW210158   5.307   0.942   3.680
 3087SOL     OW10159   6.052   3.152   3.242
 3087SOL    HW110160   6.119   3.134   3.314
 3087SOL    HW210161   5.977   3.206   3.279
 3088SOL     OW10162   3.177   4.567   5.861
 3088SOL    HW110163   3.253   4.542   5.922
 3088SOL    HW210164   3.118   4.633   5.907
 3089SOL     OW10165   1.537   2.286   0.671
 3089SOL    HW110166   1.529   2.359   0.739
 3089SOL    HW210167   1.448   2.273   0.626
 3090SOL     OW10168   0.989   1.556   1.265
 3090SOL    HW110169   0.889   1.568   1.264
 3090SOL    HW210170   1.027   1.596   1.348
 3091SOL     OW10171   2.396   6.796   0.661
 3091SOL    HW110172   2.316   6.738   0.674
 3091SOL    HW210173   2.464   6.775   0.732
 3092SOL     OW10174   4.223   6.346   0.838
 3092SOL    HW110175   4.190   6.439   0.855
 3092SOL    HW210176   4.311   6.350   0.792
 3093SOL     OW10177   5.299   6.196   4.150
 3093SOL    HW110178   5.315   6.287   4.189
 3093SOL    HW210179   5.366   6.178   4.078
 3094SOL     OW10180   3.132   5.613   5.495
 3094SOL    HW110181   3.167   5.607   5.401
 3094SOL    HW210182   3.046   5.563   5.501
 3095SOL     OW10183   3.211   4.953   5.216
 3095SOL    HW110184   3.307   4.927   5.221
 3095SOL    HW210185   3.168   4.911   5.136
 3096SOL     OW10186   0.999   0.799   5.588
 3096SOL    HW110187   0.927   0.731   5.600
 3096SOL    HW210188   1.006   0.855   5.671
 3097SOL     OW10189   1.275   2.966   0.247
 3097SOL    HW110190   1.317   3.003   0.165
 3097SOL    HW210191   1.294   2.868   0.253
 3098SOL     OW10192   3.622   2.123   0.399
 3098SOL    HW110193   3.618   2.212   0.355
 3098SOL    HW210194   3.666   2.057   0.339
 3099SOL     OW10195   1.269   6.128   4.979
 3099SOL    HW110196   1.308   6.138   5.070
 3099SOL    HW210197   1.341   6.132   4.911
 3100SOL     OW10198   6.534   6.773   0.262
 3100SOL    HW110199   6.544   6.676   0.239
 3100SOL    HW210200   6.614   6.824   0.228
 3101SOL     OW10201   4.379   7.006   0.444
 3101SOL    HW110202   4.304   7.006   0.511
 3101SOL    HW210203   4.461   0.025   0.485
 3102SOL     OW10204   1.648   4.905   1.244
 3102SOL    HW110205   1.694   4.992   1.263
 3102SOL    HW210206   1.549   4.919   1.247
 3103SOL     OW10207   3.533   3.419   2.367
 3103SOL    HW110208   3.559   3.343   2.427
 3103SOL    HW210209   3.480   3.485   2.420
 3104SOL     OW10210   6.846   5.315   3.502
 3104SOL    HW110211   6.940   5.349   3.497
 3104SOL    HW210212   6.783   5.391   3.516
 3105SOL     OW10213   6.369   6.312   3.789
 3105SOL    HW110214   6.442   6.252   3.755
 3105SOL    HW210215   6.404   6.368   3.863
 3106SOL     OW10216   6.760   3.005   4.109
 3106SOL    HW110217   6.771   3.026   4.206
 3106SOL    HW210218   6.670   3.035   4.078
 3107SOL     OW10219   3.119   6.975   4.218
 3107SOL    HW110220   3.036   7.006   4.265
 3107SOL    HW210221   3.148   0.023   4.151
 3108SOL     OW10222   3.416   0.215   3.481
 3108SOL    HW110223   3.329   0.226   3.530
 3108SOL    HW210224   3.397   0.196   3.385
 3109SOL     OW10225   4.909   6.055   3.232
 3109SOL    HW110226   4.900   6.043   3.331
 3109SOL    HW210227   4.896   6.151   3.209
 3110SOL     OW10228   0.541   3.124   2.412
 3110SOL    HW110229   0.442   3.142   2.414
 3110SOL    HW210230   0.579   3.153   2.325
 3111SOL     OW10231   6.325   4.678   3.447
 3111SOL    HW110232   6.356   4.701   3.355
 3111SOL    HW210233   6.319   4.762   3.502
 3112SOL     OW10234   3.573   3.683   6.646
 3112SOL    HW110235   3.507   3.611   6.670
 3112SOL    HW210236   3.604   3.728   6.730
 3113SOL     OW10237   3.473   0.102   3.753
 3113SOL    HW110238   3.426   0.099   3.665
 3113SOL    HW210239   3.410   0.076   3.826
 3114SOL     OW10240   5.617   5.727   0.730
 3114SOL    HW110241   5.600   5.734   0.632
 3114SOL    HW210242   5.709   5.691   0.746
 3115SOL     OW10243   2.678   3.708   1.401
 3115SOL    HW110244   2.708   3.674   1.313
 3115SOL    HW210245   2.756   3.745   1.452
 3116SOL     OW10246   6.832   1.857   7.005
 3116SOL    HW110247   6.832   1.942   0.037
 3116SOL    HW210248   6.743   1.843   6.963
 3117SOL     OW10249   3.862   4.126   5.076
 3117SOL    HW110250   3.928   4.193   5.108
 3117SOL    HW210251   3.853   4.052   5.142
 3118SOL     OW10252   5.978   4.853   0.102
 3118SOL    HW110253   6.037   4.852   0.021
 3118SOL    HW210254   6.030   4.818   0.181
 3119SOL     OW10255   1.729   4.648   5.518
 3119SOL    HW110256   1.790   4.616   5.591
 3119SOL    HW210257   1.723   4.579   5.446
 3120SOL     OW10258   3.485   5.813   4.973
 3120SOL    HW110259   3.470   5.715   4.987
 3120SOL    HW210260   3.493   5.832   4.875
 3121SOL     OW10261   0.507   6.520   2.510
 3121SOL    HW110262   0.573   6.589   2.479
 3121SOL    HW210263   0.428   6.566   2.552
 3122SOL     OW10264   3.321   5.359   0.949
 3122SOL    HW110265   3.320   5.286   0.880
 3122SOL    HW210266   3.227   5.378   0.977
 3123SOL     OW10267   4.097   6.913   4.627
 3123SOL    HW110268   4.159   6.851   4.579
 3123SOL    HW210269   4.005   6.903   4.591
 3124SOL     OW10270   3.873   0.098   5.945
 3124SOL    HW110271   3.883   7.021   5.932
 3124SOL    HW210272   3.822   0.137   5.868
 3125SOL     OW10273   6.891   1.681   5.817
 3125SOL    HW110274   6.991   1.686   5.811
 3125SOL    HW210275   6.856   1.765   5.857
 3126SOL     OW10276   4.242   6.312   0.234
 3126SOL    HW110277   4.308   6.255   0.186
 3126SOL    HW210278   4.226   6.275   0.326
 3127SOL     OW10279   0.709   1.557   3.639
 3127SOL    HW110280   0.650   1.595   3.567
 3127SOL    HW210281   0.705   1.615   3.720
 3128SOL     OW10282   1.479   1.289   0.425
 3128SOL    HW110283   1.408   1.357   0.407
 3128SOL    HW210284   1.498   1.286   0.523
 3129SOL     OW10285   1.222   3.130   4.708
 3129SOL    HW110286   1.276   3.096   4.630
 3129SOL    HW210287   1.164   3.056   4.742
 3130SOL     OW10288   1.934   5.832   2.826
 3130SOL    HW110289   2.009   5.884   2.865
 3130SOL    HW210290   1.943   5.828   2.726
 3131SOL     OW10291   0.072   3.177   3.547
 3131SOL    HW110292   7.010   3.170   3.601
 3131SOL    HW210293   0.055   3.231   3.464
 3132SOL     OW10294   5.166   6.397   5.297
 3132SOL    HW110295   5.168   6.493   5.325
 3132SOL    HW210296   5.111   6.388   5.215
 3133SOL     OW10297   2.934   1.699   3.244
 3133SOL    HW110298   2.944   1.757   3.325
 3133SOL    HW210299   2.917   1.755   3.164
 3134SOL     OW10300   4.866   3.042   2.677
 3134SOL    HW110301   4.912   2.969   2.626
 3134SOL    HW210302   4.867   3.126   2.624
 3135SOL     OW10303   3.469   1.711   3.512
 3135SOL    HW110304   3.553   1.729   3.460
 3135SOL    HW210305   3.479   1.747   3.605
 3136SOL     OW10306   5.918   6.625   5.052
 3136SOL    HW110307   5.868   6.564   5.113
 3136SOL    HW210308   5.930   6.714   5.096
 3137SOL     OW10309   6.527   1.504   4.557
 3137SOL    HW110310   6.449   1.505   4.619
 3137SOL    HW210311   6.565   1.411   4.553
 3138SOL     OW10312   5.079   1.726   5.118
 3138SOL    HW110313   5.156   1.670   5.148
 3138SOL    HW210314   5.013   1.734   5.192
 3139SOL     OW10315   4.891   6.208   5.363
 3139SOL    HW110316   4.944   6.204   5.448
 3139SOL    HW210317   4.820   6.138   5.365
 3140SOL     OW10318   6.149   6.707   6.751
 3140SOL    HW110319   6.241   6.740   6.773
 3140SOL    HW210320   6.110   6.661   6.830
 3141SOL     OW10321   0.832   5.026   0.163
 3141SOL    HW110322   0.909   4.964   0.177
 3141SOL    HW210323   0.786   5.042   0.251
 3142SOL     OW10324   3.771   6.822   6.744
 3142SOL    HW110325   3.684   6.812   6.695
 3142SOL    HW210326   3.782   6.917   6.773
 3143SOL     OW10327   0.042   1.641   0.774
 3143SOL    HW110328   0.111   1.702   0.812
 3143SOL    HW210329   6.980   1.693   0.755
 3144SOL     OW10330   1.597   3.811   6.542
 3144SOL    HW110331   1.546   3.737   6.497
 3144SOL    HW210332   1.553   3.899   6.521
 3145SOL     OW10333   3.973   6.808   3.823
 3145SOL    HW110334   3.918   6.761   3.892
 3145SOL    HW210335   3.914   6.860   3.762
 3146SOL     OW10336   2.167   0.645   4.023
 3146SOL    HW110337   2.170   0.598   4.111
 3146SOL    HW210338   2.244   0.617   3.967
 3147SOL     OW10339   4.156   3.727   0.393
 3147SOL    HW110340   4.058   3.706   0.402
 3147SOL    HW210341   4.210   3.653   0.434
 3148SOL     OW10342   3.812   5.900   4.679
 3148SOL    HW110343   3.755   5.967   4.632
 3148SOL    HW210344   3.798   5.907   4.777
 3149SOL     OW10345   3.591   6.457   5.560
 3149SOL    HW110346   3.680   6.414   5.573
 3149SOL    HW210347   3.572   6.468   5.462
 3150SOL     OW10348   6.253   0.180   4.318
 3150SOL    HW110349   6.348   0.164   4.293
 3150SOL    HW210350   6.208   0.233   4.246
 3151SOL     OW10351   3.669   0.254   6.923
 3151SOL    HW110352   3.571   0.270   6.934
 3151SOL    HW210353   3.716   0.269   7.010
 3152SOL     OW10354   1.700   4.968   0.583
 3152SOL    HW110355   1.737   5.058   0.558
 3152SOL    HW210356   1.602   4.966   0.563
 3153SOL     OW10357   0.162   4.532   2.351
 3153SOL    HW110358   0.164   4.433   2.361
 3153SOL    HW210359   0.243   4.563   2.302
 3154SOL     OW10360   5.611   1.982   6.595
 3154SOL    HW110361   5.607   1.888   6.561
 3154SOL    HW210362   5.518   2.017   6.608
 3155SOL     OW10363   4.774   6.139   0.137
 3155SOL    HW110364   4.812   6.048   0.156
 3155SOL    HW210365   4.783   6.158   0.039
 3156SOL     OW10366   3.267   3.796   3.343
 3156SOL    HW110367   3.175   3.826   3.319
 3156SOL    HW210368   3.266   3.751   3.433
 3157SOL     OW10369   2.258   2.759   4.623
 3157SOL    HW110370   2.281   2.685   4.687
 3157SOL    HW210371   2.286   2.732   4.531
 3158SOL     OW10372   4.849   5.984   0.910
 3158SOL    HW110373   4.800   6.050   0.853
 3158SOL    HW210374   4.932   5.955   0.863
 3159SOL     OW10375   5.675   4.584   0.998
 3159SOL    HW110376   5.621   4.669   0.998
 3159SOL    HW210377   5.698   4.559   1.092
 3160SOL     OW10378   5.619   4.626   6.972
 3160SOL    HW110379   5.619   4.628   6.872
 3160SOL    HW210380   5.674   4.550   7.004
 3161SOL     OW10381   0.895   1.866   2.637
 3161SOL    HW110382   0.823   1.929   2.667
 3161SOL    HW210383   0.888   1.781   2.690
 3162SOL     OW10384   6.401   6.453   6.377
 3162SOL    HW110385   6.392   6.354   6.392
 3162SOL    HW210386   6.498   6.478   6.373
 3163SOL     OW10387   2.777   4.180   5.524
 3163SOL    HW110388   2.854   4.120   5.501
 3163SOL    HW210389   2.718   4.193   5.444
 3164SOL     OW10390   5.493   5.356   6.220
 3164SOL    HW110391   5.454   5.418   6.152
 3164SOL    HW210392   5.496   5.263   6.182
 3165SOL     OW10393   0.231   2.726   1.595
 3165SOL    HW110394   0.250   2.714   1.498
 3165SOL    HW210395   0.155   2.667   1.622
 3166SOL     OW10396   5.750   2.814   6.310
 3166SOL    HW110397   5.783   2.840   6.219
 3166SOL    HW210398   5.650   2.807   6.309
 3167SOL     OW10399   0.947   4.323   2.926
 3167SOL    HW110400   0.859   4.279   2.942
 3167SOL    HW210401   0.936   4.423   2.928
 3168SOL     OW10402   5.468   2.807   0.793
 3168SOL    HW110403   5.547   2.785   0.736
 3168SOL    HW210404   5.391   2.749   0.768
 3169SOL     OW10405   1.199   1.928   4.743
 3169SOL    HW110406   1.298   1.913   4.747
 3169SOL    HW210407   1.152   1.841   4.762
 3170SOL     OW10408   4.554   0.716   6.212
 3170SOL    HW110409   4.562   0.755   6.304
 3170SOL    HW210410   4.458   0.715   6.185
 3171SOL     OW10411   6.023   6.786   3.138
 3171SOL    HW110412   6.106   6.731   3.127
 3171SOL    HW210413   6.032   6.871   3.087
 3172SOL     OW10414   6.114   0.492   6.184
 3172SOL    HW110415   6.028   0.482   6.134
 3172SOL    HW210416   6.167   0.407   6.177
 3173SOL     OW10417   1.709   1.433   1.599
 3173SOL    HW110418   1.759   1.420   1.685
 3173SOL    HW210419   1.716   1.529   1.571
 3174SOL     OW10420   1.792   4.324   5.681
 3174SOL    HW110421   1.730   4.273   5.622
 3174SOL    HW210422   1.749   4.337   5.771
 3175SOL     OW10423   0.273   5.741   0.975
 3175SOL    HW110424   0.202   5.809   0.955
 3175SOL    HW210425   0.245   5.687   1.055
 3176SOL     OW10426   1.647   5.249   6.382
 3176SOL    HW110427   1.602   5.249   6.471
 3176SOL    HW210428   1.661   5.154   6.352
 3177SOL     OW10429   6.965   6.853   4.524
 3177SOL    HW110430   0.021   6.913   4.502
 3177SOL    HW210431   6.987   6.799   4.606
 3178SOL     OW10432   1.679   3.233   1.088
 3178SOL    HW110433   1.724   3.321   1.071
 3178SOL    HW210434   1.687   3.176   1.006
 3179SOL     OW10435   1.112   2.370   3.338
 3179SOL    HW110436   1.124   2.417   3.250
 3179SOL    HW210437   1.198   2.325   3.363
 3180SOL     OW10438   5.433   1.076   5.925
 3180SOL    HW110439   5.335   1.093   5.912
 3180SOL    HW210440   5.484   1.109   5.845
 3181SOL     OW10441   0.510   1.725   3.145
 3181SOL    HW110442   0.437   1.720   3.213
 3181SOL    HW210443   0.560   1.811   3.154
 3182SOL     OW10444   1.635   4.549   5.094
 3182SOL    HW110445   1.571   4.624   5.112
 3182SOL    HW210446   1.641   4.533   4.996
 3183SOL     OW10447   4.037   3.440   1.370
 3183SOL    HW110448   4.115   3.427   1.308
 3183SOL    HW210449   4.008   3.351   1.407
 3184SOL     OW10450   2.844   1.178   3.194
 3184SOL    HW110451   2.799   1.089   3.195
 3184SOL    HW210452   2.899   1.187   3.111
 3185SOL     OW10453   0.389   6.539   5.664
 3185SOL    HW110454   0.415   6.442   5.668
 3185SOL    HW210455   0.440   6.590   5.734
 3186SOL     OW10456   3.199   0.342   1.933
 3186SOL    HW110457   3.269   0.294   1.880
 3186SOL    HW210458   3.109   0.315   1.900
 3187SOL     OW10459   2.914   4.617   0.000
 3187SOL    HW110460   2.979   4.595   6.949
 3187SOL    HW210461   2.961   4.620   0.088
 3188SOL     OW10462   4.787   0.462   3.386
 3188SOL    HW110463   4.884   0.474   3.364
 3188SOL    HW210464   4.741   0.417   3.309
 3189SOL     OW10465   0.470   0.093   1.771
 3189SOL    HW110466   0.373   0.092   1.747
 3189SOL    HW210467   0.525   0.073   1.690
 3190SOL     OW10468   0.738   6.771   1.257
 3190SOL    HW110469   0.813   6.704   1.260
 3190SOL    HW210470   0.687   6.767   1.343
 3191SOL     OW10471   3.476   0.424   1.264
 3191SOL    HW110472   3.410   0.431   1.339
 3191SOL    HW210473   3.443   0.357   1.198
 3192SOL     OW10474   5.891   2.309   3.729
 3192SOL    HW110475   5.937   2.393   3.757
 3192SOL    HW210476   5.813   2.291   3.789
 3193SOL     OW10477   4.876   4.010   7.004
 3193SOL    HW110478   4.929   4.082   6.958
 3193SOL    HW210479   4.861   4.036   0.078
 3194SOL     OW10480   1.356   4.807   5.815
 3194SOL    HW110481   1.392   4.878   5.875
 3194SOL    HW210482   1.431   4.751   5.780
 3195SOL     OW10483   0.542   3.939   3.034
 3195SOL    HW110484   0.482   3.898   2.965
 3195SOL    HW210485   0.583   3.867   3.090
 3196SOL     OW10486   0.588   6.338   5.452
 3196SOL    HW110487   0.653   6.414   5.445
 3196SOL    HW210488   0.637   6.251   5.451
 3197SOL     OW10489   1.086   4.033   4.559
 3197SOL    HW110490   1.170   4.085   4.575
 3197SOL    HW210491   1.007   4.087   4.589
 3198SOL     OW10492   5.776   0.764   0.174
 3198SOL    HW110493   5.710   0.713   0.230
 3198SOL    HW210494   5.865   0.718   0.177
 3199SOL     OW10495   3.775   2.114   2.700
 3199SOL    HW110496   3.842   2.088   2.631
 3199SOL    HW210497   3.686   2.130   2.657
 3200SOL     OW10498   6.901   2.067   0.685
 3200SOL    HW110499   6.980   2.068   0.623
 3200SOL    HW210500   6.816   2.069   0.632
 3201SOL     OW10501   4.482   4.528   3.055
 3201SOL    HW110502   4.518   4.609   3.101
 3201SOL    HW210503   4.420   4.557   2.981
 3202SOL     OW10504   1.675   5.701   2.183
 3202SOL    HW110505   1.663   5.726   2.087
 3202SOL    HW210506   1.604   5.636   2.210
 3203SOL     OW10507   6.062   0.093   1.617
 3203SOL    HW110508   6.058   7.019   1.585
 3203SOL    HW210509   6.078   0.154   1.539
 3204SOL     OW10510   6.416   6.106   1.608
 3204SOL    HW110511   6.346   6.122   1.677
 3204SOL    HW210512   6.422   6.185   1.547
 3205SOL     OW10513   1.427   3.792   3.074
 3205SOL    HW110514   1.490   3.771   2.998
 3205SOL    HW210515   1.453   3.879   3.115
 3206SOL     OW10516   1.502   6.548   0.034
 3206SOL    HW110517   1.422   6.600   0.064
 3206SOL    HW210518   1.561   6.528   0.112
 3207SOL     OW10519   0.937   1.269   3.129
 3207SOL    HW110520   0.850   1.235   3.164
 3207SOL    HW210521   0.950   1.363   3.161
 3208SOL     OW10522   6.055   0.442   5.194
 3208SOL    HW110523   6.070   0.531   5.236
 3208SOL    HW210524   6.136   0.385   5.209
 3209SOL     OW10525   2.654   0.186   2.895
 3209SOL    HW110526   2.740   0.180   2.844
 3209SOL    HW210527   2.615   0.095   2.905
 3210SOL     OW10528   0.158   4.877   3.033
 3210SOL    HW110529   0.243   4.826   3.021
 3210SOL    HW210530   0.092   4.849   2.963
 3211SOL     OW10531   0.689   4.438   2.686
 3211SOL    HW110532   0.678   4.501   2.610
 3211SOL    HW210533   0.751   4.477   2.754
 3212SOL     OW10534   4.999   3.103   5.015
 3212SOL    HW110535   4.977   3.124   5.110
 3212SOL    HW210536   4.974   3.181   4.957
 3213SOL     OW10537   5.125   6.440   1.216
 3213SOL    HW110538   5.057   6.408   1.283
 3213SOL    HW210539   5.104   6.535   1.191
 3214SOL     OW10540   4.254   4.331   5.957
 3214SOL    HW110541   4.325   4.263   5.941
 3214SOL    HW210542   4.233   4.335   6.055
 3215SOL     OW10543   5.926   1.096   0.522
 3215SOL    HW110544   5.987   1.023   0.552
 3215SOL    HW210545   5.893   1.147   0.602
 3216SOL     OW10546   6.302   6.744   4.749
 3216SOL    HW110547   6.321   6.839   4.775
 3216SOL    HW210548   6.358   6.719   4.671
 3217SOL     OW10549   6.827   3.887   0.670
 3217SOL    HW110550   6.854   3.974   0.711
 3217SOL    HW210551   6.869   3.879   0.579
 3218SOL     OW10552   3.550   0.861   1.979
 3218SOL    HW110553   3.463   0.854   1.930
 3218SOL    HW210554   3.539   0.922   2.058
 3219SOL     OW10555   6.539   6.825   4.216
 3219SOL    HW110556   6.584   6.831   4.305
 3219SOL    HW210557   6.596   6.869   4.147
 3220SOL     OW10558   6.466   2.951   6.021
 3220SOL    HW110559   6.387   2.999   5.983
 3220SOL    HW210560   6.469   2.858   5.986
 3221SOL     OW10561   4.147   0.171   2.521
 3221SOL    HW110562   4.195   0.255   2.545
 3221SOL    HW210563   4.073   0.190   2.458
 3222SOL     OW10564   5.956   3.745   2.462
 3222SOL    HW110565   5.878   3.807   2.470
 3222SOL    HW210566   6.032   3.780   2.518
 3223SOL     OW10567   2.599   4.673   4.132
 3223SOL    HW110568   2.500   4.658   4.123
 3223SOL    HW210569   2.643   4.586   4.154
 3224SOL     OW10570   3.823   6.104   1.453
 3224SOL    HW110571   3.812   6.058   1.541
 3224SOL    HW210572   3.843   6.037   1.382
 3225SOL     OW10573   2.282   2.278   0.947
 3225SOL    HW110574   2.364   2.277   1.003
 3225SOL    HW210575   2.201   2.282   1.007
 3226SOL     OW10576   0.164   1.105   4.354
 3226SOL    HW110577   0.256   1.076   4.328
 3226SOL    HW210578   0.097   1.063   4.293
 3227SOL     OW10579   2.299   1.943   5.415
 3227SOL    HW110580   2.271   2.032   5.379
 3227SOL    HW210581   2.399   1.934   5.409
 3228SOL     OW10582   4.873   3.317   4.592
 3228SOL    HW110583   4.795   3.267   4.630
 3228SOL    HW210584   4.865   3.321   4.493
 3229SOL     OW10585   3.798   2.124   5.087
 3229SOL    HW110586   3.883   2.168   5.113
 3229SOL    HW210587   3.790   2.122   4.987
 3230SOL     OW10588   1.356   0.490   3.868
 3230SOL    HW110589   1.310   0.481   3.956
 3230SOL    HW210590   1.426   0.561   3.873
 3231SOL     OW10591   5.013   5.568   0.359
 3231SOL    HW110592   5.085   5.636   0.364
 3231SOL    HW210593   5.048   5.479   0.389
 3232SOL     OW10594   2.384   4.477   3.233
 3232SOL    HW110595   2.284   4.479   3.227
 3232SOL    HW210596   2.421   4.421   3.159
 3233SOL     OW10597   1.708   3.903   0.984
 3233SOL    HW110598   1.640   3.836   0.954
 3233SOL    HW210599   1.700   3.986   0.930
 3234SOL     OW10600   6.547   2.213   4.858
 3234SOL    HW110601   6.545   2.160   4.774
 3234SOL    HW210602   6.559   2.151   4.936
 3235SOL     OW10603   5.406   0.722   2.519
 3235SOL    HW110604   5.329   0.718   2.455
 3235SOL    HW210605   5.380   0.679   2.605
 3236SOL     OW10606   0.249   3.048   1.617
 3236SOL    HW110607   0.338   3.069   1.577
 3236SOL    HW210608   0.235   2.949   1.617
 3237SOL     OW10609   3.200   6.325   4.579
 3237SOL    HW110610   3.164   6.377   4.656
 3237SOL    HW210611   3.140   6.339   4.499
 3238SOL     OW10612   5.988   6.508   6.410
 3238SOL    HW110613   6.067   6.533   6.353
 3238SOL    HW210614   5.941   6.429   6.370
 3239SOL     OW10615   0.816   5.461   5.832
 3239SOL    HW110616   0.730   5.493   5.794
 3239SOL    HW210617   0.871   5.417   5.761
 3240SOL     OW10618   0.225   1.827   5.155
 3240SOL    HW110619   0.213   1.785   5.065
 3240SOL    HW210620   0.166   1.907   5.162
 3241SOL     OW10621   4.839   0.361   5.509
 3241SOL    HW110622   4.746   0.342   5.478
 3241SOL    HW210623   4.862   0.298   5.584
 3242SOL     OW10624   3.267   6.442   0.393
 3242SOL    HW110625   3.295   6.464   0.487
 3242SOL    HW210626   3.177   6.481   0.375
 3243SOL     OW10627   3.437   5.256   0.665
 3243SOL    HW110628   3.527   5.296   0.648
 3243SOL    HW210629   3.448   5.165   0.705
 3244SOL     OW10630   1.635   6.256   5.359
 3244SOL    HW110631   1.673   6.271   5.450
 3244SOL    HW210632   1.692   6.191   5.309
 3245SOL     OW10633   2.509   2.093   5.502
 3245SOL    HW110634   2.560   2.017   5.461
 3245SOL    HW210635   2.521   2.091   5.602
 3246SOL     OW10636   5.444   6.338   3.552
 3246SOL    HW110637   5.473   6.292   3.468
 3246SOL    HW210638   5.426   6.435   3.533
 3247SOL     OW10639   6.616   1.580   5.486
 3247SOL    HW110640   6.622   1.679   5.490
 3247SOL    HW210641   6.625   1.542   5.578
 3248SOL     OW10642   5.179   3.996   2.646
 3248SOL    HW110643   5.170   3.912   2.592
 3248SOL    HW210644   5.202   4.072   2.585
 3249SOL     OW10645   3.049   4.296   5.270
 3249SOL    HW110646   2.996   4.212   5.287
 3249SOL    HW210647   2.988   4.369   5.242
 3250SOL     OW10648   4.863   5.568   1.481
 3250SOL    HW110649   4.778   5.525   1.450
 3250SOL    HW210650   4.854   5.668   1.474
 3251SOL     OW10651   3.279   0.955   3.708
 3251SOL    HW110652   3.195   0.949   3.762
 3251SOL    HW210653   3.346   0.889   3.742
 3252SOL     OW10654   3.262   2.100   3.759
 3252SOL    HW110655   3.195   2.156   3.807
 3252SOL    HW210656   3.230   2.083   3.666
 3253SOL     OW10657   4.501   3.918   1.109
 3253SOL    HW110658   4.599   3.934   1.107
 3253SOL    HW210659   4.482   3.836   1.164
 3254SOL     OW10660   5.333   4.495   2.705
 3254SOL    HW110661   5.357   4.563   2.774
 3254SOL    HW210662   5.243   4.457   2.727
 3255SOL     OW10663   4.265   4.759   1.129
 3255SOL    HW110664   4.249   4.685   1.194
 3255SOL    HW210665   4.363   4.771   1.116
 3256SOL     OW10666   6.137   6.504   5.831
 3256SOL    HW110667   6.124   6.589   5.780
 3256SOL    HW210668   6.053   6.480   5.879
 3257SOL     OW10669   2.382   1.912   1.217
 3257SOL    HW110670   2.307   1.958   1.170
 3257SOL    HW210671   2.466   1.965   1.204
 3258SOL     OW10672   5.142   6.680   1.588
 3258SOL    HW110673   5.081   6.734   1.531
 3258SOL    HW210674   5.185   6.738   1.657
 3259SOL     OW10675   6.193   6.330   3.026
 3259SOL    HW110676   6.186   6.419   2.980
 3259SOL    HW210677   6.259   6.336   3.100
 3260SOL     OW10678   1.578   2.656   0.674
 3260SOL    HW110679   1.537   2.588   0.735
 3260SOL    HW210680   1.633   2.721   0.727
 3261SOL     OW10681   4.292   0.240   3.543
 3261SOL    HW110682   4.352   0.281   3.475
 3261SOL    HW210683   4.197   0.267   3.526
 3262SOL     OW10684   3.889   1.497   4.584
 3262SOL    HW110685   3.822   1.547   4.530
 3262SOL    HW210686   3.859   1.495   4.680
 3263SOL     OW10687   3.432   5.293   2.848
 3263SOL    HW110688   3.372   5.229   2.895
 3263SOL    HW210689   3.416   5.385   2.882
 3264SOL     OW10690   4.857   4.474   5.449
 3264SOL    HW110691   4.869   4.572   5.429
 3264SOL    HW210692   4.944   4.436   5.481
 3265SOL     OW10693   5.177   0.471   6.544
 3265SOL    HW110694   5.271   0.496   6.566
 3265SOL    HW210695   5.154   0.502   6.452
 3266SOL     OW10696   0.740   2.568   0.024
 3266SOL    HW110697   0.830   2.610   0.038
 3266SOL    HW210698   0.725   2.553   6.948
 3267SOL     OW10699   5.012   2.768   1.759
 3267SOL    HW110700   5.090   2.744   1.816
 3267SOL    HW210701   5.000   2.868   1.761
 3268SOL     OW10702   1.871   4.654   6.939
 3268SOL    HW110703   1.845   4.559   6.957
 3268SOL    HW210704   1.889   4.666   6.842
 3269SOL     OW10705   4.659   3.673   0.991
 3269SOL    HW110706   4.676   3.632   1.081
 3269SOL    HW210707   4.741   3.720   0.959
 3270SOL     OW10708   0.372   5.372   4.066
 3270SOL    HW110709   0.333   5.343   3.978
 3270SOL    HW210710   0.402   5.291   4.117
 3271SOL     OW10711   4.818   0.756   1.773
 3271SOL    HW110712   4.816   0.689   1.847
 3271SOL    HW210713   4.906   0.751   1.725
 3272SOL     OW10714   4.760   0.190   6.840
 3272SOL    HW110715   4.808   0.175   6.754
 3272SOL    HW210716   4.780   0.282   6.874
 3273SOL     OW10717   1.298   0.792   2.988
 3273SOL    HW110718   1.356   0.715   3.016
 3273SOL    HW210719   1.211   0.788   3.036
 3274SOL     OW10720   2.986   1.959   0.027
 3274SOL    HW110721   2.989   2.004   0.116
 3274SOL    HW210722   3.058   1.995   6.990
 3275SOL     OW10723   4.180   0.645   0.544
 3275SOL    HW110724   4.218   0.709   0.610
 3275SOL    HW210725   4.085   0.670   0.524
 3276SOL     OW10726   2.191   6.193   0.179
 3276SOL    HW110727   2.147   6.111   0.216
 3276SOL    HW210728   2.162   6.206   0.084
 3277SOL     OW10729   0.514   5.526   5.793
 3277SOL    HW110730   0.462   5.522   5.708
 3277SOL    HW210731   0.519   5.620   5.826
 3278SOL     OW10732   0.852   0.980   0.886
 3278SOL    HW110733   0.848   1.078   0.904
 3278SOL    HW210734   0.787   0.932   0.944
 3279SOL     OW10735   2.289   5.857   1.669
 3279SOL    HW110736   2.225   5.933   1.668
 3279SOL    HW210737   2.243   5.776   1.706
 3280SOL     OW10738   3.026   6.315   4.299
 3280SOL    HW110739   3.018   6.305   4.200
 3280SOL    HW210740   2.981   6.238   4.344
 3281SOL     OW10741   2.811   6.369   0.594
 3281SOL    HW110742   2.735   6.357   0.658
 3281SOL    HW210743   2.807   6.299   0.523
 3282SOL     OW10744   2.360   6.084   2.516
 3282SOL    HW110745   2.328   5.990   2.504
 3282SOL    HW210746   2.393   6.119   2.429
 3283SOL     OW10747   2.255   0.250   4.113
 3283SOL    HW110748   2.282   0.182   4.181
 3283SOL    HW210749   2.334   0.305   4.088
 3284SOL     OW10750   1.072   4.967   5.884
 3284SOL    HW110751   1.170   4.989   5.889
 3284SOL    HW210752   1.057   4.875   5.920
 3285SOL     OW10753   0.019   2.684   4.680
 3285SOL    HW110754   6.996   2.760   4.728
 3285SOL    HW210755   0.049   2.616   4.747
 3286SOL     OW10756   4.414   4.911   5.829
 3286SOL    HW110757   4.351   4.987   5.844
 3286SOL    HW210758   4.364   4.835   5.788
 3287SOL     OW10759   0.312   4.151   1.605
 3287SOL    HW110760   0.306   4.051   1.613
 3287SOL    HW210761   0.284   4.179   1.513
 3288SOL     OW10762   1.033   6.314   6.277
 3288SOL    HW110763   1.023   6.222   6.241
 3288SOL    HW210764   1.130   6.338   6.283
 3289SOL     OW10765   1.343   5.403   4.609
 3289SOL    HW110766   1.363   5.324   4.551
 3289SOL    HW210767   1.419   5.417   4.673
 3290SOL     OW10768   6.959   4.318   3.151
 3290SOL    HW110769   6.897   4.394   3.129
 3290SOL    HW210770   7.017   4.343   3.228
 3291SOL     OW10771   1.552   0.622   1.670
 3291SOL    HW110772   1.624   0.572   1.621
 3291SOL    HW210773   1.501   0.679   1.606
 3292SOL     OW10774   0.366   5.275   4.956
 3292SOL    HW110775   0.408   5.334   5.025
 3292SOL    HW210776   0.292   5.325   4.910
 3293SOL     OW10777   5.870   0.712   2.681
 3293SOL    HW110778   5.924   0.637   2.643
 3293SOL    HW210779   5.774   0.684   2.689
 3294SOL     OW10780   0.968   6.646   0.922
 3294SOL    HW110781   0.879   6.633   0.877
 3294SOL    HW210782   1.006   6.557   0.946
 3295SOL     OW10783   1.632   2.276   6.331
 3295SOL    HW110784   1.680   2.212   6.390
 3295SOL    HW210785   1.562   2.227   6.278
 3296SOL     OW10786   0.886   6.628   2.294
 3296SOL    HW110787   0.973   6.583   2.312
 3296SOL    HW210788   0.902   6.713   2.244
 3297SOL     OW10789   3.048   1.709   6.248
 3297SOL    HW110790   3.017   1.685   6.339
 3297SOL    HW210791   3.066   1.626   6.195
 3298SOL     OW10792   6.519   4.102   2.703
 3298SOL    HW110793   6.593   4.159   2.739
 3298SOL    HW210794   6.467   4.063   2.779
 3299SOL     OW10795   0.736   0.963   5.033
 3299SOL    HW110796   0.651   1.014   5.022
 3299SOL    HW210797   0.813   1.027   5.036
 3300SOL     OW10798   0.090   6.893   4.820
 3300SOL    HW110799   0.015   6.953   4.850
 3300SOL    HW210800   0.052   6.806   4.790
 3301SOL     OW10801   6.941   3.787   2.400
 3301SOL    HW110802   6.992   3.704   2.377
 3301SOL    HW210803   6.993   3.867   2.373
 3302SOL     OW10804   1.271   5.708   5.178
 3302SOL    HW110805   1.202   5.764   5.224
 3302SOL    HW210806   1.361   5.752   5.186
 3303SOL     OW10807   3.131   3.432   3.567
 3303SOL    HW110808   3.159   3.443   3.472
 3303SOL    HW210809   3.148   3.518   3.617
 3304SOL     OW10810   1.793   1.138   2.789
 3304SOL    HW110811   1.715   1.197   2.813
 3304SOL    HW210812   1.795   1.060   2.851
 3305SOL     OW10813   0.334   2.395   0.511
 3305SOL    HW110814   0.422   2.420   0.551
 3305SOL    HW210815   0.274   2.475   0.512
 3306SOL     OW10816   1.103   3.650   2.132
 3306SOL    HW110817   1.200   3.624   2.132
 3306SOL    HW210818   1.096   3.750   2.141
 3307SOL     OW10819   0.579   6.839   0.465
 3307SOL    HW110820   0.651   6.791   0.514
 3307SOL    HW210821   0.493   6.832   0.516
 3308SOL     OW10822   5.470   6.533   0.542
 3308SOL    HW110823   5.491   6.628   0.566
 3308SOL    HW210824   5.487   6.474   0.620
 3309SOL     OW10825   1.426   5.703   2.397
 3309SOL    HW110826   1.450   5.607   2.413
 3309SOL    HW210827   1.496   5.762   2.436
 3310SOL     OW10828   1.277   6.869   1.881
 3310SOL    HW110829   1.202   6.810   1.909
 3310SOL    HW210830   1.300   6.932   1.955
 3311SOL     OW10831   4.101   6.580   0.897
 3311SOL    HW110832   4.017   6.529   0.915
 3311SOL    HW210833   4.082   6.654   0.832
 3312SOL     OW10834   2.321   3.025   0.136
 3312SOL    HW110835   2.296   3.121   0.127
 3312SOL    HW210836   2.281   2.972   0.061
 3313SOL     OW10837   6.134   6.066   4.974
 3313SOL    HW110838   6.165   5.987   5.027
 3313SOL    HW210839   6.078   6.125   5.032
 3314SOL     OW10840   0.730   3.990   6.635
 3314SOL    HW110841   0.691   4.073   6.595
 3314SOL    HW210842   0.782   3.941   6.565
 3315SOL     OW10843   6.392   3.594   3.464
 3315SOL    HW110844   6.328   3.517   3.457
 3315SOL    HW210845   6.444   3.602   3.379
 3316SOL     OW10846   4.218   1.902   0.385
 3316SOL    HW110847   4.155   1.955   0.442
 3316SOL    HW210848   4.256   1.827   0.439
 3317SOL     OW10849   4.104   2.633   1.683
 3317SOL    HW110850   4.202   2.652   1.693
 3317SOL    HW210851   4.080   2.630   1.586
 3318SOL     OW10852   2.880   5.222   5.317
 3318SOL    HW110853   2.834   5.229   5.228
 3318SOL    HW210854   2.834   5.155   5.374
 3319SOL     OW10855   6.731   6.575   6.702
 3319SOL    HW110856   6.633   6.557   6.710
 3319SOL    HW210857   6.780   6.527   6.774
 3320SOL     OW10858   0.547   0.652   0.217
 3320SOL    HW110859   0.489   0.734   0.217
 3320SOL    HW210860   0.512   0.588   0.149
 3321SOL     OW10861   4.042   3.303   4.134
 3321SOL    HW110862   3.944   3.299   4.114
 3321SOL    HW210863   4.058   3.289   4.231
 3322SOL     OW10864   4.188   2.324   1.806
 3322SOL    HW110865   4.193   2.227   1.782
 3322SOL    HW210866   4.094   2.356   1.797
 3323SOL     OW10867   2.649   4.594   6.972
 3323SOL    HW110868   2.644   4.563   6.877
 3323SOL    HW210869   2.745   4.613   6.995
 3324SOL     OW10870   6.063   3.008   1.944
 3324SOL    HW110871   5.997   2.934   1.926
 3324SOL    HW210872   6.025   3.070   2.013
 3325SOL     OW10873   1.148   4.194   6.495
 3325SOL    HW110874   1.211   4.270   6.481
 3325SOL    HW210875   1.116   4.161   6.406
 3326SOL     OW10876   6.364   0.855   1.707
 3326SOL    HW110877   6.322   0.894   1.789
 3326SOL    HW210878   6.312   0.884   1.627
 3327SOL     OW10879   4.200   5.993   1.439
 3327SOL    HW110880   4.286   6.043   1.432
 3327SOL    HW210881   4.163   5.978   1.348
 3328SOL     OW10882   6.055   0.021   3.977
 3328SOL    HW110883   6.080   0.104   4.026
 3328SOL    HW210884   5.987   0.043   3.907
 3329SOL     OW10885   4.969   0.920   6.520
 3329SOL    HW110886   5.022   0.966   6.450
 3329SOL    HW210887   5.026   0.854   6.568
 3330SOL     OW10888   6.851   6.403   3.430
 3330SOL    HW110889   6.830   6.476   3.495
 3330SOL    HW210890   6.856   6.442   3.337
 3331SOL     OW10891   1.738   3.864   3.073
 3331SOL    HW110892   1.776   3.784   3.121
 3331SOL    HW210893   1.717   3.839   2.979
 3332SOL     OW10894   3.581   5.520   0.191
 3332SOL    HW110895   3.642   5.459   0.241
 3332SOL    HW210896   3.493   5.475   0.177
 3333SOL     OW10897   2.276   3.289   1.405
 3333SOL    HW110898   2.242   3.301   1.498
 3333SOL    HW210899   2.235   3.207   1.365
 3334SOL     OW10900   1.599   2.590   1.918
 3334SOL    HW110901   1.543   2.642   1.853
 3334SOL    HW210902   1.656   2.525   1.868
 3335SOL     OW10903   3.217   4.068   5.128
 3335SOL    HW110904   3.171   4.121   5.199
 3335SOL    HW210905   3.173   4.086   5.040
 3336SOL     OW10906   4.314   5.933   5.153
 3336SOL    HW110907   4.351   5.986   5.077
 3336SOL    HW210908   4.292   5.994   5.229
 3337SOL     OW10909   3.911   2.984   3.291
 3337SOL    HW110910   3.971   2.941   3.223
 3337SOL    HW210911   3.826   2.933   3.298
 3338SOL     OW10912   2.936   2.750   1.370
 3338SOL    HW110913   2.878   2.829   1.351
 3338SOL    HW210914   2.891   2.667   1.339
 3339SOL     OW10915   1.267   0.182   6.869
 3339SOL    HW110916   1.284   0.173   6.770
 3339SOL    HW210917   1.353   0.200   6.916
 3340SOL     OW10918   3.602   1.280   5.852
 3340SOL    HW110919   3.686   1.226   5.860
 3340SOL    HW210920   3.621   1.364   5.802
 3341SOL     OW10921   0.789   4.289   1.576
 3341SOL    HW110922   0.878   4.335   1.571
 3341SOL    HW210923   0.803   4.191   1.587
 3342SOL     OW10924   6.521   0.691   2.560
 3342SOL    HW110925   6.523   0.592   2.555
 3342SOL    HW210926   6.476   0.729   2.479
 3343SOL     OW10927   3.642   5.711   0.363
 3343SOL    HW110928   3.603   5.642   0.303
 3343SOL    HW210929   3.738   5.689   0.381
 3344SOL     OW10930   0.753   3.633   1.819
 3344SOL    HW110931   0.792   3.693   1.889
 3344SOL    HW210932   0.764   3.538   1.847
 3345SOL     OW10933   5.864   5.236   1.434
 3345SOL    HW110934   5.892   5.310   1.373
 3345SOL    HW210935   5.834   5.275   1.521
 3346SOL     OW10936   1.112   0.759   0.424
 3346SOL    HW110937   1.035   0.758   0.360
 3346SOL    HW210938   1.189   0.710   0.384
 3347SOL     OW10939   0.861   3.765   5.805
 3347SOL    HW110940   0.780   3.824   5.802
 3347SOL    HW210941   0.896   3.753   5.712
 3348SOL     OW10942   3.607   4.123   6.045
 3348SOL    HW110943   3.653   4.044   6.085
 3348SOL    HW210944   3.635   4.206   6.094
 3349SOL     OW10945   1.912   5.037   2.371
 3349SOL    HW110946   1.976   5.113   2.356
 3349SOL    HW210947   1.953   4.972   2.435
 3350SOL     OW10948   1.961   4.706   5.021
 3350SOL    HW110949   2.028   4.752   4.964
 3350SOL    HW210950   1.954   4.610   4.994
 3351SOL     OW10951   5.782   1.023   2.130
 3351SOL    HW110952   5.694   0.995   2.167
 3351SOL    HW210953   5.846   1.042   2.205
 3352SOL     OW10954   5.442   1.374   6.999
 3352SOL    HW110955   5.436   1.360   0.077
 3352SOL    HW210956   5.364   1.331   6.955
 3353SOL     OW10957   3.867   0.806   6.859
 3353SOL    HW110958   3.856   0.900   6.827
 3353SOL    HW210959   3.817   0.794   6.945
 3354SOL     OW10960   2.285   3.404   0.754
 3354SOL    HW110961   2.270   3.312   0.717
 3354SOL    HW210962   2.378   3.412   0.789
 3355SOL     OW10963   1.066   0.363   4.393
 3355SOL    HW110964   1.109   0.432   4.451
 3355SOL    HW210965   0.994   0.405   4.338
 3356SOL     OW10966   2.218   0.788   6.432
 3356SOL    HW110967   2.164   0.706   6.451
 3356SOL    HW210968   2.288   0.799   6.502
 3357SOL     OW10969   2.894   3.385   3.145
 3357SOL    HW110970   2.890   3.341   3.235
 3357SOL    HW210971   2.944   3.326   3.081
 3358SOL     OW10972   0.610   1.712   1.512
 3358SOL    HW110973   0.624   1.711   1.413
 3358SOL    HW210974   0.597   1.618   1.545
 3359SOL     OW10975   1.104   6.761   4.734
 3359SOL    HW110976   1.112   6.845   4.680
 3359SOL    HW210977   1.121   6.682   4.676
 3360SOL     OW10978   2.116   5.108   4.552
 3360SOL    HW110979   2.192   5.135   4.493
 3360SOL    HW210980   2.126   5.011   4.577
 3361SOL     OW10981   6.771   6.536   4.850
 3361SOL    HW110982   6.795   6.443   4.821
 3361SOL    HW210983   6.704   6.532   4.924
 3362SOL     OW10984   3.890   0.463   3.979
 3362SOL    HW110985   3.881   0.365   3.999
 3362SOL    HW210986   3.927   0.510   4.060
 3363SOL     OW10987   5.168   4.235   6.955
 3363SOL    HW110988   5.265   4.209   6.955
 3363SOL    HW210989   5.158   4.326   6.916
 3364SOL     OW10990   1.118   3.573   1.866
 3364SOL    HW110991   1.092   3.590   1.961
 3364SOL    HW210992   1.190   3.505   1.862
 3365SOL     OW10993   1.095   2.963   2.925
 3365SOL    HW110994   1.131   2.899   2.857
 3365SOL    HW210995   1.027   3.023   2.881
 3366SOL     OW10996   6.358   3.086   4.574
 3366SOL    HW110997   6.342   3.021   4.499
 3366SOL    HW210998   6.270   3.118   4.610
 3367SOL     OW10999   3.579   3.038   3.965
 3367SOL    HW111000   3.504   3.013   3.904
 3367SOL    HW211001   3.546   3.101   4.035
 3368SOL     OW11002   2.662   0.939   3.144
 3368SOL    HW111003   2.696   0.847   3.165
 3368SOL    HW211004   2.670   0.955   3.045
 3369SOL     OW11005   4.880   2.910   1.164
 3369SOL    HW111006   4.965   2.857   1.159
 3369SOL    HW211007   4.902   3.007   1.166
 3370SOL     OW11008   1.033   5.793   2.855
 3370SOL    HW111009   0.975   5.738   2.916
 3370SOL    HW211010   0.987   5.804   2.766
 3371SOL     OW11011   2.121   2.491   1.327
 3371SOL    HW111012   2.070   2.410   1.357
 3371SOL    HW211013   2.095   2.514   1.234
 3372SOL     OW11014   5.567   3.055   3.659
 3372SOL    HW111015   5.578   2.957   3.671
 3372SOL    HW211016   5.550   3.097   3.749
 3373SOL     OW11017   0.007   4.033   1.115
 3373SOL    HW111018   6.975   4.097   1.170
 3373SOL    HW211019   0.077   4.082   1.064
 3374SOL     OW11020   0.748   6.203   4.137
 3374SOL    HW111021   0.738   6.234   4.043
 3374SOL    HW211022   0.657   6.192   4.178
 3375SOL     OW11023   0.459   6.058   5.900
 3375SOL    HW111024   0.430   6.099   5.813
 3375SOL    HW211025   0.506   6.127   5.955
 3376SOL     OW11026   2.968   3.257   4.980
 3376SOL    HW111027   3.067   3.268   4.989
 3376SOL    HW211028   2.939   3.174   5.028
 3377SOL     OW11029   6.976   5.109   4.532
 3377SOL    HW111030   6.891   5.159   4.551
 3377SOL    HW211031   0.027   5.174   4.507
 3378SOL     OW11032   1.201   5.951   0.577
 3378SOL    HW111033   1.155   5.902   0.502
 3378SOL    HW211034   1.292   5.979   0.547
 3379SOL     OW11035   5.741   4.013   4.256
 3379SOL    HW111036   5.677   4.074   4.301
 3379SOL    HW211037   5.731   3.920   4.292
 3380SOL     OW11038   2.317   5.130   1.403
 3380SOL    HW111039   2.302   5.109   1.499
 3380SOL    HW211040   2.380   5.064   1.363
 3381SOL     OW11041   2.916   3.927   6.438
 3381SOL    HW111042   2.881   3.975   6.357
 3381SOL    HW211043   2.854   3.944   6.515
 3382SOL     OW11044   6.796   4.245   6.468
 3382SOL    HW111045   6.718   4.242   6.530
 3382SOL    HW211046   6.852   4.162   6.481
 3383SOL     OW11047   3.679   5.350   0.690
 3383SOL    HW111048   3.753   5.416   0.690
 3383SOL    HW211049   3.692   5.285   0.765
 3384SOL     OW11050   2.739   2.738   6.352
 3384SOL    HW111051   2.715   2.728   6.256
 3384SOL    HW211052   2.700   2.823   6.388
 3385SOL     OW11053   6.327   2.239   4.222
 3385SOL    HW111054   6.230   2.250   4.201
 3385SOL    HW211055   6.337   2.191   4.309
 3386SOL     OW11056   0.912   5.804   4.362
 3386SOL    HW111057   0.830   5.752   4.387
 3386SOL    HW211058   0.925   5.799   4.263
 3387SOL     OW11059   6.201   0.960   2.840
 3387SOL    HW111060   6.200   0.948   2.741
 3387SOL    HW211061   6.122   0.914   2.880
 3388SOL     OW11062   6.706   3.611   0.612
 3388SOL    HW111063   6.614   3.627   0.648
 3388SOL    HW211064   6.750   3.699   0.592
 3389SOL     OW11065   6.510   5.469   6.392
 3389SOL    HW111066   6.466   5.473   6.303
 3389SOL    HW211067   6.505   5.376   6.428
 3390SOL     OW11068   3.080   5.494   0.325
 3390SOL    HW111069   3.156   5.439   0.361
 3390SOL    HW211070   3.093   5.590   0.351
 3391SOL     OW11071   5.039   3.759   5.115
 3391SOL    HW111072   5.003   3.797   5.029
 3391SOL    HW211073   5.072   3.834   5.173
 3392SOL     OW11074   4.895   6.293   6.023
 3392SOL    HW111075   4.977   6.350   6.027
 3392SOL    HW211076   4.915   6.202   6.059
 3393SOL     OW11077   3.695   6.641   0.251
 3393SOL    HW111078   3.732   6.628   0.159
 3393SOL    HW211079   3.605   6.597   0.258
 3394SOL     OW11080   3.104   5.131   1.337
 3394SOL    HW111081   3.188   5.180   1.314
 3394SOL    HW211082   3.095   5.125   1.437
 3395SOL     OW11083   2.156   6.496   2.902
 3395SOL    HW111084   2.173   6.554   2.823
 3395SOL    HW211085   2.240   6.485   2.955
 3396SOL     OW11086   4.566   0.256   4.288
 3396SOL    HW111087   4.614   0.333   4.247
 3396SOL    HW211088   4.629   0.204   4.346
 3397SOL     OW11089   2.431   6.418   0.428
 3397SOL    HW111090   2.493   6.489   0.463
 3397SOL    HW211091   2.475   6.370   0.352
 3398SOL     OW11092   6.341   1.433   6.251
 3398SOL    HW111093   6.414   1.445   6.318
 3398SOL    HW211094   6.256   1.472   6.288
 3399SOL     OW11095   6.690   6.151   2.196
 3399SOL    HW111096   6.727   6.240   2.224
 3399SOL    HW211097   6.736   6.078   2.246
 3400SOL     OW11098   3.681   2.744   5.242
 3400SOL    HW111099   3.779   2.730   5.254
 3400SOL    HW211100   3.665   2.799   5.160
 3401SOL     OW11101   0.293   3.547   4.058
 3401SOL    HW111102   0.226   3.483   4.096
 3401SOL    HW211103   0.254   3.594   3.979
 3402SOL     OW11104   5.788   3.436   0.218
 3402SOL    HW111105   5.777   3.373   0.295
 3402SOL    HW211106   5.698   3.463   0.183
 3403SOL     OW11107   5.239   6.399   5.838
 3403SOL    HW111108   5.317   6.446   5.880
 3403SOL    HW211109   5.197   6.459   5.769
 3404SOL     OW11110   4.815   5.364   3.065
 3404SOL    HW111111   4.817   5.338   2.968
 3404SOL    HW211112   4.898   5.414   3.088
 3405SOL     OW11113   4.095   5.887   0.154
 3405SOL    HW111114   4.140   5.877   0.065
 3405SOL    HW211115   4.056   5.800   0.181
 3406SOL     OW11116   3.499   5.114   1.379
 3406SOL    HW111117   3.437   5.188   1.352
 3406SOL    HW211118   3.446   5.040   1.420
 3407SOL     OW11119   1.105   3.277   0.088
 3407SOL    HW111120   1.136   3.279   0.183
 3407SOL    HW211121   1.048   3.357   0.070
 3408SOL     OW11122   4.463   6.915   4.032
 3408SOL    HW111123   4.498   6.855   3.960
 3408SOL    HW211124   4.365   6.930   4.018
 3409SOL     OW11125   3.751   1.965   0.209
 3409SOL    HW111126   3.812   1.976   0.131
 3409SOL    HW211127   3.777   1.882   0.260
 3410SOL     OW11128   6.438   0.668   2.881
 3410SOL    HW111129   6.520   0.693   2.931
 3410SOL    HW211130   6.461   0.651   2.785
 3411SOL     OW11131   5.981   3.224   5.774
 3411SOL    HW111132   6.018   3.298   5.830
 3411SOL    HW211133   5.948   3.260   5.687
 3412SOL     OW11134   5.484   2.811   3.239
 3412SOL    HW111135   5.553   2.880   3.217
 3412SOL    HW211136   5.393   2.848   3.218
 3413SOL     OW11137   6.794   2.290   1.054
 3413SOL    HW111138   6.873   2.277   0.995
 3413SOL    HW211139   6.775   2.205   1.104
 3414SOL     OW11140   3.542   3.160   2.067
 3414SOL    HW111141   3.538   3.257   2.043
 3414SOL    HW211142   3.636   3.136   2.091
 3415SOL     OW11143   2.240   1.432   6.328
 3415SOL    HW111144   2.251   1.479   6.241
 3415SOL    HW211145   2.164   1.368   6.322
 3416SOL     OW11146   6.357   6.851   6.327
 3416SOL    HW111147   6.373   6.800   6.412
 3416SOL    HW211148   6.408   6.809   6.253
 3417SOL     OW11149   5.828   0.434   2.369
 3417SOL    HW111150   5.886   0.407   2.292
 3417SOL    HW211151   5.886   0.459   2.446
 3418SOL     OW11152   4.431   5.764   0.767
 3418SOL    HW111153   4.403   5.825   0.840
 3418SOL    HW211154   4.457   5.817   0.686
 3419SOL     OW11155   2.939   4.783   5.304
 3419SOL    HW111156   3.036   4.804   5.290
 3419SOL    HW211157   2.919   4.691   5.269
 3420SOL     OW11158   4.356   0.855   2.626
 3420SOL    HW111159   4.386   0.779   2.684
 3420SOL    HW211160   4.424   0.871   2.554
 3421SOL     OW11161   0.146   1.697   4.916
 3421SOL    HW111162   0.194   1.705   4.828
 3421SOL    HW211163   0.047   1.700   4.901
 3422SOL     OW11164   3.329   5.898   1.356
 3422SOL    HW111165   3.346   5.995   1.342
 3422SOL    HW211166   3.407   5.857   1.403
 3423SOL     OW11167   2.845   4.305   5.741
 3423SOL    HW111168   2.945   4.298   5.747
 3423SOL    HW211169   2.815   4.270   5.652
 3424SOL     OW11170   5.114   1.108   2.265
 3424SOL    HW111171   5.128   1.090   2.168
 3424SOL    HW211172   5.115   1.206   2.282
 3425SOL     OW11173   6.569   2.925   6.429
 3425SOL    HW111174   6.640   2.974   6.379
 3425SOL    HW211175   6.486   2.921   6.373
 3426SOL     OW11176   6.288   4.948   0.115
 3426SOL    HW111177   6.323   4.952   0.022
 3426SOL    HW211178   6.319   4.864   0.159
 3427SOL     OW11179   1.682   1.470   6.631
 3427SOL    HW111180   1.663   1.372   6.627
 3427SOL    HW211181   1.720   1.492   6.721
 3428SOL     OW11182   5.108   0.276   4.432
 3428SOL    HW111183   5.131   0.237   4.521
 3428SOL    HW211184   5.167   0.237   4.362
 3429SOL     OW11185   4.030   6.785   0.683
 3429SOL    HW111186   3.985   6.821   0.764
 3429SOL    HW211187   3.986   6.823   0.601
 3430SOL     OW11188   2.747   4.355   6.385
 3430SOL    HW111189   2.731   4.389   6.478
 3430SOL    HW211190   2.707   4.264   6.376
 3431SOL     OW11191   0.382   4.709   3.035
 3431SOL    HW111192   0.473   4.670   3.025
 3431SOL    HW211193   0.321   4.641   3.075
 3432SOL     OW11194   0.653   4.900   6.995
 3432SOL    HW111195   0.672   4.826   6.930
 3432SOL    HW211196   0.727   4.906   0.040
 3433SOL     OW11197   0.733   0.979   0.622
 3433SOL    HW111198   0.734   0.883   0.592
 3433SOL    HW211199   0.782   0.988   0.708
 3434SOL     OW11200   3.672   2.606   1.763
 3434SOL    HW111201   3.740   2.677   1.781
 3434SOL    HW211202   3.697   2.523   1.813
 3435SOL     OW11203   1.728   2.389   1.262
 3435SOL    HW111204   1.718   2.299   1.218
 3435SOL    HW211205   1.678   2.389   1.348
 3436SOL     OW11206   3.827   6.326   5.977
 3436SOL    HW111207   3.912   6.376   5.996
 3436SOL    HW211208   3.844   6.258   5.906
 3437SOL     OW11209   1.484   6.348   0.499
 3437SOL    HW111210   1.549   6.410   0.544
 3437SOL    HW211211   1.392   6.386   0.505
 3438SOL     OW11212   2.716   4.321   0.680
 3438SOL    HW111213   2.759   4.243   0.634
 3438SOL    HW211214   2.620   4.299   0.700
 3439SOL     OW11215   3.466   5.787   0.108
 3439SOL    HW111216   3.516   5.701   0.114
 3439SOL    HW211217   3.495   5.837   0.026
 3440SOL     OW11218   3.930   3.867   5.523
 3440SOL    HW111219   3.861   3.939   5.522
 3440SOL    HW211220   3.948   3.839   5.617
 3441SOL     OW11221   6.921   4.846   4.506
 3441SOL    HW111222   6.936   4.944   4.518
 3441SOL    HW211223   6.990   4.794   4.556
 3442SOL     OW11224   0.967   2.657   0.741
 3442SOL    HW111225   1.046   2.718   0.744
 3442SOL    HW211226   0.974   2.598   0.660
 3443SOL     OW11227   0.485   6.264   2.563
 3443SOL    HW111228   0.503   6.358   2.536
 3443SOL    HW211229   0.452   6.212   2.484
 3444SOL     OW11230   0.160   3.693   5.896
 3444SOL    HW111231   0.152   3.604   5.941
 3444SOL    HW211232   0.070   3.725   5.868
 3445SOL     OW11233   6.269   4.885   4.705
 3445SOL    HW111234   6.326   4.921   4.631
 3445SOL    HW211235   6.198   4.826   4.667
 3446SOL     OW11236   4.465   1.594   0.718
 3446SOL    HW111237   4.549   1.556   0.679
 3446SOL    HW211238   4.411   1.521   0.759
 3447SOL     OW11239   5.000   1.677   6.017
 3447SOL    HW111240   5.032   1.601   5.962
 3447SOL    HW211241   5.021   1.763   5.971
 3448SOL     OW11242   0.732   5.270   5.465
 3448SOL    HW111243   0.821   5.296   5.503
 3448SOL    HW211244   0.744   5.195   5.401
 3449SOL     OW11245   0.879   3.730   5.523
 3449SOL    HW111246   0.836   3.820   5.529
 3449SOL    HW211247   0.838   3.678   5.448
 3450SOL     OW11248   2.763   6.830   2.287
 3450SOL    HW111249   2.671   6.806   2.320
 3450SOL    HW211250   2.773   6.798   2.193
 3451SOL     OW11251   2.022   2.298   1.102
 3451SOL    HW111252   1.942   2.257   1.145
 3451SOL    HW211253   2.012   2.397   1.100
 3452SOL     OW11254   4.408   1.548   5.909
 3452SOL    HW111255   4.401   1.644   5.883
 3452SOL    HW211256   4.504   1.522   5.917
 3453SOL     OW11257   4.362   6.318   6.051
 3453SOL    HW111258   4.444   6.265   6.073
 3453SOL    HW211259   4.361   6.402   6.106
 3454SOL     OW11260   0.992   3.447   2.391
 3454SOL    HW111261   0.943   3.529   2.362
 3454SOL    HW211262   0.939   3.401   2.463
 3455SOL     OW11263   0.883   3.894   6.448
 3455SOL    HW111264   0.851   3.807   6.413
 3455SOL    HW211265   0.978   3.885   6.480
 3456SOL     OW11266   4.366   5.726   3.240
 3456SOL    HW111267   4.339   5.631   3.255
 3456SOL    HW211268   4.404   5.736   3.148
 3457SOL     OW11269   4.174   4.698   0.518
 3457SOL    HW111270   4.126   4.683   0.605
 3457SOL    HW211271   4.219   4.613   0.491
 3458SOL     OW11272   4.452   1.691   1.519
 3458SOL    HW111273   4.395   1.611   1.539
 3458SOL    HW211274   4.517   1.705   1.594
 3459SOL     OW11275   6.093   6.324   2.181
 3459SOL    HW111276   6.168   6.390   2.171
 3459SOL    HW211277   6.057   6.301   2.091
 3460SOL     OW11278   3.573   2.040   5.420
 3460SOL    HW111279   3.476   2.051   5.438
 3460SOL    HW211280   3.587   2.010   5.325
 3461SOL     OW11281   4.734   4.891   3.846
 3461SOL    HW111282   4.784   4.977   3.839
 3461SOL    HW211283   4.656   4.902   3.908
 3462SOL     OW11284   0.901   4.664   6.617
 3462SOL    HW111285   0.975   4.597   6.617
 3462SOL    HW211286   0.850   4.658   6.531
 3463SOL     OW11287   5.629   3.783   0.186
 3463SOL    HW111288   5.634   3.767   0.088
 3463SOL    HW211289   5.534   3.785   0.215
 3464SOL     OW11290   0.144   4.483   3.678
 3464SOL    HW111291   0.104   4.508   3.766
 3464SOL    HW211292   0.238   4.518   3.674
 3465SOL     OW11293   0.577   2.917   2.590
 3465SOL    HW111294   0.636   2.933   2.669
 3465SOL    HW211295   0.553   3.004   2.547
 3466SOL     OW11296   6.469   3.347   3.598
 3466SOL    HW111297   6.463   3.437   3.554
 3466SOL    HW211298   6.565   3.324   3.614
 3467SOL     OW11299   1.721   2.412   6.118
 3467SOL    HW111300   1.704   2.368   6.206
 3467SOL    HW211301   1.753   2.505   6.133
 3468SOL     OW11302   5.010   6.201   1.956
 3468SOL    HW111303   4.925   6.152   1.976
 3468SOL    HW211304   5.060   6.153   1.884
 3469SOL     OW11305   5.524   4.119   0.307
 3469SOL    HW111306   5.624   4.120   0.312
 3469SOL    HW211307   5.495   4.046   0.244
 3470SOL     OW11308   6.342   4.988   1.507
 3470SOL    HW111309   6.424   5.045   1.516
 3470SOL    HW211310   6.281   5.027   1.438
 3471SOL     OW11311   4.354   6.800   4.522
 3471SOL    HW111312   4.365   6.750   4.609
 3471SOL    HW211313   4.367   6.898   4.538
 3472SOL     OW11314   3.952   1.233   5.030
 3472SOL    HW111315   3.999   1.279   4.955
 3472SOL    HW211316   3.968   1.134   5.024
 3473SOL     OW11317   4.563   0.250   3.733
 3473SOL    HW111318   4.632   0.204   3.789
 3473SOL    HW211319   4.475   0.251   3.781
 3474SOL     OW11320   4.591   4.310   0.355
 3474SOL    HW111321   4.555   4.264   0.275
 3474SOL    HW211322   4.563   4.260   0.438
 3475SOL     OW11323   1.809   5.394   5.131
 3475SOL    HW111324   1.725   5.372   5.181
 3475SOL    HW211325   1.884   5.339   5.167
 3476SOL     OW11326   4.262   2.087   4.390
 3476SOL    HW111327   4.186   2.150   4.372
 3476SOL    HW211328   4.263   2.016   4.320
 3477SOL     OW11329   4.504   5.251   1.745
 3477SOL    HW111330   4.579   5.277   1.807
 3477SOL    HW211331   4.542   5.207   1.664
 3478SOL     OW11332   4.170   3.959   0.291
 3478SOL    HW111333   4.156   3.865   0.321
 3478SOL    HW211334   4.082   3.999   0.267
 3479SOL     OW11335   1.549   0.127   0.559
 3479SOL    HW111336   1.557   0.226   0.571
 3479SOL    HW211337   1.599   0.080   0.632
 3480SOL     OW11338   1.357   0.014   4.157
 3480SOL    HW111339   1.404   6.978   4.224
 3480SOL    HW211340   1.258   0.008   4.171
 3481SOL     OW11341   1.941   6.275   6.761
 3481SOL    HW111342   1.968   6.216   6.684
 3481SOL    HW211343   1.854   6.244   6.798
 3482SOL     OW11344   0.478   2.253   2.092
 3482SOL    HW111345   0.398   2.292   2.047
 3482SOL    HW211346   0.450   2.188   2.162
 3483SOL     OW11347   3.559   1.509   0.347
 3483SOL    HW111348   3.474   1.553   0.377
 3483SOL    HW211349   3.565   1.418   0.389
 3484SOL     OW11350   3.903   3.938   3.591
 3484SOL    HW111351   3.951   3.886   3.661
 3484SOL    HW211352   3.945   4.028   3.581
 3485SOL     OW11353   5.992   1.600   5.147
 3485SOL    HW111354   6.037   1.537   5.210
 3485SOL    HW211355   6.029   1.588   5.055
 3486SOL     OW11356   5.400   0.844   3.122
 3486SOL    HW111357   5.361   0.922   3.170
 3486SOL    HW211358   5.459   0.876   3.048
 3487SOL     OW11359   0.560   0.512   0.577
 3487SOL    HW111360   0.462   0.493   0.575
 3487SOL    HW211361   0.584   0.553   0.665
 3488SOL     OW11362   6.099   4.059   4.314
 3488SOL    HW111363   6.195   4.036   4.331
 3488SOL    HW211364   6.093   4.153   4.280
 3489SOL     OW11365   2.532   5.257   6.891
 3489SOL    HW111366   2.506   5.198   6.968
 3489SOL    HW211367   2.601   5.322   6.921
 3490SOL     OW11368   4.549   3.527   0.778
 3490SOL    HW111369   4.576   3.600   0.841
 3490SOL    HW211370   4.450   3.526   0.769
 3491SOL     OW11371   6.550   3.207   5.744
 3491SOL    HW111372   6.581   3.113   5.734
 3491SOL    HW211373   6.450   3.209   5.748
 3492SOL     OW11374   6.119   4.837   6.858
 3492SOL    HW111375   6.095   4.911   6.795
 3492SOL    HW211376   6.218   4.833   6.870
 3493SOL     OW11377   6.980   4.957   2.063
 3493SOL    HW111378   6.936   5.045   2.080
 3493SOL    HW211379   7.005   4.950   1.966
 3494SOL     OW11380   3.007   6.513   1.327
 3494SOL    HW111381   3.025   6.438   1.390
 3494SOL    HW211382   3.003   6.477   1.233
 3495SOL     OW11383   5.816   4.057   6.641
 3495SOL    HW111384   5.830   4.117   6.720
 3495SOL    HW211385   5.893   4.066   6.578
 3496SOL     OW11386   0.684   4.718   0.682
 3496SOL    HW111387   0.606   4.686   0.629
 3496SOL    HW211388   0.767   4.671   0.651
 3497SOL     OW11389   4.594   0.267   4.689
 3497SOL    HW111390   4.644   0.227   4.612
 3497SOL    HW211391   4.653   0.331   4.738
 3498SOL     OW11392   0.770   1.804   0.623
 3498SOL    HW111393   0.815   1.891   0.602
 3498SOL    HW211394   0.691   1.792   0.563
 3499SOL     OW11395   0.215   4.203   4.487
 3499SOL    HW111396   0.234   4.110   4.455
 3499SOL    HW211397   0.209   4.265   4.408
 3500SOL     OW11398   5.730   3.078   0.657
 3500SOL    HW111399   5.762   2.983   0.662
 3500SOL    HW211400   5.643   3.080   0.608
 3501SOL     OW11401   0.431   5.142   3.043
 3501SOL    HW111402   0.387   5.148   2.953
 3501SOL    HW211403   0.374   5.089   3.105
 3502SOL     OW11404   0.673   5.048   1.758
 3502SOL    HW111405   0.660   5.141   1.793
 3502SOL    HW211406   0.597   5.025   1.698
 3503SOL     OW11407   3.455   6.922   3.400
 3503SOL    HW111408   3.423   6.876   3.482
 3503SOL    HW211409   3.486   6.854   3.333
 3504SOL     OW11410   1.867   3.117   2.717
 3504SOL    HW111411   1.859   3.121   2.618
 3504SOL    HW211412   1.920   3.037   2.743
 3505SOL     OW11413   4.831   6.899   5.018
 3505SOL    HW111414   4.853   6.804   5.042
 3505SOL    HW211415   4.857   6.916   4.923
 3506SOL     OW11416   6.186   4.809   2.308
 3506SOL    HW111417   6.138   4.747   2.370
 3506SOL    HW211418   6.138   4.811   2.220
 3507SOL     OW11419   6.638   0.199   5.825
 3507SOL    HW111420   6.596   0.285   5.853
 3507SOL    HW211421   6.630   0.133   5.899
 3508SOL     OW11422   6.640   4.327   0.219
 3508SOL    HW111423   6.692   4.404   0.256
 3508SOL    HW211424   6.666   4.243   0.267
 3509SOL     OW11425   5.605   0.196   6.685
 3509SOL    HW111426   5.522   0.164   6.639
 3509SOL    HW211427   5.607   0.296   6.687
 3510SOL     OW11428   1.590   1.987   2.187
 3510SOL    HW111429   1.613   1.990   2.284
 3510SOL    HW211430   1.513   1.925   2.173
 3511SOL     OW11431   0.683   0.765   4.648
 3511SOL    HW111432   0.710   0.848   4.695
 3511SOL    HW211433   0.636   0.788   4.562
 3512SOL     OW11434   3.514   3.009   1.198
 3512SOL    HW111435   3.586   3.067   1.160
 3512SOL    HW211436   3.532   2.992   1.295
 3513SOL     OW11437   5.626   4.098   1.057
 3513SOL    HW111438   5.584   4.036   0.992
 3513SOL    HW211439   5.617   4.192   1.024
 3514SOL     OW11440   2.330   6.675   1.916
 3514SOL    HW111441   2.293   6.601   1.859
 3514SOL    HW211442   2.406   6.640   1.970
 3515SOL     OW11443   3.931   6.280   3.040
 3515SOL    HW111444   3.974   6.226   2.968
 3515SOL    HW211445   3.991   6.282   3.120
 3516SOL     OW11446   2.064   1.235   0.331
 3516SOL    HW111447   2.148   1.276   0.364
 3516SOL    HW211448   2.079   1.196   0.240
 3517SOL     OW11449   0.585   0.496   6.463
 3517SOL    HW111450   0.517   0.432   6.426
 3517SOL    HW211451   0.615   0.463   6.553
 3518SOL     OW11452   4.176   3.675   6.004
 3518SOL    HW111453   4.140   3.683   5.910
 3518SOL    HW211454   4.241   3.748   6.021
 3519SOL     OW11455   3.422   6.820   0.092
 3519SOL    HW111456   3.356   6.858   0.157
 3519SOL    HW211457   3.423   6.720   0.100
 3520SOL     OW11458   3.377   5.325   1.274
 3520SOL    HW111459   3.453   5.366   1.223
 3520SOL    HW211460   3.295   5.380   1.261
 3521SOL     OW11461   6.787   2.538   6.412
 3521SOL    HW111462   6.834   2.550   6.499
 3521SOL    HW211463   6.731   2.618   6.392
 3522SOL     OW11464   2.804   0.523   0.713
 3522SOL    HW111465   2.786   0.545   0.617
 3522SOL    HW211466   2.766   0.434   0.735
 3523SOL     OW11467   2.683   4.566   5.340
 3523SOL    HW111468   2.714   4.556   5.435
 3523SOL    HW211469   2.749   4.522   5.279
 3524SOL     OW11470   2.374   0.746   2.695
 3524SOL    HW111471   2.359   0.827   2.638
 3524SOL    HW211472   2.293   0.687   2.692
 3525SOL     OW11473   1.369   3.345   2.647
 3525SOL    HW111474   1.326   3.403   2.578
 3525SOL    HW211475   1.331   3.253   2.641
 3526SOL     OW11476   3.615   6.588   3.470
 3526SOL    HW111477   3.592   6.491   3.485
 3526SOL    HW211478   3.627   6.633   3.558
 3527SOL     OW11479   5.414   3.488   6.656
 3527SOL    HW111480   5.510   3.462   6.643
 3527SOL    HW211481   5.409   3.564   6.722
 3528SOL     OW11482   1.874   6.545   4.660
 3528SOL    HW111483   1.790   6.565   4.711
 3528SOL    HW211484   1.951   6.538   4.723
 3529SOL     OW11485   3.883   5.867   6.939
 3529SOL    HW111486   3.920   5.956   6.912
 3529SOL    HW211487   3.883   5.860   0.018
 3530SOL     OW11488   1.894   6.531   2.979
 3530SOL    HW111489   1.851   6.517   2.889
 3530SOL    HW211490   1.993   6.533   2.968
 3531SOL     OW11491   4.978   4.520   6.772
 3531SOL    HW111492   4.931   4.534   6.859
 3531SOL    HW211493   4.921   4.465   6.712
 3532SOL     OW11494   2.220   6.506   0.872
 3532SOL    HW111495   2.196   6.573   0.802
 3532SOL    HW211496   2.278   6.550   0.941
 3533SOL     OW11497   1.375   0.697   3.653
 3533SOL    HW111498   1.456   0.735   3.698
 3533SOL    HW211499   1.308   0.770   3.639
 3534SOL     OW11500   5.303   0.545   5.299
 3534SOL    HW111501   5.256   0.525   5.385
 3534SOL    HW211502   5.290   0.468   5.236
 3535SOL     OW11503   5.166   6.533   0.122
 3535SOL    HW111504   5.157   6.497   0.215
 3535SOL    HW211505   5.262   6.556   0.104
 3536SOL     OW11506   0.816   3.281   2.562
 3536SOL    HW111507   0.724   3.313   2.584
 3536SOL    HW211508   0.814   3.233   2.475
 3537SOL     OW11509   2.926   4.792   1.439
 3537SOL    HW111510   2.882   4.880   1.458
 3537SOL    HW211511   2.912   4.730   1.516
 3538SOL     OW11512   3.671   0.892   3.785
 3538SOL    HW111513   3.738   0.836   3.834
 3538SOL    HW211514   3.703   0.910   3.692
 3539SOL     OW11515   4.821   5.503   5.941
 3539SOL    HW111516   4.774   5.592   5.938
 3539SOL    HW211517   4.844   5.475   5.848
 3540SOL     OW11518   3.594   4.426   6.096
 3540SOL    HW111519   3.592   4.410   6.195
 3540SOL    HW211520   3.501   4.423   6.060
 3541SOL     OW11521   1.378   2.395   1.962
 3541SOL    HW111522   1.297   2.450   1.978
 3541SOL    HW211523   1.458   2.455   1.951
 3542SOL     OW11524   5.825   1.676   0.169
 3542SOL    HW111525   5.896   1.680   0.099
 3542SOL    HW211526   5.757   1.607   0.142
 3543SOL     OW11527   0.649   2.306   3.760
 3543SOL    HW111528   0.552   2.294   3.740
 3543SOL    HW211529   0.673   2.403   3.757
 3544SOL     OW11530   2.793   4.131   0.334
 3544SOL    HW111531   2.787   4.063   0.407
 3544SOL    HW211532   2.704   4.175   0.322
 3545SOL     OW11533   3.889   6.586   0.480
 3545SOL    HW111534   3.925   6.679   0.491
 3545SOL    HW211535   3.843   6.579   0.391
 3546SOL     OW11536   6.494   4.833   1.154
 3546SOL    HW111537   6.516   4.898   1.082
 3546SOL    HW211538   6.528   4.868   1.242
 3547SOL     OW11539   1.073   4.189   5.101
 3547SOL    HW111540   1.000   4.155   5.042
 3547SOL    HW211541   1.120   4.111   5.143
 3548SOL     OW11542   6.209   0.253   6.156
 3548SOL    HW111543   6.265   0.219   6.231
 3548SOL    HW211544   6.130   0.192   6.143
 3549SOL     OW11545   2.215   6.489   6.774
 3549SOL    HW111546   2.131   6.478   6.721
 3549SOL    HW211547   2.279   6.548   6.725
 3550SOL     OW11548   5.682   1.436   5.742
 3550SOL    HW111549   5.654   1.531   5.727
 3550SOL    HW211550   5.718   1.425   5.834
 3551SOL     OW11551   5.602   1.867   5.058
 3551SOL    HW111552   5.546   1.927   5.116
 3551SOL    HW211553   5.698   1.877   5.083
 3552SOL     OW11554   6.850   6.927   3.138
 3552SOL    HW111555   6.805   6.876   3.065
 3552SOL    HW211556   6.899   6.863   3.198
 3553SOL     OW11557   6.255   5.802   6.294
 3553SOL    HW111558   6.303   5.757   6.219
 3553SOL    HW211559   6.284   5.897   6.300
 3554SOL     OW11560   4.576   4.255   6.836
 3554SOL    HW111561   4.567   4.156   6.839
 3554SOL    HW211562   4.594   4.285   6.742
 3555SOL     OW11563   2.829   1.703   5.490
 3555SOL    HW111564   2.921   1.686   5.456
 3555SOL    HW211565   2.821   1.667   5.583
 3556SOL     OW11566   5.763   1.108   0.334
 3556SOL    HW111567   5.824   1.075   0.406
 3556SOL    HW211568   5.739   1.203   0.353
 3557SOL     OW11569   5.334   6.443   1.864
 3557SOL    HW111570   5.389   6.525   1.874
 3557SOL    HW211571   5.239   6.463   1.888
 3558SOL     OW11572   3.510   5.597   2.271
 3558SOL    HW111573   3.443   5.555   2.210
 3558SOL    HW211574   3.514   5.695   2.251
 3559SOL     OW11575   3.983   6.570   6.488
 3559SOL    HW111576   3.922   6.492   6.502
 3559SOL    HW211577   3.930   6.652   6.470
 3560SOL     OW11578   2.295   5.527   4.480
 3560SOL    HW111579   2.372   5.493   4.427
 3560SOL    HW211580   2.260   5.454   4.539
 3561SOL     OW11581   4.594   3.447   5.354
 3561SOL    HW111582   4.587   3.510   5.277
 3561SOL    HW211583   4.524   3.469   5.422
 3562SOL     OW11584   2.731   1.367   0.516
 3562SOL    HW111585   2.743   1.268   0.514
 3562SOL    HW211586   2.683   1.396   0.433
 3563SOL     OW11587   0.257   2.291   6.683
 3563SOL    HW111588   0.291   2.200   6.657
 3563SOL    HW211589   0.312   2.328   6.758
 3564SOL     OW11590   6.326   3.643   2.735
 3564SOL    HW111591   6.290   3.551   2.722
 3564SOL    HW211592   6.423   3.646   2.712
 3565SOL     OW11593   5.016   6.538   5.644
 3565SOL    HW111594   5.069   6.454   5.634
 3565SOL    HW211595   4.936   6.520   5.701
 3566SOL     OW11596   1.412   1.189   5.354
 3566SOL    HW111597   1.435   1.112   5.414
 3566SOL    HW211598   1.471   1.186   5.273
 3567SOL     OW11599   6.713   3.935   6.832
 3567SOL    HW111600   6.798   3.898   6.870
 3567SOL    HW211601   6.684   4.015   6.885
 3568SOL     OW11602   4.399   3.431   5.559
 3568SOL    HW111603   4.480   3.421   5.617
 3568SOL    HW211604   4.331   3.363   5.584
 3569SOL     OW11605   1.728   0.665   3.550
 3569SOL    HW111606   1.685   0.704   3.631
 3569SOL    HW211607   1.771   0.578   3.573
 3570SOL     OW11608   6.119   1.549   4.530
 3570SOL    HW111609   6.096   1.647   4.535
 3570SOL    HW211610   6.135   1.523   4.435
 3571SOL     OW11611   6.722   5.223   4.568
 3571SOL    HW111612   6.719   5.320   4.544
 3571SOL    HW211613   6.745   5.213   4.665
 3572SOL     OW11614   6.116   6.539   5.459
 3572SOL    HW111615   6.047   6.609   5.482
 3572SOL    HW211616   6.198   6.584   5.425
 3573SOL     OW11617   0.169   1.666   1.480
 3573SOL    HW111618   0.196   1.660   1.384
 3573SOL    HW211619   0.243   1.709   1.532
 3574SOL     OW11620   6.087   3.909   0.590
 3574SOL    HW111621   6.058   3.813   0.591
 3574SOL    HW211622   6.061   3.953   0.675
 3575SOL     OW11623   6.288   6.503   2.144
 3575SOL    HW111624   6.378   6.485   2.103
 3575SOL    HW211625   6.299   6.563   2.223
 3576SOL     OW11626   6.406   0.866   6.923
 3576SOL    HW111627   6.460   0.811   6.986
 3576SOL    HW211628   6.314   0.828   6.916
 3577SOL     OW11629   2.915   3.596   0.597
 3577SOL    HW111630   2.860   3.635   0.524
 3577SOL    HW211631   3.008   3.633   0.591
 3578SOL     OW11632   3.527   4.319   1.685
 3578SOL    HW111633   3.561   4.395   1.741
 3578SOL    HW211634   3.431   4.335   1.662
 3579SOL     OW11635   1.900   4.229   5.298
 3579SOL    HW111636   1.949   4.301   5.248
 3579SOL    HW211637   1.955   4.199   5.376
 3580SOL     OW11638   6.628   3.152   1.008
 3580SOL    HW111639   6.629   3.172   1.105
 3580SOL    HW211640   6.533   3.139   0.977
 3581SOL     OW11641   6.233   0.906   3.560
 3581SOL    HW111642   6.163   0.977   3.570
 3581SOL    HW211643   6.242   0.882   3.463
 3582SOL     OW11644   0.044   0.057   5.252
 3582SOL    HW111645   0.040   0.013   5.342
 3582SOL    HW211646   6.997   0.015   5.192
 3583SOL     OW11647   1.320   5.467   1.803
 3583SOL    HW111648   1.337   5.376   1.841
 3583SOL    HW211649   1.254   5.460   1.728
 3584SOL     OW11650   5.984   0.116   5.407
 3584SOL    HW111651   6.007   0.198   5.458
 3584SOL    HW211652   5.901   0.132   5.353
 3585SOL     OW11653   2.282   4.779   3.505
 3585SOL    HW111654   2.225   4.816   3.431
 3585SOL    HW211655   2.351   4.847   3.530
 3586SOL     OW11656   1.237   0.677   5.945
 3586SOL    HW111657   1.162   0.643   6.001
 3586SOL    HW211658   1.324   0.645   5.982
 3587SOL     OW11659   3.854   6.341   6.549
 3587SOL    HW111660   3.767   6.335   6.501
 3587SOL    HW211661   3.886   6.250   6.572
 3588SOL     OW11662   1.642   1.914   5.342
 3588SOL    HW111663   1.557   1.922   5.290
 3588SOL    HW211664   1.684   2.004   5.353
 3589SOL     OW11665   3.759   0.297   4.623
 3589SOL    HW111666   3.814   0.295   4.540
 3589SOL    HW211667   3.696   0.219   4.623
 3590SOL     OW11668   1.619   5.080   6.828
 3590SOL    HW111669   1.669   5.106   6.910
 3590SOL    HW211670   1.607   4.980   6.826
 3591SOL     OW11671   5.413   2.279   5.084
 3591SOL    HW111672   5.412   2.194   5.137
 3591SOL    HW211673   5.457   2.351   5.137
 3592SOL     OW11674   5.217   2.455   2.061
 3592SOL    HW111675   5.206   2.412   1.972
 3592SOL    HW211676   5.132   2.445   2.114
 3593SOL     OW11677   1.279   5.429   4.257
 3593SOL    HW111678   1.308   5.416   4.162
 3593SOL    HW211679   1.331   5.368   4.316
 3594SOL     OW11680   3.967   1.817   4.481
 3594SOL    HW111681   3.869   1.805   4.466
 3594SOL    HW211682   4.005   1.874   4.408
 3595SOL     OW11683   2.151   6.822   5.586
 3595SOL    HW111684   2.061   6.855   5.557
 3595SOL    HW211685   2.172   6.737   5.538
 3596SOL     OW11686   0.386   3.877   3.655
 3596SOL    HW111687   0.374   3.926   3.569
 3596SOL    HW211688   0.362   3.937   3.732
 3597SOL     OW11689   3.723   0.116   3.870
 3597SOL    HW111690   3.633   0.115   3.826
 3597SOL    HW211691   3.789   0.161   3.810
 3598SOL     OW11692   1.479   0.579   0.037
 3598SOL    HW111693   1.529   0.495   0.057
 3598SOL    HW211694   1.545   0.651   0.014
 3599SOL     OW11695   6.921   1.681   4.592
 3599SOL    HW111696   6.909   1.731   4.678
 3599SOL    HW211697   6.878   1.732   4.518
 3600SOL     OW11698   6.766   0.176   1.377
 3600SOL    HW111699   6.827   0.102   1.402
 3600SOL    HW211700   6.715   0.151   1.294
 3601SOL     OW11701   6.338   3.642   5.419
 3601SOL    HW111702   6.263   3.580   5.394
 3601SOL    HW211703   6.350   3.640   5.518
 3602SOL     OW11704   2.884   1.643   1.405
 3602SOL    HW111705   2.895   1.617   1.309
 3602SOL    HW211706   2.799   1.694   1.416
 3603SOL     OW11707   4.190   5.666   4.452
 3603SOL    HW111708   4.132   5.703   4.379
 3603SOL    HW211709   4.157   5.698   4.541
 3604SOL     OW11710   6.504   3.874   3.608
 3604SOL    HW111711   6.530   3.778   3.598
 3604SOL    HW211712   6.418   3.890   3.559
 3605SOL     OW11713   6.120   2.753   6.517
 3605SOL    HW111714   6.218   2.748   6.539
 3605SOL    HW211715   6.107   2.731   6.420
 3606SOL     OW11716   1.523   4.335   3.122
 3606SOL    HW111717   1.475   4.262   3.074
 3606SOL    HW211718   1.541   4.308   3.216
 3607SOL     OW11719   4.317   6.969   0.021
 3607SOL    HW111720   4.237   6.958   6.984
 3607SOL    HW211721   4.288   7.006   0.110
 3608SOL     OW11722   0.534   3.288   3.164
 3608SOL    HW111723   0.512   3.384   3.150
 3608SOL    HW211724   0.493   3.233   3.091
 3609SOL     OW11725   6.578   6.963   4.743
 3609SOL    HW111726   6.486   6.998   4.760
 3609SOL    HW211727   6.597   6.962   4.645
 3610SOL     OW11728   1.886   5.441   5.524
 3610SOL    HW111729   1.938   5.481   5.449
 3610SOL    HW211730   1.896   5.341   5.522
 3611SOL     OW11731   4.566   5.378   5.832
 3611SOL    HW111732   4.498   5.401   5.763
 3611SOL    HW211733   4.626   5.456   5.847
 3612SOL     OW11734   2.069   6.313   1.391
 3612SOL    HW111735   2.109   6.387   1.445
 3612SOL    HW211736   1.970   6.327   1.384
 3613SOL     OW11737   5.061   5.143   6.222
 3613SOL    HW111738   4.991   5.096   6.275
 3613SOL    HW211739   5.025   5.164   6.130
 3614SOL     OW11740   3.866   3.433   4.730
 3614SOL    HW111741   3.850   3.522   4.773
 3614SOL    HW211742   3.937   3.384   4.780
 3615SOL     OW11743   5.882   6.363   5.907
 3615SOL    HW111744   5.876   6.390   5.811
 3615SOL    HW211745   5.971   6.321   5.924
 3616SOL     OW11746   5.904   0.645   4.988
 3616SOL    HW111747   5.883   0.569   5.050
 3616SOL    HW211748   5.825   0.663   4.929
 3617SOL     OW11749   6.704   0.653   0.367
 3617SOL    HW111750   6.738   0.686   0.279
 3617SOL    HW211751   6.737   0.713   0.440
 3618SOL     OW11752   2.983   6.699   6.643
 3618SOL    HW111753   2.906   6.760   6.621
 3618SOL    HW211754   3.001   6.702   6.741
 3619SOL     OW11755   5.159   4.417   4.063
 3619SOL    HW111756   5.238   4.476   4.050
 3619SOL    HW211757   5.121   4.431   4.155
 3620SOL     OW11758   6.081   1.636   4.845
 3620SOL    HW111759   6.166   1.669   4.804
 3620SOL    HW211760   6.003   1.672   4.794
 3621SOL     OW11761   1.548   3.460   6.030
 3621SOL    HW111762   1.647   3.449   6.041
 3621SOL    HW211763   1.519   3.419   5.943
 3622SOL     OW11764   0.554   3.347   1.109
 3622SOL    HW111765   0.489   3.297   1.166
 3622SOL    HW211766   0.533   3.445   1.113
 3623SOL     OW11767   6.885   5.193   3.750
 3623SOL    HW111768   6.798   5.168   3.792
 3623SOL    HW211769   6.867   5.252   3.671
 3624SOL     OW11770   1.756   1.236   1.887
 3624SOL    HW111771   1.667   1.220   1.845
 3624SOL    HW211772   1.762   1.330   1.919
 3625SOL     OW11773   0.696   3.508   4.213
 3625SOL    HW111774   0.654   3.444   4.149
 3625SOL    HW211775   0.792   3.484   4.225
 3626SOL     OW11776   2.722   3.875   5.235
 3626SOL    HW111777   2.635   3.916   5.210
 3626SOL    HW211778   2.706   3.782   5.269
 3627SOL     OW11779   3.387   3.276   3.876
 3627SOL    HW111780   3.343   3.366   3.870
 3627SOL    HW211781   3.334   3.217   3.936
 3628SOL     OW11782   3.036   5.472   3.071
 3628SOL    HW111783   3.100   5.504   3.001
 3628SOL    HW211784   3.064   5.507   3.161
 3629SOL     OW11785   5.429   2.989   5.113
 3629SOL    HW111786   5.408   3.075   5.067
 3629SOL    HW211787   5.443   3.005   5.210
 3630SOL     OW11788   5.612   1.436   4.842
 3630SOL    HW111789   5.611   1.337   4.831
 3630SOL    HW211790   5.689   1.475   4.791
 3631SOL     OW11791   2.119   0.812   3.818
 3631SOL    HW111792   2.129   0.757   3.901
 3631SOL    HW211793   2.122   0.752   3.738
 3632SOL     OW11794   3.867   6.873   6.246
 3632SOL    HW111795   3.910   6.885   6.336
 3632SOL    HW211796   3.800   6.799   6.250
 3633SOL     OW11797   1.485   3.234   5.608
 3633SOL    HW111798   1.577   3.215   5.640
 3633SOL    HW211799   1.435   3.148   5.596
 3634SOL     OW11800   3.237   5.922   6.102
 3634SOL    HW111801   3.312   5.947   6.042
 3634SOL    HW211802   3.217   5.824   6.092
 3635SOL     OW11803   1.731   1.348   4.938
 3635SOL    HW111804   1.831   1.358   4.945
 3635SOL    HW211805   1.688   1.434   4.965
 3636SOL     OW11806   1.563   6.031   6.613
 3636SOL    HW111807   1.466   6.008   6.607
 3636SOL    HW211808   1.596   6.059   6.523
 3637SOL     OW11809   5.278   1.444   1.704
 3637SOL    HW111810   5.254   1.538   1.679
 3637SOL    HW211811   5.343   1.446   1.781
 3638SOL     OW11812   6.029   4.775   3.238
 3638SOL    HW111813   6.051   4.704   3.172
 3638SOL    HW211814   6.096   4.849   3.231
 3639SOL     OW11815   2.747   5.746   6.736
 3639SOL    HW111816   2.656   5.776   6.764
 3639SOL    HW211817   2.778   5.672   6.797
 3640SOL     OW11818   2.730   6.614   1.583
 3640SOL    HW111819   2.739   6.532   1.528
 3640SOL    HW211820   2.741   6.591   1.680
 3641SOL     OW11821   2.103   0.464   4.772
 3641SOL    HW111822   2.006   0.489   4.770
 3641SOL    HW211823   2.147   0.493   4.687
 3642SOL     OW11824   6.022   6.803   2.389
 3642SOL    HW111825   6.053   6.836   2.300
 3642SOL    HW211826   5.951   6.864   2.425
 3643SOL     OW11827   3.610   5.020   5.887
 3643SOL    HW111828   3.556   4.937   5.868
 3643SOL    HW211829   3.580   5.094   5.827
 3644SOL     OW11830   6.724   0.198   0.301
 3644SOL    HW111831   6.639   0.248   0.315
 3644SOL    HW211832   6.801   0.253   0.333
 3645SOL     OW11833   3.706   6.448   2.654
 3645SOL    HW111834   3.612   6.478   2.636
 3645SOL    HW211835   3.751   6.514   2.714
 3646SOL     OW11836   6.515   5.611   3.897
 3646SOL    HW111837   6.566   5.529   3.870
 3646SOL    HW211838   6.572   5.692   3.881
 3647SOL     OW11839   2.456   2.439   1.649
 3647SOL    HW111840   2.360   2.456   1.632
 3647SOL    HW211841   2.512   2.491   1.585
 3648SOL     OW11842   3.210   5.816   3.437
 3648SOL    HW111843   3.159   5.835   3.521
 3648SOL    HW211844   3.227   5.902   3.388
 3649SOL     OW11845   3.345   3.124   2.634
 3649SOL    HW111846   3.272   3.058   2.619
 3649SOL    HW211847   3.413   3.115   2.562
 3650SOL     OW11848   5.618   6.666   1.383
 3650SOL    HW111849   5.685   6.592   1.380
 3650SOL    HW211850   5.527   6.628   1.366
 3651SOL     OW11851   1.112   6.236   2.147
 3651SOL    HW111852   1.104   6.215   2.049
 3651SOL    HW211853   1.159   6.160   2.193
 3652SOL     OW11854   4.410   5.148   2.571
 3652SOL    HW111855   4.479   5.078   2.551
 3652SOL    HW211856   4.332   5.137   2.510
 3653SOL     OW11857   6.974   2.965   4.731
 3653SOL    HW111858   0.048   2.997   4.736
 3653SOL    HW211859   6.918   3.020   4.793
 3654SOL     OW11860   1.220   5.467   1.304
 3654SOL    HW111861   1.189   5.478   1.209
 3654SOL    HW211862   1.206   5.553   1.353
 3655SOL     OW11863   0.371   1.070   3.684
 3655SOL    HW111864   0.441   1.140   3.688
 3655SOL    HW211865   0.363   1.025   3.773
 3656SOL     OW11866   2.860   1.353   2.795
 3656SOL    HW111867   2.762   1.340   2.780
 3656SOL    HW211868   2.911   1.321   2.715
 3657SOL     OW11869   4.060   4.819   1.928
 3657SOL    HW111870   3.976   4.772   1.954
 3657SOL    HW211871   4.135   4.788   1.987
 3658SOL     OW11872   2.217   5.369   5.721
 3658SOL    HW111873   2.289   5.344   5.656
 3658SOL    HW211874   2.159   5.290   5.739
 3659SOL     OW11875   1.091   4.195   0.272
 3659SOL    HW111876   1.175   4.191   0.217
 3659SOL    HW211877   1.098   4.128   0.347
 3660SOL     OW11878   4.504   5.358   1.197
 3660SOL    HW111879   4.575   5.298   1.159
 3660SOL    HW211880   4.431   5.302   1.236
 3661SOL     OW11881   4.744   1.667   0.999
 3661SOL    HW111882   4.803   1.586   0.990
 3661SOL    HW211883   4.663   1.643   1.052
 3662SOL     OW11884   2.700   6.201   4.825
 3662SOL    HW111885   2.775   6.213   4.889
 3662SOL    HW211886   2.723   6.128   4.760
 3663SOL     OW11887   1.410   3.650   6.445
 3663SOL    HW111888   1.434   3.554   6.456
 3663SOL    HW211889   1.313   3.659   6.426
 3664SOL     OW11890   4.244   0.329   0.906
 3664SOL    HW111891   4.173   0.399   0.918
 3664SOL    HW211892   4.273   0.296   0.996
 3665SOL     OW11893   1.533   6.722   5.265
 3665SOL    HW111894   1.463   6.728   5.336
 3665SOL    HW211895   1.504   6.776   5.186
 3666SOL     OW11896   0.927   4.690   4.169
 3666SOL    HW111897   0.841   4.648   4.139
 3666SOL    HW211898   0.914   4.789   4.180
 3667SOL     OW11899   0.096   1.650   6.587
 3667SOL    HW111900   0.065   1.717   6.655
 3667SOL    HW211901   0.168   1.691   6.530
 3668SOL     OW11902   1.741   6.180   2.181
 3668SOL    HW111903   1.645   6.151   2.173
 3668SOL    HW211904   1.788   6.119   2.245
 3669SOL     OW11905   6.048   1.872   3.674
 3669SOL    HW111906   5.971   1.897   3.732
 3669SOL    HW211907   6.080   1.781   3.698
 3670SOL     OW11908   2.112   5.232   6.211
 3670SOL    HW111909   2.047   5.279   6.270
 3670SOL    HW211910   2.203   5.233   6.254
 3671SOL     OW11911   1.400   1.093   2.637
 3671SOL    HW111912   1.335   1.023   2.667
 3671SOL    HW211913   1.351   1.165   2.588
 3672SOL     OW11914   6.556   6.968   0.467
 3672SOL    HW111915   6.606   0.027   0.434
 3672SOL    HW211916   6.564   6.894   0.401
 3673SOL     OW11917   4.112   0.549   6.764
 3673SOL    HW111918   4.175   0.571   6.689
 3673SOL    HW211919   4.018   0.552   6.731
 3674SOL     OW11920   1.740   6.392   0.956
 3674SOL    HW111921   1.837   6.414   0.968
 3674SOL    HW211922   1.731   6.312   0.898
 3675SOL     OW11923   1.612   1.686   4.512
 3675SOL    HW111924   1.591   1.669   4.416
 3675SOL    HW211925   1.625   1.598   4.559
 3676SOL     OW11926   2.120   5.190   2.878
 3676SOL    HW111927   2.169   5.212   2.794
 3676SOL    HW211928   2.035   5.243   2.881
 3677SOL     OW11929   6.670   6.809   3.697
 3677SOL    HW111930   6.606   6.879   3.729
 3677SOL    HW211931   6.660   6.727   3.753
 3678SOL     OW11932   0.965   1.529   3.321
 3678SOL    HW111933   0.953   1.607   3.259
 3678SOL    HW211934   1.028   1.554   3.395
 3679SOL     OW11935   0.386   0.701   1.455
 3679SOL    HW111936   0.414   0.626   1.395
 3679SOL    HW211937   0.417   0.788   1.416
 3680SOL     OW11938   6.604   4.225   4.663
 3680SOL    HW111939   6.634   4.237   4.758
 3680SOL    HW211940   6.540   4.148   4.658
 3681SOL     OW11941   5.533   6.319   4.852
 3681SOL    HW111942   5.470   6.243   4.840
 3681SOL    HW211943   5.611   6.290   4.907
 3682SOL     OW11944   0.412   2.122   6.302
 3682SOL    HW111945   0.370   2.205   6.264
 3682SOL    HW211946   0.499   2.145   6.345
 3683SOL     OW11947   5.142   6.008   3.477
 3683SOL    HW111948   5.173   6.065   3.553
 3683SOL    HW211949   5.216   5.946   3.449
 3684SOL     OW11950   1.762   2.885   0.705
 3684SOL    HW111951   1.797   2.804   0.752
 3684SOL    HW211952   1.813   2.966   0.736
 3685SOL     OW11953   6.453   6.746   6.574
 3685SOL    HW111954   6.548   6.722   6.551
 3685SOL    HW211955   6.426   6.696   6.656
 3686SOL     OW11956   5.753   4.466   1.230
 3686SOL    HW111957   5.799   4.506   1.310
 3686SOL    HW211958   5.779   4.370   1.221
 3687SOL     OW11959   2.794   1.026   6.898
 3687SOL    HW111960   2.795   1.120   6.933
 3687SOL    HW211961   2.815   0.963   6.972
 3688SOL     OW11962   6.961   3.377   6.954
 3688SOL    HW111963   0.006   3.367   0.008
 3688SOL    HW211964   7.011   3.388   6.868
 3689SOL     OW11965   2.815   0.508   3.862
 3689SOL    HW111966   2.793   0.453   3.782
 3689SOL    HW211967   2.766   0.473   3.942
 3690SOL     OW11968   4.472   6.362   5.341
 3690SOL    HW111969   4.501   6.454   5.368
 3690SOL    HW211970   4.529   6.294   5.387
 3691SOL     OW11971   3.849   2.812   0.065
 3691SOL    HW111972   3.821   2.761   0.146
 3691SOL    HW211973   3.930   2.867   0.087
 3692SOL     OW11974   1.324   0.114   6.577
 3692SOL    HW111975   1.381   0.044   6.533
 3692SOL    HW211976   1.374   0.201   6.580
 3693SOL     OW11977   2.494   1.626   3.175
 3693SOL    HW111978   2.525   1.707   3.127
 3693SOL    HW211979   2.515   1.545   3.120
 3694SOL     OW11980   2.137   6.000   2.927
 3694SOL    HW111981   2.153   5.999   3.025
 3694SOL    HW211982   2.223   6.020   2.879
 3695SOL     OW11983   1.900   2.777   1.506
 3695SOL    HW111984   1.831   2.747   1.440
 3695SOL    HW211985   1.923   2.701   1.567
 3696SOL     OW11986   2.994   5.968   5.844
 3696SOL    HW111987   3.068   5.918   5.800
 3696SOL    HW211988   3.026   6.058   5.873
 3697SOL     OW11989   5.285   0.163   4.228
 3697SOL    HW111990   5.366   0.104   4.225
 3697SOL    HW211991   5.231   0.149   4.144
 3698SOL     OW11992   2.913   0.387   5.936
 3698SOL    HW111993   2.845   0.452   5.972
 3698SOL    HW211994   2.877   0.294   5.944
 3699SOL     OW11995   1.503   3.962   2.100
 3699SOL    HW111996   1.582   3.984   2.157
 3699SOL    HW211997   1.419   3.974   2.154
 3700SOL     OW11998   0.609   0.146   4.084
 3700SOL    HW111999   0.526   0.203   4.085
 3700SOL    HW212000   0.615   0.099   3.996
 3701SOL     OW12001   5.642   0.424   3.511
 3701SOL    HW112002   5.597   0.456   3.595
 3701SOL    HW212003   5.730   0.382   3.535
 3702SOL     OW12004   4.296   0.742   6.920
 3702SOL    HW112005   4.236   0.688   6.980
 3702SOL    HW212006   4.284   0.711   6.826
 3703SOL     OW12007   4.275   4.355   0.184
 3703SOL    HW112008   4.355   4.296   0.174
 3703SOL    HW212009   4.259   4.403   0.097
 3704SOL     OW12010   2.302   0.354   2.245
 3704SOL    HW112011   2.370   0.334   2.174
 3704SOL    HW212012   2.292   0.453   2.254
 3705SOL     OW12013   5.619   1.267   4.165
 3705SOL    HW112014   5.545   1.333   4.180
 3705SOL    HW212015   5.596   1.182   4.212
 3706SOL     OW12016   2.229   2.150   3.544
 3706SOL    HW112017   2.279   2.193   3.469
 3706SOL    HW212018   2.209   2.055   3.520
 3707SOL     OW12019   4.365   2.263   5.234
 3707SOL    HW112020   4.333   2.344   5.185
 3707SOL    HW212021   4.424   2.210   5.173
 3708SOL     OW12022   6.332   6.839   5.956
 3708SOL    HW112023   6.290   6.806   5.871
 3708SOL    HW212024   6.309   6.776   6.031
 3709SOL     OW12025   4.476   0.284   6.985
 3709SOL    HW112026   4.560   0.327   7.018
 3709SOL    HW212027   4.427   0.243   0.040
 3710SOL     OW12028   7.009   4.997   0.520
 3710SOL    HW112029   6.975   5.057   0.593
 3710SOL    HW212030   0.009   5.051   0.439
 3711SOL     OW12031   6.598   4.998   2.975
 3711SOL    HW112032   6.575   5.005   2.878
 3711SOL    HW212033   6.515   4.979   3.028
 3712SOL     OW12034   1.981   0.009   0.626
 3712SOL    HW112035   1.910   7.019   0.695
 3712SOL    HW212036   2.070   0.021   0.670
 3713SOL     OW12037   4.383   5.944   6.162
 3713SOL    HW112038   4.322   6.007   6.211
 3713SOL    HW212039   4.364   5.949   6.064
 3714SOL     OW12040   4.148   1.448   5.512
 3714SOL    HW112041   4.125   1.423   5.418
 3714SOL    HW212042   4.206   1.529   5.512
 3715SOL     OW12043   5.127   4.150   4.110
 3715SOL    HW112044   5.127   4.249   4.123
 3715SOL    HW212045   5.204   4.109   4.159
 3716SOL     OW12046   0.316   1.702   4.633
 3716SOL    HW112047   0.303   1.610   4.595
 3716SOL    HW212048   0.414   1.722   4.640
 3717SOL     OW12049   6.013   0.223   0.243
 3717SOL    HW112050   5.960   0.295   0.200
 3717SOL    HW212051   6.006   0.139   0.189
 3718SOL     OW12052   0.718   5.384   0.294
 3718SOL    HW112053   0.725   5.310   0.360
 3718SOL    HW212054   0.630   5.379   0.247
 3719SOL     OW12055   3.932   5.111   6.438
 3719SOL    HW112056   3.833   5.125   6.438
 3719SOL    HW212057   3.976   5.188   6.485
 3720SOL     OW12058   0.358   1.771   5.981
 3720SOL    HW112059   0.429   1.706   6.006
 3720SOL    HW212060   0.385   1.864   6.007
 3721SOL     OW12061   4.623   3.288   0.628
 3721SOL    HW112062   4.566   3.278   0.546
 3721SOL    HW212063   4.589   3.366   0.682
 3722SOL     OW12064   6.005   5.895   1.607
 3722SOL    HW112065   6.084   5.932   1.557
 3722SOL    HW212066   6.021   5.798   1.626
 3723SOL     OW12067   3.996   1.287   0.592
 3723SOL    HW112068   3.979   1.316   0.497
 3723SOL    HW212069   3.914   1.242   0.627
 3724SOL     OW12070   0.053   4.935   5.862
 3724SOL    HW112071   0.098   4.848   5.841
 3724SOL    HW212072   6.988   4.942   5.812
 3725SOL     OW12073   6.470   0.392   0.645
 3725SOL    HW112074   6.494   0.423   0.737
 3725SOL    HW212075   6.465   0.292   0.644
 3726SOL     OW12076   5.896   3.262   1.655
 3726SOL    HW112077   5.919   3.166   1.637
 3726SOL    HW212078   5.860   3.270   1.748
 3727SOL     OW12079   2.444   2.745   5.310
 3727SOL    HW112080   2.444   2.670   5.243
 3727SOL    HW212081   2.486   2.826   5.269
 3728SOL     OW12082   0.439   3.432   6.831
 3728SOL    HW112083   0.521   3.473   6.791
 3728SOL    HW212084   0.373   3.413   6.759
 3729SOL     OW12085   0.224   2.759   3.234
 3729SOL    HW112086   0.217   2.846   3.185
 3729SOL    HW212087   0.201   2.772   3.330
 3730SOL     OW12088   2.243   0.815   0.566
 3730SOL    HW112089   2.341   0.832   0.558
 3730SOL    HW212090   2.226   0.747   0.637
 3731SOL     OW12091   3.163   6.358   6.339
 3731SOL    HW112092   3.099   6.432   6.322
 3731SOL    HW212093   3.134   6.275   6.291
 3732SOL     OW12094   2.072   3.671   4.467
 3732SOL    HW112095   2.045   3.767   4.470
 3732SOL    HW212096   2.095   3.640   4.559
 3733SOL     OW12097   2.907   3.501   1.243
 3733SOL    HW112098   3.007   3.500   1.249
 3733SOL    HW212099   2.880   3.522   1.149
 3734SOL     OW12100   5.147   0.065   3.362
 3734SOL    HW112101   5.107   7.016   3.304
 3734SOL    HW212102   5.197   0.021   3.437
 3735SOL     OW12103   3.520   1.807   1.713
 3735SOL    HW112104   3.472   1.812   1.626
 3735SOL    HW212105   3.561   1.716   1.724
 3736SOL     OW12106   4.675   1.450   5.971
 3736SOL    HW112107   4.775   1.446   5.964
 3736SOL    HW212108   4.645   1.397   6.049
 3737SOL     OW12109   3.823   6.663   3.258
 3737SOL    HW112110   3.827   6.763   3.259
 3737SOL    HW212111   3.752   6.632   3.322
 3738SOL     OW12112   6.724   6.896   4.013
 3738SOL    HW112113   6.752   6.967   3.949
 3738SOL    HW212114   6.795   6.883   4.082
 3739SOL     OW12115   0.425   3.935   1.835
 3739SOL    HW112116   0.384   3.915   1.746
 3739SOL    HW212117   0.361   3.910   1.908
 3740SOL     OW12118   5.463   1.020   7.015
 3740SOL    HW112119   5.408   1.093   6.972
 3740SOL    HW212120   5.545   1.060   0.034
 3741SOL     OW12121   3.395   2.344   6.970
 3741SOL    HW112122   3.386   2.416   0.017
 3741SOL    HW212123   3.413   2.257   7.016
 3742SOL     OW12124   3.018   3.636   5.709
 3742SOL    HW112125   3.029   3.692   5.791
 3742SOL    HW212126   2.922   3.610   5.698
 3743SOL     OW12127   0.722   5.776   6.149
 3743SOL    HW112128   0.718   5.725   6.235
 3743SOL    HW212129   0.716   5.874   6.168
 3744SOL     OW12130   6.935   5.510   3.201
 3744SOL    HW112131   6.892   5.422   3.182
 3744SOL    HW212132   0.013   5.500   3.200
 3745SOL     OW12133   5.167   5.792   1.715
 3745SOL    HW112134   5.257   5.824   1.684
 3745SOL    HW212135   5.177   5.749   1.805
 3746SOL     OW12136   4.180   1.533   2.318
 3746SOL    HW112137   4.207   1.568   2.408
 3746SOL    HW212138   4.100   1.585   2.286
 3747SOL     OW12139   2.664   0.303   0.790
 3747SOL    HW112140   2.688   0.218   0.835
 3747SOL    HW212141   2.566   0.301   0.766
 3748SOL     OW12142   5.898   0.876   2.466
 3748SOL    HW112143   5.926   0.956   2.519
 3748SOL    HW212144   5.881   0.800   2.528
 3749SOL     OW12145   1.494   0.754   4.721
 3749SOL    HW112146   1.456   0.674   4.674
 3749SOL    HW212147   1.465   0.755   4.816
 3750SOL     OW12148   0.272   4.822   6.955
 3750SOL    HW112149   0.253   4.736   7.003
 3750SOL    HW212150   0.188   4.853   6.908
 3751SOL     OW12151   1.765   4.190   1.247
 3751SOL    HW112152   1.731   4.100   1.275
 3751SOL    HW212153   1.815   4.232   1.323
 3752SOL     OW12154   5.627   6.173   6.993
 3752SOL    HW112155   5.612   6.195   6.897
 3752SOL    HW212156   5.719   6.134   7.004
 3753SOL     OW12157   6.728   0.122   3.615
 3753SOL    HW112158   6.648   0.072   3.582
 3753SOL    HW212159   6.791   0.138   3.539
 3754SOL     OW12160   1.852   1.118   1.079
 3754SOL    HW112161   1.813   1.135   1.169
 3754SOL    HW212162   1.950   1.135   1.081
 3755SOL     OW12163   3.155   5.235   4.302
 3755SOL    HW112164   3.176   5.290   4.384
 3755SOL    HW212165   3.081   5.279   4.252
 3756SOL     OW12166   1.964   6.342   0.533
 3756SOL    HW112167   1.995   6.437   0.535
 3756SOL    HW212168   2.042   6.281   0.541
 3757SOL     OW12169   0.164   4.715   1.268
 3757SOL    HW112170   0.203   4.660   1.194
 3757SOL    HW212171   0.065   4.702   1.272
 3758SOL     OW12172   2.074   0.230   3.901
 3758SOL    HW112173   2.110   0.226   3.807
 3758SOL    HW212174   2.147   0.258   3.963
 3759SOL     OW12175   5.344   0.363   3.945
 3759SOL    HW112176   5.258   0.323   3.914
 3759SOL    HW212177   5.341   0.376   4.044
 3760SOL     OW12178   1.072   1.045   2.965
 3760SOL    HW112179   1.033   1.112   3.028
 3760SOL    HW212180   1.166   1.025   2.991
 3761SOL     OW12181   4.301   1.942   5.206
 3761SOL    HW112182   4.320   1.864   5.265
 3761SOL    HW212183   4.226   1.918   5.144
 3762SOL     OW12184   0.237   2.923   3.816
 3762SOL    HW112185   0.161   2.916   3.880
 3762SOL    HW212186   0.261   2.832   3.782
 3763SOL     OW12187   0.674   4.727   6.788
 3763SOL    HW112188   0.754   4.687   6.744
 3763SOL    HW212189   0.592   4.706   6.734
 3764SOL     OW12190   2.553   0.676   2.895
 3764SOL    HW112191   2.484   0.737   2.857
 3764SOL    HW212192   2.644   0.707   2.868
 3765SOL     OW12193   5.674   2.448   3.121
 3765SOL    HW112194   5.731   2.376   3.083
 3765SOL    HW212195   5.728   2.506   3.181
 3766SOL     OW12196   1.540   3.533   1.847
 3766SOL    HW112197   1.442   3.554   1.846
 3766SOL    HW212198   1.580   3.565   1.932
 3767SOL     OW12199   1.734   5.747   6.197
 3767SOL    HW112200   1.714   5.651   6.179
 3767SOL    HW212201   1.652   5.802   6.180
 3768SOL     OW12202   1.503   0.008   2.849
 3768SOL    HW112203   1.522   7.013   2.752
 3768SOL    HW212204   1.405   7.018   2.866
 3769SOL     OW12205   5.389   5.675   4.204
 3769SOL    HW112206   5.293   5.702   4.208
 3769SOL    HW212207   5.414   5.627   4.288
 3770SOL     OW12208   2.198   0.995   1.248
 3770SOL    HW112209   2.281   1.009   1.303
 3770SOL    HW212210   2.120   1.036   1.295
 3771SOL     OW12211   6.322   5.376   5.503
 3771SOL    HW112212   6.378   5.449   5.542
 3771SOL    HW212213   6.244   5.357   5.564
 3772SOL     OW12214   1.437   5.888   1.523
 3772SOL    HW112215   1.421   5.867   1.620
 3772SOL    HW212216   1.484   5.977   1.516
 3773SOL     OW12217   4.917   5.139   6.944
 3773SOL    HW112218   4.848   5.067   6.948
 3773SOL    HW212219   4.965   5.134   6.856
 3774SOL     OW12220   6.488   4.982   1.910
 3774SOL    HW112221   6.426   4.915   1.868
 3774SOL    HW212222   6.434   5.056   1.950
 3775SOL     OW12223   4.707   5.034   4.992
 3775SOL    HW112224   4.613   5.027   5.025
 3775SOL    HW212225   4.762   5.081   5.060
 3776SOL     OW12226   4.242   3.044   6.116
 3776SOL    HW112227   4.156   2.999   6.091
 3776SOL    HW212228   4.311   2.975   6.138
 3777SOL     OW12229   3.084   4.883   4.627
 3777SOL    HW112230   2.991   4.848   4.613
 3777SOL    HW212231   3.140   4.861   4.548
 3778SOL     OW12232   3.499   5.483   6.574
 3778SOL    HW112233   3.407   5.519   6.559
 3778SOL    HW212234   3.517   5.478   6.672
 3779SOL     OW12235   6.873   4.510   0.016
 3779SOL    HW112236   6.799   4.529   0.080
 3779SOL    HW212237   6.848   4.542   6.946
 3780SOL     OW12238   5.710   3.567   2.227
 3780SOL    HW112239   5.755   3.622   2.157
 3780SOL    HW212240   5.777   3.506   2.269
 3781SOL     OW12241   1.933   5.893   4.917
 3781SOL    HW112242   1.836   5.913   4.926
 3781SOL    HW212243   1.945   5.800   4.881
 3782SOL     OW12244   4.150   4.984   1.227
 3782SOL    HW112245   4.130   4.949   1.319
 3782SOL    HW212246   4.200   4.915   1.175
 3783SOL     OW12247   4.782   5.331   4.598
 3783SOL    HW112248   4.746   5.251   4.646
 3783SOL    HW212249   4.719   5.358   4.526
 3784SOL     OW12250   6.018   3.069   5.486
 3784SOL    HW112251   6.040   3.062   5.389
 3784SOL    HW212252   5.966   3.152   5.503
 3785SOL     OW12253   1.406   2.411   2.954
 3785SOL    HW112254   1.395   2.312   2.967
 3785SOL    HW212255   1.341   2.443   2.885
 3786SOL     OW12256   2.135   3.272   4.693
 3786SOL    HW112257   2.183   3.205   4.750
 3786SOL    HW212258   2.132   3.360   4.740
 3787SOL     OW12259   5.085   6.576   4.178
 3787SOL    HW112260   5.085   6.489   4.128
 3787SOL    HW212261   4.994   6.618   4.172
 3788SOL     OW12262   4.963   2.928   6.044
 3788SOL    HW112263   4.983   2.892   5.953
 3788SOL    HW212264   4.986   2.859   6.113
 3789SOL     OW12265   2.484   2.598   1.244
 3789SOL    HW112266   2.411   2.602   1.312
 3789SOL    HW212267   2.483   2.509   1.199
 3790SOL     OW12268   0.759   6.462   1.351
 3790SOL    HW112269   0.848   6.479   1.308
 3790SOL    HW212270   0.734   6.366   1.340
 3791SOL     OW12271   5.005   0.495   5.735
 3791SOL    HW112272   4.947   0.474   5.656
 3791SOL    HW212273   4.955   0.554   5.799
 3792SOL     OW12274   6.858   0.127   4.238
 3792SOL    HW112275   6.794   0.159   4.168
 3792SOL    HW212276   6.880   0.031   4.223
 3793SOL     OW12277   3.819   4.732   0.429
 3793SOL    HW112278   3.849   4.657   0.370
 3793SOL    HW212279   3.869   4.728   0.516
 3794SOL     OW12280   0.937   4.975   6.252
 3794SOL    HW112281   0.920   4.982   6.350
 3794SOL    HW212282   1.019   5.027   6.228
 3795SOL     OW12283   2.880   6.143   1.155
 3795SOL    HW112284   2.867   6.047   1.177
 3795SOL    HW212285   2.963   6.177   1.199
 3796SOL     OW12286   4.632   0.858   0.395
 3796SOL    HW112287   4.578   0.818   0.321
 3796SOL    HW212288   4.712   0.801   0.413
 3797SOL     OW12289   0.224   3.369   1.385
 3797SOL    HW112290   0.216   3.306   1.462
 3797SOL    HW212291   0.136   3.376   1.338
 3798SOL     OW12292   1.506   5.311   3.728
 3798SOL    HW112293   1.530   5.408   3.728
 3798SOL    HW212294   1.568   5.260   3.787
 3799SOL     OW12295   6.911   1.059   3.497
 3799SOL    HW112296   6.885   1.141   3.446
 3799SOL    HW212297   7.007   1.064   3.522
 3800SOL     OW12298   5.784   2.215   3.014
 3800SOL    HW112299   5.810   2.203   2.918
 3800SOL    HW212300   5.862   2.190   3.073
 3801SOL     OW12301   6.055   0.740   1.247
 3801SOL    HW112302   6.063   0.665   1.182
 3801SOL    HW212303   5.974   0.726   1.304
 3802SOL     OW12304   6.283   3.606   1.731
 3802SOL    HW112305   6.262   3.703   1.729
 3802SOL    HW212306   6.208   3.555   1.689
 3803SOL     OW12307   3.434   3.992   4.650
 3803SOL    HW112308   3.465   3.907   4.693
 3803SOL    HW212309   3.335   3.989   4.639
 3804SOL     OW12310   3.807   6.314   3.370
 3804SOL    HW112311   3.820   6.336   3.467
 3804SOL    HW212312   3.893   6.280   3.331
 3805SOL     OW12313   2.395   2.587   6.536
 3805SOL    HW112314   2.333   2.565   6.612
 3805SOL    HW212315   2.398   2.687   6.523
 3806SOL     OW12316   2.272   4.995   1.659
 3806SOL    HW112317   2.210   4.922   1.632
 3806SOL    HW212318   2.362   4.955   1.682
 3807SOL     OW12319   1.608   4.032   3.884
 3807SOL    HW112320   1.626   4.116   3.934
 3807SOL    HW212321   1.671   3.961   3.913
 3808SOL     OW12322   2.889   6.488   5.173
 3808SOL    HW112323   2.806   6.543   5.161
 3808SOL    HW212324   2.864   6.397   5.205
 3809SOL     OW12325   5.481   1.855   2.035
 3809SOL    HW112326   5.547   1.830   1.965
 3809SOL    HW212327   5.443   1.773   2.076
 3810SOL     OW12328   4.738   2.119   3.099
 3810SOL    HW112329   4.817   2.069   3.134
 3810SOL    HW212330   4.733   2.108   3.000
 3811SOL     OW12331   0.258   5.393   5.307
 3811SOL    HW112332   0.196   5.324   5.271
 3811SOL    HW212333   0.346   5.387   5.259
 3812SOL     OW12334   4.741   5.250   0.565
 3812SOL    HW112335   4.737   5.200   0.478
 3812SOL    HW212336   4.655   5.238   0.615
 3813SOL     OW12337   6.351   4.429   0.269
 3813SOL    HW112338   6.273   4.371   0.244
 3813SOL    HW212339   6.436   4.383   0.248
 3814SOL     OW12340   0.053   0.237   4.826
 3814SOL    HW112341   6.995   0.272   4.876
 3814SOL    HW212342   0.135   0.285   4.857
 3815SOL     OW12343   5.935   3.736   6.139
 3815SOL    HW112344   5.943   3.637   6.156
 3815SOL    HW212345   5.912   3.782   6.225
 3816SOL     OW12346   6.711   6.134   1.570
 3816SOL    HW112347   6.616   6.144   1.598
 3816SOL    HW212348   6.769   6.128   1.652
 3817SOL     OW12349   4.701   3.320   1.557
 3817SOL    HW112350   4.701   3.372   1.642
 3817SOL    HW212351   4.613   3.332   1.511
 3818SOL     OW12352   6.122   6.130   2.562
 3818SOL    HW112353   6.052   6.059   2.563
 3818SOL    HW212354   6.177   6.123   2.645
 3819SOL     OW12355   5.868   3.465   3.685
 3819SOL    HW112356   5.884   3.378   3.732
 3819SOL    HW212357   5.883   3.540   3.749
 3820SOL     OW12358   3.303   6.471   4.948
 3820SOL    HW112359   3.357   6.414   5.011
 3820SOL    HW212360   3.365   6.527   4.893
 3821SOL     OW12361   1.693   6.976   0.259
 3821SOL    HW112362   1.718   0.049   0.234
 3821SOL    HW212363   1.653   6.931   0.179
 3822SOL     OW12364   4.939   0.392   1.961
 3822SOL    HW112365   4.882   0.315   1.987
 3822SOL    HW212366   4.944   0.398   1.861
 3823SOL     OW12367   6.247   6.257   5.743
 3823SOL    HW112368   6.200   6.346   5.746
 3823SOL    HW212369   6.231   6.214   5.654
 3824SOL     OW12370   2.260   2.895   0.929
 3824SOL    HW112371   2.297   2.894   0.837
 3824SOL    HW212372   2.200   2.974   0.940
 3825SOL     OW12373   0.831   5.012   5.704
 3825SOL    HW112374   0.918   4.968   5.725
 3825SOL    HW212375   0.777   4.953   5.645
 3826SOL     OW12376   5.351   4.106   3.755
 3826SOL    HW112377   5.301   4.093   3.670
 3826SOL    HW212378   5.428   4.042   3.759
 3827SOL     OW12379   0.296   2.154   0.391
 3827SOL    HW112380   0.303   2.247   0.428
 3827SOL    HW212381   0.385   2.125   0.356
 3828SOL     OW12382   4.052   3.276   3.571
 3828SOL    HW112383   4.050   3.367   3.613
 3828SOL    HW212384   4.061   3.207   3.643
 3829SOL     OW12385   0.830   3.766   2.039
 3829SOL    HW112386   0.767   3.841   2.055
 3829SOL    HW212387   0.881   3.747   2.123
 3830SOL     OW12388   5.791   0.505   3.855
 3830SOL    HW112389   5.694   0.512   3.829
 3830SOL    HW212390   5.848   0.515   3.773
 3831SOL     OW12391   4.805   2.384   3.625
 3831SOL    HW112392   4.763   2.343   3.706
 3831SOL    HW212393   4.734   2.405   3.558
 3832SOL     OW12394   6.558   0.827   3.451
 3832SOL    HW112395   6.580   0.921   3.428
 3832SOL    HW212396   6.507   0.785   3.375
 3833SOL     OW12397   1.337   2.597   5.302
 3833SOL    HW112398   1.380   2.605   5.212
 3833SOL    HW212399   1.343   2.686   5.348
 3834SOL     OW12400   4.885   4.004   0.624
 3834SOL    HW112401   4.843   4.057   0.697
 3834SOL    HW212402   4.816   3.980   0.556
 3835SOL     OW12403   4.075   5.819   5.022
 3835SOL    HW112404   3.996   5.810   5.083
 3835SOL    HW212405   4.156   5.840   5.077
 3836SOL     OW12406   6.795   6.070   5.127
 3836SOL    HW112407   6.843   6.022   5.201
 3836SOL    HW212408   6.698   6.077   5.149
 3837SOL     OW12409   4.634   4.487   5.965
 3837SOL    HW112410   4.552   4.541   5.947
 3837SOL    HW212411   4.694   4.537   6.027
 3838SOL     OW12412   0.528   0.618   4.182
 3838SOL    HW112413   0.586   0.638   4.103
 3838SOL    HW212414   0.558   0.533   4.225
 3839SOL     OW12415   5.524   0.546   3.741
 3839SOL    HW112416   5.505   0.644   3.737
 3839SOL    HW212417   5.466   0.503   3.811
 3840SOL     OW12418   2.888   1.268   6.255
 3840SOL    HW112419   2.840   1.186   6.224
 3840SOL    HW212420   2.833   1.315   6.324
 3841SOL     OW12421   6.278   4.597   4.535
 3841SOL    HW112422   6.208   4.659   4.568
 3841SOL    HW212423   6.243   4.503   4.534
 3842SOL     OW12424   1.869   3.852   5.199
 3842SOL    HW112425   1.805   3.828   5.273
 3842SOL    HW212426   1.833   3.931   5.149
 3843SOL     OW12427   4.964   2.194   6.917
 3843SOL    HW112428   5.060   2.213   6.934
 3843SOL    HW212429   4.919   2.276   6.880
 3844SOL     OW12430   0.095   6.804   1.382
 3844SOL    HW112431   0.097   6.705   1.364
 3844SOL    HW212432   0.082   6.819   1.480
 3845SOL     OW12433   2.142   5.412   0.472
 3845SOL    HW112434   2.223   5.361   0.441
 3845SOL    HW212435   2.150   5.508   0.446
 3846SOL     OW12436   0.314   3.256   2.980
 3846SOL    HW112437   0.243   3.266   3.049
 3846SOL    HW212438   0.298   3.320   2.905
 3847SOL     OW12439   6.603   1.926   0.159
 3847SOL    HW112440   6.646   1.936   0.249
 3847SOL    HW212441   6.565   2.013   0.130
 3848SOL     OW12442   5.505   3.984   2.465
 3848SOL    HW112443   5.447   4.063   2.446
 3848SOL    HW212444   5.451   3.900   2.453
 3849SOL     OW12445   6.632   4.588   6.249
 3849SOL    HW112446   6.698   4.664   6.252
 3849SOL    HW212447   6.682   4.502   6.236
 3850SOL     OW12448   2.896   2.287   1.499
 3850SOL    HW112449   2.929   2.211   1.442
 3850SOL    HW212450   2.817   2.256   1.552
 3851SOL     OW12451   0.214   6.383   2.473
 3851SOL    HW112452   0.305   6.351   2.500
 3851SOL    HW212453   0.158   6.395   2.555
 3852SOL     OW12454   2.000   6.730   5.298
 3852SOL    HW112455   1.962   6.771   5.381
 3852SOL    HW212456   2.026   6.802   5.234
 3853SOL     OW12457   2.882   6.663   3.021
 3853SOL    HW112458   2.823   6.735   3.058
 3853SOL    HW212459   2.869   6.657   2.922
 3854SOL     OW12460   0.948   2.349   2.170
 3854SOL    HW112461   0.972   2.287   2.095
 3854SOL    HW212462   0.851   2.370   2.166
 3855SOL     OW12463   3.623   6.881   0.391
 3855SOL    HW112464   3.630   6.871   0.490
 3855SOL    HW212465   3.630   6.791   0.348
 3856SOL     OW12466   0.419   2.986   6.761
 3856SOL    HW112467   0.452   3.066   6.810
 3856SOL    HW212468   0.405   2.910   6.825
 3857SOL     OW12469   2.030   0.279   6.410
 3857SOL    HW112470   2.109   0.234   6.453
 3857SOL    HW212471   2.037   0.272   6.311
 3858SOL     OW12472   5.048   0.496   3.956
 3858SOL    HW112473   5.122   0.558   3.984
 3858SOL    HW212474   5.032   0.507   3.857
 3859SOL     OW12475   6.433   6.858   2.023
 3859SOL    HW112476   6.463   6.771   1.984
 3859SOL    HW212477   6.403   6.919   1.950
 3860SOL     OW12478   1.553   6.893   3.904
 3860SOL    HW112479   1.604   6.920   3.822
 3860SOL    HW212480   1.458   6.875   3.880
 3861SOL     OW12481   2.782   5.433   1.731
 3861SOL    HW112482   2.790   5.461   1.827
 3861SOL    HW212483   2.870   5.398   1.700
 3862SOL     OW12484   1.717   0.355   3.798
 3862SOL    HW112485   1.678   0.288   3.861
 3862SOL    HW212486   1.779   0.416   3.848
 3863SOL     OW12487   3.378   7.018   0.383
 3863SOL    HW112488   3.370   0.057   0.463
 3863SOL    HW212489   3.466   6.970   0.386
 3864SOL     OW12490   2.012   0.501   5.272
 3864SOL    HW112491   2.103   0.530   5.244
 3864SOL    HW212492   2.001   0.515   5.371
 3865SOL     OW12493   3.492   0.942   0.751
 3865SOL    HW112494   3.482   0.857   0.804
 3865SOL    HW212495   3.508   0.919   0.655
 3866SOL     OW12496   2.657   2.214   6.657
 3866SOL    HW112497   2.744   2.166   6.672
 3866SOL    HW212498   2.630   2.260   6.741
 3867SOL     OW12499   0.804   2.874   2.027
 3867SOL    HW112500   0.728   2.906   2.083
 3867SOL    HW212501   0.800   2.774   2.019
 3868SOL     OW12502   4.638   0.723   0.112
 3868SOL    HW112503   4.608   0.629   0.123
 3868SOL    HW212504   4.582   0.768   0.043
 3869SOL     OW12505   5.298   2.286   3.672
 3869SOL    HW112506   5.353   2.203   3.671
 3869SOL    HW212507   5.271   2.309   3.578
 3870SOL     OW12508   0.345   0.590   4.547
 3870SOL    HW112509   0.263   0.646   4.543
 3870SOL    HW212510   0.419   0.633   4.495
 3871SOL     OW12511   2.830   5.323   4.807
 3871SOL    HW112512   2.883   5.261   4.749
 3871SOL    HW212513   2.848   5.303   4.903
 3872SOL     OW12514   2.758   3.553   5.262
 3872SOL    HW112515   2.673   3.499   5.259
 3872SOL    HW212516   2.789   3.560   5.357
 3873SOL     OW12517   4.310   2.197   0.502
 3873SOL    HW112518   4.393   2.142   0.514
 3873SOL    HW212519   4.310   2.237   0.411
 3874SOL     OW12520   2.711   1.233   0.126
 3874SOL    HW112521   2.630   1.209   0.072
 3874SOL    HW212522   2.749   1.151   0.168
 3875SOL     OW12523   1.217   2.433   6.404
 3875SOL    HW112524   1.213   2.334   6.400
 3875SOL    HW212525   1.308   2.465   6.379
 3876SOL     OW12526   3.691   5.175   1.673
 3876SOL    HW112527   3.601   5.218   1.671
 3876SOL    HW212528   3.693   5.103   1.742
 3877SOL     OW12529   6.443   1.305   0.004
 3877SOL    HW112530   6.393   1.224   0.035
 3877SOL    HW212531   6.379   1.377   6.999
 3878SOL     OW12532   4.806   0.691   4.714
 3878SOL    HW112533   4.753   0.714   4.795
 3878SOL    HW212534   4.762   0.730   4.633
 3879SOL     OW12535   5.956   5.807   0.629
 3879SOL    HW112536   6.026   5.867   0.668
 3879SOL    HW212537   5.943   5.830   0.533
 3880SOL     OW12538   4.471   4.866   3.939
 3880SOL    HW112539   4.432   4.792   3.995
 3880SOL    HW212540   4.422   4.951   3.958
 3881SOL     OW12541   0.800   3.508   0.632
 3881SOL    HW112542   0.881   3.449   0.631
 3881SOL    HW212543   0.730   3.469   0.572
 3882SOL     OW12544   0.838   1.961   6.851
 3882SOL    HW112545   0.854   2.023   6.928
 3882SOL    HW212546   0.877   2.002   6.768
 3883SOL     OW12547   5.005   5.544   3.149
 3883SOL    HW112548   4.983   5.544   3.247
 3883SOL    HW212549   5.097   5.581   3.136
 3884SOL     OW12550   0.486   4.684   1.986
 3884SOL    HW112551   0.577   4.642   1.989
 3884SOL    HW212552   0.493   4.779   1.955
 3885SOL     OW12553   5.302   5.730   2.888
 3885SOL    HW112554   5.331   5.636   2.875
 3885SOL    HW212555   5.265   5.742   2.981
 3886SOL     OW12556   3.266   6.438   5.589
 3886SOL    HW112557   3.213   6.382   5.525
 3886SOL    HW212558   3.358   6.399   5.597
 3887SOL     OW12559   0.814   6.504   2.056
 3887SOL    HW112560   0.850   6.541   2.141
 3887SOL    HW212561   0.749   6.568   2.016
 3888SOL     OW12562   6.265   5.312   4.116
 3888SOL    HW112563   6.211   5.306   4.199
 3888SOL    HW212564   6.362   5.314   4.140
 3889SOL     OW12565   4.480   3.499   6.533
 3889SOL    HW112566   4.384   3.514   6.509
 3889SOL    HW212567   4.490   3.409   6.575
 3890SOL     OW12568   5.749   2.925   4.373
 3890SOL    HW112569   5.679   2.878   4.428
 3890SOL    HW212570   5.713   3.013   4.341
 3891SOL     OW12571   6.250   5.506   3.012
 3891SOL    HW112572   6.164   5.476   2.971
 3891SOL    HW212573   6.302   5.560   2.945
 3892SOL     OW12574   6.920   1.577   1.492
 3892SOL    HW112575   7.008   1.617   1.467
 3892SOL    HW212576   6.857   1.650   1.518
 3893SOL     OW12577   4.006   3.407   2.307
 3893SOL    HW112578   4.016   3.335   2.376
 3893SOL    HW212579   4.039   3.494   2.344
 3894SOL     OW12580   4.066   1.045   5.945
 3894SOL    HW112581   4.072   1.126   6.003
 3894SOL    HW212582   4.143   0.984   5.963
 3895SOL     OW12583   1.857   0.275   4.338
 3895SOL    HW112584   1.831   0.185   4.302
 3895SOL    HW212585   1.852   0.273   4.438
 3896SOL     OW12586   0.768   0.682   6.881
 3896SOL    HW112587   0.734   0.590   6.900
 3896SOL    HW212588   0.841   0.704   6.946
 3897SOL     OW12589   4.452   6.509   1.646
 3897SOL    HW112590   4.549   6.487   1.632
 3897SOL    HW212591   4.443   6.578   1.717
 3898SOL     OW12592   4.156   3.051   0.347
 3898SOL    HW112593   4.190   2.998   0.424
 3898SOL    HW212594   4.139   3.145   0.375
 3899SOL     OW12595   3.444   6.432   6.302
 3899SOL    HW112596   3.469   6.417   6.207
 3899SOL    HW212597   3.348   6.406   6.315
 3900SOL     OW12598   4.939   3.836   3.518
 3900SOL    HW112599   4.883   3.859   3.438
 3900SOL    HW212600   4.926   3.906   3.589
 3901SOL     OW12601   2.729   0.251   0.157
 3901SOL    HW112602   2.777   0.201   0.084
 3901SOL    HW212603   2.631   0.232   0.152
 3902SOL     OW12604   6.324   3.115   2.661
 3902SOL    HW112605   6.349   3.134   2.566
 3902SOL    HW212606   6.254   3.043   2.662
 3903SOL     OW12607   3.266   5.190   6.854
 3903SOL    HW112608   3.264   5.159   6.759
 3903SOL    HW212609   3.205   5.133   6.909
 3904SOL     OW12610   0.997   0.629   0.069
 3904SOL    HW112611   1.035   0.713   0.109
 3904SOL    HW212612   1.067   0.584   0.014
 3905SOL     OW12613   6.853   5.920   4.895
 3905SOL    HW112614   6.921   5.958   4.833
 3905SOL    HW212615   6.854   5.971   4.981
 3906SOL     OW12616   6.510   6.353   5.220
 3906SOL    HW112617   6.458   6.414   5.160
 3906SOL    HW212618   6.589   6.403   5.258
 3907SOL     OW12619   6.538   1.054   4.353
 3907SOL    HW112620   6.576   1.077   4.263
 3907SOL    HW212621   6.465   1.119   4.376
 3908SOL     OW12622   1.549   2.905   5.776
 3908SOL    HW112623   1.590   2.819   5.808
 3908SOL    HW212624   1.450   2.903   5.793
 3909SOL     OW12625   5.946   5.330   4.111
 3909SOL    HW112626   5.997   5.323   4.197
 3909SOL    HW212627   6.009   5.336   4.034
 3910SOL     OW12628   4.010   3.713   2.893
 3910SOL    HW112629   4.023   3.720   2.992
 3910SOL    HW212630   4.043   3.623   2.862
 3911SOL     OW12631   6.273   2.314   5.491
 3911SOL    HW112632   6.192   2.348   5.444
 3911SOL    HW212633   6.315   2.241   5.438
 3912SOL     OW12634   5.475   2.860   6.803
 3912SOL    HW112635   5.477   2.784   6.867
 3912SOL    HW212636   5.546   2.927   6.827
 3913SOL     OW12637   1.327   6.602   0.558
 3913SOL    HW112638   1.412   6.641   0.525
 3913SOL    HW212639   1.264   6.675   0.584
 3914SOL     OW12640   3.102   5.521   5.920
 3914SOL    HW112641   3.053   5.603   5.948
 3914SOL    HW212642   3.036   5.451   5.891
 3915SOL     OW12643   6.530   5.767   1.482
 3915SOL    HW112644   6.613   5.821   1.493
 3915SOL    HW212645   6.551   5.670   1.490
 3916SOL     OW12646   0.839   0.193   3.174
 3916SOL    HW112647   0.879   0.125   3.112
 3916SOL    HW212648   0.901   0.210   3.250
 3917SOL     OW12649   2.036   6.918   6.654
 3917SOL    HW112650   1.951   6.883   6.695
 3917SOL    HW212651   2.107   6.848   6.660
 3918SOL     OW12652   5.620   3.657   0.965
 3918SOL    HW112653   5.651   3.666   0.870
 3918SOL    HW212654   5.682   3.707   1.025
 3919SOL     OW12655   3.092   6.386   0.071
 3919SOL    HW112656   3.080   6.288   0.054
 3919SOL    HW212657   3.090   6.403   0.170
 3920SOL     OW12658   2.056   1.831   6.624
 3920SOL    HW112659   1.965   1.799   6.651
 3920SOL    HW212660   2.105   1.865   6.704
 3921SOL     OW12661   1.270   3.746   1.653
 3921SOL    HW112662   1.195   3.748   1.718
 3921SOL    HW212663   1.314   3.836   1.650
 3922SOL     OW12664   0.919   4.609   0.938
 3922SOL    HW112665   0.845   4.637   0.999
 3922SOL    HW212666   0.993   4.677   0.942
 3923SOL     OW12667   6.811   0.377   0.063
 3923SOL    HW112668   6.848   0.398   0.153
 3923SOL    HW212669   6.725   0.327   0.072
 3924SOL     OW12670   0.129   4.766   4.655
 3924SOL    HW112671   0.161   4.671   4.659
 3924SOL    HW212672   0.085   4.789   4.742
 3925SOL     OW12673   1.821   5.370   2.233
 3925SOL    HW112674   1.908   5.325   2.214
 3925SOL    HW212675   1.837   5.466   2.255
 3926SOL     OW12676   4.622   4.440   2.206
 3926SOL    HW112677   4.644   4.520   2.151
 3926SOL    HW212678   4.593   4.365   2.146
 3927SOL     OW12679   0.548   3.443   6.465
 3927SOL    HW112680   0.462   3.457   6.416
 3927SOL    HW212681   0.590   3.357   6.435
 3928SOL     OW12682   5.312   5.853   6.235
 3928SOL    HW112683   5.290   5.775   6.293
 3928SOL    HW212684   5.290   5.832   6.140
 3929SOL     OW12685   1.027   1.654   4.676
 3929SOL    HW112686   1.011   1.691   4.584
 3929SOL    HW212687   1.109   1.597   4.675
 3930SOL     OW12688   2.411   1.432   3.388
 3930SOL    HW112689   2.471   1.363   3.348
 3930SOL    HW212690   2.425   1.520   3.342
 3931SOL     OW12691   5.863   1.019   1.413
 3931SOL    HW112692   5.857   0.921   1.392
 3931SOL    HW212693   5.937   1.060   1.360
 3932SOL     OW12694   1.805   2.312   3.943
 3932SOL    HW112695   1.720   2.336   3.988
 3932SOL    HW212696   1.880   2.367   3.981
 3933SOL     OW12697   1.211   6.930   5.301
 3933SOL    HW112698   1.190   6.845   5.252
 3933SOL    HW212699   1.146   6.942   5.376
 3934SOL     OW12700   5.117   0.180   6.602
 3934SOL    HW112701   5.040   0.117   6.611
 3934SOL    HW212702   5.094   0.267   6.645
 3935SOL     OW12703   4.880   0.760   0.487
 3935SOL    HW112704   4.914   0.794   0.575
 3935SOL    HW212705   4.944   0.783   0.414
 3936SOL     OW12706   0.318   4.902   3.502
 3936SOL    HW112707   0.303   4.992   3.542
 3936SOL    HW212708   0.234   4.870   3.458
 3937SOL     OW12709   0.288   1.314   2.668
 3937SOL    HW112710   0.314   1.240   2.731
 3937SOL    HW212711   0.366   1.375   2.654
 3938SOL     OW12712   0.182   1.923   2.374
 3938SOL    HW112713   0.206   1.842   2.322
 3938SOL    HW212714   0.093   1.958   2.344
 3939SOL     OW12715   2.966   1.826   1.804
 3939SOL    HW112716   2.936   1.914   1.839
 3939SOL    HW212717   3.059   1.807   1.835
 3940SOL     OW12718   3.660   3.266   1.231
 3940SOL    HW112719   3.587   3.261   1.299
 3940SOL    HW212720   3.748   3.273   1.277
 3941SOL     OW12721   4.203   4.008   6.373
 3941SOL    HW112722   4.153   3.985   6.456
 3941SOL    HW212723   4.179   4.101   6.344
 3942SOL     OW12724   6.767   6.412   6.266
 3942SOL    HW112725   6.858   6.448   6.248
 3942SOL    HW212726   6.724   6.465   6.340
 3943SOL     OW12727   0.425   3.769   4.176
 3943SOL    HW112728   0.381   3.680   4.175
 3943SOL    HW212729   0.370   3.834   4.124
 3944SOL     OW12730   5.368   2.615   4.922
 3944SOL    HW112731   5.394   2.524   4.888
 3944SOL    HW212732   5.269   2.617   4.938
 3945SOL     OW12733   6.731   0.477   0.837
 3945SOL    HW112734   6.651   0.432   0.878
 3945SOL    HW212735   6.813   0.423   0.855
 3946SOL     OW12736   4.118   4.717   3.126
 3946SOL    HW112737   4.156   4.646   3.067
 3946SOL    HW212738   4.039   4.759   3.082
 3947SOL     OW12739   5.870   5.499   6.769
 3947SOL    HW112740   5.965   5.467   6.769
 3947SOL    HW212741   5.809   5.422   6.753
 3948SOL     OW12742   6.287   4.483   1.014
 3948SOL    HW112743   6.217   4.437   1.069
 3948SOL    HW212744   6.373   4.486   1.066
 3949SOL     OW12745   4.969   6.672   3.533
 3949SOL    HW112746   5.062   6.691   3.562
 3949SOL    HW212747   4.968   6.595   3.470
 3950SOL     OW12748   1.447   5.707   0.580
 3950SOL    HW112749   1.484   5.615   0.593
 3950SOL    HW212750   1.425   5.721   0.484
 3951SOL     OW12751   5.572   0.464   2.263
 3951SOL    HW112752   5.661   0.480   2.305
 3951SOL    HW212753   5.507   0.433   2.333
 3952SOL     OW12754   6.091   2.420   0.556
 3952SOL    HW112755   6.131   2.502   0.597
 3952SOL    HW212756   6.028   2.447   0.483
 3953SOL     OW12757   3.793   3.986   2.372
 3953SOL    HW112758   3.769   4.069   2.323
 3953SOL    HW212759   3.778   3.999   2.470
 3954SOL     OW12760   3.719   4.660   5.826
 3954SOL    HW112761   3.734   4.602   5.746
 3954SOL    HW212762   3.775   4.743   5.819
 3955SOL     OW12763   3.805   0.927   5.252
 3955SOL    HW112764   3.874   0.896   5.317
 3955SOL    HW212765   3.795   1.026   5.259
 3956SOL     OW12766   1.885   0.961   1.497
 3956SOL    HW112767   1.875   0.972   1.596
 3956SOL    HW212768   1.913   1.048   1.456
 3957SOL     OW12769   3.370   0.879   4.723
 3957SOL    HW112770   3.274   0.903   4.739
 3957SOL    HW212771   3.384   0.855   4.627
 3958SOL     OW12772   5.333   0.808   5.494
 3958SOL    HW112773   5.432   0.812   5.508
 3958SOL    HW212774   5.313   0.774   5.402
 3959SOL     OW12775   4.867   5.092   0.879
 3959SOL    HW112776   4.933   5.016   0.880
 3959SOL    HW212777   4.775   5.056   0.888
 3960SOL     OW12778   5.381   2.558   4.370
 3960SOL    HW112779   5.324   2.568   4.452
 3960SOL    HW212780   5.471   2.524   4.395
 3961SOL     OW12781   5.597   6.342   3.801
 3961SOL    HW112782   5.693   6.335   3.773
 3961SOL    HW212783   5.539   6.345   3.719
 3962SOL     OW12784   0.236   5.136   5.532
 3962SOL    HW112785   0.245   5.230   5.501
 3962SOL    HW212786   0.312   5.113   5.593
 3963SOL     OW12787   4.599   6.738   2.018
 3963SOL    HW112788   4.538   6.801   2.067
 3963SOL    HW212789   4.689   6.782   2.006
 3964SOL     OW12790   5.261   3.648   3.415
 3964SOL    HW112791   5.354   3.632   3.381
 3964SOL    HW212792   5.203   3.571   3.390
 3965SOL     OW12793   4.895   3.975   4.678
 3965SOL    HW112794   4.921   3.894   4.732
 3965SOL    HW212795   4.856   4.044   4.739
 3966SOL     OW12796   2.554   6.043   6.309
 3966SOL    HW112797   2.592   5.970   6.366
 3966SOL    HW212798   2.563   6.017   6.212
 3967SOL     OW12799   2.147   4.932   2.867
 3967SOL    HW112800   2.234   4.892   2.896
 3967SOL    HW212801   2.158   5.031   2.856
 3968SOL     OW12802   4.010   0.012   0.835
 3968SOL    HW112803   4.092   0.024   0.778
 3968SOL    HW212804   3.940   0.078   0.808
 3969SOL     OW12805   1.456   5.511   2.150
 3969SOL    HW112806   1.511   5.440   2.107
 3969SOL    HW212807   1.359   5.487   2.146
 3970SOL     OW12808   5.390   6.101   2.253
 3970SOL    HW112809   5.467   6.062   2.202
 3970SOL    HW212810   5.337   6.160   2.193
 3971SOL     OW12811   2.721   5.710   3.993
 3971SOL    HW112812   2.698   5.708   3.896
 3971SOL    HW212813   2.682   5.792   4.035
 3972SOL     OW12814   2.346   4.101   0.318
 3972SOL    HW112815   2.377   4.169   0.384
 3972SOL    HW212816   2.350   4.139   0.225
 3973SOL     OW12817   1.109   5.572   0.287
 3973SOL    HW112818   1.119   5.509   0.210
 3973SOL    HW212819   1.120   5.521   0.373
 3974SOL     OW12820   2.113   0.944   5.459
 3974SOL    HW112821   2.093   0.862   5.514
 3974SOL    HW212822   2.212   0.955   5.451
 3975SOL     OW12823   5.894   2.085   6.182
 3975SOL    HW112824   5.855   2.063   6.271
 3975SOL    HW212825   5.824   2.124   6.123
 3976SOL     OW12826   2.309   5.487   2.167
 3976SOL    HW112827   2.243   5.424   2.125
 3976SOL    HW212828   2.388   5.435   2.200
 3977SOL     OW12829   0.640   3.541   6.707
 3977SOL    HW112830   0.623   3.526   6.610
 3977SOL    HW212831   0.668   3.636   6.722
 3978SOL     OW12832   6.560   4.213   3.628
 3978SOL    HW112833   6.512   4.181   3.709
 3978SOL    HW212834   6.549   4.312   3.619
 3979SOL     OW12835   3.620   0.462   6.339
 3979SOL    HW112836   3.621   0.362   6.347
 3979SOL    HW212837   3.568   0.502   6.414
 3980SOL     OW12838   5.828   6.482   5.671
 3980SOL    HW112839   5.832   6.488   5.571
 3980SOL    HW212840   5.798   6.570   5.708
 3981SOL     OW12841   4.869   6.864   0.351
 3981SOL    HW112842   4.812   6.824   0.423
 3981SOL    HW212843   4.955   6.813   0.344
 3982SOL     OW12844   3.184   5.960   2.411
 3982SOL    HW112845   3.093   5.923   2.426
 3982SOL    HW212846   3.241   5.944   2.492
 3983SOL     OW12847   3.669   5.660   3.476
 3983SOL    HW112848   3.718   5.715   3.409
 3983SOL    HW212849   3.679   5.701   3.567
 3984SOL     OW12850   6.529   2.469   3.077
 3984SOL    HW112851   6.564   2.540   3.138
 3984SOL    HW212852   6.451   2.504   3.027
 3985SOL     OW12853   3.951   5.618   6.414
 3985SOL    HW112854   3.965   5.690   6.347
 3985SOL    HW212855   3.957   5.529   6.369
 3986SOL     OW12856   5.059   0.667   1.656
 3986SOL    HW112857   5.139   0.667   1.716
 3986SOL    HW212858   5.040   0.573   1.627
 3987SOL     OW12859   3.209   5.267   5.236
 3987SOL    HW112860   3.191   5.169   5.252
 3987SOL    HW212861   3.184   5.290   5.143
 3988SOL     OW12862   4.299   5.217   0.418
 3988SOL    HW112863   4.306   5.118   0.431
 3988SOL    HW212864   4.352   5.264   0.488
 3989SOL     OW12865   6.370   2.244   0.238
 3989SOL    HW112866   6.352   2.162   0.292
 3989SOL    HW212867   6.283   2.290   0.218
 3990SOL     OW12868   6.209   2.239   2.421
 3990SOL    HW112869   6.117   2.241   2.381
 3990SOL    HW212870   6.223   2.323   2.474
 3991SOL     OW12871   6.813   0.499   3.213
 3991SOL    HW112872   6.789   0.587   3.254
 3991SOL    HW212873   6.912   0.494   3.201
 3992SOL     OW12874   3.404   2.361   0.924
 3992SOL    HW112875   3.359   2.281   0.963
 3992SOL    HW212876   3.382   2.442   0.978
 3993SOL     OW12877   1.377   3.225   1.653
 3993SOL    HW112878   1.350   3.320   1.639
 3993SOL    HW212879   1.346   3.169   1.576
 3994SOL     OW12880   2.567   6.487   4.801
 3994SOL    HW112881   2.595   6.568   4.749
 3994SOL    HW212882   2.647   6.427   4.815
 3995SOL     OW12883   1.798   2.683   5.424
 3995SOL    HW112884   1.725   2.687   5.492
 3995SOL    HW212885   1.762   2.650   5.337
 3996SOL     OW12886   0.038   6.026   4.735
 3996SOL    HW112887   0.042   6.125   4.750
 3996SOL    HW212888   0.113   5.982   4.785
 3997SOL     OW12889   5.480   0.127   4.735
 3997SOL    HW112890   5.470   0.203   4.670
 3997SOL    HW212891   5.558   0.071   4.708
 3998SOL     OW12892   4.379   2.350   3.822
 3998SOL    HW112893   4.426   2.435   3.847
 3998SOL    HW212894   4.441   2.292   3.768
 3999SOL     OW12895   5.431   2.095   4.914
 3999SOL    HW112896   5.415   2.180   4.964
 3999SOL    HW212897   5.395   2.018   4.967
 4000SOL     OW12898   4.073   0.153   3.860
 4000SOL    HW112899   4.162   0.198   3.852
 4000SOL    HW212900   4.018   0.174   3.780
 4001SOL     OW12901   1.000   2.567   3.491
 4001SOL    HW112902   0.942   2.529   3.563
 4001SOL    HW212903   1.042   2.492   3.439
 4002SOL     OW12904   1.989   3.559   1.901
 4002SOL    HW112905   1.980   3.501   1.821
 4002SOL    HW212906   2.079   3.545   1.943
 4003SOL     OW12907   3.225   1.266   4.764
 4003SOL    HW112908   3.240   1.334   4.836
 4003SOL    HW212909   3.128   1.238   4.765
 4004SOL     OW12910   6.896   1.609   5.337
 4004SOL    HW112911   6.941   1.533   5.290
 4004SOL    HW212912   6.827   1.574   5.399
 4005SOL     OW12913   5.747   5.583   5.716
 4005SOL    HW112914   5.770   5.486   5.729
 4005SOL    HW212915   5.702   5.618   5.798
 4006SOL     OW12916   3.560   6.308   2.200
 4006SOL    HW112917   3.600   6.304   2.292
 4006SOL    HW212918   3.581   6.223   2.152
 4007SOL     OW12919   6.807   2.046   6.369
 4007SOL    HW112920   6.847   2.116   6.309
 4007SOL    HW212921   6.848   2.052   6.460
 4008SOL     OW12922   2.571   2.238   5.284
 4008SOL    HW112923   2.666   2.255   5.257
 4008SOL    HW212924   2.566   2.233   5.384
 4009SOL     OW12925   3.714   3.048   2.737
 4009SOL    HW112926   3.649   2.973   2.752
 4009SOL    HW212927   3.768   3.030   2.654
 4010SOL     OW12928   2.185   2.974   6.574
 4010SOL    HW112929   2.153   3.052   6.520
 4010SOL    HW212930   2.107   2.916   6.596
 4011SOL     OW12931   0.601   2.401   1.286
 4011SOL    HW112932   0.666   2.352   1.344
 4011SOL    HW212933   0.631   2.496   1.274
 4012SOL     OW12934   6.889   3.104   3.718
 4012SOL    HW112935   6.814   3.151   3.764
 4012SOL    HW212936   6.962   3.086   3.784
 4013SOL     OW12937   4.535   2.470   3.491
 4013SOL    HW112938   4.462   2.413   3.452
 4013SOL    HW212939   4.553   2.548   3.431
 4014SOL     OW12940   5.622   5.711   2.417
 4014SOL    HW112941   5.697   5.647   2.434
 4014SOL    HW212942   5.602   5.714   2.319
 4015SOL     OW12943   4.580   3.473   6.898
 4015SOL    HW112944   4.668   3.431   6.922
 4015SOL    HW212945   4.548   3.436   6.810
 4016SOL     OW12946   3.148   6.761   4.978
 4016SOL    HW112947   3.069   6.711   5.014
 4016SOL    HW212948   3.178   6.829   5.046
 4017SOL     OW12949   6.905   6.247   6.751
 4017SOL    HW112950   6.874   6.316   6.817
 4017SOL    HW212951   6.839   6.172   6.749
 4018SOL     OW12952   2.660   6.108   0.505
 4018SOL    HW112953   2.740   6.093   0.447
 4018SOL    HW212954   2.589   6.154   0.452
 4019SOL     OW12955   5.253   5.266   3.272
 4019SOL    HW112956   5.246   5.218   3.359
 4019SOL    HW212957   5.272   5.363   3.288
 4020SOL     OW12958   5.595   2.503   5.203
 4020SOL    HW112959   5.581   2.600   5.183
 4020SOL    HW212960   5.562   2.482   5.295
 4021SOL     OW12961   4.109   4.696   6.851
 4021SOL    HW112962   4.027   4.736   6.808
 4021SOL    HW212963   4.148   4.762   6.915
 4022SOL     OW12964   5.472   0.231   1.383
 4022SOL    HW112965   5.402   0.163   1.361
 4022SOL    HW212966   5.431   0.307   1.433
 4023SOL     OW12967   6.768   0.176   5.546
 4023SOL    HW112968   6.721   0.124   5.475
 4023SOL    HW212969   6.708   0.185   5.626
 4024SOL     OW12970   3.939   5.088   4.240
 4024SOL    HW112971   3.933   5.017   4.310
 4024SOL    HW212972   3.895   5.172   4.273
 4025SOL     OW12973   1.376   3.985   2.756
 4025SOL    HW112974   1.293   3.939   2.789
 4025SOL    HW212975   1.412   3.936   2.677
 4026SOL     OW12976   5.126   0.189   4.706
 4026SOL    HW112977   5.097   0.221   4.795
 4026SOL    HW212978   5.190   0.112   4.717
 4027SOL     OW12979   4.632   5.432   1.433
 4027SOL    HW112980   4.593   5.412   1.343
 4027SOL    HW212981   4.562   5.477   1.490
 4028SOL     OW12982   2.658   6.724   4.030
 4028SOL    HW112983   2.700   6.814   4.031
 4028SOL    HW212984   2.570   6.728   4.079
 4029SOL     OW12985   2.247   4.130   4.006
 4029SOL    HW112986   2.174   4.188   3.969
 4029SOL    HW212987   2.229   4.035   3.982
 4030SOL     OW12988   1.406   1.508   6.291
 4030SOL    HW112989   1.378   1.422   6.334
 4030SOL    HW212990   1.496   1.534   6.325
 4031SOL     OW12991   5.191   5.768   3.957
 4031SOL    HW112992   5.209   5.758   3.859
 4031SOL    HW212993   5.263   5.823   3.999
 4032SOL     OW12994   4.931   6.965   4.793
 4032SOL    HW112995   4.937   0.042   4.809
 4032SOL    HW212996   5.023   6.928   4.777
 4033SOL     OW12997   3.139   3.795   5.491
 4033SOL    HW112998   3.235   3.772   5.508
 4033SOL    HW212999   3.084   3.766   5.569
 4034SOL     OW13000   6.262   2.568   3.900
 4034SOL    HW113001   6.328   2.643   3.907
 4034SOL    HW213002   6.309   2.480   3.908
 4035SOL     OW13003   0.723   5.674   0.749
 4035SOL    HW113004   0.698   5.670   0.653
 4035SOL    HW213005   0.678   5.752   0.793
 4036SOL     OW13006   6.507   6.126   2.773
 4036SOL    HW113007   6.548   6.161   2.689
 4036SOL    HW213008   6.494   6.027   2.765
 4037SOL     OW13009   6.372   3.986   6.196
 4037SOL    HW113010   6.339   3.921   6.265
 4037SOL    HW213011   6.302   4.056   6.180
 4038SOL     OW13012   6.307   5.052   3.367
 4038SOL    HW113013   6.402   5.025   3.355
 4038SOL    HW213014   6.269   5.009   3.448
 4039SOL     OW13015   4.303   5.929   0.952
 4039SOL    HW113016   4.308   6.028   0.963
 4039SOL    HW213017   4.208   5.901   0.939
 4040SOL     OW13018   3.375   6.454   0.653
 4040SOL    HW113019   3.322   6.444   0.737
 4040SOL    HW213020   3.472   6.461   0.675
 4041SOL     OW13021   1.305   0.037   3.830
 4041SOL    HW113022   1.351   0.032   3.919
 4041SOL    HW213023   1.282   0.132   3.810
 4042SOL     OW13024   5.908   5.353   2.111
 4042SOL    HW113025   5.965   5.345   2.029
 4042SOL    HW213026   5.851   5.272   2.120
 4043SOL     OW13027   6.094   4.048   2.016
 4043SOL    HW113028   6.013   4.074   1.963
 4043SOL    HW213029   6.071   4.045   2.114
 4044SOL     OW13030   6.781   5.287   2.725
 4044SOL    HW113031   6.741   5.195   2.720
 4044SOL    HW213032   6.708   5.355   2.728
 4045SOL     OW13033   2.096   4.616   5.902
 4045SOL    HW113034   2.083   4.703   5.948
 4045SOL    HW213035   2.186   4.579   5.925
 4046SOL     OW13036   0.223   2.563   0.854
 4046SOL    HW113037   0.230   2.660   0.877
 4046SOL    HW213038   0.289   2.511   0.909
 4047SOL     OW13039   3.082   3.992   1.853
 4047SOL    HW113040   3.067   3.899   1.888
 4047SOL    HW213041   3.175   4.000   1.818
 4048SOL     OW13042   4.801   2.487   1.240
 4048SOL    HW113043   4.734   2.417   1.265
 4048SOL    HW213044   4.769   2.536   1.158
 4049SOL     OW13045   6.636   0.548   5.917
 4049SOL    HW113046   6.699   0.549   5.994
 4049SOL    HW213047   6.547   0.513   5.947
 4050SOL     OW13048   2.616   0.515   1.522
 4050SOL    HW113049   2.713   0.508   1.502
 4050SOL    HW213050   2.563   0.473   1.448
 4051SOL     OW13051   1.500   4.386   0.898
 4051SOL    HW113052   1.570   4.458   0.897
 4051SOL    HW213053   1.426   4.411   0.836
 4052SOL     OW13054   1.576   6.131   1.564
 4052SOL    HW113055   1.574   6.156   1.661
 4052SOL    HW213056   1.575   6.213   1.508
 4053SOL     OW13057   2.905   4.896   3.220
 4053SOL    HW113058   2.820   4.897   3.167
 4053SOL    HW213059   2.893   4.839   3.301
 4054SOL     OW13060   5.262   1.705   6.782
 4054SOL    HW113061   5.260   1.698   6.682
 4054SOL    HW213062   5.188   1.764   6.812
 4055SOL     OW13063   4.284   3.094   0.780
 4055SOL    HW113064   4.319   3.006   0.813
 4055SOL    HW213065   4.305   3.165   0.847
 4056SOL     OW13066   3.734   3.004   0.909
 4056SOL    HW113067   3.711   2.910   0.933
 4056SOL    HW213068   3.655   3.048   0.867
 4057SOL     OW13069   6.337   1.897   0.659
 4057SOL    HW113070   6.348   1.989   0.696
 4057SOL    HW213071   6.248   1.861   0.687
 4058SOL     OW13072   1.535   1.454   4.701
 4058SOL    HW113073   1.586   1.494   4.777
 4058SOL    HW213074   1.593   1.391   4.650
 4059SOL     OW13075   5.982   1.866   5.386
 4059SOL    HW113076   6.076   1.833   5.377
 4059SOL    HW213077   5.973   1.916   5.472
 4060SOL     OW13078   3.712   6.232   4.898
 4060SOL    HW113079   3.719   6.137   4.928
 4060SOL    HW213080   3.795   6.258   4.849
 4061SOL     OW13081   2.608   3.105   1.356
 4061SOL    HW113082   2.550   3.034   1.396
 4061SOL    HW213083   2.551   3.168   1.303
 4062SOL     OW13084   3.965   6.282   2.706
 4062SOL    HW113085   4.031   6.308   2.636
 4062SOL    HW213086   3.874   6.315   2.681
 4063SOL     OW13087   2.665   5.180   6.331
 4063SOL    HW113088   2.569   5.153   6.325
 4063SOL    HW213089   2.707   5.178   6.240
 4064SOL     OW13090   5.920   6.830   4.121
 4064SOL    HW113091   5.933   6.905   4.056
 4064SOL    HW213092   5.822   6.817   4.137
 4065SOL     OW13093   6.481   4.771   0.221
 4065SOL    HW113094   6.511   4.736   0.310
 4065SOL    HW213095   6.544   4.843   0.192
 4066SOL     OW13096   6.347   5.298   1.444
 4066SOL    HW113097   6.275   5.263   1.384
 4066SOL    HW213098   6.425   5.328   1.390
 4067SOL     OW13099   5.843   0.711   1.425
 4067SOL    HW113100   5.799   0.703   1.514
 4067SOL    HW213101   5.863   0.620   1.388
 4068SOL     OW13102   6.033   1.344   4.874
 4068SOL    HW113103   5.989   1.263   4.835
 4068SOL    HW213104   5.988   1.427   4.841
 4069SOL     OW13105   6.654   5.969   0.947
 4069SOL    HW113106   6.570   5.992   0.898
 4069SOL    HW213107   6.632   5.940   1.040
 4070SOL     OW13108   6.861   3.717   2.994
 4070SOL    HW113109   6.872   3.782   2.919
 4070SOL    HW213110   6.892   3.759   3.079
 4071SOL     OW13111   2.088   0.642   3.597
 4071SOL    HW113112   2.132   0.610   3.513
 4071SOL    HW213113   2.014   0.579   3.621
 4072SOL     OW13114   1.014   0.221   4.033
 4072SOL    HW113115   1.034   0.150   3.965
 4072SOL    HW213116   0.920   0.254   4.020
 4073SOL     OW13117   2.688   5.002   1.417
 4073SOL    HW113118   2.612   4.965   1.364
 4073SOL    HW213119   2.658   5.083   1.467
 4074SOL     OW13120   0.313   3.152   0.883
 4074SOL    HW113121   0.315   3.240   0.835
 4074SOL    HW213122   0.325   3.167   0.981
 4075SOL     OW13123   5.180   0.182   3.729
 4075SOL    HW113124   5.268   0.222   3.702
 4075SOL    HW213125   5.110   0.207   3.661
 4076SOL     OW13126   1.964   2.220   3.122
 4076SOL    HW113127   1.914   2.303   3.096
 4076SOL    HW213128   1.963   2.211   3.222
 4077SOL     OW13129   3.203   0.934   0.952
 4077SOL    HW113130   3.201   1.028   0.986
 4077SOL    HW213131   3.294   0.896   0.966
 4078SOL     OW13132   4.878   4.017   2.828
 4078SOL    HW113133   4.963   4.039   2.876
 4078SOL    HW213134   4.883   4.050   2.734
 4079SOL     OW13135   5.815   0.349   4.237
 4079SOL    HW113136   5.913   0.368   4.241
 4079SOL    HW213137   5.793   0.275   4.301
 4080SOL     OW13138   3.664   2.871   3.159
 4080SOL    HW113139   3.611   2.813   3.097
 4080SOL    HW213140   3.719   2.935   3.105
 4081SOL     OW13141   2.758   2.458   6.447
 4081SOL    HW113142   2.729   2.540   6.398
 4081SOL    HW213143   2.680   2.395   6.457
 4082SOL     OW13144   1.139   2.410   5.704
 4082SOL    HW113145   1.114   2.496   5.749
 4082SOL    HW213146   1.077   2.394   5.627
 4083SOL     OW13147   6.149   5.106   2.814
 4083SOL    HW113148   6.079   5.035   2.823
 4083SOL    HW213149   6.117   5.191   2.855
 4084SOL     OW13150   4.539   0.708   2.338
 4084SOL    HW113151   4.639   0.717   2.334
 4084SOL    HW213152   4.499   0.797   2.357
 4085SOL     OW13153   2.637   4.575   2.511
 4085SOL    HW113154   2.585   4.500   2.550
 4085SOL    HW213155   2.628   4.574   2.411
 4086SOL     OW13156   6.047   4.745   4.620
 4086SOL    HW113157   5.983   4.730   4.545
 4086SOL    HW213158   5.997   4.767   4.703
 4087SOL     OW13159   1.955   0.904   2.074
 4087SOL    HW113160   1.882   0.867   2.017
 4087SOL    HW213161   2.041   0.904   2.022
 4088SOL     OW13162   0.360   2.049   5.727
 4088SOL    HW113163   0.438   1.993   5.756
 4088SOL    HW213164   0.281   1.990   5.712
 4089SOL     OW13165   1.068   0.695   2.351
 4089SOL    HW113166   1.072   0.694   2.251
 4089SOL    HW213167   1.146   0.747   2.387
 4090SOL     OW13168   2.525   2.690   5.769
 4090SOL    HW113169   2.496   2.641   5.851
 4090SOL    HW213170   2.560   2.625   5.701
 4091SOL     OW13171   3.262   5.799   1.883
 4091SOL    HW113172   3.242   5.825   1.978
 4091SOL    HW213173   3.200   5.847   1.821
 4092SOL     OW13174   5.492   2.040   5.979
 4092SOL    HW113175   5.561   1.967   5.968
 4092SOL    HW213176   5.405   1.999   6.007
 4093SOL     OW13177   5.216   4.151   3.521
 4093SOL    HW113178   5.130   4.202   3.529
 4093SOL    HW213179   5.207   4.081   3.451
 4094SOL     OW13180   6.965   6.711   0.042
 4094SOL    HW113181   6.978   6.787   7.000
 4094SOL    HW213182   6.868   6.696   0.058
 4095SOL     OW13183   1.465   4.951   0.431
 4095SOL    HW113184   1.468   4.863   0.479
 4095SOL    HW213185   1.379   4.998   0.453
 4096SOL     OW13186   0.837   0.582   6.360
 4096SOL    HW113187   0.927   0.543   6.383
 4096SOL    HW213188   0.770   0.551   6.427
 4097SOL     OW13189   0.356   3.846   4.644
 4097SOL    HW113190   0.336   3.749   4.633
 4097SOL    HW213191   0.428   3.872   4.579
 4098SOL     OW13192   1.077   5.654   1.449
 4098SOL    HW113193   1.054   5.680   1.542
 4098SOL    HW213194   1.075   5.735   1.390
 4099SOL     OW13195   6.680   3.430   5.800
 4099SOL    HW113196   6.627   3.353   5.763
 4099SOL    HW213197   6.777   3.417   5.780
 4100SOL     OW13198   1.898   1.675   2.821
 4100SOL    HW113199   1.915   1.743   2.892
 4100SOL    HW213200   1.985   1.632   2.795
 4101SOL     OW13201   6.698   6.066   6.687
 4101SOL    HW113202   6.635   6.142   6.670
 4101SOL    HW213203   6.724   6.024   6.600
 4102SOL     OW13204   1.379   5.725   0.309
 4102SOL    HW113205   1.433   5.771   0.238
 4102SOL    HW213206   1.287   5.707   0.275
 4103SOL     OW13207   2.136   6.030   3.206
 4103SOL    HW113208   2.211   5.979   3.247
 4103SOL    HW213209   2.137   6.124   3.240
 4104SOL     OW13210   1.986   5.820   5.169
 4104SOL    HW113211   1.897   5.782   5.195
 4104SOL    HW213212   1.984   5.849   5.073
 4105SOL     OW13213   4.503   0.496   2.515
 4105SOL    HW113214   4.595   0.460   2.529
 4105SOL    HW213215   4.503   0.560   2.438
 4106SOL     OW13216   1.479   0.136   1.905
 4106SOL    HW113217   1.484   0.221   1.853
 4106SOL    HW213218   1.387   0.126   1.943
 4107SOL     OW13219   1.545   0.794   0.612
 4107SOL    HW113220   1.547   0.858   0.689
 4107SOL    HW213221   1.492   0.713   0.636
 4108SOL     OW13222   6.485   5.862   5.675
 4108SOL    HW113223   6.398   5.871   5.625
 4108SOL    HW213224   6.552   5.817   5.617
 4109SOL     OW13225   5.428   6.276   4.563
 4109SOL    HW113226   5.478   6.194   4.586
 4109SOL    HW213227   5.492   6.349   4.537
 4110SOL     OW13228   4.869   2.834   0.696
 4110SOL    HW113229   4.877   2.779   0.613
 4110SOL    HW213230   4.848   2.928   0.672
 4111SOL     OW13231   5.905   5.008   4.014
 4111SOL    HW113232   5.893   4.931   3.951
 4111SOL    HW213233   5.906   5.094   3.962
 4112SOL     OW13234   4.546   6.181   4.377
 4112SOL    HW113235   4.563   6.147   4.285
 4112SOL    HW213236   4.496   6.267   4.373
 4113SOL     OW13237   4.570   5.633   4.975
 4113SOL    HW113238   4.531   5.588   4.894
 4113SOL    HW213239   4.568   5.732   4.963
 4114SOL     OW13240   0.616   0.778   1.656
 4114SOL    HW113241   0.528   0.775   1.609
 4114SOL    HW213242   0.688   0.802   1.590
 4115SOL     OW13243   4.457   5.935   3.661
 4115SOL    HW113244   4.382   6.002   3.660
 4115SOL    HW213245   4.420   5.844   3.679
 4116SOL     OW13246   5.617   3.241   3.467
 4116SOL    HW113247   5.608   3.158   3.522
 4116SOL    HW213248   5.605   3.321   3.526
 4117SOL     OW13249   0.990   1.149   3.614
 4117SOL    HW113250   0.925   1.189   3.549
 4117SOL    HW213251   0.951   1.152   3.706
 4118SOL     OW13252   1.483   6.555   0.906
 4118SOL    HW113253   1.482   6.613   0.824
 4118SOL    HW213254   1.576   6.527   0.925
 4119SOL     OW13255   6.825   0.348   4.389
 4119SOL    HW113256   6.915   0.381   4.416
 4119SOL    HW213257   6.834   0.263   4.337
 4120SOL     OW13258   2.353   0.559   6.243
 4120SOL    HW113259   2.410   0.640   6.258
 4120SOL    HW213260   2.336   0.513   6.330
 4121SOL     OW13261   6.721   0.837   2.218
 4121SOL    HW113262   6.681   0.748   2.241
 4121SOL    HW213263   6.680   0.871   2.133
 4122SOL     OW13264   0.942   5.458   3.386
 4122SOL    HW113265   0.922   5.390   3.314
 4122SOL    HW213266   1.017   5.425   3.442
 4123SOL     OW13267   5.176   4.139   1.155
 4123SOL    HW113268   5.189   4.089   1.070
 4123SOL    HW213269   5.218   4.088   1.230
 4124SOL     OW13270   6.429   6.373   6.993
 4124SOL    HW113271   6.473   6.295   0.015
 4124SOL    HW213272   6.332   6.375   7.019
 4125SOL     OW13273   6.451   2.595   0.389
 4125SOL    HW113274   6.469   2.569   0.484
 4125SOL    HW213275   6.374   2.658   0.385
 4126SOL     OW13276   1.076   3.907   3.966
 4126SOL    HW113277   1.173   3.928   3.960
 4126SOL    HW213278   1.054   3.829   3.906
 4127SOL     OW13279   5.319   2.491   4.064
 4127SOL    HW113280   5.322   2.444   4.153
 4127SOL    HW213281   5.308   2.589   4.079
 4128SOL     OW13282   6.867   2.620   6.681
 4128SOL    HW113283   6.925   2.558   6.734
 4128SOL    HW213284   6.839   2.696   6.739
 4129SOL     OW13285   3.169   1.628   1.265
 4129SOL    HW113286   3.111   1.705   1.290
 4129SOL    HW213287   3.257   1.662   1.230
 4130SOL     OW13288   6.154   2.760   0.130
 4130SOL    HW113289   6.114   2.763   0.221
 4130SOL    HW213290   6.114   2.685   0.078
 4131SOL     OW13291   4.578   6.634   3.234
 4131SOL    HW113292   4.637   6.575   3.289
 4131SOL    HW213293   4.485   6.633   3.272
 4132SOL     OW13294   6.408   4.544   3.216
 4132SOL    HW113295   6.318   4.502   3.203
 4132SOL    HW213296   6.412   4.631   3.167
 4133SOL     OW13297   5.459   6.551   2.599
 4133SOL    HW113298   5.533   6.617   2.585
 4133SOL    HW213299   5.496   6.459   2.603
 4134SOL     OW13300   1.819   3.474   1.305
 4134SOL    HW113301   1.731   3.483   1.353
 4134SOL    HW213302   1.870   3.560   1.313
 4135SOL     OW13303   6.000   0.954   1.038
 4135SOL    HW113304   6.060   0.898   1.095
 4135SOL    HW213305   5.905   0.925   1.050
 4136SOL     OW13306   0.224   4.516   1.084
 4136SOL    HW113307   0.138   4.498   1.037
 4136SOL    HW213308   0.299   4.474   1.034
 4137SOL     OW13309   0.437   2.560   6.381
 4137SOL    HW113310   0.400   2.593   6.294
 4137SOL    HW213311   0.484   2.634   6.428
 4138SOL     OW13312   4.201   6.976   6.587
 4138SOL    HW113313   4.283   6.918   6.593
 4138SOL    HW213314   4.224   0.040   6.541
 4139SOL     OW13315   1.946   4.150   2.615
 4139SOL    HW113316   2.043   4.143   2.589
 4139SOL    HW213317   1.939   4.189   2.707
 4140SOL     OW13318   2.189   0.165   6.621
 4140SOL    HW113319   2.145   0.076   6.608
 4140SOL    HW213320   2.245   0.163   6.703
 4141SOL     OW13321   5.104   1.377   6.351
 4141SOL    HW113322   5.040   1.325   6.294
 4141SOL    HW213323   5.090   1.475   6.336
 4142SOL     OW13324   6.286   5.344   1.708
 4142SOL    HW113325   6.271   5.296   1.622
 4142SOL    HW213326   6.348   5.421   1.694
 4143SOL     OW13327   6.239   3.808   6.363
 4143SOL    HW113328   6.212   3.716   6.334
 4143SOL    HW213329   6.306   3.801   6.437
 4144SOL     OW13330   4.268   1.116   1.473
 4144SOL    HW113331   4.249   1.025   1.512
 4144SOL    HW213332   4.294   1.179   1.547
 4145SOL     OW13333   6.344   0.125   1.567
 4145SOL    HW113334   6.410   0.056   1.537
 4145SOL    HW213335   6.271   0.081   1.620
 4146SOL     OW13336   4.496   0.061   1.529
 4146SOL    HW113337   4.529   6.998   1.485
 4146SOL    HW213338   4.571   0.104   1.579
 4147SOL     OW13339   4.797   4.876   6.718
 4147SOL    HW113340   4.721   4.822   6.680
 4147SOL    HW213341   4.870   4.882   6.651
 4148SOL     OW13342   2.641   1.337   5.764
 4148SOL    HW113343   2.633   1.353   5.665
 4148SOL    HW213344   2.642   1.425   5.812
 4149SOL     OW13345   1.385   3.778   6.814
 4149SOL    HW113346   1.288   3.764   6.837
 4149SOL    HW213347   1.394   3.780   6.714
 4150SOL     OW13348   5.203   1.704   0.152
 4150SOL    HW113349   5.168   1.765   0.081
 4150SOL    HW213350   5.207   1.752   0.239
 4151SOL     OW13351   2.461   6.058   4.912
 4151SOL    HW113352   2.364   6.081   4.906
 4151SOL    HW213353   2.515   6.128   4.863
 4152SOL     OW13354   2.508   4.217   1.454
 4152SOL    HW113355   2.570   4.199   1.531
 4152SOL    HW213356   2.543   4.295   1.401
 4153SOL     OW13357   6.920   5.952   2.108
 4153SOL    HW113358   6.960   5.959   2.017
 4153SOL    HW213359   6.880   5.861   2.120
 4154SOL     OW13360   0.382   6.675   3.959
 4154SOL    HW113361   0.424   6.752   4.009
 4154SOL    HW213362   0.434   6.657   3.876
 4155SOL     OW13363   6.808   0.308   2.064
 4155SOL    HW113364   6.823   0.406   2.048
 4155SOL    HW213365   6.730   0.277   2.008
 4156SOL     OW13366   0.512   5.142   5.567
 4156SOL    HW113367   0.506   5.181   5.658
 4156SOL    HW213368   0.584   5.189   5.516
 4157SOL     OW13369   5.695   6.097   0.464
 4157SOL    HW113370   5.625   6.031   0.437
 4157SOL    HW213371   5.667   6.143   0.548
 4158SOL     OW13372   0.249   2.910   1.235
 4158SOL    HW113373   0.286   2.853   1.309
 4158SOL    HW213374   0.150   2.901   1.232
 4159SOL     OW13375   3.185   0.856   4.481
 4159SOL    HW113376   3.228   0.946   4.481
 4159SOL    HW213377   3.110   0.854   4.547
 4160SOL     OW13378   0.642   6.702   6.118
 4160SOL    HW113379   0.678   6.611   6.137
 4160SOL    HW213380   0.716   6.769   6.129
 4161SOL     OW13381   3.200   3.436   3.005
 4161SOL    HW113382   3.136   3.507   2.975
 4161SOL    HW213383   3.166   3.346   2.977
 4162SOL     OW13384   5.698   5.645   1.295
 4162SOL    HW113385   5.658   5.557   1.323
 4162SOL    HW213386   5.702   5.649   1.195
 4163SOL     OW13387   4.078   6.202   1.552
 4163SOL    HW113388   3.989   6.209   1.508
 4163SOL    HW213389   4.120   6.114   1.529
 4164SOL     OW13390   5.805   1.774   6.346
 4164SOL    HW113391   5.841   1.863   6.373
 4164SOL    HW213392   5.858   1.739   6.268
 4165SOL     OW13393   3.589   1.542   4.403
 4165SOL    HW113394   3.582   1.474   4.476
 4165SOL    HW213395   3.612   1.496   4.317
 4166SOL     OW13396   6.262   1.575   1.268
 4166SOL    HW113397   6.175   1.582   1.316
 4166SOL    HW213398   6.257   1.501   1.201
 4167SOL     OW13399   4.244   5.402   4.844
 4167SOL    HW113400   4.271   5.307   4.860
 4167SOL    HW213401   4.304   5.443   4.775
 4168SOL     OW13402   4.887   4.272   0.139
 4168SOL    HW113403   4.985   4.274   0.117
 4168SOL    HW213404   4.867   4.345   0.204
 4169SOL     OW13405   5.456   2.946   6.570
 4169SOL    HW113406   5.450   2.907   6.662
 4169SOL    HW213407   5.477   2.874   6.504
 4170SOL     OW13408   0.681   2.613   5.378
 4170SOL    HW113409   0.711   2.544   5.311
 4170SOL    HW213410   0.693   2.577   5.470
 4171SOL     OW13411   0.653   1.708   6.608
 4171SOL    HW113412   0.618   1.751   6.525
 4171SOL    HW213413   0.638   1.768   6.686
 4172SOL     OW13414   2.876   2.960   6.859
 4172SOL    HW113415   2.843   2.921   6.945
 4172SOL    HW213416   2.886   2.887   6.791
 4173SOL     OW13417   4.628   1.762   5.821
 4173SOL    HW113418   4.690   1.828   5.778
 4173SOL    HW213419   4.645   1.760   5.919
 4174SOL     OW13420   4.731   0.120   4.501
 4174SOL    HW113421   4.803   0.105   4.434
 4174SOL    HW213422   4.681   0.035   4.516
 4175SOL     OW13423   1.347   4.685   6.222
 4175SOL    HW113424   1.297   4.627   6.159
 4175SOL    HW213425   1.322   4.781   6.206
 4176SOL     OW13426   5.096   6.568   6.070
 4176SOL    HW113427   5.126   6.533   6.158
 4176SOL    HW213428   5.175   6.594   6.015
 4177SOL     OW13429   4.035   4.750   2.740
 4177SOL    HW113430   4.117   4.807   2.734
 4177SOL    HW213431   4.057   4.666   2.788
 4178SOL     OW13432   4.396   6.338   1.277
 4178SOL    HW113433   4.362   6.413   1.333
 4178SOL    HW213434   4.452   6.277   1.333
 4179SOL     OW13435   4.096   2.475   0.103
 4179SOL    HW113436   4.063   2.419   0.027
 4179SOL    HW213437   4.132   2.416   0.174
 4180SOL     OW13438   4.335   3.575   0.532
 4180SOL    HW113439   4.286   3.567   0.619
 4180SOL    HW213440   4.412   3.638   0.543
 4181SOL     OW13441   5.681   6.735   6.006
 4181SOL    HW113442   5.716   6.655   6.054
 4181SOL    HW213443   5.614   6.783   6.064
 4182SOL     OW13444   1.146   5.509   5.014
 4182SOL    HW113445   1.117   5.575   4.945
 4182SOL    HW213446   1.183   5.558   5.093
 4183SOL     OW13447   4.254   1.891   0.925
 4183SOL    HW113448   4.182   1.830   0.895
 4183SOL    HW213449   4.262   1.889   1.025
 4184SOL     OW13450   3.919   5.561   3.368
 4184SOL    HW113451   3.907   5.518   3.279
 4184SOL    HW213452   3.846   5.532   3.429
 4185SOL     OW13453   4.657   4.359   3.221
 4185SOL    HW113454   4.596   4.371   3.143
 4185SOL    HW213455   4.749   4.334   3.189
 4186SOL     OW13456   2.004   5.954   6.894
 4186SOL    HW113457   1.946   5.872   6.895
 4186SOL    HW213458   1.995   6.000   6.806
 4187SOL     OW13459   2.066   3.355   5.853
 4187SOL    HW113460   2.107   3.425   5.795
 4187SOL    HW213461   1.985   3.318   5.807
 4188SOL     OW13462   4.486   6.674   6.913
 4188SOL    HW113463   4.532   6.636   6.832
 4188SOL    HW213464   4.388   6.680   6.896
 4189SOL     OW13465   4.252   5.135   3.371
 4189SOL    HW113466   4.322   5.120   3.440
 4189SOL    HW213467   4.292   5.183   3.293
 4190SOL     OW13468   6.220   6.480   1.456
 4190SOL    HW113469   6.174   6.542   1.392
 4190SOL    HW213470   6.316   6.473   1.430
 4191SOL     OW13471   4.392   3.312   6.727
 4191SOL    HW113472   4.431   3.237   6.781
 4191SOL    HW213473   4.293   3.299   6.719
 4192SOL     OW13474   1.770   3.479   6.972
 4192SOL    HW113475   1.799   3.573   6.956
 4192SOL    HW213476   1.672   3.471   6.950
 4193SOL     OW13477   0.181   0.403   0.033
 4193SOL    HW113478   0.122   0.415   6.975
 4193SOL    HW213479   0.277   0.407   0.005
 4194SOL     OW13480   5.370   1.705   5.871
 4194SOL    HW113481   5.432   1.760   5.816
 4194SOL    HW213482   5.409   1.692   5.962
 4195SOL     OW13483   3.190   6.822   1.068
 4195SOL    HW113484   3.201   6.824   1.167
 4195SOL    HW213485   3.279   6.812   1.024
 4196SOL     OW13486   6.446   2.898   2.315
 4196SOL    HW113487   6.484   2.812   2.351
 4196SOL    HW213488   6.520   2.965   2.306
 4197SOL     OW13489   3.199   0.775   6.966
 4197SOL    HW113490   3.285   0.768   7.017
 4197SOL    HW213491   3.198   0.708   6.891
 4198SOL     OW13492   6.519   2.633   2.460
 4198SOL    HW113493   6.532   2.606   2.364
 4198SOL    HW213494   6.485   2.556   2.512
 4199SOL     OW13495   0.448   3.825   6.275
 4199SOL    HW113496   0.439   3.822   6.375
 4199SOL    HW213497   0.413   3.912   6.241
 4200SOL     OW13498   4.602   1.914   4.120
 4200SOL    HW113499   4.607   1.986   4.189
 4200SOL    HW213500   4.582   1.954   4.031
 4201SOL     OW13501   5.905   6.912   3.612
 4201SOL    HW113502   5.848   6.868   3.682
 4201SOL    HW213503   5.996   6.870   3.613
 4202SOL     OW13504   4.679   3.807   1.584
 4202SOL    HW113505   4.599   3.809   1.644
 4202SOL    HW213506   4.654   3.843   1.494
 4203SOL     OW13507   6.028   4.408   5.430
 4203SOL    HW113508   6.088   4.328   5.420
 4203SOL    HW213509   5.987   4.407   5.522
 4204SOL     OW13510   1.590   4.184   6.785
 4204SOL    HW113511   1.595   4.187   6.685
 4204SOL    HW213512   1.654   4.115   6.819
 4205SOL     OW13513   4.295   6.538   6.196
 4205SOL    HW113514   4.297   6.634   6.169
 4205SOL    HW213515   4.246   6.529   6.283
 4206SOL     OW13516   1.858   2.051   3.927
 4206SOL    HW113517   1.852   2.150   3.913
 4206SOL    HW213518   1.954   2.023   3.922
 4207SOL     OW13519   0.500   1.890   2.691
 4207SOL    HW113520   0.507   1.956   2.766
 4207SOL    HW213521   0.478   1.939   2.606
 4208SOL     OW13522   2.053   2.250   3.724
 4208SOL    HW113523   2.112   2.200   3.660
 4208SOL    HW213524   2.094   2.338   3.745
 4209SOL     OW13525   6.902   6.392   2.017
 4209SOL    HW113526   6.952   6.329   2.077
 4209SOL    HW213527   6.815   6.417   2.060
 4210SOL     OW13528   2.902   3.836   5.035
 4210SOL    HW113529   2.946   3.746   5.041
 4210SOL    HW213530   2.841   3.848   5.113
 4211SOL     OW13531   3.963   2.702   5.332
 4211SOL    HW113532   4.010   2.649   5.262
 4211SOL    HW213533   4.000   2.680   5.422
 4212SOL     OW13534   7.012   2.076   3.127
 4212SOL    HW113535   6.925   2.082   3.077
 4212SOL    HW213536   7.020   2.155   3.188
 4213SOL     OW13537   3.249   0.146   3.950
 4213SOL    HW113538   3.325   0.211   3.937
 4213SOL    HW213539   3.163   0.196   3.954
 4214SOL     OW13540   6.868   6.025   3.079
 4214SOL    HW113541   6.871   5.964   3.159
 4214SOL    HW213542   6.868   5.970   2.995
 4215SOL     OW13543   5.737   6.756   5.758
 4215SOL    HW113544   5.666   6.746   5.689
 4215SOL    HW213545   5.697   6.786   5.844
 4216SOL     OW13546   2.371   5.380   1.772
 4216SOL    HW113547   2.461   5.357   1.736
 4216SOL    HW213548   2.356   5.332   1.858
 4217SOL     OW13549   0.963   0.015   2.988
 4217SOL    HW113550   1.059   0.012   2.959
 4217SOL    HW213551   0.924   6.944   2.981
 4218SOL     OW13552   2.509   0.877   0.602
 4218SOL    HW113553   2.519   0.963   0.651
 4218SOL    HW213554   2.535   0.801   0.662
 4219SOL     OW13555   3.807   5.533   2.851
 4219SOL    HW113556   3.825   5.491   2.940
 4219SOL    HW213557   3.780   5.462   2.786
 4220SOL     OW13558   5.302   1.570   1.035
 4220SOL    HW113559   5.347   1.658   1.021
 4220SOL    HW213560   5.203   1.582   1.030
 4221SOL     OW13561   1.184   6.488   0.780
 4221SOL    HW113562   1.211   6.423   0.709
 4221SOL    HW213563   1.216   6.579   0.755
 4222SOL     OW13564   4.917   3.195   4.017
 4222SOL    HW113565   4.920   3.293   4.037
 4222SOL    HW213566   4.973   3.146   4.084
 4223SOL     OW13567   4.007   3.793   2.303
 4223SOL    HW113568   4.030   3.739   2.384
 4223SOL    HW213569   3.928   3.850   2.323
 4224SOL     OW13570   4.428   5.138   4.690
 4224SOL    HW113571   4.483   5.063   4.652
 4224SOL    HW213572   4.366   5.173   4.620
 4225SOL     OW13573   0.976   1.650   6.349
 4225SOL    HW113574   1.070   1.643   6.313
 4225SOL    HW213575   0.951   1.564   6.393
 4226SOL     OW13576   0.815   5.368   4.793
 4226SOL    HW113577   0.834   5.360   4.891
 4226SOL    HW213578   0.898   5.394   4.744
 4227SOL     OW13579   5.300   5.265   1.981
 4227SOL    HW113580   5.318   5.314   2.067
 4227SOL    HW213581   5.206   5.233   1.980
 4228SOL     OW13582   1.706   4.733   4.212
 4228SOL    HW113583   1.752   4.821   4.218
 4228SOL    HW213584   1.768   4.665   4.172
 4229SOL     OW13585   5.957   5.586   5.273
 4229SOL    HW113586   5.925   5.635   5.354
 4229SOL    HW213587   5.979   5.492   5.297
 4230SOL     OW13588   0.068   0.922   1.647
 4230SOL    HW113589   0.060   0.915   1.747
 4230SOL    HW213590   0.085   0.831   1.609
 4231SOL     OW13591   0.289   1.779   6.417
 4231SOL    HW113592   0.275   1.869   6.459
 4231SOL    HW213593   0.231   1.771   6.336
 4232SOL     OW13594   1.633   5.155   3.927
 4232SOL    HW113595   1.673   5.186   4.013
 4232SOL    HW213596   1.610   5.058   3.935
 4233SOL     OW13597   4.648   5.657   2.051
 4233SOL    HW113598   4.581   5.621   2.116
 4233SOL    HW213599   4.604   5.724   1.991
 4234SOL     OW13600   3.467   5.205   5.700
 4234SOL    HW113601   3.519   5.288   5.680
 4234SOL    HW213602   3.370   5.228   5.704
 4235SOL     OW13603   6.982   5.989   6.149
 4235SOL    HW113604   6.987   6.054   6.225
 4235SOL    HW213605   6.975   6.038   6.063
 4236SOL     OW13606   0.627   5.574   2.652
 4236SOL    HW113607   0.582   5.654   2.612
 4236SOL    HW213608   0.723   5.595   2.670
 4237SOL     OW13609   0.352   4.557   4.234
 4237SOL    HW113610   0.331   4.589   4.142
 4237SOL    HW213611   0.270   4.516   4.274
 4238SOL     OW13612   3.539   6.570   2.131
 4238SOL    HW113613   3.557   6.473   2.148
 4238SOL    HW213614   3.472   6.604   2.197
 4239SOL     OW13615   4.183   1.506   4.057
 4239SOL    HW113616   4.264   1.539   4.008
 4239SOL    HW213617   4.147   1.426   4.009
 4240SOL     OW13618   5.930   6.650   2.081
 4240SOL    HW113619   6.006   6.713   2.099
 4240SOL    HW213620   5.849   6.680   2.132
 4241SOL     OW13621   6.199   4.193   0.660
 4241SOL    HW113622   6.280   4.244   0.690
 4241SOL    HW213623   6.162   4.141   0.738
 4242SOL     OW13624   3.136   2.056   3.510
 4242SOL    HW113625   3.183   2.117   3.446
 4242SOL    HW213626   3.156   1.961   3.486
 4243SOL     OW13627   4.684   1.192   2.966
 4243SOL    HW113628   4.714   1.266   3.025
 4243SOL    HW213629   4.646   1.230   2.881
 4244SOL     OW13630   3.267   3.011   4.415
 4244SOL    HW113631   3.209   3.019   4.497
 4244SOL    HW213632   3.357   2.975   4.441
 4245SOL     OW13633   5.577   0.458   6.670
 4245SOL    HW113634   5.489   0.488   6.633
 4245SOL    HW213635   5.627   0.536   6.706
 4246SOL     OW13636   0.177   3.800   6.955
 4246SOL    HW113637   0.236   3.721   6.971
 4246SOL    HW213638   0.154   3.805   6.858
 4247SOL     OW13639   0.501   5.711   4.968
 4247SOL    HW113640   0.471   5.704   5.063
 4247SOL    HW213641   0.593   5.673   4.959
 4248SOL     OW13642   2.364   3.930   5.929
 4248SOL    HW113643   2.307   4.000   5.971
 4248SOL    HW213644   2.408   3.968   5.847
 4249SOL     OW13645   5.494   4.489   5.696
 4249SOL    HW113646   5.566   4.520   5.759
 4249SOL    HW213647   5.410   4.541   5.713
 4250SOL     OW13648   0.944   4.970   2.899
 4250SOL    HW113649   0.940   4.873   2.921
 4250SOL    HW213650   0.872   5.019   2.948
 4251SOL     OW13651   5.385   3.833   0.305
 4251SOL    HW113652   5.313   3.896   0.277
 4251SOL    HW213653   5.344   3.745   0.329
 4252SOL     OW13654   0.489   5.686   5.232
 4252SOL    HW113655   0.397   5.708   5.264
 4252SOL    HW213656   0.548   5.668   5.310
 4253SOL     OW13657   4.227   6.538   2.936
 4253SOL    HW113658   4.145   6.537   2.995
 4253SOL    HW213659   4.222   6.616   2.874
 4254SOL     OW13660   2.869   4.420   1.402
 4254SOL    HW113661   2.926   4.367   1.340
 4254SOL    HW213662   2.887   4.391   1.496
 4255SOL     OW13663   0.468   2.065   4.491
 4255SOL    HW113664   0.420   2.133   4.435
 4255SOL    HW213665   0.487   2.103   4.581
 4256SOL     OW13666   2.087   0.729   1.523
 4256SOL    HW113667   1.989   0.745   1.521
 4256SOL    HW213668   2.136   0.816   1.525
 4257SOL     OW13669   4.036   2.228   4.582
 4257SOL    HW113670   4.085   2.269   4.659
 4257SOL    HW213671   3.952   2.279   4.564
 4258SOL     OW13672   5.035   0.012   1.999
 4258SOL    HW113673   5.113   0.002   2.061
 4258SOL    HW213674   5.060   0.074   1.925
 4259SOL     OW13675   1.737   2.542   1.021
 4259SOL    HW113676   1.728   2.640   1.043
 4259SOL    HW213677   1.750   2.491   1.105
 4260SOL     OW13678   4.467   5.964   3.334
 4260SOL    HW113679   4.427   5.877   3.308
 4260SOL    HW213680   4.455   5.979   3.432
 4261SOL     OW13681   2.312   1.292   3.093
 4261SOL    HW113682   2.218   1.324   3.079
 4261SOL    HW213683   2.316   1.236   3.176
 4262SOL     OW13684   6.847   5.946   6.486
 4262SOL    HW113685   6.919   5.920   6.550
 4262SOL    HW213686   6.888   5.985   6.403
 4263SOL     OW13687   4.144   5.436   5.984
 4263SOL    HW113688   4.058   5.426   6.034
 4263SOL    HW213689   4.125   5.439   5.886
 4264SOL     OW13690   0.051   0.056   0.667
 4264SOL    HW113691   0.046   6.978   0.671
 4264SOL    HW213692   0.098   0.091   0.748
 4265SOL     OW13693   0.248   2.460   0.223
 4265SOL    HW113694   0.347   2.456   0.233
 4265SOL    HW213695   0.207   2.494   0.308
 4266SOL     OW13696   3.369   4.712   1.284
 4266SOL    HW113697   3.277   4.672   1.293
 4266SOL    HW213698   3.437   4.647   1.315
 4267SOL     OW13699   2.223   4.402   6.137
 4267SOL    HW113700   2.285   4.475   6.106
 4267SOL    HW213701   2.129   4.428   6.119
 4268SOL     OW13702   1.653   1.083   0.311
 4268SOL    HW113703   1.597   1.163   0.334
 4268SOL    HW213704   1.733   1.081   0.370
 4269SOL     OW13705   2.842   3.812   0.922
 4269SOL    HW113706   2.783   3.854   0.991
 4269SOL    HW213707   2.818   3.848   0.831
 4270SOL     OW13708   3.783   2.792   5.652
 4270SOL    HW113709   3.817   2.844   5.730
 4270SOL    HW213710   3.860   2.754   5.601
 4271SOL     OW13711   1.215   6.936   0.110
 4271SOL    HW113712   1.263   0.002   0.097
 4271SOL    HW213713   1.117   6.949   0.092
 4272SOL     OW13714   6.773   4.299   3.468
 4272SOL    HW113715   6.710   4.241   3.520
 4272SOL    HW213716   6.720   4.369   3.418
 4273SOL     OW13717   5.621   6.063   4.647
 4273SOL    HW113718   5.623   6.044   4.745
 4273SOL    HW213719   5.704   6.112   4.621
 4274SOL     OW13720   1.932   0.487   3.918
 4274SOL    HW113721   1.987   0.405   3.931
 4274SOL    HW213722   1.967   0.560   3.977
 4275SOL     OW13723   1.220   6.621   6.559
 4275SOL    HW113724   1.166   6.568   6.624
 4275SOL    HW213725   1.207   6.719   6.576
 4276SOL     OW13726   1.730   4.268   2.482
 4276SOL    HW113727   1.741   4.257   2.383
 4276SOL    HW213728   1.816   4.246   2.528
 4277SOL     OW13729   0.692   5.155   4.158
 4277SOL    HW113730   0.626   5.197   4.221
 4277SOL    HW213731   0.690   5.204   4.070
 4278SOL     OW13732   1.071   6.439   5.527
 4278SOL    HW113733   1.056   6.344   5.552
 4278SOL    HW213734   1.130   6.444   5.446
 4279SOL     OW13735   3.525   5.468   4.109
 4279SOL    HW113736   3.465   5.400   4.151
 4279SOL    HW213737   3.535   5.448   4.012
 4280SOL     OW13738   4.954   3.617   3.697
 4280SOL    HW113739   4.969   3.554   3.621
 4280SOL    HW213740   4.946   3.711   3.663
 4281SOL     OW13741   2.426   3.749   5.375
 4281SOL    HW113742   2.333   3.745   5.412
 4281SOL    HW213743   2.429   3.814   5.300
 4282SOL     OW13744   0.855   2.876   1.290
 4282SOL    HW113745   0.817   2.943   1.227
 4282SOL    HW213746   0.796   2.869   1.371
 4283SOL     OW13747   2.049   0.419   4.226
 4283SOL    HW113748   2.134   0.371   4.204
 4283SOL    HW213749   1.982   0.354   4.263
 4284SOL     OW13750   6.384   1.458   2.916
 4284SOL    HW113751   6.326   1.496   2.844
 4284SOL    HW213752   6.465   1.416   2.875
 4285SOL     OW13753   1.117   6.283   5.225
 4285SOL    HW113754   1.125   6.202   5.283
 4285SOL    HW213755   1.174   6.272   5.144
 4286SOL     OW13756   5.600   5.559   6.935
 4286SOL    HW113757   5.615   5.570   6.837
 4286SOL    HW213758   5.688   5.556   6.982
 4287SOL     OW13759   3.947   6.541   4.983
 4287SOL    HW113760   4.041   6.563   5.008
 4287SOL    HW213761   3.941   6.527   4.884
 4288SOL     OW13762   1.402   6.479   2.594
 4288SOL    HW113763   1.459   6.513   2.520
 4288SOL    HW213764   1.446   6.500   2.682
 4289SOL     OW13765   6.030   3.451   0.795
 4289SOL    HW113766   5.976   3.402   0.727
 4289SOL    HW213767   6.010   3.415   0.886
 4290SOL     OW13768   2.198   1.257   2.286
 4290SOL    HW113769   2.134   1.182   2.268
 4290SOL    HW213770   2.284   1.220   2.321
 4291SOL     OW13771   6.029   4.936   1.146
 4291SOL    HW113772   5.950   4.978   1.100
 4291SOL    HW213773   6.064   4.861   1.090
 4292SOL     OW13774   5.897   5.920   5.876
 4292SOL    HW113775   5.850   5.924   5.965
 4292SOL    HW213776   5.994   5.904   5.891
 4293SOL     OW13777   0.124   2.531   6.725
 4293SOL    HW113778   0.188   2.468   6.682
 4293SOL    HW213779   0.140   2.533   6.824
 4294SOL     OW13780   5.139   2.720   6.202
 4294SOL    HW113781   5.212   2.785   6.181
 4294SOL    HW213782   5.122   2.662   6.122
 4295SOL     OW13783   3.945   6.547   4.672
 4295SOL    HW113784   4.021   6.561   4.609
 4295SOL    HW213785   3.860   6.541   4.621
 4296SOL     OW13786   2.095   1.234   1.084
 4296SOL    HW113787   2.193   1.219   1.073
 4296SOL    HW213788   2.063   1.299   1.014
 4297SOL     OW13789   5.959   0.790   6.493
 4297SOL    HW113790   6.004   0.781   6.405
 4297SOL    HW213791   5.973   0.883   6.528
 4298SOL     OW13792   2.752   5.094   1.159
 4298SOL    HW113793   2.758   5.087   1.259
 4298SOL    HW213794   2.844   5.098   1.120
 4299SOL     OW13795   1.141   3.915   6.557
 4299SOL    HW113796   1.173   4.001   6.516
 4299SOL    HW213797   1.186   3.838   6.513
 4300SOL     OW13798   5.808   0.095   6.312
 4300SOL    HW113799   5.806   0.103   6.412
 4300SOL    HW213800   5.897   0.126   6.279
 4301SOL     OW13801   2.504   1.560   0.538
 4301SOL    HW113802   2.542   1.507   0.462
 4301SOL    HW213803   2.537   1.654   0.533
 4302SOL     OW13804   0.846   6.574   0.059
 4302SOL    HW113805   0.892   6.598   0.145
 4302SOL    HW213806   0.878   6.634   7.007
 4303SOL     OW13807   6.903   3.550   1.840
 4303SOL    HW113808   6.937   3.625   1.784
 4303SOL    HW213809   6.864   3.479   1.780
 4304SOL     OW13810   3.175   2.915   5.021
 4304SOL    HW113811   3.167   3.005   4.978
 4304SOL    HW213812   3.176   2.844   4.951
 4305SOL     OW13813   6.337   1.242   4.465
 4305SOL    HW113814   6.253   1.291   4.441
 4305SOL    HW213815   6.368   1.272   4.555
 4306SOL     OW13816   6.304   6.016   5.996
 4306SOL    HW113817   6.257   5.928   5.998
 4306SOL    HW213818   6.351   6.027   5.908
 4307SOL     OW13819   4.982   3.174   6.729
 4307SOL    HW113820   4.908   3.109   6.746
 4307SOL    HW213821   5.068   3.135   6.763
 4308SOL     OW13822   4.214   6.531   5.112
 4308SOL    HW113823   4.310   6.518   5.087
 4308SOL    HW213824   4.180   6.449   5.157
 4309SOL     OW13825   1.475   1.433   0.879
 4309SOL    HW113826   1.393   1.483   0.851
 4309SOL    HW213827   1.460   1.335   0.869
 4310SOL     OW13828   1.312   1.160   2.255
 4310SOL    HW113829   1.310   1.064   2.281
 4310SOL    HW213830   1.307   1.218   2.336
 4311SOL     OW13831   1.650   6.263   4.026
 4311SOL    HW113832   1.679   6.347   3.980
 4311SOL    HW213833   1.619   6.197   3.957
 4312SOL     OW13834   1.629   5.316   2.058
 4312SOL    HW113835   1.712   5.343   2.106
 4312SOL    HW213836   1.651   5.245   1.990
 4313SOL     OW13837   4.850   0.459   1.626
 4313SOL    HW113838   4.935   0.426   1.586
 4313SOL    HW213839   4.813   0.533   1.570
 4314SOL     OW13840   5.029   3.514   2.919
 4314SOL    HW113841   5.072   3.552   3.001
 4314SOL    HW213842   4.943   3.562   2.903
 4315SOL     OW13843   2.582   1.861   1.892
 4315SOL    HW113844   2.520   1.782   1.882
 4315SOL    HW213845   2.527   1.944   1.900
 4316SOL     OW13846   0.184   0.291   2.443
 4316SOL    HW113847   0.204   0.388   2.457
 4316SOL    HW213848   0.120   0.281   2.366
 4317SOL     OW13849   4.049   0.599   3.208
 4317SOL    HW113850   3.991   0.602   3.289
 4317SOL    HW213851   4.107   0.680   3.205
 4318SOL     OW13852   0.307   2.941   4.314
 4318SOL    HW113853   0.369   2.986   4.249
 4318SOL    HW213854   0.214   2.940   4.276
 4319SOL     OW13855   2.444   3.401   5.615
 4319SOL    HW113856   2.447   3.418   5.517
 4319SOL    HW213857   2.515   3.335   5.640
 4320SOL     OW13858   0.547   6.368   2.826
 4320SOL    HW113859   0.620   6.302   2.845
 4320SOL    HW213860   0.514   6.356   2.732
 4321SOL     OW13861   0.805   0.437   5.031
 4321SOL    HW113862   0.787   0.534   5.018
 4321SOL    HW213863   0.759   0.385   4.959
 4322SOL     OW13864   5.351   1.148   0.448
 4322SOL    HW113865   5.318   1.111   0.361
 4322SOL    HW213866   5.300   1.107   0.524
 4323SOL     OW13867   6.544   2.685   3.915
 4323SOL    HW113868   6.634   2.728   3.907
 4323SOL    HW213869   6.528   2.659   4.010
 4324SOL     OW13870   6.371   3.783   5.863
 4324SOL    HW113871   6.279   3.770   5.899
 4324SOL    HW213872   6.438   3.769   5.936
 4325SOL     OW13873   1.906   1.759   5.622
 4325SOL    HW113874   1.920   1.831   5.554
 4325SOL    HW213875   1.957   1.781   5.705
 4326SOL     OW13876   6.218   2.033   5.807
 4326SOL    HW113877   6.166   2.044   5.892
 4326SOL    HW213878   6.176   1.961   5.751
 4327SOL     OW13879   5.623   0.299   3.261
 4327SOL    HW113880   5.533   0.258   3.248
 4327SOL    HW213881   5.616   0.373   3.328
 4328SOL     OW13882   5.385   5.255   0.521
 4328SOL    HW113883   5.356   5.166   0.485
 4328SOL    HW213884   5.461   5.243   0.584
 4329SOL     OW13885   3.821   1.459   5.971
 4329SOL    HW113886   3.732   1.499   5.949
 4329SOL    HW213887   3.894   1.521   5.942
 4330SOL     OW13888   0.949   0.238   6.287
 4330SOL    HW113889   0.879   0.209   6.222
 4330SOL    HW213890   1.035   0.191   6.268
 4331SOL     OW13891   5.691   2.731   0.664
 4331SOL    HW113892   5.740   2.762   0.745
 4331SOL    HW213893   5.726   2.642   0.637
 4332SOL     OW13894   5.361   3.678   1.390
 4332SOL    HW113895   5.440   3.620   1.371
 4332SOL    HW213896   5.325   3.714   1.304
 4333SOL     OW13897   5.390   1.790   5.342
 4333SOL    HW113898   5.372   1.736   5.424
 4333SOL    HW213899   5.366   1.737   5.261
 4334SOL     OW13900   4.367   0.596   1.834
 4334SOL    HW113901   4.411   0.656   1.901
 4334SOL    HW213902   4.275   0.571   1.866
 4335SOL     OW13903   3.554   3.804   5.393
 4335SOL    HW113904   3.622   3.743   5.352
 4335SOL    HW213905   3.557   3.893   5.348
 4336SOL     OW13906   1.891   6.622   4.162
 4336SOL    HW113907   1.806   6.617   4.110
 4336SOL    HW213908   1.870   6.630   4.259
 4337SOL     OW13909   0.304   5.031   0.655
 4337SOL    HW113910   0.311   5.097   0.730
 4337SOL    HW213911   0.209   5.027   0.623
 4338SOL     OW13912   6.568   6.156   3.686
 4338SOL    HW113913   6.589   6.091   3.759
 4338SOL    HW213914   6.617   6.129   3.603
 4339SOL     OW13915   6.033   1.227   6.234
 4339SOL    HW113916   5.946   1.271   6.253
 4339SOL    HW213917   6.107   1.283   6.270
 4340SOL     OW13918   4.932   2.931   2.203
 4340SOL    HW113919   4.883   3.006   2.159
 4340SOL    HW213920   5.024   2.924   2.164
 4341SOL     OW13921   0.631   4.109   0.283
 4341SOL    HW113922   0.552   4.149   0.235
 4341SOL    HW213923   0.615   4.112   0.382
 4342SOL     OW13924   7.015   2.880   3.011
 4342SOL    HW113925   0.090   2.897   3.029
 4342SOL    HW213926   6.971   2.844   3.093
 4343SOL     OW13927   2.355   1.860   1.612
 4343SOL    HW113928   2.315   1.800   1.543
 4343SOL    HW213929   2.289   1.875   1.685
 4344SOL     OW13930   2.275   4.109   3.209
 4344SOL    HW113931   2.255   4.015   3.180
 4344SOL    HW213932   2.220   4.173   3.156
 4345SOL     OW13933   2.020   1.813   6.260
 4345SOL    HW113934   1.964   1.891   6.230
 4345SOL    HW213935   2.117   1.835   6.247
 4346SOL     OW13936   0.689   2.611   1.653
 4346SOL    HW113937   0.702   2.581   1.558
 4346SOL    HW213938   0.712   2.707   1.661
 4347SOL     OW13939   6.358   5.675   2.851
 4347SOL    HW113940   6.427   5.731   2.897
 4347SOL    HW213941   6.299   5.733   2.795
 4348SOL     OW13942   0.994   3.734   0.042
 4348SOL    HW113943   1.015   3.824   0.005
 4348SOL    HW213944   0.956   3.744   0.134
 4349SOL     OW13945   6.824   0.147   3.369
 4349SOL    HW113946   6.914   0.161   3.411
 4349SOL    HW213947   6.824   0.061   3.318
 4350SOL     OW13948   5.251   1.347   3.993
 4350SOL    HW113949   5.319   1.369   4.063
 4350SOL    HW213950   5.193   1.427   3.977
 4351SOL     OW13951   3.065   6.447   0.712
 4351SOL    HW113952   3.088   6.388   0.790
 4351SOL    HW213953   2.975   6.422   0.676
 4352SOL     OW13954   6.249   1.377   2.005
 4352SOL    HW113955   6.169   1.324   2.032
 4352SOL    HW213956   6.317   1.317   1.964
 4353SOL     OW13957   3.441   5.540   0.712
 4353SOL    HW113958   3.519   5.479   0.712
 4353SOL    HW213959   3.366   5.499   0.763
 4354SOL     OW13960   1.412   0.292   1.138
 4354SOL    HW113961   1.321   0.312   1.172
 4354SOL    HW213962   1.473   0.369   1.158
 4355SOL     OW13963   4.887   1.058   0.989
 4355SOL    HW113964   4.839   1.144   0.974
 4355SOL    HW213965   4.828   0.995   1.041
 4356SOL     OW13966   4.042   4.202   0.212
 4356SOL    HW113967   4.043   4.155   0.124
 4356SOL    HW213968   4.109   4.276   0.212
 4357SOL     OW13969   6.321   1.075   6.710
 4357SOL    HW113970   6.295   0.999   6.769
 4357SOL    HW213971   6.419   1.068   6.688
 4358SOL     OW13972   0.196   0.174   1.487
 4358SOL    HW113973   0.282   0.169   1.435
 4358SOL    HW213974   0.211   0.140   1.579
 4359SOL     OW13975   6.139   2.586   4.151
 4359SOL    HW113976   6.187   2.608   4.067
 4359SOL    HW213977   6.058   2.643   4.160
 4360SOL     OW13978   2.517   3.189   1.080
 4360SOL    HW113979   2.475   3.221   0.995
 4360SOL    HW213980   2.485   3.097   1.100
 4361SOL     OW13981   5.247   1.331   2.140
 4361SOL    HW113982   5.256   1.334   2.240
 4361SOL    HW213983   5.206   1.416   2.109
 4362SOL     OW13984   5.735   4.520   3.840
 4362SOL    HW113985   5.769   4.491   3.750
 4362SOL    HW213986   5.730   4.441   3.901
 4363SOL     OW13987   5.083   1.729   5.560
 4363SOL    HW113988   5.103   1.817   5.603
 4363SOL    HW213989   4.995   1.695   5.592
 4364SOL     OW13990   3.385   3.512   5.242
 4364SOL    HW113991   3.344   3.422   5.225
 4364SOL    HW213992   3.333   3.581   5.193
 4365SOL     OW13993   3.028   1.444   1.482
 4365SOL    HW113994   2.993   1.525   1.436
 4365SOL    HW213995   3.068   1.382   1.414
 4366SOL     OW13996   5.400   5.596   1.133
 4366SOL    HW113997   5.373   5.683   1.176
 4366SOL    HW213998   5.425   5.613   1.037
 4367SOL     OW13999   0.431   6.204   0.132
 4367SOL    HW114000   0.511   6.240   0.083
 4367SOL    HW214001   0.454   6.192   0.229
 4368SOL     OW14002   5.301   3.545   1.794
 4368SOL    HW114003   5.205   3.525   1.816
 4368SOL    HW214004   5.355   3.545   1.878
 4369SOL     OW14005   3.061   5.672   1.608
 4369SOL    HW114006   3.103   5.702   1.522
 4369SOL    HW214007   3.054   5.572   1.609
 4370SOL     OW14008   5.223   4.980   2.904
 4370SOL    HW114009   5.239   4.972   3.002
 4370SOL    HW214010   5.310   4.976   2.855
 4371SOL     OW14011   7.010   1.581   2.142
 4371SOL    HW114012   6.939   1.636   2.098
 4371SOL    HW214013   0.017   1.508   2.079
 4372SOL     OW14014   4.850   6.696   3.839
 4372SOL    HW114015   4.906   6.710   3.921
 4372SOL    HW214016   4.901   6.728   3.759
 4373SOL     OW14017   0.174   1.743   6.173
 4373SOL    HW114018   0.122   1.658   6.184
 4373SOL    HW214019   0.233   1.736   6.093
 4374SOL     OW14020   3.087   2.007   1.096
 4374SOL    HW114021   3.058   2.014   1.191
 4374SOL    HW214022   3.071   1.915   1.062
 4375SOL     OW14023   3.672   6.761   4.236
 4375SOL    HW114024   3.721   6.825   4.176
 4375SOL    HW214025   3.654   6.805   4.323
 4376SOL     OW14026   6.366   1.673   4.123
 4376SOL    HW114027   6.276   1.676   4.166
 4376SOL    HW214028   6.357   1.687   4.025
 4377SOL     OW14029   6.002   5.388   6.493
 4377SOL    HW114030   6.071   5.410   6.423
 4377SOL    HW214031   5.913   5.379   6.450
 4378SOL     OW14032   2.144   1.362   3.562
 4378SOL    HW114033   2.145   1.365   3.662
 4378SOL    HW214034   2.235   1.340   3.527
 4379SOL     OW14035   2.857   1.845   5.194
 4379SOL    HW114036   2.775   1.826   5.140
 4379SOL    HW214037   2.928   1.882   5.133
 4380SOL     OW14038   0.457   1.172   2.166
 4380SOL    HW114039   0.424   1.112   2.239
 4380SOL    HW214040   0.385   1.184   2.098
 4381SOL     OW14041   1.729   6.064   6.388
 4381SOL    HW114042   1.807   6.017   6.430
 4381SOL    HW214043   1.762   6.145   6.339
 4382SOL     OW14044   0.701   4.148   5.204
 4382SOL    HW114045   0.759   4.099   5.139
 4382SOL    HW214046   0.754   4.221   5.248
 4383SOL     OW14047   6.486   3.439   6.826
 4383SOL    HW114048   6.524   3.406   6.913
 4383SOL    HW214049   6.532   3.392   6.751
 4384SOL     OW14050   5.453   6.737   3.878
 4384SOL    HW114051   5.534   6.694   3.840
 4384SOL    HW214052   5.460   6.836   3.869
 4385SOL     OW14053   4.178   1.664   5.122
 4385SOL    HW114054   4.112   1.663   5.048
 4385SOL    HW214055   4.131   1.670   5.210
 4386SOL     OW14056   1.982   3.652   5.075
 4386SOL    HW114057   2.050   3.687   5.011
 4386SOL    HW214058   1.925   3.728   5.107
 4387SOL     OW14059   6.410   1.766   0.247
 4387SOL    HW114060   6.487   1.818   0.208
 4387SOL    HW214061   6.434   1.669   0.251
 4388SOL     OW14062   4.919   3.436   6.624
 4388SOL    HW114063   4.836   3.470   6.580
 4388SOL    HW214064   4.898   3.355   6.679
 4389SOL     OW14065   0.674   3.193   0.936
 4389SOL    HW114066   0.750   3.146   0.982
 4389SOL    HW214067   0.625   3.250   1.002
 4390SOL     OW14068   0.009   1.125   0.684
 4390SOL    HW114069   6.996   1.111   0.591
 4390SOL    HW214070   6.982   1.064   0.747
 4391SOL     OW14071   1.362   5.850   0.845
 4391SOL    HW114072   1.289   5.889   0.901
 4391SOL    HW214073   1.332   5.763   0.806
 4392SOL     OW14074   1.361   2.833   5.529
 4392SOL    HW114075   1.438   2.773   5.552
 4392SOL    HW214076   1.339   2.890   5.609
 4393SOL     OW14077   5.109   0.758   2.007
 4393SOL    HW114078   5.160   0.690   1.954
 4393SOL    HW214079   5.152   0.848   1.997
 4394SOL     OW14080   1.385   0.342   2.296
 4394SOL    HW114081   1.477   0.364   2.264
 4394SOL    HW214082   1.383   0.249   2.332
 4395SOL     OW14083   2.531   4.882   1.685
 4395SOL    HW114084   2.585   4.966   1.689
 4395SOL    HW214085   2.550   4.826   1.766
 4396SOL     OW14086   3.028   0.647   3.149
 4396SOL    HW114087   3.094   0.585   3.191
 4396SOL    HW214088   3.045   0.740   3.180
 4397SOL     OW14089   3.299   1.840   4.427
 4397SOL    HW114090   3.319   1.753   4.471
 4397SOL    HW214091   3.202   1.843   4.402
 4398SOL     OW14092   1.943   2.894   5.354
 4398SOL    HW114093   1.897   2.811   5.387
 4398SOL    HW214094   2.035   2.872   5.324
 4399SOL     OW14095   2.602   6.317   1.723
 4399SOL    HW114096   2.668   6.286   1.792
 4399SOL    HW214097   2.510   6.316   1.762
 4400SOL     OW14098   2.030   5.578   4.425
 4400SOL    HW114099   2.130   5.569   4.424
 4400SOL    HW214100   1.992   5.526   4.501
 4401SOL     OW14101   3.331   6.330   6.973
 4401SOL    HW114102   3.238   6.354   6.999
 4401SOL    HW214103   3.343   6.231   6.978
 4402SOL     OW14104   1.760   0.474   2.905
 4402SOL    HW114105   1.703   0.545   2.864
 4402SOL    HW214106   1.832   0.516   2.960
 4403SOL     OW14107   0.881   5.151   2.043
 4403SOL    HW114108   0.833   5.066   2.020
 4403SOL    HW214109   0.928   5.186   1.962
 4404SOL     OW14110   0.143   6.802   6.295
 4404SOL    HW114111   0.106   6.748   6.371
 4404SOL    HW214112   0.243   6.800   6.298
 4405SOL     OW14113   2.223   5.740   2.642
 4405SOL    HW114114   2.150   5.806   2.658
 4405SOL    HW214115   2.185   5.655   2.605
 4406SOL     OW14116   5.377   4.008   2.199
 4406SOL    HW114117   5.304   4.019   2.267
 4406SOL    HW214118   5.466   4.025   2.242
 4407SOL     OW14119   6.130   6.827   1.678
 4407SOL    HW114120   6.092   6.759   1.740
 4407SOL    HW214121   6.085   6.821   1.589
 4408SOL     OW14122   4.283   1.038   0.393
 4408SOL    HW114123   4.282   0.941   0.416
 4408SOL    HW214124   4.272   1.093   0.476
 4409SOL     OW14125   2.766   0.675   3.265
 4409SOL    HW114126   2.784   0.762   3.311
 4409SOL    HW214127   2.839   0.610   3.289
 4410SOL     OW14128   0.465   6.494   0.907
 4410SOL    HW114129   0.491   6.444   0.990
 4410SOL    HW214130   0.422   6.580   0.932
 4411SOL     OW14131   3.727   4.652   5.324
 4411SOL    HW114132   3.734   4.556   5.295
 4411SOL    HW214133   3.678   4.656   5.411
 4412SOL     OW14134   4.724   6.636   2.460
 4412SOL    HW114135   4.706   6.567   2.389
 4412SOL    HW214136   4.694   6.601   2.548
 4413SOL     OW14137   4.901   5.950   3.867
 4413SOL    HW114138   4.807   5.977   3.847
 4413SOL    HW214139   4.916   5.949   3.966
 4414SOL     OW14140   4.985   3.822   1.568
 4414SOL    HW114141   4.967   3.919   1.550
 4414SOL    HW214142   5.076   3.813   1.610
 4415SOL     OW14143   2.195   3.062   1.886
 4415SOL    HW114144   2.142   3.142   1.857
 4415SOL    HW214145   2.260   3.037   1.815
 4416SOL     OW14146   5.049   2.299   3.218
 4416SOL    HW114147   5.078   2.300   3.123
 4416SOL    HW214148   4.955   2.332   3.225
 4417SOL     OW14149   6.800   4.124   2.439
 4417SOL    HW114150   6.861   4.084   2.508
 4417SOL    HW214151   6.779   4.055   2.369
 4418SOL     OW14152   6.359   6.701   5.628
 4418SOL    HW114153   6.412   6.634   5.680
 4418SOL    HW214154   6.369   6.682   5.530
 4419SOL     OW14155   6.551   5.684   6.554
 4419SOL    HW114156   6.539   5.602   6.498
 4419SOL    HW214157   6.556   5.657   6.651
 4420SOL     OW14158   3.640   2.269   0.834
 4420SOL    HW114159   3.554   2.305   0.871
 4420SOL    HW214160   3.701   2.246   0.910
 4421SOL     OW14161   1.915   2.522   0.552
 4421SOL    HW114162   2.002   2.473   0.549
 4421SOL    HW214163   1.843   2.465   0.511
 4422SOL     OW14164   6.626   3.709   6.307
 4422SOL    HW114165   6.645   3.710   6.209
 4422SOL    HW214166   6.623   3.614   6.339
 4423SOL     OW14167   6.275   4.095   4.964
 4423SOL    HW114168   6.192   4.127   5.009
 4423SOL    HW214169   6.320   4.171   4.918
 4424SOL     OW14170   4.999   5.861   2.301
 4424SOL    HW114171   4.950   5.834   2.384
 4424SOL    HW214172   5.015   5.959   2.303
 4425SOL     OW14173   1.255   5.206   1.232
 4425SOL    HW114174   1.326   5.157   1.283
 4425SOL    HW214175   1.253   5.302   1.262
 4426SOL     OW14176   0.644   0.375   4.382
 4426SOL    HW114177   0.652   0.403   4.478
 4426SOL    HW214178   0.593   0.289   4.377
 4427SOL     OW14179   2.690   5.689   2.101
 4427SOL    HW114180   2.693   5.762   2.169
 4427SOL    HW214181   2.622   5.710   2.031
 4428SOL     OW14182   5.885   5.905   3.945
 4428SOL    HW114183   5.803   5.882   3.893
 4428SOL    HW214184   5.865   5.981   4.007
 4429SOL     OW14185   2.751   6.065   3.460
 4429SOL    HW114186   2.722   5.980   3.415
 4429SOL    HW214187   2.715   6.143   3.410
 4430SOL     OW14188   5.569   3.809   5.072
 4430SOL    HW114189   5.508   3.859   5.133
 4430SOL    HW214190   5.577   3.714   5.103
 4431SOL     OW14191   3.875   6.805   4.447
 4431SOL    HW114192   3.833   6.742   4.512
 4431SOL    HW214193   3.881   6.761   4.357
 4432SOL     OW14194   0.822   3.617   6.449
 4432SOL    HW114195   0.902   3.562   6.426
 4432SOL    HW214196   0.740   3.559   6.445
 4433SOL     OW14197   1.272   0.966   5.644
 4433SOL    HW114198   1.194   0.964   5.706
 4433SOL    HW214199   1.248   1.014   5.560
 4434SOL     OW14200   0.483   0.293   2.663
 4434SOL    HW114201   0.405   0.296   2.726
 4434SOL    HW214202   0.536   0.210   2.678
 4435SOL     OW14203   2.534   3.938   0.505
 4435SOL    HW114204   2.490   3.976   0.424
 4435SOL    HW214205   2.501   3.845   0.520
 4436SOL     OW14206   4.541   2.074   1.531
 4436SOL    HW114207   4.541   2.003   1.461
 4436SOL    HW214208   4.625   2.069   1.584
 4437SOL     OW14209   6.704   4.187   6.978
 4437SOL    HW114210   6.726   4.243   6.898
 4437SOL    HW214211   6.682   4.247   0.034
 4438SOL     OW14212   3.834   0.747   5.542
 4438SOL    HW114213   3.910   0.792   5.591
 4438SOL    HW214214   3.754   0.806   5.544
 4439SOL     OW14215   2.831   6.242   2.763
 4439SOL    HW114216   2.816   6.158   2.711
 4439SOL    HW214217   2.928   6.256   2.778
 4440SOL     OW14218   1.422   4.574   6.756
 4440SOL    HW114219   1.413   4.606   6.662
 4440SOL    HW214220   1.375   4.637   6.818
 4441SOL     OW14221   0.070   1.987   1.189
 4441SOL    HW114222   0.063   2.086   1.196
 4441SOL    HW214223   0.016   1.944   1.262
 4442SOL     OW14224   2.274   5.334   6.851
 4442SOL    HW114225   2.242   5.329   6.756
 4442SOL    HW214226   2.374   5.333   6.853
 4443SOL     OW14227   0.829   5.746   5.840
 4443SOL    HW114228   0.854   5.657   5.879
 4443SOL    HW214229   0.890   5.817   5.875
 4444SOL     OW14230   5.969   5.240   0.076
 4444SOL    HW114231   6.068   5.246   0.084
 4444SOL    HW214232   5.945   5.168   0.011
 4445SOL     OW14233   0.910   4.583   0.608
 4445SOL    HW114234   0.935   4.515   0.677
 4445SOL    HW214235   0.885   4.537   0.523
 4446SOL     OW14236   4.561   1.896   1.329
 4446SOL    HW114237   4.612   1.915   1.245
 4446SOL    HW214238   4.533   1.800   1.331
 4447SOL     OW14239   4.285   5.665   5.408
 4447SOL    HW114240   4.326   5.605   5.339
 4447SOL    HW214241   4.187   5.646   5.414
 4448SOL     OW14242   3.752   6.530   1.390
 4448SOL    HW114243   3.712   6.593   1.457
 4448SOL    HW214244   3.851   6.533   1.398
 4449SOL     OW14245   3.413   1.668   5.709
 4449SOL    HW114246   3.318   1.654   5.736
 4449SOL    HW214247   3.432   1.766   5.704
 4450SOL     OW14248   2.655   6.894   0.250
 4450SOL    HW114249   2.635   6.954   0.327
 4450SOL    HW214250   2.632   6.942   0.164
 4451SOL     OW14251   4.699   5.400   3.337
 4451SOL    HW114252   4.732   5.389   3.243
 4451SOL    HW214253   4.707   5.312   3.385
 4452SOL     OW14254   4.849   6.047   4.122
 4452SOL    HW114255   4.911   6.103   4.176
 4452SOL    HW214256   4.770   6.102   4.094
 4453SOL     OW14257   6.755   4.542   0.434
 4453SOL    HW114258   6.680   4.505   0.489
 4453SOL    HW214259   6.842   4.503   0.466
 4454SOL     OW14260   1.378   3.045   0.592
 4454SOL    HW114261   1.353   3.116   0.526
 4454SOL    HW214262   1.304   2.978   0.599
 4455SOL     OW14263   1.046   0.211   5.000
 4455SOL    HW114264   0.960   0.226   4.952
 4455SOL    HW214265   1.107   0.156   4.942
 4456SOL     OW14266   2.413   6.831   4.575
 4456SOL    HW114267   2.318   6.800   4.588
 4456SOL    HW214268   2.413   6.930   4.557
 4457SOL     OW14269   1.807   1.487   4.048
 4457SOL    HW114270   1.833   1.573   4.093
 4457SOL    HW214271   1.883   1.422   4.055
 4458SOL     OW14272   1.080   3.467   6.790
 4458SOL    HW114273   1.065   3.561   6.758
 4458SOL    HW214274   0.991   3.421   6.800
 4459SOL     OW14275   0.516   2.948   3.158
 4459SOL    HW114276   0.458   2.895   3.096
 4459SOL    HW214277   0.464   2.971   3.240
 4460SOL     OW14278   6.938   2.417   4.954
 4460SOL    HW114279   0.010   2.445   4.931
 4460SOL    HW214280   6.882   2.416   4.871
 4461SOL     OW14281   1.806   0.493   0.667
 4461SOL    HW114282   1.862   0.440   0.730
 4461SOL    HW214283   1.858   0.572   0.635
 4462SOL     OW14284   6.630   3.874   3.289
 4462SOL    HW114285   6.571   3.954   3.294
 4462SOL    HW214286   6.726   3.902   3.290
 4463SOL     OW14287   5.672   1.763   0.420
 4463SOL    HW114288   5.706   1.763   0.326
 4463SOL    HW214289   5.720   1.693   0.473
 4464SOL     OW14290   0.198   4.236   1.346
 4464SOL    HW114291   0.174   4.332   1.362
 4464SOL    HW214292   0.115   4.185   1.324
 4465SOL     OW14293   3.562   5.605   1.666
 4465SOL    HW114294   3.507   5.666   1.608
 4465SOL    HW214295   3.659   5.618   1.646
 4466SOL     OW14296   1.084   2.241   1.956
 4466SOL    HW114297   1.053   2.237   1.861
 4466SOL    HW214298   1.182   2.221   1.961
 4467SOL     OW14299   5.176   5.125   2.622
 4467SOL    HW114300   5.229   5.192   2.571
 4467SOL    HW214301   5.115   5.172   2.686
 4468SOL     OW14302   1.883   3.206   1.375
 4468SOL    HW114303   1.909   3.191   1.471
 4468SOL    HW214304   1.831   3.291   1.368
 4469SOL     OW14305   2.556   5.904   1.582
 4469SOL    HW114306   2.462   5.878   1.605
 4469SOL    HW214307   2.603   5.826   1.541
 4470SOL     OW14308   1.558   0.141   3.070
 4470SOL    HW114309   1.644   0.109   3.109
 4470SOL    HW214310   1.530   0.079   2.996
 4471SOL     OW14311   1.150   6.904   6.648
 4471SOL    HW114312   1.066   6.925   6.698
 4471SOL    HW214313   1.196   6.989   6.624
 4472SOL     OW14314   1.878   2.653   0.802
 4472SOL    HW114315   1.892   2.608   0.713
 4472SOL    HW214316   1.828   2.591   0.863
 4473SOL     OW14317   0.379   3.244   4.386
 4473SOL    HW114318   0.454   3.181   4.369
 4473SOL    HW214319   0.416   3.335   4.408
 4474SOL     OW14320   3.294   5.756   0.837
 4474SOL    HW114321   3.361   5.700   0.788
 4474SOL    HW214322   3.230   5.697   0.886
 4475SOL     OW14323   0.969   3.671   1.023
 4475SOL    HW114324   0.942   3.578   0.998
 4475SOL    HW214325   1.064   3.686   0.997
 4476SOL     OW14326   5.442   1.068   4.336
 4476SOL    HW114327   5.361   1.116   4.304
 4476SOL    HW214328   5.481   1.014   4.261
 4477SOL     OW14329   0.697   0.678   4.934
 4477SOL    HW114330   0.658   0.693   4.844
 4477SOL    HW214331   0.717   0.766   4.977
 4478SOL     OW14332   1.456   7.010   1.516
 4478SOL    HW114333   1.503   0.072   1.485
 4478SOL    HW214334   1.524   6.941   1.541
 4479SOL     OW14335   1.691   2.154   6.932
 4479SOL    HW114336   1.787   2.175   6.950
 4479SOL    HW214337   1.684   2.105   6.845
 4480SOL     OW14338   1.027   6.810   3.585
 4480SOL    HW114339   0.960   6.875   3.623
 4480SOL    HW214340   1.117   6.853   3.583
 4481SOL     OW14341   1.878   3.791   5.987
 4481SOL    HW114342   1.834   3.880   5.979
 4481SOL    HW214343   1.854   3.749   6.075
 4482SOL     OW14344   2.066   6.889   1.657
 4482SOL    HW114345   2.013   6.931   1.584
 4482SOL    HW214346   2.006   6.861   1.732
 4483SOL     OW14347   1.349   3.737   0.709
 4483SOL    HW114348   1.300   3.650   0.707
 4483SOL    HW214349   1.442   3.724   0.675
 4484SOL     OW14350   2.460   1.150   7.001
 4484SOL    HW114351   2.424   1.124   6.912
 4484SOL    HW214352   2.432   1.083   0.049
 4485SOL     OW14353   6.474   2.515   5.335
 4485SOL    HW114354   6.552   2.533   5.394
 4485SOL    HW214355   6.475   2.577   5.257
 4486SOL     OW14356   4.630   4.924   4.241
 4486SOL    HW114357   4.685   4.996   4.199
 4486SOL    HW214358   4.676   4.836   4.228
 4487SOL     OW14359   0.556   2.747   6.515
 4487SOL    HW114360   0.571   2.715   6.608
 4487SOL    HW214361   0.478   2.810   6.513
 4488SOL     OW14362   6.867   4.047   3.286
 4488SOL    HW114363   6.805   4.069   3.362
 4488SOL    HW214364   6.874   4.126   3.225
 4489SOL     OW14365   3.855   6.428   5.681
 4489SOL    HW114366   3.831   6.440   5.778
 4489SOL    HW214367   3.886   6.334   5.666
 4490SOL     OW14368   5.423   1.126   1.765
 4490SOL    HW114369   5.430   1.205   1.826
 4490SOL    HW214370   5.343   1.137   1.706
 4491SOL     OW14371   0.781   2.972   3.077
 4491SOL    HW114372   0.687   2.973   3.110
 4491SOL    HW214373   0.843   3.002   3.149
 4492SOL     OW14374   0.100   0.760   2.383
 4492SOL    HW114375   0.029   0.801   2.441
 4492SOL    HW214376   0.116   0.818   2.303
 4493SOL     OW14377   5.518   1.577   6.099
 4493SOL    HW114378   5.500   1.651   6.164
 4493SOL    HW214379   5.471   1.494   6.128
 4494SOL     OW14380   1.293   0.217   1.628
 4494SOL    HW114381   1.317   0.250   1.719
 4494SOL    HW214382   1.347   0.135   1.607
 4495SOL     OW14383   4.350   6.685   1.039
 4495SOL    HW114384   4.275   6.642   0.989
 4495SOL    HW214385   4.427   6.702   0.977
 4496SOL     OW14386   2.789   6.313   5.557
 4496SOL    HW114387   2.809   6.215   5.562
 4496SOL    HW214388   2.799   6.354   5.648
 4497SOL     OW14389   3.711   1.038   6.149
 4497SOL    HW114390   3.724   0.988   6.063
 4497SOL    HW214391   3.647   1.114   6.134
 4498SOL     OW14392   0.567   4.663   4.379
 4498SOL    HW114393   0.492   4.618   4.330
 4498SOL    HW214394   0.638   4.690   4.314
 4499SOL     OW14395   5.674   1.350   2.359
 4499SOL    HW114396   5.644   1.274   2.417
 4499SOL    HW214397   5.601   1.419   2.357
 4500SOL     OW14398   4.078   5.986   0.430
 4500SOL    HW114399   4.120   5.973   0.340
 4500SOL    HW214400   4.116   5.919   0.494
 4501SOL     OW14401   5.992   0.485   2.592
 4501SOL    HW114402   5.975   0.395   2.633
 4501SOL    HW214403   6.091   0.499   2.583
 4502SOL     OW14404   0.170   3.750   6.614
 4502SOL    HW114405   0.242   3.764   6.546
 4502SOL    HW214406   0.082   3.780   6.576
 4503SOL     OW14407   3.446   1.810   2.845
 4503SOL    HW114408   3.502   1.734   2.812
 4503SOL    HW214409   3.504   1.888   2.866
 4504SOL     OW14410   0.628   2.447   2.471
 4504SOL    HW114411   0.566   2.401   2.535
 4504SOL    HW214412   0.660   2.532   2.511
 4505SOL     OW14413   5.580   3.470   3.615
 4505SOL    HW114414   5.673   3.501   3.633
 4505SOL    HW214415   5.520   3.500   3.690
 4506SOL     OW14416   5.183   3.085   6.171
 4506SOL    HW114417   5.098   3.045   6.136
 4506SOL    HW214418   5.198   3.053   6.264
 4507SOL     OW14419   6.421   2.125   3.481
 4507SOL    HW114420   6.357   2.110   3.556
 4507SOL    HW214421   6.412   2.051   3.414
 4508SOL     OW14422   0.008   4.514   0.548
 4508SOL    HW114423   0.062   4.591   0.514
 4508SOL    HW214424   0.058   4.429   0.531
 4509SOL     OW14425   5.016   2.414   2.281
 4509SOL    HW114426   5.019   2.315   2.292
 4509SOL    HW214427   5.045   2.458   2.366
 4510SOL     OW14428   4.053   1.343   4.790
 4510SOL    HW114429   4.147   1.332   4.757
 4510SOL    HW214430   3.992   1.360   4.713
 4511SOL     OW14431   6.820   5.136   6.613
 4511SOL    HW114432   6.811   5.191   6.529
 4511SOL    HW214433   6.894   5.070   6.602
 4512SOL     OW14434   3.071   2.960   5.540
 4512SOL    HW114435   3.025   3.041   5.575
 4512SOL    HW214436   3.068   2.960   5.440
 4513SOL     OW14437   0.292   6.797   0.496
 4513SOL    HW114438   0.294   6.797   0.596
 4513SOL    HW214439   0.227   6.865   0.464
 4514SOL     OW14440   4.244   4.914   0.008
 4514SOL    HW114441   4.211   5.007   7.012
 4514SOL    HW214442   4.307   4.915   0.086
 4515SOL     OW14443   3.682   0.831   6.563
 4515SOL    HW114444   3.735   0.761   6.610
 4515SOL    HW214445   3.670   0.804   6.467
 4516SOL     OW14446   3.007   2.507   5.662
 4516SOL    HW114447   3.055   2.474   5.581
 4516SOL    HW214448   2.959   2.592   5.640
 4517SOL     OW14449   4.168   1.069   5.283
 4517SOL    HW114450   4.191   0.990   5.226
 4517SOL    HW214451   4.112   1.040   5.360
 4518SOL     OW14452   0.298   6.427   0.681
 4518SOL    HW114453   0.374   6.409   0.618
 4518SOL    HW214454   0.332   6.480   0.758
 4519SOL     OW14455   4.780   6.802   0.078
 4519SOL    HW114456   4.805   6.833   0.169
 4519SOL    HW214457   4.800   6.704   0.069
 4520SOL     OW14458   4.713   5.277   5.259
 4520SOL    HW114459   4.721   5.368   5.301
 4520SOL    HW214460   4.803   5.249   5.226
 4521SOL     OW14461   4.150   2.300   3.982
 4521SOL    HW114462   4.189   2.268   4.069
 4521SOL    HW214463   4.200   2.380   3.949
 4522SOL     OW14464   5.687   3.854   3.721
 4522SOL    HW114465   5.676   3.849   3.621
 4522SOL    HW214466   5.598   3.868   3.764
 4523SOL     OW14467   6.788   2.772   5.896
 4523SOL    HW114468   6.861   2.840   5.893
 4523SOL    HW214469   6.756   2.761   5.990
 4524SOL     OW14470   1.822   3.765   2.233
 4524SOL    HW114471   1.914   3.734   2.209
 4524SOL    HW214472   1.826   3.821   2.316
 4525SOL     OW14473   3.665   2.538   5.674
 4525SOL    HW114474   3.620   2.503   5.592
 4525SOL    HW214475   3.734   2.605   5.647
 4526SOL     OW14476   1.153   0.238   5.244
 4526SOL    HW114477   1.189   0.146   5.257
 4526SOL    HW214478   1.126   0.249   5.148
 4527SOL     OW14479   0.540   1.427   2.686
 4527SOL    HW114480   0.590   1.472   2.613
 4527SOL    HW214481   0.512   1.495   2.754
 4528SOL     OW14482   5.091   0.526   4.972
 4528SOL    HW114483   5.174   0.506   4.920
 4528SOL    HW214484   5.099   0.488   5.063
 4529SOL     OW14485   2.097   1.957   3.860
 4529SOL    HW114486   2.162   1.919   3.926
 4529SOL    HW214487   2.142   2.027   3.805
 4530SOL     OW14488   4.137   6.043   6.464
 4530SOL    HW114489   4.138   6.089   6.375
 4530SOL    HW214490   4.226   6.052   6.507
 4531SOL     OW14491   1.590   6.367   5.096
 4531SOL    HW114492   1.507   6.423   5.102
 4531SOL    HW214493   1.624   6.348   5.188
 4532SOL     OW14494   6.540   1.370   2.678
 4532SOL    HW114495   6.562   1.409   2.589
 4532SOL    HW214496   6.584   1.280   2.686
 4533SOL     OW14497   2.903   0.470   1.462
 4533SOL    HW114498   2.969   0.438   1.530
 4533SOL    HW214499   2.935   0.556   1.422
 4534SOL     OW14500   4.829   1.745   4.263
 4534SOL    HW114501   4.896   1.707   4.199
 4534SOL    HW214502   4.831   1.845   4.259
 4535SOL     OW14503   1.631   0.362   0.026
 4535SOL    HW114504   1.714   0.368   0.081
 4535SOL    HW214505   1.604   0.266   0.017
 4536SOL     OW14506   3.508   0.162   6.082
 4536SOL    HW114507   3.441   0.151   6.156
 4536SOL    HW214508   3.555   0.249   6.092
 4537SOL     OW14509   2.923   3.250   3.381
 4537SOL    HW114510   2.960   3.171   3.430
 4537SOL    HW214511   2.939   3.332   3.435
 4538SOL     OW14512   0.326   2.252   0.810
 4538SOL    HW114513   0.242   2.293   0.843
 4538SOL    HW214514   0.354   2.296   0.724
 4539SOL     OW14515   1.744   5.647   5.209
 4539SOL    HW114516   1.765   5.554   5.181
 4539SOL    HW214517   1.674   5.685   5.148
 4540SOL     OW14518   1.366   2.143   0.497
 4540SOL    HW114519   1.423   2.077   0.448
 4540SOL    HW214520   1.274   2.145   0.456
 4541SOL     OW14521   4.130   3.235   6.671
 4541SOL    HW114522   4.069   3.194   6.739
 4541SOL    HW214523   4.100   3.209   6.580
 4542SOL     OW14524   0.307   1.429   6.242
 4542SOL    HW114525   0.330   1.394   6.332
 4542SOL    HW214526   0.208   1.420   6.227
 4543SOL     OW14527   3.623   1.985   0.820
 4543SOL    HW114528   3.605   2.082   0.805
 4543SOL    HW214529   3.619   1.937   0.732
 4544SOL     OW14530   4.606   6.843   0.746
 4544SOL    HW114531   4.578   6.759   0.794
 4544SOL    HW214532   4.538   6.914   0.760
 4545SOL     OW14533   2.219   3.009   5.560
 4545SOL    HW114534   2.230   3.003   5.659
 4545SOL    HW214535   2.294   3.062   5.521
 4546SOL     OW14536   3.335   0.577   5.760
 4546SOL    HW114537   3.238   0.591   5.782
 4546SOL    HW214538   3.346   0.491   5.710
 4547SOL     OW14539   0.441   0.302   6.985
 4547SOL    HW114540   0.512   0.370   7.004
 4547SOL    HW214541   0.412   0.259   0.049
 4548SOL     OW14542   3.215   1.766   1.890
 4548SOL    HW114543   3.243   1.789   1.983
 4548SOL    HW214544   3.291   1.781   1.827
 4549SOL     OW14545   0.679   3.900   4.040
 4549SOL    HW114546   0.610   3.847   4.090
 4549SOL    HW214547   0.743   3.838   3.995
 4550SOL     OW14548   2.228   5.346   4.678
 4550SOL    HW114549   2.179   5.269   4.638
 4550SOL    HW214550   2.178   5.380   4.758
 4551SOL     OW14551   2.611   2.459   5.635
 4551SOL    HW114552   2.666   2.513   5.572
 4551SOL    HW214553   2.670   2.393   5.683
 4552SOL     OW14554   4.481   1.207   0.625
 4552SOL    HW114555   4.487   1.295   0.578
 4552SOL    HW214556   4.572   1.178   0.653
 4553SOL     OW14557   0.232   6.005   0.214
 4553SOL    HW114558   0.314   6.062   0.209
 4553SOL    HW214559   0.256   5.910   0.193
 4554SOL     OW14560   5.803   6.933   2.813
 4554SOL    HW114561   5.901   6.935   2.833
 4554SOL    HW214562   5.756   6.882   2.886
 4555SOL     OW14563   0.752   0.655   1.379
 4555SOL    HW114564   0.826   0.626   1.319
 4555SOL    HW214565   0.769   0.750   1.408
 4556SOL     OW14566   5.202   4.769   4.137
 4556SOL    HW114567   5.248   4.800   4.055
 4556SOL    HW214568   5.180   4.847   4.195
 4557SOL     OW14569   0.286   4.725   4.038
 4557SOL    HW114570   0.311   4.797   4.103
 4557SOL    HW214571   0.235   4.764   3.962
 4558SOL     OW14572   1.386   4.223   4.846
 4558SOL    HW114573   1.357   4.128   4.855
 4558SOL    HW214574   1.339   4.280   4.914
 4559SOL     OW14575   6.998   3.033   3.983
 4559SOL    HW114576   0.045   3.087   4.032
 4559SOL    HW214577   6.917   3.022   4.041
 4560SOL     OW14578   5.447   4.636   2.899
 4560SOL    HW114579   5.425   4.701   2.972
 4560SOL    HW214580   5.547   4.629   2.891
 4561SOL     OW14581   4.944   2.571   4.192
 4561SOL    HW114582   4.934   2.571   4.292
 4561SOL    HW214583   4.979   2.482   4.163
 4562SOL     OW14584   3.498   1.063   0.240
 4562SOL    HW114585   3.423   1.115   0.282
 4562SOL    HW214586   3.559   1.126   0.193
 4563SOL     OW14587   0.736   4.598   2.084
 4563SOL    HW114588   0.832   4.625   2.080
 4563SOL    HW214589   0.729   4.499   2.095
 4564SOL     OW14590   2.233   4.047   2.771
 4564SOL    HW114591   2.224   4.019   2.867
 4564SOL    HW214592   2.254   4.145   2.767
 4565SOL     OW14593   1.716   6.796   5.724
 4565SOL    HW114594   1.719   6.868   5.793
 4565SOL    HW214595   1.756   6.712   5.761
 4566SOL     OW14596   6.168   4.387   3.170
 4566SOL    HW114597   6.213   4.324   3.107
 4566SOL    HW214598   6.071   4.367   3.174
 4567SOL     OW14599   0.286   0.057   6.655
 4567SOL    HW114600   0.206   0.022   6.705
 4567SOL    HW214601   0.261   0.071   6.559
 4568SOL     OW14602   1.355   5.100   3.808
 4568SOL    HW114603   1.407   5.184   3.791
 4568SOL    HW214604   1.398   5.023   3.762
 4569SOL     OW14605   2.207   1.664   3.074
 4569SOL    HW114606   2.304   1.648   3.091
 4569SOL    HW214607   2.180   1.753   3.110
 4570SOL     OW14608   5.353   5.322   1.508
 4570SOL    HW114609   5.298   5.389   1.458
 4570SOL    HW214610   5.374   5.245   1.449
 4571SOL     OW14611   2.436   3.523   6.186
 4571SOL    HW114612   2.387   3.593   6.135
 4571SOL    HW214613   2.527   3.557   6.210
 4572SOL     OW14614   3.403   2.851   2.569
 4572SOL    HW114615   3.309   2.886   2.572
 4572SOL    HW214616   3.438   2.856   2.476
 4573SOL     OW14617   3.219   5.206   0.201
 4573SOL    HW114618   3.122   5.223   0.190
 4573SOL    HW214619   3.234   5.110   0.225
 4574SOL     OW14620   4.846   0.942   1.999
 4574SOL    HW114621   4.842   0.892   1.912
 4574SOL    HW214622   4.941   0.959   2.023
 4575SOL     OW14623   0.585   0.306   5.220
 4575SOL    HW114624   0.562   0.395   5.181
 4575SOL    HW214625   0.684   0.299   5.233
 4576SOL     OW14626   3.348   4.343   6.752
 4576SOL    HW114627   3.441   4.373   6.734
 4576SOL    HW214628   3.323   4.271   6.688
 4577SOL     OW14629   0.962   1.822   2.232
 4577SOL    HW114630   0.917   1.733   2.218
 4577SOL    HW214631   0.996   1.828   2.325
 4578SOL     OW14632   1.566   1.408   2.477
 4578SOL    HW114633   1.572   1.502   2.443
 4578SOL    HW214634   1.656   1.364   2.472
 4579SOL     OW14635   4.683   0.950   3.717
 4579SOL    HW114636   4.636   1.004   3.786
 4579SOL    HW214637   4.778   0.933   3.746
 4580SOL     OW14638   0.370   1.314   0.687
 4580SOL    HW114639   0.334   1.243   0.747
 4580SOL    HW214640   0.301   1.339   0.620
 4581SOL     OW14641   2.623   0.769   0.818
 4581SOL    HW114642   2.693   0.702   0.794
 4581SOL    HW214643   2.651   0.820   0.899
 4582SOL     OW14644   6.851   0.690   3.684
 4582SOL    HW114645   6.842   0.731   3.594
 4582SOL    HW214646   6.773   0.718   3.741
 4583SOL     OW14647   1.928   0.255   6.964
 4583SOL    HW114648   1.997   0.223   0.008
 4583SOL    HW214649   1.867   0.179   6.940
 4584SOL     OW14650   0.371   1.893   4.274
 4584SOL    HW114651   0.396   1.797   4.265
 4584SOL    HW214652   0.450   1.945   4.307
 4585SOL     OW14653   1.170   2.782   3.257
 4585SOL    HW114654   1.231   2.858   3.277
 4585SOL    HW214655   1.155   2.729   3.341
 4586SOL     OW14656   6.097   5.056   6.553
 4586SOL    HW114657   6.170   5.085   6.616
 4586SOL    HW214658   6.115   5.093   6.462
 4587SOL     OW14659   4.090   4.189   5.530
 4587SOL    HW114660   4.123   4.128   5.602
 4587SOL    HW214661   3.990   4.188   5.529
 4588SOL     OW14662   3.106   3.796   6.311
 4588SOL    HW114663   3.050   3.858   6.367
 4588SOL    HW214664   3.068   3.704   6.315
 4589SOL     OW14665   6.049   6.394   2.592
 4589SOL    HW114666   6.070   6.297   2.580
 4589SOL    HW214667   6.084   6.445   2.514
 4590SOL     OW14668   3.847   5.945   1.678
 4590SOL    HW114669   3.846   5.850   1.648
 4590SOL    HW214670   3.906   5.953   1.759
 4591SOL     OW14671   2.363   0.883   5.187
 4591SOL    HW114672   2.367   0.837   5.098
 4591SOL    HW214673   2.327   0.975   5.175
 4592SOL     OW14674   2.381   1.504   4.003
 4592SOL    HW114675   2.297   1.546   3.971
 4592SOL    HW214676   2.409   1.547   4.089
 4593SOL     OW14677   1.274   5.827   4.303
 4593SOL    HW114678   1.301   5.754   4.366
 4593SOL    HW214679   1.337   5.904   4.311
 4594SOL     OW14680   2.437   6.771   3.183
 4594SOL    HW114681   2.439   6.719   3.268
 4594SOL    HW214682   2.346   6.812   3.172
 4595SOL     OW14683   5.708   2.217   6.043
 4595SOL    HW114684   5.618   2.178   6.024
 4595SOL    HW214685   5.747   2.254   5.959
 4596SOL     OW14686   1.177   0.463   2.174
 4596SOL    HW114687   1.089   0.445   2.218
 4596SOL    HW214688   1.251   0.429   2.232
 4597SOL     OW14689   2.488   5.807   0.673
 4597SOL    HW114690   2.586   5.794   0.682
 4597SOL    HW214691   2.470   5.886   0.614
 4598SOL     OW14692   0.686   4.285   0.580
 4598SOL    HW114693   0.637   4.199   0.589
 4598SOL    HW214694   0.749   4.295   0.657
 4599SOL     OW14695   3.813   6.845   1.932
 4599SOL    HW114696   3.838   6.873   1.839
 4599SOL    HW214697   3.896   6.828   1.985
 4600SOL     OW14698   0.589   6.909   6.486
 4600SOL    HW114699   0.548   6.824   6.520
 4600SOL    HW214700   0.521   6.961   6.435
 4601SOL     OW14701   1.742   0.464   5.504
 4601SOL    HW114702   1.658   0.504   5.540
 4601SOL    HW214703   1.734   0.453   5.405
 4602SOL     OW14704   2.819   1.847   5.886
 4602SOL    HW114705   2.808   1.888   5.796
 4602SOL    HW214706   2.778   1.756   5.887
 4603SOL     OW14707   3.957   6.790   1.120
 4603SOL    HW114708   3.969   6.882   1.082
 4603SOL    HW214709   4.041   6.764   1.169
 4604SOL     OW14710   6.892   6.861   4.221
 4604SOL    HW114711   6.878   6.793   4.293
 4604SOL    HW214712   6.991   6.874   4.207
 4605SOL     OW14713   3.487   0.295   1.567
 4605SOL    HW114714   3.501   0.233   1.490
 4605SOL    HW214715   3.415   0.360   1.545
 4606SOL     OW14716   0.292   6.212   4.903
 4606SOL    HW114717   0.309   6.276   4.978
 4606SOL    HW214718   0.217   6.246   4.847
 4607SOL     OW14719   1.890   1.750   0.893
 4607SOL    HW114720   1.817   1.687   0.866
 4607SOL    HW214721   1.851   1.823   0.950
 4608SOL     OW14722   0.364   3.139   4.957
 4608SOL    HW114723   0.295   3.165   5.024
 4608SOL    HW214724   0.371   3.039   4.953
 4609SOL     OW14725   4.960   5.300   0.142
 4609SOL    HW114726   4.953   5.249   0.056
 4609SOL    HW214727   5.056   5.313   0.165
 4610SOL     OW14728   5.322   5.047   0.384
 4610SOL    HW114729   5.300   4.952   0.405
 4610SOL    HW214730   5.302   5.066   0.288
 4611SOL     OW14731   0.017   1.327   6.580
 4611SOL    HW114732   0.010   1.406   6.519
 4611SOL    HW214733   0.029   1.359   6.674
 4612SOL     OW14734   2.081   1.464   2.122
 4612SOL    HW114735   1.982   1.467   2.107
 4612SOL    HW214736   2.104   1.389   2.184
 4613SOL     OW14737   1.366   4.756   1.710
 4613SOL    HW114738   1.389   4.742   1.614
 4613SOL    HW214739   1.307   4.836   1.719
 4614SOL     OW14740   6.773   4.309   4.083
 4614SOL    HW114741   6.765   4.409   4.076
 4614SOL    HW214742   6.787   4.271   3.992
 4615SOL     OW14743   1.711   4.168   6.526
 4615SOL    HW114744   1.710   4.255   6.478
 4615SOL    HW214745   1.652   4.103   6.480
 4616SOL     OW14746   0.890   3.327   6.159
 4616SOL    HW114747   0.856   3.395   6.093
 4616SOL    HW214748   0.819   3.308   6.226
 4617SOL     OW14749   0.278   2.653   3.765
 4617SOL    HW114750   0.280   2.570   3.822
 4617SOL    HW214751   0.183   2.674   3.741
 4618SOL     OW14752   2.087   4.036   5.743
 4618SOL    HW114753   2.131   4.079   5.821
 4618SOL    HW214754   2.005   3.987   5.773
 4619SOL     OW14755   4.756   6.376   6.367
 4619SOL    HW114756   4.745   6.431   6.284
 4619SOL    HW214757   4.672   6.323   6.384
 4620SOL     OW14758   0.425   4.970   1.962
 4620SOL    HW114759   0.355   4.927   2.019
 4620SOL    HW214760   0.423   5.069   1.976
 4621SOL     OW14761   3.180   0.254   2.811
 4621SOL    HW114762   3.196   0.155   2.818
 4621SOL    HW214763   3.266   0.300   2.788
 4622SOL     OW14764   5.711   7.016   0.275
 4622SOL    HW114765   5.692   0.053   0.354
 4622SOL    HW214766   5.806   0.007   0.247
 4623SOL     OW14767   3.205   4.865   2.221
 4623SOL    HW114768   3.271   4.855   2.146
 4623SOL    HW214769   3.114   4.839   2.189
 4624SOL     OW14770   4.327   1.441   1.900
 4624SOL    HW114771   4.365   1.436   1.992
 4624SOL    HW214772   4.283   1.530   1.887
 4625SOL     OW14773   1.689   5.793   1.919
 4625SOL    HW114774   1.708   5.889   1.902
 4625SOL    HW214775   1.735   5.737   1.851
 4626SOL     OW14776   3.823   2.968   1.988
 4626SOL    HW114777   3.832   2.884   2.042
 4626SOL    HW214778   3.826   3.047   2.049
 4627SOL     OW14779   5.540   0.027   5.407
 4627SOL    HW114780   5.613   0.083   5.367
 4627SOL    HW214781   5.512   6.978   5.341
 4628SOL     OW14782   5.492   4.698   3.541
 4628SOL    HW114783   5.564   4.630   3.557
 4628SOL    HW214784   5.403   4.652   3.537
 4629SOL     OW14785   2.150   5.625   0.198
 4629SOL    HW114786   2.223   5.563   0.171
 4629SOL    HW214787   2.150   5.635   0.298
 4630SOL     OW14788   2.174   3.637   1.437
 4630SOL    HW114789   2.211   3.705   1.500
 4630SOL    HW214790   2.242   3.565   1.421
 4631SOL     OW14791   6.743   0.821   2.670
 4631SOL    HW114792   6.791   0.740   2.702
 4631SOL    HW214793   6.650   0.796   2.643
 4632SOL     OW14794   3.255   5.150   3.018
 4632SOL    HW114795   3.267   5.053   2.996
 4632SOL    HW214796   3.162   5.166   3.052
 4633SOL     OW14797   5.075   2.260   4.806
 4633SOL    HW114798   5.156   2.265   4.748
 4633SOL    HW214799   4.997   2.226   4.753
 4634SOL     OW14800   4.023   3.509   5.066
 4634SOL    HW114801   4.065   3.588   5.111
 4634SOL    HW214802   3.967   3.459   5.132
 4635SOL     OW14803   4.419   6.122   1.922
 4635SOL    HW114804   4.363   6.134   1.840
 4635SOL    HW214805   4.359   6.113   2.001
 4636SOL     OW14806   1.654   5.371   6.827
 4636SOL    HW114807   1.591   5.420   6.766
 4636SOL    HW214808   1.636   5.273   6.820
 4637SOL     OW14809   3.216   1.822   3.424
 4637SOL    HW114810   3.212   1.846   3.326
 4637SOL    HW214811   3.308   1.788   3.445
 4638SOL     OW14812   4.609   4.700   0.169
 4638SOL    HW114813   4.539   4.700   0.097
 4638SOL    HW214814   4.699   4.692   0.128
 4639SOL     OW14815   3.903   2.306   1.758
 4639SOL    HW114816   3.812   2.298   1.799
 4639SOL    HW214817   3.896   2.354   1.671
 4640SOL     OW14818   6.116   3.832   0.139
 4640SOL    HW114819   6.040   3.768   0.131
 4640SOL    HW214820   6.201   3.786   0.116
 4641SOL     OW14821   1.866   5.800   4.464
 4641SOL    HW114822   1.925   5.728   4.428
 4641SOL    HW214823   1.775   5.792   4.424
 4642SOL     OW14824   6.579   1.163   4.804
 4642SOL    HW114825   6.563   1.213   4.889
 4642SOL    HW214826   6.611   1.227   4.734
 4643SOL     OW14827   0.745   1.997   0.108
 4643SOL    HW114828   0.699   1.921   0.063
 4643SOL    HW214829   0.693   2.081   0.092
 4644SOL     OW14830   1.799   0.222   0.299
 4644SOL    HW114831   1.752   0.277   0.368
 4644SOL    HW214832   1.895   0.251   0.292
 4645SOL     OW14833   6.468   1.315   5.031
 4645SOL    HW114834   6.526   1.333   5.111
 4645SOL    HW214835   6.436   1.402   4.993
 4646SOL     OW14836   2.376   4.373   3.947
 4646SOL    HW114837   2.283   4.401   3.922
 4646SOL    HW214838   2.376   4.276   3.973
 4647SOL     OW14839   1.639   6.837   1.582
 4647SOL    HW114840   1.600   6.761   1.634
 4647SOL    HW214841   1.704   6.801   1.516
 4648SOL     OW14842   2.661   1.098   4.968
 4648SOL    HW114843   2.562   1.101   4.952
 4648SOL    HW214844   2.679   1.093   5.066
 4649SOL     OW14845   5.944   1.396   0.463
 4649SOL    HW114846   5.848   1.377   0.446
 4649SOL    HW214847   5.994   1.310   0.473
 4650SOL     OW14848   5.090   6.141   0.762
 4650SOL    HW114849   5.148   6.173   0.837
 4650SOL    HW214850   5.088   6.042   0.762
 4651SOL     OW14851   0.127   3.443   5.973
 4651SOL    HW114852   0.041   3.398   5.948
 4651SOL    HW214853   0.203   3.399   5.925
 4652SOL     OW14854   0.301   6.396   5.112
 4652SOL    HW114855   0.293   6.398   5.212
 4652SOL    HW214856   0.263   6.480   5.074
 4653SOL     OW14857   6.722   5.811   1.201
 4653SOL    HW114858   6.764   5.739   1.146
 4653SOL    HW214859   6.625   5.789   1.217
 4654SOL     OW14860   0.611   0.236   5.904
 4654SOL    HW114861   0.630   0.165   5.837
 4654SOL    HW214862   0.579   0.319   5.858
 4655SOL     OW14863   5.404   3.290   2.207
 4655SOL    HW114864   5.361   3.246   2.285
 4655SOL    HW214865   5.358   3.262   2.123
 4656SOL     OW14866   6.993   0.917   2.160
 4656SOL    HW114867   7.001   0.986   2.233
 4656SOL    HW214868   6.898   0.889   2.151
 4657SOL     OW14869   3.603   1.236   3.129
 4657SOL    HW114870   3.524   1.275   3.176
 4657SOL    HW214871   3.661   1.310   3.095
 4658SOL     OW14872   1.214   2.170   6.427
 4658SOL    HW114873   1.256   2.141   6.513
 4658SOL    HW214874   1.132   2.115   6.410
 4659SOL     OW14875   2.235   4.369   0.513
 4659SOL    HW114876   2.167   4.442   0.519
 4659SOL    HW214877   2.195   4.288   0.471
 4660SOL     OW14878   1.100   5.225   3.530
 4660SOL    HW114879   1.148   5.165   3.594
 4660SOL    HW214880   1.165   5.290   3.491
 4661SOL     OW14881   0.935   1.589   6.031
 4661SOL    HW114882   0.897   1.673   5.993
 4661SOL    HW214883   1.029   1.576   5.999
 4662SOL     OW14884   1.913   0.190   5.614
 4662SOL    HW114885   1.987   0.165   5.552
 4662SOL    HW214886   1.951   0.231   5.697
 4663SOL     OW14887   1.357   0.145   0.133
 4663SOL    HW114888   1.450   0.151   0.098
 4663SOL    HW214889   1.354   0.181   0.227
 4664SOL     OW14890   6.017   0.060   6.098
 4664SOL    HW114891   5.936   0.091   6.049
 4664SOL    HW214892   6.018   6.981   6.099
 4665SOL     OW14893   0.494   0.465   3.446
 4665SOL    HW114894   0.432   0.480   3.523
 4665SOL    HW214895   0.573   0.525   3.454
 4666SOL     OW14896   1.684   2.199   5.555
 4666SOL    HW114897   1.665   2.128   5.623
 4666SOL    HW214898   1.737   2.273   5.597
 4667SOL     OW14899   6.613   3.447   0.878
 4667SOL    HW114900   6.614   3.547   0.877
 4667SOL    HW214901   6.702   3.414   0.908
 4668SOL     OW14902   4.898   2.145   4.632
 4668SOL    HW114903   4.939   2.059   4.601
 4668SOL    HW214904   4.811   2.160   4.585
 4669SOL     OW14905   5.096   0.038   6.272
 4669SOL    HW114906   5.155   0.082   6.203
 4669SOL    HW214907   5.151   7.000   6.330
 4670SOL     OW14908   0.135   3.163   6.798
 4670SOL    HW114909   0.184   3.161   6.885
 4670SOL    HW214910   0.181   3.226   6.736
 4671SOL     OW14911   0.736   3.260   1.700
 4671SOL    HW114912   0.790   3.224   1.776
 4671SOL    HW214913   0.797   3.281   1.623
 4672SOL     OW14914   3.272   4.165   7.012
 4672SOL    HW114915   3.195   4.214   0.032
 4672SOL    HW214916   3.237   4.083   6.966
 4673SOL     OW14917   6.281   0.988   0.665
 4673SOL    HW114918   6.285   1.005   0.764
 4673SOL    HW214919   6.195   0.944   0.642
 4674SOL     OW14920   0.699   2.645   0.726
 4674SOL    HW114921   0.646   2.716   0.772
 4674SOL    HW214922   0.796   2.663   0.736
 4675SOL     OW14923   1.862   5.539   6.756
 4675SOL    HW114924   1.802   5.469   6.795
 4675SOL    HW214925   1.943   5.496   6.716
 4676SOL     OW14926   0.676   6.302   3.888
 4676SOL    HW114927   0.719   6.390   3.868
 4676SOL    HW214928   0.583   6.302   3.852
 4677SOL     OW14929   3.843   0.029   6.899
 4677SOL    HW114930   3.797   7.014   6.980
 4677SOL    HW214931   3.814   0.124   6.884
 4678SOL     OW14932   2.374   4.223   0.039
 4678SOL    HW114933   2.326   4.261   6.981
 4678SOL    HW214934   2.470   4.252   0.037
 4679SOL     OW14935   2.525   6.726   5.825
 4679SOL    HW114936   2.494   6.640   5.785
 4679SOL    HW214937   2.523   6.798   5.755
 4680SOL     OW14938   1.779   4.624   0.234
 4680SOL    HW114939   1.874   4.635   0.203
 4680SOL    HW214940   1.737   4.714   0.242
 4681SOL     OW14941   6.890   5.651   4.614
 4681SOL    HW114942   6.900   5.657   4.515
 4681SOL    HW214943   6.925   5.735   4.656
 4682SOL     OW14944   3.283   6.160   0.787
 4682SOL    HW114945   3.195   6.113   0.779
 4682SOL    HW214946   3.328   6.164   0.697
 4683SOL     OW14947   6.812   4.552   3.047
 4683SOL    HW114948   6.769   4.633   3.088
 4683SOL    HW214949   6.762   4.526   2.965
 4684SOL     OW14950   0.907   1.438   4.985
 4684SOL    HW114951   0.821   1.460   5.030
 4684SOL    HW214952   0.890   1.417   4.888
 4685SOL     OW14953   5.007   4.547   5.114
 4685SOL    HW114954   4.908   4.535   5.118
 4685SOL    HW214955   5.030   4.641   5.140
 4686SOL     OW14956   5.618   5.854   0.155
 4686SOL    HW114957   5.537   5.903   0.123
 4686SOL    HW214958   5.692   5.863   0.087
 4687SOL     OW14959   5.754   6.679   4.395
 4687SOL    HW114960   5.699   6.689   4.312
 4687SOL    HW214961   5.844   6.644   4.371
 4688SOL     OW14962   0.911   2.062   0.612
 4688SOL    HW114963   0.899   2.144   0.667
 4688SOL    HW214964   0.970   2.082   0.534
 4689SOL     OW14965   1.969   5.197   4.745
 4689SOL    HW114966   2.006   5.166   4.658
 4689SOL    HW214967   1.908   5.127   4.783
 4690SOL     OW14968   1.519   1.696   0.361
 4690SOL    HW114969   1.431   1.647   0.363
 4690SOL    HW214970   1.589   1.640   0.406
 4691SOL     OW14971   3.706   4.359   0.202
 4691SOL    HW114972   3.787   4.407   0.235
 4691SOL    HW214973   3.644   4.424   0.158
 4692SOL     OW14974   0.251   6.005   2.775
 4692SOL    HW114975   0.229   5.908   2.783
 4692SOL    HW214976   0.350   6.016   2.759
 4693SOL     OW14977   0.592   1.049   4.050
 4693SOL    HW114978   0.657   1.019   4.119
 4693SOL    HW214979   0.609   0.999   3.965
 4694SOL     OW14980   0.774   1.410   6.279
 4694SOL    HW114981   0.769   1.333   6.216
 4694SOL    HW214982   0.822   1.486   6.235
 4695SOL     OW14983   2.928   3.057   1.683
 4695SOL    HW114984   2.919   3.082   1.780
 4695SOL    HW214985   2.968   2.966   1.676
 4696SOL     OW14986   5.579   3.464   0.019
 4696SOL    HW114987   5.587   3.376   6.994
 4696SOL    HW214988   5.598   3.537   6.975
 4697SOL     OW14989   1.039   5.101   6.856
 4697SOL    HW114990   0.995   5.185   6.825
 4697SOL    HW214991   0.973   5.026   6.856
 4698SOL     OW14992   6.135   3.604   1.966
 4698SOL    HW114993   6.186   3.615   1.880
 4698SOL    HW214994   6.168   3.522   2.013
 4699SOL     OW14995   6.315   6.950   3.200
 4699SOL    HW114996   6.253   0.007   3.197
 4699SOL    HW214997   6.313   6.910   3.292
 4700SOL     OW14998   5.227   6.884   6.936
 4700SOL    HW114999   5.274   6.959   6.982
 4700SOL    HW215000   5.129   6.893   6.950
 4701SOL     OW15001   0.409   0.833   0.715
 4701SOL    HW115002   0.405   0.880   0.627
 4701SOL    HW215003   0.495   0.856   0.761
 4702SOL     OW15004   3.086   3.377   0.045
 4702SOL    HW115005   3.001   3.400   7.019
 4702SOL    HW215006   3.109   3.281   0.028
 4703SOL     OW15007   1.739   0.807   1.291
 4703SOL    HW115008   1.761   0.714   1.262
 4703SOL    HW215009   1.821   0.851   1.327
 4704SOL     OW15010   4.573   0.063   0.136
 4704SOL    HW115011   4.642   0.134   0.149
 4704SOL    HW215012   4.485   0.094   0.172
 4705SOL     OW15013   3.257   3.954   3.962
 4705SOL    HW115014   3.324   4.023   3.988
 4705SOL    HW215015   3.183   3.953   4.029
 4706SOL     OW15016   4.822   5.412   1.062
 4706SOL    HW115017   4.756   5.452   0.999
 4706SOL    HW215018   4.780   5.334   1.109
 4707SOL     OW15019   3.357   6.172   1.348
 4707SOL    HW115020   3.434   6.207   1.401
 4707SOL    HW215021   3.360   6.211   1.256
 4708SOL     OW15022   1.609   2.773   2.866
 4708SOL    HW115023   1.618   2.780   2.767
 4708SOL    HW215024   1.512   2.769   2.890
 4709SOL     OW15025   3.139   3.860   0.070
 4709SOL    HW115026   3.236   3.852   0.090
 4709SOL    HW215027   3.104   3.946   0.108
 4710SOL     OW15028   5.071   2.499   1.178
 4710SOL    HW115029   4.999   2.452   1.228
 4710SOL    HW215030   5.160   2.463   1.206
 4711SOL     OW15031   3.143   6.620   3.130
 4711SOL    HW115032   3.158   6.598   3.226
 4711SOL    HW215033   3.047   6.646   3.117
 4712SOL     OW15034   1.731   4.131   0.377
 4712SOL    HW115035   1.710   4.115   0.473
 4712SOL    HW215036   1.700   4.223   0.351
 4713SOL     OW15037   2.556   5.965   0.974
 4713SOL    HW115038   2.601   5.961   1.063
 4713SOL    HW215039   2.457   5.972   0.987
 4714SOL     OW15040   3.151   1.883   0.735
 4714SOL    HW115041   3.062   1.889   0.690
 4714SOL    HW215042   3.224   1.895   0.668
 4715SOL     OW15043   5.583   4.285   4.733
 4715SOL    HW115044   5.521   4.241   4.797
 4715SOL    HW215045   5.532   4.321   4.655
 4716SOL     OW15046   2.923   5.106   0.634
 4716SOL    HW115047   3.002   5.050   0.657
 4716SOL    HW215048   2.952   5.199   0.613
 4717SOL     OW15049   1.632   5.653   4.401
 4717SOL    HW115050   1.608   5.580   4.466
 4717SOL    HW215051   1.555   5.716   4.392
 4718SOL     OW15052   5.219   1.102   6.622
 4718SOL    HW115053   5.190   1.150   6.539
 4718SOL    HW215054   5.228   1.005   6.603
 4719SOL     OW15055   4.409   2.997   1.704
 4719SOL    HW115056   4.479   3.011   1.774
 4719SOL    HW215057   4.442   3.030   1.616
 4720SOL     OW15058   2.808   0.777   4.043
 4720SOL    HW115059   2.834   0.817   4.130
 4720SOL    HW215060   2.799   0.849   3.974
 4721SOL     OW15061   1.011   1.650   0.766
 4721SOL    HW115062   0.996   1.748   0.773
 4721SOL    HW215063   1.024   1.625   0.670
 4722SOL     OW15064   2.913   0.842   2.418
 4722SOL    HW115065   3.012   0.852   2.424
 4722SOL    HW215066   2.887   0.749   2.446
 4723SOL     OW15067   2.698   6.527   6.275
 4723SOL    HW115068   2.615   6.510   6.221
 4723SOL    HW215069   2.724   6.442   6.322
 4724SOL     OW15070   3.978   5.177   1.677
 4724SOL    HW115071   3.878   5.174   1.674
 4724SOL    HW215072   4.010   5.266   1.647
 4725SOL     OW15073   5.638   5.517   3.088
 4725SOL    HW115074   5.601   5.549   3.175
 4725SOL    HW215075   5.584   5.554   3.013
 4726SOL     OW15076   0.476   5.820   5.600
 4726SOL    HW115077   0.417   5.769   5.537
 4726SOL    HW215078   0.456   5.791   5.694
 4727SOL     OW15079   6.044   6.351   1.151
 4727SOL    HW115080   6.135   6.311   1.157
 4727SOL    HW215081   5.982   6.304   1.213
 4728SOL     OW15082   0.335   0.856   0.177
 4728SOL    HW115083   0.263   0.831   0.242
 4728SOL    HW215084   0.335   0.790   0.101
 4729SOL     OW15085   2.984   0.221   0.729
 4729SOL    HW115086   2.984   0.264   0.639
 4729SOL    HW215087   2.911   0.261   0.785
 4730SOL     OW15088   2.127   0.721   5.606
 4730SOL    HW115089   2.205   0.744   5.664
 4730SOL    HW215090   2.096   0.628   5.628
 4731SOL     OW15091   5.879   2.039   6.472
 4731SOL    HW115092   5.785   2.041   6.507
 4731SOL    HW215093   5.943   2.030   6.549
 4732SOL     OW15094   0.239   1.764   0.515
 4732SOL    HW115095   0.301   1.802   0.447
 4732SOL    HW215096   0.277   1.779   0.607
 4733SOL     OW15097   6.844   3.485   3.976
 4733SOL    HW115098   6.812   3.392   3.999
 4733SOL    HW215099   6.791   3.519   3.898
 4734SOL     OW15100   4.901   4.377   5.777
 4734SOL    HW115101   4.851   4.332   5.850
 4734SOL    HW215102   4.892   4.476   5.786
 4735SOL     OW15103   6.805   4.498   3.678
 4735SOL    HW115104   6.802   4.408   3.634
 4735SOL    HW215105   6.886   4.505   3.735
 4736SOL     OW15106   2.107   6.977   1.256
 4736SOL    HW115107   2.186   6.978   1.194
 4736SOL    HW215108   2.118   0.029   1.324
 4737SOL     OW15109   3.468   5.331   1.632
 4737SOL    HW115110   3.536   5.403   1.648
 4737SOL    HW215111   3.422   5.346   1.545
 4738SOL     OW15112   0.030   6.253   3.501
 4738SOL    HW115113   0.121   6.288   3.482
 4738SOL    HW215114   6.983   6.314   3.461
 4739SOL     OW15115   4.320   0.445   1.239
 4739SOL    HW115116   4.398   0.499   1.207
 4739SOL    HW215117   4.339   0.409   1.330
 4740SOL     OW15118   1.064   2.176   3.552
 4740SOL    HW115119   1.080   2.249   3.619
 4740SOL    HW215120   1.005   2.210   3.479
 4741SOL     OW15121   3.965   3.748   1.125
 4741SOL    HW115122   3.939   3.679   1.057
 4741SOL    HW215123   3.923   3.725   1.213
 4742SOL     OW15124   3.729   1.100   0.739
 4742SOL    HW115125   3.635   1.068   0.751
 4742SOL    HW215126   3.741   1.188   0.786
 4743SOL     OW15127   1.765   5.526   0.508
 4743SOL    HW115128   1.699   5.510   0.435
 4743SOL    HW215129   1.804   5.618   0.499
 4744SOL     OW15130   2.012   5.625   1.424
 4744SOL    HW115131   1.923   5.584   1.448
 4744SOL    HW215132   2.021   5.630   1.325
 4745SOL     OW15133   1.491   3.363   0.259
 4745SOL    HW115134   1.469   3.459   0.241
 4745SOL    HW215135   1.582   3.357   0.301
 4746SOL     OW15136   4.872   5.545   4.172
 4746SOL    HW115137   4.913   5.637   4.173
 4746SOL    HW215138   4.821   5.530   4.256
 4747SOL     OW15139   2.351   0.617   6.726
 4747SOL    HW115140   2.376   0.710   6.702
 4747SOL    HW215141   2.404   0.588   6.806
 4748SOL     OW15142   2.241   6.616   1.501
 4748SOL    HW115143   2.264   6.699   1.551
 4748SOL    HW215144   2.197   6.639   1.414
 4749SOL     OW15145   2.275   1.718   0.496
 4749SOL    HW115146   2.324   1.633   0.513
 4749SOL    HW215147   2.290   1.781   0.572
 4750SOL     OW15148   4.935   3.013   5.622
 4750SOL    HW115149   4.873   2.935   5.618
 4750SOL    HW215150   4.895   3.085   5.679
 4751SOL     OW15151   4.739   1.340   3.403
 4751SOL    HW115152   4.639   1.335   3.403
 4751SOL    HW215153   4.775   1.265   3.458
 4752SOL     OW15154   5.555   1.353   6.473
 4752SOL    HW115155   5.605   1.413   6.410
 4752SOL    HW215156   5.519   1.407   6.549
 4753SOL     OW15157   3.332   6.725   4.763
 4753SOL    HW115158   3.340   6.723   4.663
 4753SOL    HW215159   3.242   6.690   4.789
 4754SOL     OW15160   4.560   4.581   6.352
 4754SOL    HW115161   4.583   4.596   6.448
 4754SOL    HW215162   4.466   4.610   6.335
 4755SOL     OW15163   0.775   0.924   1.484
 4755SOL    HW115164   0.731   1.007   1.452
 4755SOL    HW215165   0.848   0.947   1.549
 4756SOL     OW15166   6.924   4.317   5.330
 4756SOL    HW115167   6.982   4.323   5.248
 4756SOL    HW215168   6.841   4.267   5.309
 4757SOL     OW15169   2.029   3.532   0.300
 4757SOL    HW115170   2.098   3.526   0.229
 4757SOL    HW215171   2.047   3.611   0.359
 4758SOL     OW15172   2.500   5.795   3.508
 4758SOL    HW115173   2.586   5.789   3.559
 4758SOL    HW215174   2.434   5.731   3.546
 4759SOL     OW15175   0.709   6.749   1.537
 4759SOL    HW115176   0.655   6.666   1.551
 4759SOL    HW215177   0.803   6.733   1.567
 4760SOL     OW15178   1.715   5.559   0.770
 4760SOL    HW115179   1.679   5.650   0.788
 4760SOL    HW215180   1.738   5.550   0.673
 4761SOL     OW15181   5.441   6.939   1.496
 4761SOL    HW115182   5.516   7.004   1.514
 4761SOL    HW215183   5.472   6.846   1.516
 4762SOL     OW15184   1.985   0.424   2.469
 4762SOL    HW115185   1.891   0.413   2.501
 4762SOL    HW215186   1.989   0.500   2.404
 4763SOL     OW15187   5.801   5.484   2.369
 4763SOL    HW115188   5.734   5.413   2.348
 4763SOL    HW215189   5.893   5.444   2.373
 4764SOL     OW15190   5.262   2.949   0.567
 4764SOL    HW115191   5.187   3.015   0.576
 4764SOL    HW215192   5.228   2.867   0.520
 4765SOL     OW15193   4.064   1.911   5.966
 4765SOL    HW115194   4.036   1.988   5.908
 4765SOL    HW215195   4.151   1.874   5.932
 4766SOL     OW15196   1.068   0.716   4.668
 4766SOL    HW115197   1.034   0.623   4.684
 4766SOL    HW215198   1.147   0.712   4.606
 4767SOL     OW15199   2.314   4.272   3.415
 4767SOL    HW115200   2.375   4.325   3.356
 4767SOL    HW215201   2.305   4.179   3.378
 4768SOL     OW15202   4.743   2.626   6.533
 4768SOL    HW115203   4.838   2.613   6.562
 4768SOL    HW215204   4.689   2.658   6.611
 4769SOL     OW15205   1.678   2.964   0.455
 4769SOL    HW115206   1.723   3.044   0.415
 4769SOL    HW215207   1.727   2.937   0.539
 4770SOL     OW15208   0.265   1.695   3.920
 4770SOL    HW115209   0.196   1.642   3.968
 4770SOL    HW215210   0.222   1.745   3.844
 4771SOL     OW15211   1.864   0.006   4.285
 4771SOL    HW115212   1.892   7.003   4.378
 4771SOL    HW215213   1.901   6.960   4.221
 4772SOL     OW15214   3.018   5.294   2.728
 4772SOL    HW115215   2.951   5.220   2.729
 4772SOL    HW215216   3.008   5.347   2.644
 4773SOL     OW15217   3.030   4.883   5.043
 4773SOL    HW115218   3.001   4.800   4.997
 4773SOL    HW215219   2.963   4.907   5.114
 4774SOL     OW15220   0.715   4.166   0.850
 4774SOL    HW115221   0.651   4.161   0.927
 4774SOL    HW215222   0.794   4.220   0.877
 4775SOL     OW15223   6.094   5.508   4.818
 4775SOL    HW115224   6.046   5.591   4.846
 4775SOL    HW215225   6.029   5.433   4.808
 4776SOL     OW15226   0.432   1.149   5.383
 4776SOL    HW115227   0.472   1.225   5.434
 4776SOL    HW215228   0.471   1.063   5.415
 4777SOL     OW15229   1.868   6.823   2.975
 4777SOL    HW115230   1.788   6.767   2.954
 4777SOL    HW215231   1.885   6.821   3.073
 4778SOL     OW15232   1.847   1.311   0.151
 4778SOL    HW115233   1.783   1.236   0.134
 4778SOL    HW215234   1.902   1.290   0.232
 4779SOL     OW15235   5.069   0.708   4.784
 4779SOL    HW115236   4.975   0.719   4.751
 4779SOL    HW215237   5.077   0.621   4.833
 4780SOL     OW15238   4.631   2.699   4.638
 4780SOL    HW115239   4.708   2.754   4.605
 4780SOL    HW215240   4.578   2.753   4.704
 4781SOL     OW15241   1.326   5.177   1.970
 4781SOL    HW115242   1.272   5.234   2.032
 4781SOL    HW215243   1.414   5.155   2.012
 4782SOL     OW15244   6.890   6.481   4.184
 4782SOL    HW115245   6.913   6.479   4.087
 4782SOL    HW215246   6.837   6.399   4.207
 4783SOL     OW15247   0.012   3.606   6.221
 4783SOL    HW115248   0.110   3.618   6.240
 4783SOL    HW215249   0.001   3.561   6.133
 4784SOL     OW15250   5.137   3.346   7.011
 4784SOL    HW115251   5.175   3.300   6.931
 4784SOL    HW215252   5.130   3.444   6.994
 4785SOL     OW15253   0.769   0.344   4.037
 4785SOL    HW115254   0.707   0.266   4.046
 4785SOL    HW215255   0.724   0.416   3.985
 4786SOL     OW15256   0.482   5.933   6.971
 4786SOL    HW115257   0.447   6.025   6.985
 4786SOL    HW215258   0.543   5.909   0.025
 4787SOL     OW15259   4.602   1.161   4.751
 4787SOL    HW115260   4.522   1.100   4.745
 4787SOL    HW215261   4.665   1.127   4.820
 4788SOL     OW15262   0.057   5.891   0.891
 4788SOL    HW115263   0.083   5.961   0.825
 4788SOL    HW215264   6.982   5.866   0.877
 4789SOL     OW15265   6.469   1.015   2.911
 4789SOL    HW115266   6.379   0.986   2.878
 4789SOL    HW215267   6.520   0.935   2.943
 4790SOL     OW15268   6.915   1.842   4.880
 4790SOL    HW115269   6.891   1.863   4.975
 4790SOL    HW215270   6.962   1.921   4.840
 4791SOL     OW15271   0.647   0.396   0.293
 4791SOL    HW115272   0.621   0.308   0.333
 4791SOL    HW215273   0.594   0.470   0.336
 4792SOL     OW15274   1.769   3.400   2.208
 4792SOL    HW115275   1.866   3.389   2.186
 4792SOL    HW215276   1.757   3.397   2.307
 4793SOL     OW15277   1.279   3.902   5.692
 4793SOL    HW115278   1.236   3.839   5.757
 4793SOL    HW215279   1.331   3.851   5.625
 4794SOL     OW15280   4.774   1.957   4.853
 4794SOL    HW115281   4.861   1.966   4.805
 4794SOL    HW215282   4.699   1.987   4.793
 4795SOL     OW15283   0.105   1.101   6.139
 4795SOL    HW115284   0.083   1.195   6.111
 4795SOL    HW215285   0.135   1.101   6.235
 4796SOL     OW15286   4.341   1.468   5.248
 4796SOL    HW115287   4.292   1.517   5.176
 4796SOL    HW215288   4.395   1.394   5.208
 4797SOL     OW15289   2.165   4.859   6.577
 4797SOL    HW115290   2.186   4.762   6.594
 4797SOL    HW215291   2.243   4.902   6.531
 4798SOL     OW15292   3.890   5.709   0.459
 4798SOL    HW115293   3.844   5.795   0.480
 4798SOL    HW215294   3.917   5.664   0.544
 4799SOL     OW15295   4.295   2.762   0.389
 4799SOL    HW115296   4.393   2.771   0.409
 4799SOL    HW215297   4.252   2.707   0.460
 4800SOL     OW15298   0.307   4.454   6.826
 4800SOL    HW115299   0.398   4.415   6.843
 4800SOL    HW215300   0.252   4.389   6.774
 4801SOL     OW15301   5.611   2.251   2.537
 4801SOL    HW115302   5.578   2.273   2.629
 4801SOL    HW215303   5.699   2.203   2.544
 4802SOL     OW15304   6.571   0.107   4.512
 4802SOL    HW115305   6.516   0.142   4.436
 4802SOL    HW215306   6.617   0.184   4.557
 4803SOL     OW15307   5.104   3.975   5.272
 4803SOL    HW115308   5.107   3.910   5.348
 4803SOL    HW215309   5.037   4.046   5.292
 4804SOL     OW15310   4.939   2.098   0.871
 4804SOL    HW115311   4.992   2.107   0.787
 4804SOL    HW215312   4.995   2.055   0.942
 4805SOL     OW15313   5.701   1.455   0.069
 4805SOL    HW115314   5.629   1.428   0.006
 4805SOL    HW215315   5.788   1.414   0.041
 4806SOL     OW15316   1.524   1.688   3.153
 4806SOL    HW115317   1.460   1.611   3.150
 4806SOL    HW215318   1.477   1.770   3.184
 4807SOL     OW15319   6.815   4.381   6.243
 4807SOL    HW115320   6.808   4.331   6.329
 4807SOL    HW215321   6.879   4.333   6.182
 4808SOL     OW15322   3.543   5.705   1.927
 4808SOL    HW115323   3.483   5.670   2.000
 4808SOL    HW215324   3.520   5.660   1.841
 4809SOL     OW15325   3.476   4.021   1.570
 4809SOL    HW115326   3.483   3.924   1.546
 4809SOL    HW215327   3.555   4.070   1.533
 4810SOL     OW15328   1.877   5.847   4.011
 4810SOL    HW115329   1.955   5.879   4.065
 4810SOL    HW215330   1.834   5.769   4.056
 4811SOL     OW15331   3.359   3.379   4.425
 4811SOL    HW115332   3.283   3.372   4.490
 4811SOL    HW215333   3.331   3.434   4.347
 4812SOL     OW15334   1.497   6.511   2.849
 4812SOL    HW115335   1.539   6.421   2.845
 4812SOL    HW215336   1.542   6.566   2.920
 4813SOL     OW15337   0.767   2.119   5.280
 4813SOL    HW115338   0.767   2.081   5.187
 4813SOL    HW215339   0.722   2.055   5.342
 4814SOL     OW15340   6.383   3.697   0.961
 4814SOL    HW115341   6.410   3.739   1.048
 4814SOL    HW215342   6.284   3.707   0.949
 4815SOL     OW15343   6.080   4.688   2.538
 4815SOL    HW115344   6.025   4.770   2.553
 4815SOL    HW215345   6.021   4.607   2.540
 4816SOL     OW15346   3.070   0.523   2.701
 4816SOL    HW115347   3.050   0.595   2.767
 4816SOL    HW215348   3.130   0.454   2.744
 4817SOL     OW15349   4.243   1.893   1.198
 4817SOL    HW115350   4.313   1.903   1.269
 4817SOL    HW215351   4.186   1.814   1.219
 4818SOL     OW15352   3.878   0.342   4.378
 4818SOL    HW115353   3.815   0.412   4.344
 4818SOL    HW215354   3.970   0.360   4.343
 4819SOL     OW15355   2.841   0.878   0.408
 4819SOL    HW115356   2.878   0.794   0.448
 4819SOL    HW215357   2.856   0.954   0.471
 4820SOL     OW15358   5.895   4.218   1.808
 4820SOL    HW115359   5.834   4.217   1.728
 4820SOL    HW215360   5.981   4.261   1.784
 4821SOL     OW15361   0.402   6.070   1.830
 4821SOL    HW115362   0.353   6.157   1.833
 4821SOL    HW215363   0.344   6.001   1.787
 4822SOL     OW15364   0.877   4.030   1.681
 4822SOL    HW115365   0.787   3.990   1.666
 4822SOL    HW215366   0.900   4.026   1.778
 4823SOL     OW15367   0.813   1.327   3.475
 4823SOL    HW115368   0.761   1.383   3.540
 4823SOL    HW215369   0.869   1.386   3.417
 4824SOL     OW15370   5.618   2.451   1.896
 4824SOL    HW115371   5.550   2.491   1.835
 4824SOL    HW215372   5.709   2.460   1.856
 4825SOL     OW15373   0.023   3.342   4.159
 4825SOL    HW115374   0.063   3.289   4.234
 4825SOL    HW215375   6.949   3.362   4.179
 4826SOL     OW15376   6.695   6.665   0.022
 4826SOL    HW115377   6.643   6.712   6.972
 4826SOL    HW215378   6.632   6.625   0.088
 4827SOL     OW15379   4.855   1.542   0.434
 4827SOL    HW115380   4.870   1.633   0.394
 4827SOL    HW215381   4.827   1.478   0.362
 4828SOL     OW15382   5.217   3.314   6.570
 4828SOL    HW115383   5.277   3.375   6.622
 4828SOL    HW215384   5.124   3.320   6.606
 4829SOL     OW15385   3.745   0.513   5.163
 4829SOL    HW115386   3.652   0.535   5.191
 4829SOL    HW215387   3.802   0.497   5.244
 4830SOL     OW15388   4.566   5.799   5.235
 4830SOL    HW115389   4.492   5.826   5.297
 4830SOL    HW215390   4.548   5.836   5.144
 4831SOL     OW15391   5.934   3.505   6.317
 4831SOL    HW115392   5.837   3.492   6.334
 4831SOL    HW215393   5.978   3.541   6.400
 4832SOL     OW15394   1.722   2.578   6.565
 4832SOL    HW115395   1.671   2.655   6.527
 4832SOL    HW215396   1.809   2.568   6.517
 4833SOL     OW15397   6.547   1.750   3.455
 4833SOL    HW115398   6.570   1.656   3.433
 4833SOL    HW215399   6.579   1.772   3.547
 4834SOL     OW15400   5.691   0.674   3.373
 4834SOL    HW115401   5.672   0.658   3.276
 4834SOL    HW215402   5.658   0.597   3.427
 4835SOL     OW15403   1.608   1.138   5.957
 4835SOL    HW115404   1.573   1.056   5.913
 4835SOL    HW215405   1.532   1.191   5.995
 4836SOL     OW15406   5.803   2.971   2.113
 4836SOL    HW115407   5.825   2.903   2.044
 4836SOL    HW215408   5.713   2.951   2.152
 4837SOL     OW15409   0.113   3.863   0.823
 4837SOL    HW115410   0.015   3.843   0.819
 4837SOL    HW215411   0.130   3.954   0.785
 4838SOL     OW15412   2.805   5.207   2.353
 4838SOL    HW115413   2.806   5.141   2.427
 4838SOL    HW215414   2.859   5.171   2.276
 4839SOL     OW15415   0.706   6.830   6.718
 4839SOL    HW115416   0.622   6.842   6.771
 4839SOL    HW215417   0.696   6.874   6.629
 4840SOL     OW15418   5.946   6.883   6.743
 4840SOL    HW115419   5.940   6.938   6.660
 4840SOL    HW215420   6.024   6.821   6.737
 4841SOL     OW15421   2.435   5.674   1.940
 4841SOL    HW115422   2.351   5.686   1.886
 4841SOL    HW215423   2.426   5.592   1.996
 4842SOL     OW15424   3.536   6.417   1.686
 4842SOL    HW115425   3.563   6.513   1.689
 4842SOL    HW215426   3.555   6.379   1.595
 4843SOL     OW15427   0.774   2.539   6.569
 4843SOL    HW115428   0.812   2.478   6.499
 4843SOL    HW215429   0.733   2.619   6.524
 4844SOL     OW15430   0.871   1.796   5.328
 4844SOL    HW115431   0.953   1.775   5.274
 4844SOL    HW215432   0.792   1.803   5.268
 4845SOL     OW15433   5.635   5.282   3.737
 4845SOL    HW115434   5.724   5.327   3.731
 4845SOL    HW215435   5.606   5.278   3.833
 4846SOL     OW15436   0.314   5.144   6.836
 4846SOL    HW115437   0.332   5.057   6.791
 4846SOL    HW215438   0.325   5.219   6.770
 4847SOL     OW15439   4.948   2.466   4.465
 4847SOL    HW115440   5.021   2.438   4.527
 4847SOL    HW215441   4.898   2.385   4.433
 4848SOL     OW15442   2.220   1.972   1.829
 4848SOL    HW115443   2.259   1.942   1.916
 4848SOL    HW215444   2.123   1.994   1.843
 4849SOL     OW15445   0.928   6.547   5.910
 4849SOL    HW115446   0.930   6.546   6.010
 4849SOL    HW215447   0.991   6.616   5.875
 4850SOL     OW15448   4.002   0.593   3.471
 4850SOL    HW115449   4.042   0.685   3.476
 4850SOL    HW215450   3.948   0.576   3.553
 4851SOL     OW15451   5.138   1.294   5.128
 4851SOL    HW115452   5.208   1.223   5.136
 4851SOL    HW215453   5.108   1.301   5.033
 4852SOL     OW15454   1.587   1.840   1.798
 4852SOL    HW115455   1.526   1.800   1.866
 4852SOL    HW215456   1.594   1.779   1.719
 4853SOL     OW15457   3.457   1.861   1.433
 4853SOL    HW115458   3.386   1.792   1.420
 4853SOL    HW215459   3.538   1.836   1.379
 4854SOL     OW15460   3.697   6.915   0.067
 4854SOL    HW115461   3.605   6.906   0.029
 4854SOL    HW215462   3.700   6.873   0.158
 4855SOL     OW15463   6.865   2.980   2.264
 4855SOL    HW115464   6.947   2.953   2.316
 4855SOL    HW215465   6.888   3.056   2.203
 4856SOL     OW15466   2.048   3.972   3.382
 4856SOL    HW115467   1.975   4.039   3.364
 4856SOL    HW215468   2.135   4.020   3.394
 4857SOL     OW15469   0.586   1.159   6.024
 4857SOL    HW115470   0.641   1.235   5.988
 4857SOL    HW215471   0.594   1.157   6.124
 4858SOL     OW15472   1.078   0.616   3.743
 4858SOL    HW115473   1.178   0.616   3.750
 4858SOL    HW215474   1.043   0.525   3.769
 4859SOL     OW15475   3.319   5.654   6.083
 4859SOL    HW115476   3.223   5.644   6.056
 4859SOL    HW215477   3.376   5.654   6.001
 4860SOL     OW15478   4.281   4.133   0.514
 4860SOL    HW115479   4.216   4.147   0.589
 4860SOL    HW215480   4.233   4.093   0.436
 4861SOL     OW15481   5.257   3.549   6.034
 4861SOL    HW115482   5.219   3.466   6.073
 4861SOL    HW215483   5.199   3.581   5.959
 4862SOL     OW15484   1.006   6.386   0.989
 4862SOL    HW115485   0.915   6.349   0.974
 4862SOL    HW215486   1.065   6.363   0.911
 4863SOL     OW15487   4.940   3.883   6.411
 4863SOL    HW115488   4.971   3.930   6.329
 4863SOL    HW215489   5.003   3.809   6.433
 4864SOL     OW15490   3.095   0.862   4.135
 4864SOL    HW115491   3.175   0.881   4.191
 4864SOL    HW215492   3.055   0.774   4.163
 4865SOL     OW15493   1.963   6.460   5.400
 4865SOL    HW115494   1.991   6.539   5.345
 4865SOL    HW215495   1.868   6.472   5.429
 4866SOL     OW15496   6.515   4.144   6.515
 4866SOL    HW115497   6.492   4.047   6.509
 4866SOL    HW215498   6.472   4.193   6.439
 4867SOL     OW15499   4.495   0.781   3.150
 4867SOL    HW115500   4.492   0.685   3.121
 4867SOL    HW215501   4.572   0.794   3.213
 4868SOL     OW15502   6.936   4.662   0.781
 4868SOL    HW115503   6.896   4.652   0.690
 4868SOL    HW215504   6.881   4.726   0.835
 4869SOL     OW15505   0.632   1.178   0.998
 4869SOL    HW115506   0.567   1.246   1.032
 4869SOL    HW215507   0.705   1.223   0.947
 4870SOL     OW15508   0.687   6.706   1.946
 4870SOL    HW115509   0.629   6.786   1.959
 4870SOL    HW215510   0.715   6.701   1.850
 4871SOL     OW15511   1.596   1.415   3.461
 4871SOL    HW115512   1.510   1.431   3.509
 4871SOL    HW215513   1.668   1.391   3.527
 4872SOL     OW15514   5.993   6.160   3.024
 4872SOL    HW115515   6.060   6.230   3.049
 4872SOL    HW215516   5.957   6.178   2.933
 4873SOL     OW15517   6.429   5.341   5.003
 4873SOL    HW115518   6.513   5.287   5.015
 4873SOL    HW215519   6.394   5.328   4.910
 4874SOL     OW15520   4.758   2.942   3.330
 4874SOL    HW115521   4.737   3.005   3.404
 4874SOL    HW215522   4.857   2.932   3.322
 4875SOL     OW15523   5.798   6.290   5.377
 4875SOL    HW115524   5.894   6.277   5.350
 4875SOL    HW215525   5.790   6.275   5.476
 4876SOL     OW15526   0.720   0.666   2.061
 4876SOL    HW115527   0.689   0.750   2.105
 4876SOL    HW215528   0.820   0.663   2.062
 4877SOL     OW15529   6.608   1.680   6.060
 4877SOL    HW115530   6.541   1.673   6.133
 4877SOL    HW215531   6.600   1.600   6.000
 4878SOL     OW15532   0.265   3.476   2.199
 4878SOL    HW115533   0.300   3.459   2.291
 4878SOL    HW215534   0.340   3.468   2.133
 4879SOL     OW15535   5.966   0.809   2.915
 4879SOL    HW115536   5.992   0.734   2.976
 4879SOL    HW215537   5.937   0.771   2.827
 4880SOL     OW15538   6.474   2.975   6.847
 4880SOL    HW115539   6.433   3.050   6.797
 4880SOL    HW215540   6.498   2.901   6.784
 4881SOL     OW15541   1.697   2.993   1.546
 4881SOL    HW115542   1.742   2.904   1.551
 4881SOL    HW215543   1.693   3.033   1.638
 4882SOL     OW15544   4.535   2.488   4.417
 4882SOL    HW115545   4.442   2.457   4.436
 4882SOL    HW215546   4.557   2.564   4.477
 4883SOL     OW15547   6.326   4.499   0.559
 4883SOL    HW115548   6.331   4.477   0.462
 4883SOL    HW215549   6.276   4.584   0.572
 4884SOL     OW15550   1.820   0.551   1.275
 4884SOL    HW115551   1.733   0.521   1.237
 4884SOL    HW215552   1.894   0.494   1.237
 4885SOL     OW15553   1.358   3.994   0.264
 4885SOL    HW115554   1.367   3.898   0.237
 4885SOL    HW215555   1.336   4.050   0.184
 4886SOL     OW15556   2.397   0.922   2.065
 4886SOL    HW115557   2.414   1.013   2.103
 4886SOL    HW215558   2.483   0.873   2.055
 4887SOL     OW15559   5.698   6.631   7.015
 4887SOL    HW115560   5.730   6.696   0.063
 4887SOL    HW215561   5.633   6.567   0.036
 4888SOL     OW15562   4.058   0.404   2.878
 4888SOL    HW115563   4.156   0.421   2.867
 4888SOL    HW215564   4.044   0.330   2.944
 4889SOL     OW15565   6.768   3.323   4.268
 4889SOL    HW115566   6.674   3.335   4.236
 4889SOL    HW215567   6.778   3.232   4.310
 4890SOL     OW15568   6.853   1.406   4.612
 4890SOL    HW115569   6.824   1.499   4.589
 4890SOL    HW215570   6.935   1.408   4.669
 4891SOL     OW15571   3.031   5.048   6.456
 4891SOL    HW115572   2.948   5.104   6.455
 4891SOL    HW215573   3.108   5.106   6.485
 4892SOL     OW15574   4.903   5.213   2.240
 4892SOL    HW115575   4.806   5.230   2.258
 4892SOL    HW215576   4.922   5.231   2.143
 4893SOL     OW15577   0.874   3.071   1.083
 4893SOL    HW115578   0.948   3.015   1.045
 4893SOL    HW215579   0.912   3.141   1.143
 4894SOL     OW15580   5.049   6.447   1.703
 4894SOL    HW115581   5.078   6.534   1.664
 4894SOL    HW215582   5.038   6.455   1.802
 4895SOL     OW15583   0.212   4.539   5.304
 4895SOL    HW115584   0.249   4.621   5.260
 4895SOL    HW215585   0.118   4.523   5.272
 4896SOL     OW15586   2.568   4.901   4.674
 4896SOL    HW115587   2.598   4.816   4.717
 4896SOL    HW215588   2.591   4.978   4.733
 4897SOL     OW15589   1.664   0.552   5.023
 4897SOL    HW115590   1.619   0.641   5.030
 4897SOL    HW215591   1.597   0.480   5.036
 4898SOL     OW15592   4.982   1.718   3.514
 4898SOL    HW115593   5.029   1.657   3.451
 4898SOL    HW215594   4.905   1.762   3.467
 4899SOL     OW15595   6.018   6.592   1.306
 4899SOL    HW115596   6.033   6.574   1.209
 4899SOL    HW215597   5.953   6.526   1.343
 4900SOL     OW15598   3.835   5.995   5.786
 4900SOL    HW115599   3.840   5.949   5.697
 4900SOL    HW215600   3.752   6.051   5.791
 4901SOL     OW15601   0.827   0.788   6.635
 4901SOL    HW115602   0.926   0.794   6.619
 4901SOL    HW215603   0.810   0.750   6.726
 4902SOL     OW15604   2.465   0.275   5.556
 4902SOL    HW115605   2.424   0.323   5.477
 4902SOL    HW215606   2.451   0.177   5.546
 4903SOL     OW15607   5.209   3.798   2.910
 4903SOL    HW115608   5.204   3.897   2.919
 4903SOL    HW215609   5.132   3.765   2.855
 4904SOL     OW15610   1.682   6.969   0.749
 4904SOL    HW115611   1.644   6.877   0.756
 4904SOL    HW215612   1.686   7.011   0.840
 4905SOL     OW15613   2.754   6.964   3.393
 4905SOL    HW115614   2.734   6.922   3.481
 4905SOL    HW215615   2.852   6.955   3.373
 4906SOL     OW15616   4.943   3.712   4.851
 4906SOL    HW115617   4.955   3.674   4.759
 4906SOL    HW215618   4.891   3.647   4.907
 4907SOL     OW15619   4.324   1.979   0.150
 4907SOL    HW115620   4.313   1.920   0.070
 4907SOL    HW215621   4.275   1.940   0.228
 4908SOL     OW15622   3.397   0.209   0.162
 4908SOL    HW115623   3.434   0.151   0.234
 4908SOL    HW215624   3.306   0.176   0.136
 4909SOL     OW15625   4.971   5.047   4.535
 4909SOL    HW115626   4.929   5.133   4.563
 4909SOL    HW215627   5.011   5.001   4.615
 4910SOL     OW15628   4.425   2.434   6.270
 4910SOL    HW115629   4.357   2.414   6.200
 4910SOL    HW215630   4.465   2.349   6.302
 4911SOL     OW15631   6.630   3.724   2.700
 4911SOL    HW115632   6.631   3.748   2.603
 4911SOL    HW215633   6.696   3.781   2.749
 4912SOL     OW15634   5.604   2.449   4.075
 4912SOL    HW115635   5.602   2.426   4.173
 4912SOL    HW215636   5.514   2.484   4.048
 4913SOL     OW15637   0.866   4.319   5.364
 4913SOL    HW115638   0.919   4.360   5.289
 4913SOL    HW215639   0.925   4.259   5.418
 4914SOL     OW15640   4.118   0.752   3.981
 4914SOL    HW115641   4.085   0.717   4.069
 4914SOL    HW215642   4.173   0.681   3.936
 4915SOL     OW15643   3.715   5.437   5.685
 4915SOL    HW115644   3.690   5.440   5.588
 4915SOL    HW215645   3.744   5.528   5.715
 4916SOL     OW15646   5.864   1.972   3.849
 4916SOL    HW115647   5.783   2.031   3.838
 4916SOL    HW215648   5.942   2.028   3.877
 4917SOL     OW15649   3.855   6.618   6.935
 4917SOL    HW115650   3.823   6.700   6.888
 4917SOL    HW215651   3.900   6.557   6.870
 4918SOL     OW15652   5.522   5.077   3.603
 4918SOL    HW115653   5.569   5.036   3.524
 4918SOL    HW215654   5.575   5.156   3.635
 4919SOL     OW15655   3.213   3.722   1.769
 4919SOL    HW115656   3.289   3.753   1.827
 4919SOL    HW215657   3.247   3.660   1.699
 4920SOL     OW15658   5.928   1.891   5.948
 4920SOL    HW115659   5.928   1.795   5.977
 4920SOL    HW215660   5.953   1.949   6.026
 4921SOL     OW15661   0.032   0.015   2.086
 4921SOL    HW115662   0.029   0.104   2.040
 4921SOL    HW215663   6.969   6.986   2.066
 4922SOL     OW15664   3.222   1.394   5.999
 4922SOL    HW115665   3.153   1.435   6.058
 4922SOL    HW215666   3.224   1.442   5.912
 4923SOL     OW15667   3.522   1.275   1.893
 4923SOL    HW115668   3.599   1.308   1.948
 4923SOL    HW215669   3.449   1.243   1.953
 4924SOL     OW15670   2.246   0.658   5.316
 4924SOL    HW115671   2.291   0.735   5.271
 4924SOL    HW215672   2.237   0.677   5.414
 4925SOL     OW15673   5.702   5.596   3.646
 4925SOL    HW115674   5.682   5.671   3.708
 4925SOL    HW215675   5.775   5.539   3.685
 4926SOL     OW15676   5.124   2.754   1.147
 4926SOL    HW115677   5.079   2.668   1.173
 4926SOL    HW215678   5.221   2.750   1.172
 4927SOL     OW15679   2.883   1.328   6.948
 4927SOL    HW115680   2.851   1.405   6.894
 4927SOL    HW215681   2.837   1.328   0.016
 4928SOL     OW15682   6.207   2.184   0.878
 4928SOL    HW115683   6.299   2.172   0.915
 4928SOL    HW215684   6.165   2.264   0.919
 4929SOL     OW15685   0.804   6.449   4.891
 4929SOL    HW115686   0.769   6.436   4.984
 4929SOL    HW215687   0.760   6.383   4.829
 4930SOL     OW15688   5.173   5.794   2.631
 4930SOL    HW115689   5.189   5.893   2.628
 4930SOL    HW215690   5.217   5.756   2.712
 4931SOL     OW15691   6.932   6.625   0.584
 4931SOL    HW115692   6.853   6.676   0.617
 4931SOL    HW215693   6.915   6.595   0.490
 4932SOL     OW15694   3.661   3.340   2.626
 4932SOL    HW115695   3.713   3.269   2.673
 4932SOL    HW215696   3.574   3.354   2.673
 4933SOL     OW15697   1.402   0.318   5.854
 4933SOL    HW115698   1.435   0.355   5.767
 4933SOL    HW215699   1.312   0.356   5.874
 4934SOL     OW15700   4.211   6.430   2.243
 4934SOL    HW115701   4.243   6.518   2.207
 4934SOL    HW215702   4.141   6.393   2.182
 4935SOL     OW15703   0.329   0.722   5.475
 4935SOL    HW115704   0.278   0.732   5.560
 4935SOL    HW215705   0.287   0.648   5.421
 4936SOL     OW15706   4.087   2.336   1.443
 4936SOL    HW115707   4.169   2.327   1.500
 4936SOL    HW215708   4.108   2.393   1.364
 4937SOL     OW15709   4.464   2.819   5.228
 4937SOL    HW115710   4.398   2.762   5.276
 4937SOL    HW215711   4.546   2.765   5.207
 4938SOL     OW15712   3.835   4.548   6.600
 4938SOL    HW115713   3.877   4.512   6.684
 4938SOL    HW215714   3.738   4.526   6.599
 4939SOL     OW15715   4.878   3.471   5.941
 4939SOL    HW115716   4.781   3.492   5.932
 4939SOL    HW215717   4.923   3.544   5.994
 4940SOL     OW15718   2.445   6.739   3.798
 4940SOL    HW115719   2.361   6.701   3.760
 4940SOL    HW215720   2.458   6.704   3.891
 4941SOL     OW15721   5.651   0.341   0.867
 4941SOL    HW115722   5.555   0.327   0.843
 4941SOL    HW215723   5.709   0.322   0.787
 4942SOL     OW15724   4.760   2.940   6.434
 4942SOL    HW115725   4.685   2.910   6.375
 4942SOL    HW215726   4.817   2.861   6.456
 4943SOL     OW15727   5.301   2.420   1.306
 4943SOL    HW115728   5.356   2.449   1.228
 4943SOL    HW215729   5.302   2.490   1.377
 4944SOL     OW15730   2.209   4.129   2.365
 4944SOL    HW115731   2.216   4.040   2.411
 4944SOL    HW215732   2.128   4.129   2.306
 4945SOL     OW15733   6.914   6.350   4.569
 4945SOL    HW115734   6.955   6.425   4.517
 4945SOL    HW215735   6.815   6.362   4.573
 4946SOL     OW15736   0.474   4.356   2.219
 4946SOL    HW115737   0.556   4.323   2.171
 4946SOL    HW215738   0.418   4.410   2.157
 4947SOL     OW15739   6.355   0.024   0.886
 4947SOL    HW115740   6.309   0.057   0.968
 4947SOL    HW215741   6.352   6.945   0.885
 4948SOL     OW15742   2.271   1.264   1.855
 4948SOL    HW115743   2.250   1.205   1.933
 4948SOL    HW215744   2.257   1.360   1.881
 4949SOL     OW15745   5.334   2.259   4.699
 4949SOL    HW115746   5.404   2.328   4.681
 4949SOL    HW215747   5.374   2.183   4.750
 4950SOL     OW15748   3.527   5.028   5.023
 4950SOL    HW115749   3.490   4.943   5.059
 4950SOL    HW215750   3.615   5.047   5.067
 4951SOL     OW15751   4.436   2.193   4.158
 4951SOL    HW115752   4.414   2.289   4.143
 4951SOL    HW215753   4.383   2.157   4.234
 4952SOL     OW15754   0.004   4.908   5.118
 4952SOL    HW115755   0.045   4.854   5.192
 4952SOL    HW215756   6.939   4.947   5.149
 4953SOL     OW15757   1.544   4.968   2.127
 4953SOL    HW115758   1.523   4.873   2.102
 4953SOL    HW215759   1.599   4.969   2.210
 4954SOL     OW15760   6.805   6.414   6.929
 4954SOL    HW115761   6.786   6.369   7.017
 4954SOL    HW215762   6.857   6.498   6.945
 4955SOL     OW15763   1.125   0.902   0.956
 4955SOL    HW115764   1.031   0.934   0.947
 4955SOL    HW215765   1.144   0.881   1.051
 4956SOL     OW15766   6.103   6.791   4.311
 4956SOL    HW115767   6.114   6.870   4.372
 4956SOL    HW215768   6.043   6.817   4.235
 4957SOL     OW15769   1.861   6.241   3.632
 4957SOL    HW115770   1.959   6.244   3.649
 4957SOL    HW215771   1.837   6.158   3.583
 4958SOL     OW15772   0.449   6.693   6.577
 4958SOL    HW115773   0.475   6.707   6.672
 4958SOL    HW215774   0.488   6.607   6.544
 4959SOL     OW15775   0.058   1.280   6.915
 4959SOL    HW115776   0.059   1.245   7.008
 4959SOL    HW215777   0.143   1.330   6.897
 4960SOL     OW15778   3.558   6.637   5.273
 4960SOL    HW115779   3.601   6.581   5.202
 4960SOL    HW215780   3.518   6.719   5.232
 4961SOL     OW15781   4.474   0.774   5.855
 4961SOL    HW115782   4.574   0.774   5.864
 4961SOL    HW215783   4.436   0.853   5.902
 4962SOL     OW15784   6.442   2.317   2.260
 4962SOL    HW115785   6.401   2.285   2.346
 4962SOL    HW215786   6.370   2.340   2.195
 4963SOL     OW15787   6.734   4.902   0.821
 4963SOL    HW115788   6.651   4.923   0.770
 4963SOL    HW215789   6.711   4.851   0.904
 4964SOL     OW15790   3.839   6.647   2.809
 4964SOL    HW115791   3.901   6.627   2.885
 4964SOL    HW215792   3.789   6.732   2.829
 4965SOL     OW15793   0.048   6.286   4.772
 4965SOL    HW115794   6.997   6.267   4.839
 4965SOL    HW215795   0.009   6.325   4.689
 4966SOL     OW15796   4.067   5.592   4.909
 4966SOL    HW115797   4.143   5.529   4.925
 4966SOL    HW215798   4.085   5.679   4.956
 4967SOL     OW15799   5.172   1.995   6.763
 4967SOL    HW115800   5.149   1.975   6.859
 4967SOL    HW215801   5.090   1.988   6.707
 4968SOL     OW15802   5.557   4.443   6.768
 4968SOL    HW115803   5.654   4.420   6.754
 4968SOL    HW215804   5.513   4.459   6.679
 4969SOL     OW15805   0.526   1.904   1.145
 4969SOL    HW115806   0.435   1.864   1.142
 4969SOL    HW215807   0.519   2.003   1.159
 4970SOL     OW15808   1.501   2.748   6.026
 4970SOL    HW115809   1.489   2.845   6.048
 4970SOL    HW215810   1.577   2.711   6.079
 4971SOL     OW15811   0.312   5.481   3.729
 4971SOL    HW115812   0.271   5.393   3.754
 4971SOL    HW215813   0.246   5.554   3.745
 4972SOL     OW15814   1.795   2.131   5.320
 4972SOL    HW115815   1.882   2.150   5.274
 4972SOL    HW215816   1.785   2.191   5.399
 4973SOL     OW15817   5.816   5.944   3.051
 4973SOL    HW115818   5.748   5.943   2.978
 4973SOL    HW215819   5.876   6.023   3.041
 4974SOL     OW15820   4.248   6.624   0.618
 4974SOL    HW115821   4.168   6.680   0.642
 4974SOL    HW215822   4.310   6.677   0.560
 4975SOL     OW15823   4.358   6.081   0.127
 4975SOL    HW115824   4.308   6.054   0.045
 4975SOL    HW215825   4.375   6.001   0.184
 4976SOL     OW15826   2.830   0.892   4.311
 4976SOL    HW115827   2.731   0.903   4.318
 4976SOL    HW215828   2.867   0.868   4.400
 4977SOL     OW15829   3.270   2.952   0.158
 4977SOL    HW115830   3.263   2.861   0.198
 4977SOL    HW215831   3.362   2.989   0.177
 4978SOL     OW15832   6.058   4.226   0.037
 4978SOL    HW115833   6.150   4.197   0.065
 4978SOL    HW215834   6.057   4.244   6.960
 4979SOL     OW15835   1.471   2.943   4.084
 4979SOL    HW115836   1.408   2.875   4.122
 4979SOL    HW215837   1.558   2.899   4.061
 4980SOL     OW15838   2.786   5.149   3.508
 4980SOL    HW115839   2.835   5.154   3.421
 4980SOL    HW215840   2.849   5.119   3.580
 4981SOL     OW15841   4.651   6.526   5.553
 4981SOL    HW115842   4.672   6.433   5.582
 4981SOL    HW215843   4.682   6.590   5.624
 4982SOL     OW15844   2.790   2.291   0.058
 4982SOL    HW115845   2.741   2.305   0.144
 4982SOL    HW215846   2.787   2.195   0.033
 4983SOL     OW15847   6.475   2.900   4.840
 4983SOL    HW115848   6.420   2.854   4.770
 4983SOL    HW215849   6.460   2.999   4.835
 4984SOL     OW15850   4.665   4.362   2.934
 4984SOL    HW115851   4.593   4.413   2.981
 4984SOL    HW215852   4.684   4.277   2.983
 4985SOL     OW15853   5.205   4.202   1.891
 4985SOL    HW115854   5.285   4.255   1.864
 4985SOL    HW215855   5.141   4.197   1.814
 4986SOL     OW15856   4.546   4.766   3.225
 4986SOL    HW115857   4.537   4.711   3.309
 4986SOL    HW215858   4.463   4.820   3.212
 4987SOL     OW15859   0.318   3.859   1.025
 4987SOL    HW115860   0.236   3.862   0.968
 4987SOL    HW215861   0.394   3.822   0.973
 4988SOL     OW15862   1.285   2.324   4.872
 4988SOL    HW115863   1.238   2.392   4.817
 4988SOL    HW215864   1.222   2.284   4.938
 4989SOL     OW15865   6.772   0.824   0.573
 4989SOL    HW115866   6.681   0.832   0.612
 4989SOL    HW215867   6.835   0.787   0.642
 4990SOL     OW15868   0.973   2.438   6.271
 4990SOL    HW115869   0.994   2.355   6.219
 4990SOL    HW215870   1.049   2.460   6.331
 4991SOL     OW15871   2.277   1.823   4.905
 4991SOL    HW115872   2.223   1.842   4.987
 4991SOL    HW215873   2.260   1.729   4.876
 4992SOL     OW15874   4.057   0.654   4.228
 4992SOL    HW115875   4.133   0.590   4.222
 4992SOL    HW215876   4.081   0.729   4.291
 4993SOL     OW15877   1.786   6.448   3.883
 4993SOL    HW115878   1.721   6.493   3.823
 4993SOL    HW215879   1.862   6.510   3.904
 4994SOL     OW15880   0.381   6.938   2.645
 4994SOL    HW115881   0.376   6.996   2.564
 4994SOL    HW215882   0.468   6.954   2.692
 4995SOL     OW15883   6.307   3.113   5.877
 4995SOL    HW115884   6.246   3.190   5.895
 4995SOL    HW215885   6.277   3.066   5.794
 4996SOL     OW15886   0.489   1.739   4.080
 4996SOL    HW115887   0.422   1.715   4.009
 4996SOL    HW215888   0.506   1.659   4.138
 4997SOL     OW15889   0.225   2.053   4.091
 4997SOL    HW115890   0.126   2.050   4.108
 4997SOL    HW215891   0.270   1.985   4.150
 4998SOL     OW15892   1.103   5.278   5.239
 4998SOL    HW115893   1.147   5.333   5.310
 4998SOL    HW215894   1.150   5.191   5.230
 4999SOL     OW15895   6.217   5.287   1.156
 4999SOL    HW115896   6.163   5.227   1.214
 4999SOL    HW215897   6.234   5.243   1.067
 5000SOL     OW15898   0.083   5.489   4.025
 5000SOL    HW115899   0.011   5.553   3.999
 5000SOL    HW215900   0.101   5.426   3.950
 5001SOL     OW15901   4.534   4.611   5.267
 5001SOL    HW115902   4.537   4.515   5.243
 5001SOL    HW215903   4.627   4.649   5.266
 5002SOL     OW15904   2.039   2.422   1.856
 5002SOL    HW115905   2.128   2.378   1.870
 5002SOL    HW215906   2.051   2.503   1.800
 5003SOL     OW15907   6.847   4.805   3.877
 5003SOL    HW115908   6.864   4.838   3.784
 5003SOL    HW215909   6.879   4.873   3.942
 5004SOL     OW15910   3.169   4.404   6.238
 5004SOL    HW115911   3.156   4.502   6.257
 5004SOL    HW215912   3.103   4.375   6.168
 5005SOL     OW15913   4.597   1.971   0.193
 5005SOL    HW115914   4.515   1.979   0.137
 5005SOL    HW215915   4.592   1.888   0.249
 5006SOL     OW15916   5.648   4.831   2.514
 5006SOL    HW115917   5.744   4.848   2.536
 5006SOL    HW215918   5.641   4.784   2.427
 5007SOL     OW15919   3.800   1.862   5.187
 5007SOL    HW115920   3.819   1.961   5.185
 5007SOL    HW215921   3.858   1.816   5.120
 5008SOL     OW15922   6.265   0.798   3.806
 5008SOL    HW115923   6.197   0.839   3.868
 5008SOL    HW215924   6.249   0.830   3.713
 5009SOL     OW15925   1.808   5.927   2.297
 5009SOL    HW115926   1.765   5.850   2.249
 5009SOL    HW215927   1.753   5.950   2.378
 5010SOL     OW15928   3.410   3.102   5.243
 5010SOL    HW115929   3.411   3.158   5.326
 5010SOL    HW215930   3.374   3.011   5.264
 5011SOL     OW15931   1.259   2.714   3.548
 5011SOL    HW115932   1.164   2.690   3.529
 5011SOL    HW215933   1.307   2.635   3.586
 5012SOL     OW15934   6.072   3.006   7.013
 5012SOL    HW115935   6.149   2.966   0.043
 5012SOL    HW215936   6.089   3.103   6.998
 5013SOL     OW15937   5.089   2.432   5.620
 5013SOL    HW115938   5.049   2.383   5.544
 5013SOL    HW215939   5.135   2.515   5.586
 5014SOL     OW15940   6.562   6.262   6.131
 5014SOL    HW115941   6.578   6.171   6.169
 5014SOL    HW215942   6.639   6.321   6.155
 5015SOL     OW15943   5.455   1.958   3.880
 5015SOL    HW115944   5.450   2.005   3.791
 5015SOL    HW215945   5.389   1.999   3.942
 5016SOL     OW15946   2.195   6.580   2.431
 5016SOL    HW115947   2.158   6.637   2.504
 5016SOL    HW215948   2.271   6.525   2.467
 5017SOL     OW15949   1.622   2.252   2.011
 5017SOL    HW115950   1.559   2.201   2.069
 5017SOL    HW215951   1.694   2.292   2.067
 5018SOL     OW15952   6.995   4.948   3.679
 5018SOL    HW115953   6.997   4.922   3.582
 5018SOL    HW215954   6.951   5.038   3.688
 5019SOL     OW15955   2.890   5.482   5.444
 5019SOL    HW115956   2.893   5.396   5.393
 5019SOL    HW215957   2.796   5.517   5.446
 5020SOL     OW15958   4.177   5.520   6.585
 5020SOL    HW115959   4.107   5.553   6.522
 5020SOL    HW215960   4.143   5.439   6.633
 5021SOL     OW15961   2.665   4.153   5.915
 5021SOL    HW115962   2.646   4.215   5.990
 5021SOL    HW215963   2.752   4.178   5.872
 5022SOL     OW15964   2.183   3.958   1.185
 5022SOL    HW115965   2.090   3.990   1.167
 5022SOL    HW215966   2.183   3.858   1.193
 5023SOL     OW15967   6.483   3.098   4.067
 5023SOL    HW115968   6.464   3.051   3.981
 5023SOL    HW215969   6.398   3.112   4.117
 5024SOL     OW15970   5.240   3.589   5.574
 5024SOL    HW115971   5.237   3.489   5.577
 5024SOL    HW215972   5.314   3.619   5.512
 5025SOL     OW15973   6.471   1.284   3.589
 5025SOL    HW115974   6.490   1.186   3.598
 5025SOL    HW215975   6.473   1.327   3.679
 5026SOL     OW15976   0.726   6.180   2.872
 5026SOL    HW115977   0.822   6.181   2.844
 5026SOL    HW215978   0.719   6.141   2.964
 5027SOL     OW15979   0.702   6.029   3.867
 5027SOL    HW115980   0.792   5.992   3.844
 5027SOL    HW215981   0.706   6.129   3.870
 5028SOL     OW15982   0.506   0.242   2.955
 5028SOL    HW115983   0.479   0.200   3.042
 5028SOL    HW215984   0.596   0.284   2.965
 5029SOL     OW15985   6.800   1.314   3.403
 5029SOL    HW115986   6.754   1.390   3.450
 5029SOL    HW215987   6.815   1.339   3.308
 5030SOL     OW15988   2.198   5.819   0.005
 5030SOL    HW115989   2.156   5.751   0.065
 5030SOL    HW215990   2.126   5.865   6.974
 5031SOL     OW15991   5.499   1.242   6.117
 5031SOL    HW115992   5.450   1.226   6.202
 5031SOL    HW215993   5.469   1.177   6.048
 5032SOL     OW15994   1.479   6.122   2.192
 5032SOL    HW115995   1.450   6.026   2.186
 5032SOL    HW215996   1.458   6.157   2.283
 5033SOL     OW15997   0.255   4.100   5.136
 5033SOL    HW115998   0.244   4.143   5.226
 5033SOL    HW215999   0.240   4.169   5.065
 5034SOL     OW16000   6.959   3.726   6.468
 5034SOL    HW116001   6.896   3.654   6.497
 5034SOL    HW216002   6.977   3.717   6.370
 5035SOL     OW16003   5.869   4.615   1.427
 5035SOL    HW116004   5.836   4.707   1.402
 5035SOL    HW216005   5.960   4.622   1.466
 5036SOL     OW16006   1.544   0.342   1.739
 5036SOL    HW116007   1.515   0.424   1.690
 5036SOL    HW216008   1.630   0.361   1.788
 5037SOL     OW16009   4.693   2.849   3.088
 5037SOL    HW116010   4.714   2.889   3.177
 5037SOL    HW216011   4.723   2.912   3.016
 5038SOL     OW16012   3.041   5.754   4.880
 5038SOL    HW116013   3.001   5.693   4.948
 5038SOL    HW216014   3.116   5.805   4.921
 5039SOL     OW16015   1.426   2.145   3.052
 5039SOL    HW116016   1.409   2.146   3.150
 5039SOL    HW216017   1.524   2.139   3.035
 5040SOL     OW16018   3.031   3.794   5.953
 5040SOL    HW116019   3.026   3.891   5.978
 5040SOL    HW216020   3.055   3.740   6.033
 5041SOL     OW16021   0.631   5.585   0.493
 5041SOL    HW116022   0.629   5.541   0.404
 5041SOL    HW216023   0.554   5.551   0.549
 5042SOL     OW16024   6.010   1.595   5.767
 5042SOL    HW116025   6.059   1.509   5.783
 5042SOL    HW216026   5.959   1.589   5.681
 5043SOL     OW16027   4.665   0.129   3.967
 5043SOL    HW116028   4.732   0.201   3.983
 5043SOL    HW216029   4.590   0.139   4.033
 5044SOL     OW16030   5.513   4.786   1.881
 5044SOL    HW116031   5.504   4.732   1.964
 5044SOL    HW216032   5.497   4.883   1.902
 5045SOL     OW16033   5.453   3.281   5.192
 5045SOL    HW116034   5.377   3.274   5.127
 5045SOL    HW216035   5.449   3.205   5.257
 5046SOL     OW16036   3.973   3.451   5.686
 5046SOL    HW116037   3.937   3.363   5.718
 5046SOL    HW216038   4.041   3.435   5.614
 5047SOL     OW16039   0.786   1.573   2.240
 5047SOL    HW116040   0.721   1.614   2.304
 5047SOL    HW216041   0.739   1.502   2.186
 5048SOL     OW16042   6.020   3.675   1.465
 5048SOL    HW116043   5.924   3.649   1.459
 5048SOL    HW216044   6.075   3.596   1.489
 5049SOL     OW16045   0.907   2.223   1.621
 5049SOL    HW116046   0.896   2.219   1.522
 5049SOL    HW216047   0.878   2.137   1.662
 5050SOL     OW16048   1.161   3.524   0.684
 5050SOL    HW116049   1.175   3.482   0.774
 5050SOL    HW216050   1.132   3.455   0.619
 5051SOL     OW16051   2.180   3.400   6.837
 5051SOL    HW116052   2.226   3.438   6.918
 5051SOL    HW216053   2.221   3.313   6.813
 5052SOL     OW16054   5.699   3.294   0.409
 5052SOL    HW116055   5.777   3.247   0.450
 5052SOL    HW216056   5.614   3.248   0.437
 5053SOL     OW16057   2.236   4.216   1.299
 5053SOL    HW116058   2.310   4.174   1.351
 5053SOL    HW216059   2.182   4.145   1.254
 5054SOL     OW16060   4.021   6.124   5.234
 5054SOL    HW116061   4.082   6.192   5.274
 5054SOL    HW216062   4.034   6.122   5.134
 5055SOL     OW16063   1.518   1.621   3.710
 5055SOL    HW116064   1.572   1.540   3.736
 5055SOL    HW216065   1.579   1.691   3.673
 5056SOL     OW16066   2.841   2.206   5.200
 5056SOL    HW116067   2.782   2.166   5.130
 5056SOL    HW216068   2.937   2.188   5.176
 5057SOL     OW16069   0.386   4.165   2.738
 5057SOL    HW116070   0.485   4.156   2.730
 5057SOL    HW216071   0.364   4.239   2.801
 5058SOL     OW16072   3.745   2.680   0.265
 5058SOL    HW116073   3.812   2.612   0.297
 5058SOL    HW216074   3.678   2.697   0.337
 5059SOL     OW16075   4.427   1.942   2.745
 5059SOL    HW116076   4.425   2.040   2.761
 5059SOL    HW216077   4.436   1.924   2.648
 5060SOL     OW16078   0.360   3.186   5.970
 5060SOL    HW116079   0.359   3.216   5.874
 5060SOL    HW216080   0.441   3.223   6.015
 5061SOL     OW16081   4.160   2.474   6.140
 5061SOL    HW116082   4.156   2.568   6.174
 5061SOL    HW216083   4.069   2.433   6.142
 5062SOL     OW16084   5.474   1.192   3.415
 5062SOL    HW116085   5.565   1.200   3.454
 5062SOL    HW216086   5.429   1.282   3.415
 5063SOL     OW16087   1.204   1.150   1.632
 5063SOL    HW116088   1.174   1.188   1.545
 5063SOL    HW216089   1.131   1.158   1.700
 5064SOL     OW16090   5.567   4.842   0.977
 5064SOL    HW116091   5.468   4.832   0.966
 5064SOL    HW216092   5.608   4.860   0.887
 5065SOL     OW16093   2.439   1.202   2.100
 5065SOL    HW116094   2.405   1.294   2.082
 5065SOL    HW216095   2.485   1.200   2.189
 5066SOL     OW16096   1.916   5.333   2.509
 5066SOL    HW116097   1.875   5.338   2.601
 5066SOL    HW216098   1.873   5.259   2.458
 5067SOL     OW16099   6.024   2.762   1.613
 5067SOL    HW116100   6.090   2.813   1.558
 5067SOL    HW216101   5.956   2.825   1.651
 5068SOL     OW16102   1.889   5.784   0.443
 5068SOL    HW116103   1.872   5.846   0.519
 5068SOL    HW216104   1.810   5.784   0.381
 5069SOL     OW16105   4.197   5.308   5.389
 5069SOL    HW116106   4.160   5.251   5.462
 5069SOL    HW216107   4.293   5.284   5.373
 5070SOL     OW16108   5.893   3.331   5.154
 5070SOL    HW116109   5.799   3.344   5.184
 5070SOL    HW216110   5.947   3.412   5.179
 5071SOL     OW16111   2.727   6.596   3.729
 5071SOL    HW116112   2.673   6.654   3.790
 5071SOL    HW216113   2.677   6.512   3.710
 5072SOL     OW16114   1.023   1.243   1.813
 5072SOL    HW116115   1.042   1.342   1.816
 5072SOL    HW216116   0.950   1.222   1.878
 5073SOL     OW16117   2.040   0.933   3.484
 5073SOL    HW116118   1.997   1.005   3.429
 5073SOL    HW216119   1.970   0.886   3.538
 5074SOL     OW16120   3.186   2.154   1.519
 5074SOL    HW116121   3.276   2.114   1.530
 5074SOL    HW216122   3.169   2.220   1.592
 5075SOL     OW16123   6.650   3.125   0.615
 5075SOL    HW116124   6.560   3.137   0.657
 5075SOL    HW216125   6.685   3.215   0.587
 5076SOL     OW16126   0.227   0.466   5.872
 5076SOL    HW116127   0.258   0.473   5.967
 5076SOL    HW216128   0.158   0.537   5.855
 5077SOL     OW16129   0.806   4.542   3.827
 5077SOL    HW116130   0.772   4.496   3.909
 5077SOL    HW216131   0.783   4.639   3.831
 5078SOL     OW16132   6.554   2.295   3.686
 5078SOL    HW116133   6.517   2.224   3.746
 5078SOL    HW216134   6.563   2.259   3.593
 5079SOL     OW16135   1.791   3.391   5.261
 5079SOL    HW116136   1.865   3.457   5.251
 5079SOL    HW216137   1.829   3.299   5.271
 5080SOL     OW16138   6.135   5.427   6.752
 5080SOL    HW116139   6.149   5.335   6.789
 5080SOL    HW216140   6.102   5.420   6.658
 5081SOL     OW16141   2.494   4.390   5.255
 5081SOL    HW116142   2.516   4.294   5.271
 5081SOL    HW216143   2.561   4.448   5.301
 5082SOL     OW16144   5.982   5.750   1.298
 5082SOL    HW116145   6.055   5.811   1.329
 5082SOL    HW216146   5.913   5.741   1.370
 5083SOL     OW16147   2.637   0.244   3.826
 5083SOL    HW116148   2.659   0.295   3.742
 5083SOL    HW216149   2.656   0.147   3.811
 5084SOL     OW16150   3.332   4.119   5.649
 5084SOL    HW116151   3.344   4.179   5.570
 5084SOL    HW216152   3.416   4.066   5.665
 5085SOL     OW16153   0.282   4.640   5.549
 5085SOL    HW116154   0.262   4.708   5.478
 5085SOL    HW216155   0.243   4.552   5.522
 5086SOL     OW16156   1.213   4.791   2.352
 5086SOL    HW116157   1.295   4.775   2.406
 5086SOL    HW216158   1.239   4.816   2.258
 5087SOL     OW16159   0.060   4.809   2.392
 5087SOL    HW116160   6.999   4.786   2.339
 5087SOL    HW216161   0.129   4.738   2.379
 5088SOL     OW16162   4.379   5.318   2.277
 5088SOL    HW116163   4.311   5.284   2.212
 5088SOL    HW216164   4.337   5.324   2.368
 5089SOL     OW16165   4.801   5.971   6.145
 5089SOL    HW116166   4.889   6.013   6.125
 5089SOL    HW216167   4.814   5.889   6.200
 5090SOL     OW16168   2.443   6.543   5.037
 5090SOL    HW116169   2.440   6.459   5.092
 5090SOL    HW216170   2.485   6.523   4.948
 5091SOL     OW16171   7.006   6.515   6.177
 5091SOL    HW116172   0.049   6.529   6.101
 5091SOL    HW216173   0.027   6.543   6.263
 5092SOL     OW16174   4.100   3.672   4.160
 5092SOL    HW116175   4.122   3.602   4.091
 5092SOL    HW216176   4.089   3.761   4.114
 5093SOL     OW16177   2.799   2.315   2.833
 5093SOL    HW116178   2.759   2.228   2.803
 5093SOL    HW216179   2.898   2.307   2.838
 5094SOL     OW16180   1.551   5.890   4.709
 5094SOL    HW116181   1.453   5.891   4.727
 5094SOL    HW216182   1.570   5.940   4.625
 5095SOL     OW16183   7.018   1.251   3.069
 5095SOL    HW116184   6.930   1.206   3.080
 5095SOL    HW216185   7.014   1.312   2.989
 5096SOL     OW16186   6.919   3.195   5.442
 5096SOL    HW116187   6.929   3.288   5.404
 5096SOL    HW216188   6.982   3.184   5.518
 5097SOL     OW16189   1.088   0.478   5.697
 5097SOL    HW116190   1.118   0.419   5.622
 5097SOL    HW216191   1.107   0.573   5.674
 5098SOL     OW16192   3.581   2.879   0.019
 5098SOL    HW116193   3.527   2.820   6.979
 5098SOL    HW216194   3.669   2.836   0.037
 5099SOL     OW16195   1.779   6.565   1.860
 5099SOL    HW116196   1.854   6.508   1.826
 5099SOL    HW216197   1.791   6.582   1.957
 5100SOL     OW16198   5.209   3.177   2.042
 5100SOL    HW116199   5.206   3.131   1.954
 5100SOL    HW216200   5.136   3.245   2.046
 5101SOL     OW16201   3.247   0.436   5.504
 5101SOL    HW116202   3.186   0.514   5.517
 5101SOL    HW216203   3.192   0.355   5.482
 5102SOL     OW16204   5.228   5.333   4.630
 5102SOL    HW116205   5.230   5.261   4.561
 5102SOL    HW216206   5.299   5.316   4.698
 5103SOL     OW16207   1.046   0.537   6.096
 5103SOL    HW116208   1.099   0.463   6.057
 5103SOL    HW216209   0.949   0.524   6.076
 5104SOL     OW16210   3.934   3.302   3.016
 5104SOL    HW116211   3.958   3.281   3.111
 5104SOL    HW216212   3.991   3.378   2.983
 5105SOL     OW16213   4.083   2.887   6.937
 5105SOL    HW116214   4.121   2.838   7.015
 5105SOL    HW216215   4.113   2.843   6.852
 5106SOL     OW16216   3.628   1.639   1.286
 5106SOL    HW116217   3.652   1.586   1.368
 5106SOL    HW216218   3.711   1.676   1.245
 5107SOL     OW16219   5.929   5.009   0.672
 5107SOL    HW116220   5.840   4.975   0.703
 5107SOL    HW216221   5.929   5.016   0.572
 5108SOL     OW16222   3.739   4.994   1.241
 5108SOL    HW116223   3.747   5.006   1.142
 5108SOL    HW216224   3.652   5.031   1.272
 5109SOL     OW16225   1.334   2.841   2.534
 5109SOL    HW116226   1.406   2.870   2.471
 5109SOL    HW216227   1.366   2.765   2.590
 5110SOL     OW16228   4.836   0.139   5.680
 5110SOL    HW116229   4.771   0.073   5.641
 5110SOL    HW216230   4.920   0.091   5.705
 5111SOL     OW16231   1.349   5.358   5.427
 5111SOL    HW116232   1.445   5.346   5.451
 5111SOL    HW216233   1.320   5.451   5.449
 5112SOL     OW16234   1.192   6.052   3.279
 5112SOL    HW116235   1.267   6.103   3.237
 5112SOL    HW216236   1.218   5.956   3.290
 5113SOL     OW16237   2.123   4.352   0.174
 5113SOL    HW116238   2.220   4.344   0.152
 5113SOL    HW216239   2.102   4.445   0.203
 5114SOL     OW16240   4.682   4.669   1.420
 5114SOL    HW116241   4.613   4.597   1.430
 5114SOL    HW216242   4.664   4.741   1.486
 5115SOL     OW16243   1.926   3.714   0.938
 5115SOL    HW116244   1.908   3.812   0.933
 5115SOL    HW216245   1.995   3.690   0.869
 5116SOL     OW16246   0.881   6.810   5.308
 5116SOL    HW116247   0.821   6.738   5.273
 5116SOL    HW216248   0.828   6.894   5.321
 5117SOL     OW16249   0.145   2.124   3.694
 5117SOL    HW116250   0.221   2.124   3.760
 5117SOL    HW216251   0.160   2.053   3.626
 5118SOL     OW16252   4.303   5.594   0.246
 5118SOL    HW116253   4.217   5.552   0.215
 5118SOL    HW216254   4.377   5.565   0.186
 5119SOL     OW16255   5.771   1.598   0.605
 5119SOL    HW116256   5.814   1.511   0.630
 5119SOL    HW216257   5.793   1.667   0.674
 5120SOL     OW16258   4.943   6.795   6.867
 5120SOL    HW116259   5.005   6.723   6.898
 5120SOL    HW216260   4.875   6.814   6.938
 5121SOL     OW16261   1.273   3.374   6.164
 5121SOL    HW116262   1.247   3.450   6.223
 5121SOL    HW216263   1.360   3.396   6.119
 5122SOL     OW16264   4.694   4.856   3.576
 5122SOL    HW116265   4.600   4.845   3.544
 5122SOL    HW216266   4.694   4.862   3.676
 5123SOL     OW16267   4.892   2.854   2.471
 5123SOL    HW116268   4.801   2.818   2.451
 5123SOL    HW216269   4.930   2.896   2.389
 5124SOL     OW16270   1.401   6.145   5.214
 5124SOL    HW116271   1.469   6.206   5.254
 5124SOL    HW216272   1.324   6.134   5.278
 5125SOL     OW16273   6.425   1.626   3.841
 5125SOL    HW116274   6.453   1.676   3.759
 5125SOL    HW216275   6.486   1.548   3.856
 5126SOL     OW16276   1.736   0.812   1.921
 5126SOL    HW116277   1.690   0.851   1.842
 5126SOL    HW216278   1.694   0.847   2.005
 5127SOL     OW16279   2.530   6.219   0.249
 5127SOL    HW116280   2.457   6.162   0.208
 5127SOL    HW216281   2.583   6.262   0.176
 5128SOL     OW16282   5.715   0.011   1.600
 5128SOL    HW116283   5.793   0.047   1.652
 5128SOL    HW216284   5.675   6.954   1.648
 5129SOL     OW16285   6.551   6.509   0.223
 5129SOL    HW116286   6.566   6.435   0.290
 5129SOL    HW216287   6.532   6.469   0.133
 5130SOL     OW16288   6.246   4.998   2.553
 5130SOL    HW116289   6.177   5.032   2.617
 5130SOL    HW216290   6.201   4.950   2.478
 5131SOL     OW16291   1.874   2.520   2.648
 5131SOL    HW116292   1.892   2.438   2.702
 5131SOL    HW216293   1.939   2.592   2.673
 5132SOL     OW16294   2.607   5.904   4.735
 5132SOL    HW116295   2.631   5.813   4.770
 5132SOL    HW216296   2.544   5.949   4.798
 5133SOL     OW16297   3.677   6.123   5.319
 5133SOL    HW116298   3.720   6.208   5.347
 5133SOL    HW216299   3.596   6.106   5.377
 5134SOL     OW16300   6.111   3.774   5.959
 5134SOL    HW116301   6.057   3.763   5.876
 5134SOL    HW216302   6.049   3.786   6.037
 5135SOL     OW16303   5.912   1.385   4.520
 5135SOL    HW116304   5.993   1.444   4.513
 5135SOL    HW216305   5.878   1.364   4.429
 5136SOL     OW16306   3.807   1.889   5.526
 5136SOL    HW116307   3.752   1.960   5.483
 5136SOL    HW216308   3.774   1.799   5.498
 5137SOL     OW16309   3.398   3.930   6.643
 5137SOL    HW116310   3.298   3.929   6.640
 5137SOL    HW216311   3.433   3.844   6.606
 5138SOL     OW16312   2.462   3.171   6.364
 5138SOL    HW116313   2.465   3.269   6.384
 5138SOL    HW216314   2.514   3.121   6.432
 5139SOL     OW16315   0.360   0.054   3.759
 5139SOL    HW116316   0.299   0.001   3.818
 5139SOL    HW216317   0.327   0.050   3.665
 5140SOL     OW16318   3.347   2.789   2.010
 5140SOL    HW116319   3.265   2.763   1.958
 5140SOL    HW216320   3.415   2.827   1.947
 5141SOL     OW16321   0.602   4.237   6.058
 5141SOL    HW116322   0.679   4.211   6.117
 5141SOL    HW216323   0.637   4.280   5.975
 5142SOL     OW16324   5.765   2.871   2.959
 5142SOL    HW116325   5.854   2.877   2.913
 5142SOL    HW216326   5.772   2.913   3.049
 5143SOL     OW16327   6.751   5.260   5.107
 5143SOL    HW116328   6.808   5.341   5.123
 5143SOL    HW216329   6.765   5.195   5.182
 5144SOL     OW16330   1.657   1.690   4.829
 5144SOL    HW116331   1.599   1.772   4.821
 5144SOL    HW216332   1.747   1.709   4.789
 5145SOL     OW16333   3.639   5.634   5.946
 5145SOL    HW116334   3.657   5.716   6.001
 5145SOL    HW216335   3.698   5.560   5.978
 5146SOL     OW16336   2.816   5.075   6.789
 5146SOL    HW116337   2.798   5.170   6.765
 5146SOL    HW216338   2.807   5.063   6.888
 5147SOL     OW16339   6.652   5.351   6.187
 5147SOL    HW116340   6.674   5.254   6.172
 5147SOL    HW216341   6.604   5.361   6.274
 5148SOL     OW16342   0.798   0.115   0.995
 5148SOL    HW116343   0.874   0.125   1.060
 5148SOL    HW216344   0.816   0.036   0.936
 5149SOL     OW16345   0.071   0.365   5.627
 5149SOL    HW116346   0.106   0.289   5.571
 5149SOL    HW216347   0.134   0.383   5.702
 5150SOL     OW16348   2.041   5.607   4.165
 5150SOL    HW116349   2.088   5.696   4.158
 5150SOL    HW216350   2.039   5.578   4.260
 5151SOL     OW16351   4.552   1.072   5.962
 5151SOL    HW116352   4.585   1.110   6.049
 5151SOL    HW216353   4.547   1.145   5.894
 5152SOL     OW16354   0.510   4.600   0.497
 5152SOL    HW116355   0.588   4.551   0.459
 5152SOL    HW216356   0.466   4.654   0.425
 5153SOL     OW16357   1.786   2.135   1.170
 5153SOL    HW116358   1.855   2.104   1.235
 5153SOL    HW216359   1.787   2.077   1.089
 5154SOL     OW16360   1.543   3.965   5.517
 5154SOL    HW116361   1.491   3.880   5.521
 5154SOL    HW216362   1.621   3.960   5.580
 5155SOL     OW16363   3.404   0.734   2.526
 5155SOL    HW116364   3.359   0.684   2.600
 5155SOL    HW216365   3.489   0.775   2.560
 5156SOL     OW16366   5.793   2.864   6.045
 5156SOL    HW116367   5.786   2.780   5.990
 5156SOL    HW216368   5.865   2.922   6.007
 5157SOL     OW16369   5.842   2.625   4.042
 5157SOL    HW116370   5.759   2.569   4.041
 5157SOL    HW216371   5.829   2.704   3.982
 5158SOL     OW16372   3.613   0.506   0.793
 5158SOL    HW116373   3.682   0.578   0.796
 5158SOL    HW216374   3.635   0.437   0.862
 5159SOL     OW16375   1.971   3.423   4.937
 5159SOL    HW116376   2.028   3.344   4.957
 5159SOL    HW216377   1.972   3.485   5.016
 5160SOL     OW16378   1.744   2.870   4.346
 5160SOL    HW116379   1.798   2.954   4.347
 5160SOL    HW216380   1.655   2.887   4.388
 5161SOL     OW16381   1.743   3.331   6.548
 5161SOL    HW116382   1.686   3.272   6.605
 5161SOL    HW216383   1.833   3.344   6.591
 5162SOL     OW16384   6.637   5.072   4.355
 5162SOL    HW116385   6.715   5.033   4.305
 5162SOL    HW216386   6.671   5.136   4.424
 5163SOL     OW16387   5.473   3.982   0.753
 5163SOL    HW116388   5.434   3.892   0.773
 5163SOL    HW216389   5.571   3.973   0.738
 5164SOL     OW16390   5.785   5.688   5.473
 5164SOL    HW116391   5.795   5.786   5.493
 5164SOL    HW216392   5.760   5.639   5.556
 5165SOL     OW16393   6.345   3.530   4.532
 5165SOL    HW116394   6.436   3.549   4.495
 5165SOL    HW216395   6.306   3.450   4.486
 5166SOL     OW16396   1.780   0.229   1.543
 5166SOL    HW116397   1.724   0.195   1.467
 5166SOL    HW216398   1.742   0.196   1.629
 5167SOL     OW16399   1.627   0.267   5.686
 5167SOL    HW116400   1.717   0.246   5.647
 5167SOL    HW216401   1.584   0.339   5.632
 5168SOL     OW16402   4.099   1.910   3.068
 5168SOL    HW116403   4.138   1.923   3.159
 5168SOL    HW216404   4.095   1.813   3.046
 5169SOL     OW16405   4.037   4.349   6.514
 5169SOL    HW116406   3.955   4.405   6.524
 5169SOL    HW216407   4.025   4.264   6.565
 5170SOL     OW16408   4.288   5.184   4.462
 5170SOL    HW116409   4.256   5.135   4.380
 5170SOL    HW216410   4.222   5.255   4.486
 5171SOL     OW16411   2.703   4.941   5.024
 5171SOL    HW116412   2.656   4.907   4.943
 5171SOL    HW216413   2.741   4.864   5.076
 5172SOL     OW16414   2.194   4.593   6.983
 5172SOL    HW116415   2.141   4.611   0.044
 5172SOL    HW216416   2.284   4.636   6.991
 5173SOL     OW16417   6.801   3.010   6.257
 5173SOL    HW116418   6.892   2.971   6.268
 5173SOL    HW216419   6.807   3.096   6.206
 5174SOL     OW16420   1.604   4.728   6.133
 5174SOL    HW116421   1.598   4.793   6.057
 5174SOL    HW216422   1.512   4.707   6.167
 5175SOL     OW16423   0.474   5.231   5.832
 5175SOL    HW116424   0.557   5.177   5.846
 5175SOL    HW216425   0.498   5.328   5.820
 5176SOL     OW16426   5.270   4.076   5.629
 5176SOL    HW116427   5.176   4.105   5.612
 5176SOL    HW216428   5.332   4.149   5.603
 5177SOL     OW16429   5.216   5.628   6.394
 5177SOL    HW116430   5.205   5.693   6.470
 5177SOL    HW216431   5.131   5.576   6.382
 5178SOL     OW16432   2.727   2.163   1.712
 5178SOL    HW116433   2.791   2.136   1.784
 5178SOL    HW216434   2.700   2.082   1.660
 5179SOL     OW16435   3.477   6.277   5.064
 5179SOL    HW116436   3.570   6.282   5.027
 5179SOL    HW216437   3.481   6.277   5.164
 5180SOL     OW16438   2.828   1.636   0.332
 5180SOL    HW116439   2.861   1.650   0.239
 5180SOL    HW216440   2.733   1.607   0.330
 5181SOL     OW16441   2.751   5.766   2.821
 5181SOL    HW116442   2.709   5.687   2.865
 5181SOL    HW216443   2.698   5.848   2.841
 5182SOL     OW16444   4.842   4.244   1.645
 5182SOL    HW116445   4.754   4.291   1.645
 5182SOL    HW216446   4.834   4.159   1.697
 5183SOL     OW16447   3.768   0.900   3.487
 5183SOL    HW116448   3.725   0.830   3.430
 5183SOL    HW216449   3.759   0.989   3.442
 5184SOL     OW16450   0.954   2.169   3.108
 5184SOL    HW116451   1.009   2.094   3.146
 5184SOL    HW216452   1.006   2.216   3.037
 5185SOL     OW16453   3.917   0.318   1.862
 5185SOL    HW116454   3.875   0.315   1.771
 5185SOL    HW216455   3.885   0.240   1.916
 5186SOL     OW16456   5.328   4.659   0.051
 5186SOL    HW116457   5.350   4.676   0.147
 5186SOL    HW216458   5.410   4.628   0.002
 5187SOL     OW16459   5.235   1.559   4.503
 5187SOL    HW116460   5.269   1.476   4.458
 5187SOL    HW216461   5.254   1.554   4.601
 5188SOL     OW16462   1.057   2.764   4.170
 5188SOL    HW116463   1.154   2.772   4.148
 5188SOL    HW216464   1.028   2.669   4.158
 5189SOL     OW16465   4.474   5.788   6.925
 5189SOL    HW116466   4.447   5.770   7.020
 5189SOL    HW216467   4.564   5.749   6.908
 5190SOL     OW16468   2.124   3.053   3.131
 5190SOL    HW116469   2.074   2.967   3.118
 5190SOL    HW216470   2.220   3.040   3.109
 5191SOL     OW16471   4.865   0.643   2.069
 5191SOL    HW116472   4.943   0.703   2.053
 5191SOL    HW216473   4.888   0.550   2.042
 5192SOL     OW16474   6.038   4.504   2.152
 5192SOL    HW116475   6.020   4.471   2.245
 5192SOL    HW216476   5.977   4.580   2.131
 5193SOL     OW16477   4.820   3.917   2.239
 5193SOL    HW116478   4.796   3.834   2.189
 5193SOL    HW216479   4.859   3.985   2.175
 5194SOL     OW16480   5.081   1.228   0.099
 5194SOL    HW116481   4.988   1.191   0.104
 5194SOL    HW216482   5.078   1.327   0.118
 5195SOL     OW16483   5.998   6.250   5.142
 5195SOL    HW116484   6.025   6.227   5.236
 5195SOL    HW216485   5.996   6.350   5.133
 5196SOL     OW16486   0.770   3.200   2.230
 5196SOL    HW116487   0.841   3.208   2.160
 5196SOL    HW216488   0.807   3.152   2.310
 5197SOL     OW16489   3.412   5.946   5.269
 5197SOL    HW116490   3.494   5.896   5.242
 5197SOL    HW216491   3.337   5.922   5.207
 5198SOL     OW16492   4.062   0.832   5.397
 5198SOL    HW116493   4.111   0.802   5.479
 5198SOL    HW216494   4.106   0.794   5.316
 5199SOL     OW16495   0.439   5.431   1.678
 5199SOL    HW116496   0.437   5.483   1.763
 5199SOL    HW216497   0.487   5.483   1.608
 5200SOL     OW16498   0.201   6.648   5.043
 5200SOL    HW116499   0.243   6.712   5.108
 5200SOL    HW216500   0.216   6.681   4.950
 5201SOL     OW16501   6.033   4.687   5.097
 5201SOL    HW116502   6.079   4.752   5.037
 5201SOL    HW216503   5.960   4.640   5.047
 5202SOL     OW16504   3.762   3.008   5.882
 5202SOL    HW116505   3.762   3.009   5.982
 5202SOL    HW216506   3.668   3.015   5.848
 5203SOL     OW16507   1.209   0.157   6.288
 5203SOL    HW116508   1.250   0.241   6.251
 5203SOL    HW216509   1.245   0.138   6.379
 5204SOL     OW16510   2.157   0.618   0.759
 5204SOL    HW116511   2.107   0.655   0.837
 5204SOL    HW216512   2.120   0.529   0.734
 5205SOL     OW16513   6.939   7.015   1.246
 5205SOL    HW116514   6.880   0.011   1.167
 5205SOL    HW216515   6.965   6.919   1.248
 5206SOL     OW16516   1.286   4.278   3.987
 5206SOL    HW116517   1.253   4.207   4.049
 5206SOL    HW216518   1.209   4.337   3.960
 5207SOL     OW16519   5.615   6.881   4.911
 5207SOL    HW116520   5.612   6.782   4.901
 5207SOL    HW216521   5.521   6.916   4.917
 5208SOL     OW16522   6.546   1.561   0.396
 5208SOL    HW116523   6.529   1.597   0.488
 5208SOL    HW216524   6.635   1.516   0.394
 5209SOL     OW16525   5.407   6.603   3.552
 5209SOL    HW116526   5.484   6.655   3.516
 5209SOL    HW216527   5.363   6.655   3.626
 5210SOL     OW16528   5.536   4.354   0.937
 5210SOL    HW116529   5.580   4.439   0.964
 5210SOL    HW216530   5.436   4.366   0.941
 5211SOL     OW16531   5.572   2.769   5.047
 5211SOL    HW116532   5.508   2.844   5.064
 5211SOL    HW216533   5.531   2.704   4.984
 5212SOL     OW16534   0.022   3.714   0.531
 5212SOL    HW116535   7.009   3.653   0.459
 5212SOL    HW216536   0.031   3.663   0.616
 5213SOL     OW16537   4.145   3.482   2.814
 5213SOL    HW116538   4.222   3.453   2.757
 5213SOL    HW216539   4.176   3.497   2.907
 5214SOL     OW16540   5.597   3.084   5.568
 5214SOL    HW116541   5.670   3.024   5.533
 5214SOL    HW216542   5.620   3.113   5.661
 5215SOL     OW16543   0.170   5.177   5.157
 5215SOL    HW116544   0.113   5.104   5.119
 5215SOL    HW216545   0.216   5.226   5.082
 5216SOL     OW16546   5.539   4.848   1.246
 5216SOL    HW116547   5.527   4.833   1.147
 5216SOL    HW216548   5.450   4.848   1.291
 5217SOL     OW16549   4.806   6.745   2.827
 5217SOL    HW116550   4.791   6.821   2.763
 5217SOL    HW216551   4.892   6.759   2.875
 5218SOL     OW16552   6.277   6.944   0.194
 5218SOL    HW116553   6.284   6.997   0.279
 5218SOL    HW216554   6.319   6.854   0.207
 5219SOL     OW16555   3.418   1.041   5.333
 5219SOL    HW116556   3.463   1.068   5.248
 5219SOL    HW216557   3.487   1.026   5.404
 5220SOL     OW16558   2.135   4.836   4.601
 5220SOL    HW116559   2.134   4.809   4.697
 5220SOL    HW216560   2.229   4.829   4.565
 5221SOL     OW16561   5.376   6.214   1.265
 5221SOL    HW116562   5.324   6.140   1.223
 5221SOL    HW216563   5.349   6.302   1.225
 5222SOL     OW16564   0.139   3.429   1.964
 5222SOL    HW116565   0.039   3.435   1.959
 5222SOL    HW216566   0.168   3.447   2.058
 5223SOL     OW16567   6.437   2.888   0.871
 5223SOL    HW116568   6.399   2.974   0.905
 5223SOL    HW216569   6.536   2.898   0.861
 5224SOL     OW16570   1.145   1.456   5.164
 5224SOL    HW116571   1.055   1.446   5.120
 5224SOL    HW216572   1.191   1.367   5.165
 5225SOL     OW16573   6.759   1.604   4.859
 5225SOL    HW116574   6.822   1.535   4.896
 5225SOL    HW216575   6.805   1.693   4.857
 5226SOL     OW16576   0.375   6.210   4.483
 5226SOL    HW116577   0.427   6.137   4.527
 5226SOL    HW216578   0.385   6.294   4.537
 5227SOL     OW16579   0.816   3.511   5.976
 5227SOL    HW116580   0.837   3.608   5.966
 5227SOL    HW216581   0.760   3.481   5.899
 5228SOL     OW16582   0.882   1.976   5.564
 5228SOL    HW116583   0.959   1.942   5.617
 5228SOL    HW216584   0.887   1.941   5.470
 5229SOL     OW16585   3.389   1.940   5.768
 5229SOL    HW116586   3.478   1.971   5.800
 5229SOL    HW216587   3.336   1.906   5.845
 5230SOL     OW16588   6.526   6.988   2.846
 5230SOL    HW116589   6.593   6.962   2.916
 5230SOL    HW216590   6.534   6.926   2.768
 5231SOL     OW16591   6.179   3.623   2.288
 5231SOL    HW116592   6.105   3.665   2.341
 5231SOL    HW216593   6.186   3.668   2.199
 5232SOL     OW16594   1.663   2.416   5.846
 5232SOL    HW116595   1.571   2.404   5.808
 5232SOL    HW216596   1.662   2.396   5.944
 5233SOL     OW16597   3.706   7.006   3.048
 5233SOL    HW116598   3.663   0.074   3.035
 5233SOL    HW216599   3.771   6.989   2.974
 5234SOL     OW16600   3.003   2.629   5.980
 5234SOL    HW116601   2.993   2.590   6.072
 5234SOL    HW216602   2.921   2.681   5.958
 5235SOL     OW16603   2.536   2.022   1.473
 5235SOL    HW116604   2.485   1.962   1.534
 5235SOL    HW216605   2.481   2.102   1.451
 5236SOL     OW16606   3.193   4.883   1.734
 5236SOL    HW116607   3.261   4.812   1.750
 5236SOL    HW216608   3.108   4.859   1.780
 5237SOL     OW16609   1.899   1.676   1.951
 5237SOL    HW116610   1.853   1.763   1.968
 5237SOL    HW216611   1.830   1.603   1.944
 5238SOL     OW16612   0.067   0.470   3.152
 5238SOL    HW116613   0.108   0.539   3.092
 5238SOL    HW216614   0.104   0.380   3.128
 5239SOL     OW16615   2.772   4.549   0.825
 5239SOL    HW116616   2.693   4.600   0.791
 5239SOL    HW216617   2.789   4.470   0.765
 5240SOL     OW16618   2.221   4.154   6.041
 5240SOL    HW116619   2.216   4.241   6.089
 5240SOL    HW216620   2.172   4.084   6.093
 5241SOL     OW16621   2.359   6.376   2.564
 5241SOL    HW116622   2.364   6.276   2.565
 5241SOL    HW216623   2.433   6.414   2.620
 5242SOL     OW16624   3.578   6.427   6.065
 5242SOL    HW116625   3.528   6.479   5.995
 5242SOL    HW216626   3.648   6.371   6.020
 5243SOL     OW16627   2.848   6.185   3.039
 5243SOL    HW116628   2.859   6.209   2.942
 5243SOL    HW216629   2.938   6.172   3.080
 5244SOL     OW16630   4.204   1.278   0.246
 5244SOL    HW116631   4.235   1.196   0.293
 5244SOL    HW216632   4.267   1.299   0.171
 5245SOL     OW16633   3.208   4.239   1.705
 5245SOL    HW116634   3.120   4.192   1.705
 5245SOL    HW216635   3.260   4.212   1.786
 5246SOL     OW16636   6.023   4.270   6.306
 5246SOL    HW116637   5.936   4.288   6.350
 5246SOL    HW216638   6.072   4.356   6.290
 5247SOL     OW16639   4.981   1.815   6.483
 5247SOL    HW116640   4.991   1.915   6.484
 5247SOL    HW216641   4.912   1.787   6.549
 5248SOL     OW16642   5.389   1.407   4.234
 5248SOL    HW116643   5.433   1.451   4.313
 5248SOL    HW216644   5.321   1.342   4.267
 5249SOL     OW16645   6.731   5.228   0.986
 5249SOL    HW116646   6.785   5.172   0.922
 5249SOL    HW216647   6.788   5.255   1.063
 5250SOL     OW16648   2.377   5.455   0.974
 5250SOL    HW116649   2.391   5.374   0.916
 5250SOL    HW216650   2.285   5.453   1.013
 5251SOL     OW16651   0.411   4.947   0.130
 5251SOL    HW116652   0.492   4.961   0.073
 5251SOL    HW216653   0.334   4.921   0.073
 5252SOL     OW16654   3.785   5.849   2.415
 5252SOL    HW116655   3.753   5.754   2.406
 5252SOL    HW216656   3.706   5.911   2.406
 5253SOL     OW16657   0.236   5.657   4.869
 5253SOL    HW116658   0.318   5.665   4.925
 5253SOL    HW216659   0.155   5.668   4.926
 5254SOL     OW16660   4.795   5.970   2.512
 5254SOL    HW116661   4.834   5.883   2.541
 5254SOL    HW216662   4.748   5.957   2.424
 5255SOL     OW16663   6.699   1.501   5.743
 5255SOL    HW116664   6.752   1.583   5.764
 5255SOL    HW216665   6.754   1.439   5.688
 5256SOL     OW16666   6.013   1.809   2.706
 5256SOL    HW116667   6.063   1.823   2.621
 5256SOL    HW216668   6.069   1.755   2.769
 5257SOL     OW16669   4.345   1.782   6.397
 5257SOL    HW116670   4.253   1.756   6.367
 5257SOL    HW216671   4.344   1.879   6.424
 5258SOL     OW16672   4.684   1.656   4.812
 5258SOL    HW116673   4.599   1.662   4.865
 5258SOL    HW216674   4.733   1.742   4.820
 5259SOL     OW16675   5.523   5.090   4.029
 5259SOL    HW116676   5.584   5.169   4.031
 5259SOL    HW216677   5.577   5.006   4.040
 5260SOL     OW16678   2.288   6.258   1.638
 5260SOL    HW116679   2.223   6.183   1.645
 5260SOL    HW216680   2.359   6.234   1.572
 5261SOL     OW16681   5.825   4.463   6.679
 5261SOL    HW116682   5.796   4.559   6.686
 5261SOL    HW216683   5.850   4.442   6.584
 5262SOL     OW16684   1.626   0.930   1.668
 5262SOL    HW116685   1.623   1.018   1.620
 5262SOL    HW216686   1.670   0.861   1.610
 5263SOL     OW16687   1.730   6.360   3.100
 5263SOL    HW116688   1.798   6.423   3.064
 5263SOL    HW216689   1.696   6.301   3.026
 5264SOL     OW16690   6.711   2.347   1.768
 5264SOL    HW116691   6.672   2.313   1.853
 5264SOL    HW216692   6.765   2.275   1.725
 5265SOL     OW16693   6.699   5.749   5.543
 5265SOL    HW116694   6.751   5.818   5.592
 5265SOL    HW216695   6.734   5.741   5.449
 5266SOL     OW16696   1.424   6.556   6.377
 5266SOL    HW116697   1.508   6.587   6.422
 5266SOL    HW216698   1.345   6.578   6.434
 5267SOL     OW16699   5.526   1.949   4.134
 5267SOL    HW116700   5.529   1.942   4.034
 5267SOL    HW216701   5.441   1.993   4.162
 5268SOL     OW16702   5.377   0.090   6.552
 5268SOL    HW116703   5.303   0.158   6.549
 5268SOL    HW216704   5.341   7.021   6.531
 5269SOL     OW16705   1.259   0.283   3.717
 5269SOL    HW116706   1.291   0.367   3.760
 5269SOL    HW216707   1.304   0.271   3.628
 5270SOL     OW16708   0.453   2.009   6.069
 5270SOL    HW116709   0.456   2.097   6.021
 5270SOL    HW216710   0.455   2.025   6.168
 5271SOL     OW16711   1.384   4.602   3.634
 5271SOL    HW116712   1.329   4.627   3.714
 5271SOL    HW216713   1.327   4.609   3.552
 5272SOL     OW16714   4.026   1.121   6.536
 5272SOL    HW116715   4.084   1.137   6.457
 5272SOL    HW216716   4.017   1.023   6.553
 5273SOL     OW16717   3.208   1.908   3.159
 5273SOL    HW116718   3.249   1.992   3.126
 5273SOL    HW216719   3.152   1.866   3.087
 5274SOL     OW16720   5.452   5.110   1.375
 5274SOL    HW116721   5.493   5.078   1.289
 5274SOL    HW216722   5.487   5.056   1.451
 5275SOL     OW16723   4.932   2.093   6.516
 5275SOL    HW116724   4.988   2.165   6.555
 5275SOL    HW216725   4.837   2.105   6.545
 5276SOL     OW16726   4.223   6.528   1.974
 5276SOL    HW116727   4.234   6.430   1.963
 5276SOL    HW216728   4.280   6.576   1.907
 5277SOL     OW16729   2.406   2.632   2.075
 5277SOL    HW116730   2.477   2.677   2.130
 5277SOL    HW216731   2.397   2.678   1.987
 5278SOL     OW16732   4.073   3.608   2.507
 5278SOL    HW116733   3.985   3.565   2.527
 5278SOL    HW216734   4.102   3.663   2.585
 5279SOL     OW16735   1.430   6.186   2.450
 5279SOL    HW116736   1.386   6.108   2.494
 5279SOL    HW216737   1.496   6.227   2.513
 5280SOL     OW16738   3.722   1.044   4.534
 5280SOL    HW116739   3.681   0.996   4.611
 5280SOL    HW216740   3.681   1.011   4.449
 5281SOL     OW16741   6.956   2.558   3.900
 5281SOL    HW116742   6.978   2.472   3.853
 5281SOL    HW216743   7.016   2.568   3.979
 5282SOL     OW16744   4.999   1.531   1.233
 5282SOL    HW116745   4.977   1.493   1.143
 5282SOL    HW216746   4.915   1.544   1.285
 5283SOL     OW16747   4.744   4.645   6.150
 5283SOL    HW116748   4.752   4.745   6.139
 5283SOL    HW216749   4.683   4.625   6.227
 5284SOL     OW16750   4.888   2.926   3.984
 5284SOL    HW116751   4.973   2.878   3.963
 5284SOL    HW216752   4.900   3.024   3.968
 5285SOL     OW16753   4.370   6.525   2.644
 5285SOL    HW116754   4.288   6.531   2.701
 5285SOL    HW216755   4.368   6.439   2.592
 5286SOL     OW16756   2.096   5.264   2.278
 5286SOL    HW116757   2.124   5.246   2.184
 5286SOL    HW216758   2.177   5.272   2.336
 5287SOL     OW16759   0.545   1.275   2.425
 5287SOL    HW116760   0.527   1.259   2.328
 5287SOL    HW216761   0.512   1.197   2.478
 5288SOL     OW16762   4.386   0.257   0.683
 5288SOL    HW116763   4.357   0.308   0.764
 5288SOL    HW216764   4.403   0.321   0.608
 5289SOL     OW16765   1.346   5.993   1.288
 5289SOL    HW116766   1.375   5.935   1.364
 5289SOL    HW216767   1.303   6.076   1.326
 5290SOL     OW16768   5.859   5.980   6.956
 5290SOL    HW116769   5.944   6.029   6.939
 5290SOL    HW216770   5.832   5.930   6.873
 5291SOL     OW16771   1.291   5.713   6.655
 5291SOL    HW116772   1.306   5.703   6.753
 5291SOL    HW216773   1.329   5.800   6.624
 5292SOL     OW16774   5.381   1.373   0.812
 5292SOL    HW116775   5.432   1.452   0.779
 5292SOL    HW216776   5.309   1.403   0.875
 5293SOL     OW16777   1.333   1.416   3.578
 5293SOL    HW116778   1.239   1.442   3.557
 5293SOL    HW216779   1.374   1.484   3.638
 5294SOL     OW16780   4.680   2.745   5.830
 5294SOL    HW116781   4.754   2.719   5.768
 5294SOL    HW216782   4.594   2.750   5.779
 5295SOL     OW16783   6.456   1.056   2.488
 5295SOL    HW116784   6.430   0.971   2.442
 5295SOL    HW216785   6.464   1.129   2.421
 5296SOL     OW16786   0.557   3.191   6.908
 5296SOL    HW116787   0.638   3.179   6.966
 5296SOL    HW216788   0.531   3.288   6.906
 5297SOL     OW16789   1.453   2.991   2.099
 5297SOL    HW116790   1.467   2.982   2.000
 5297SOL    HW216791   1.435   2.900   2.138
 5298SOL     OW16792   0.869   4.413   1.815
 5298SOL    HW116793   0.915   4.341   1.867
 5298SOL    HW216794   0.810   4.371   1.746
 5299SOL     OW16795   3.040   0.255   1.311
 5299SOL    HW116796   2.970   0.317   1.277
 5299SOL    HW216797   3.035   0.251   1.411
 5300SOL     OW16798   0.554   4.842   3.664
 5300SOL    HW116799   0.472   4.867   3.614
 5300SOL    HW216800   0.571   4.909   3.736
 5301SOL     OW16801   4.395   0.511   0.405
 5301SOL    HW116802   4.323   0.567   0.446
 5301SOL    HW216803   4.386   0.512   0.306
 5302SOL     OW16804   6.264   4.046   3.433
 5302SOL    HW116805   6.197   4.004   3.372
 5302SOL    HW216806   6.219   4.116   3.489
 5303SOL     OW16807   1.970   4.937   3.110
 5303SOL    HW116808   1.903   5.010   3.094
 5303SOL    HW216809   2.037   4.937   3.036
 5304SOL     OW16810   4.820   2.800   5.507
 5304SOL    HW116811   4.750   2.865   5.476
 5304SOL    HW216812   4.782   2.708   5.509
 5305SOL     OW16813   2.955   1.094   4.065
 5305SOL    HW116814   2.931   1.179   4.112
 5305SOL    HW216815   2.986   1.027   4.132
 5306SOL     OW16816   2.757   6.410   4.497
 5306SOL    HW116817   2.791   6.469   4.423
 5306SOL    HW216818   2.809   6.324   4.497
 5307SOL     OW16819   4.083   0.071   0.194
 5307SOL    HW116820   4.071   0.075   0.293
 5307SOL    HW216821   4.027   7.019   0.157
 5308SOL     OW16822   0.235   1.153   1.989
 5308SOL    HW116823   0.138   1.179   1.998
 5308SOL    HW216824   0.241   1.061   1.950
 5309SOL     OW16825   3.415   3.712   4.717
 5309SOL    HW116826   3.474   3.658   4.777
 5309SOL    HW216827   3.320   3.705   4.747
 5310SOL     OW16828   5.511   3.096   0.538
 5310SOL    HW116829   5.420   3.108   0.578
 5310SOL    HW216830   5.503   3.043   0.453
 5311SOL     OW16831   0.583   6.434   6.523
 5311SOL    HW116832   0.665   6.438   6.581
 5311SOL    HW216833   0.577   6.345   6.478
 5312SOL     OW16834   0.849   3.139   1.896
 5312SOL    HW116835   0.828   3.059   1.952
 5312SOL    HW216836   0.944   3.136   1.867
 5313SOL     OW16837   0.927   6.461   0.691
 5313SOL    HW116838   0.865   6.430   0.764
 5313SOL    HW216839   1.007   6.504   0.732
 5314SOL     OW16840   3.833   5.670   1.208
 5314SOL    HW116841   3.858   5.589   1.261
 5314SOL    HW216842   3.754   5.648   1.151
 5315SOL     OW16843   5.506   2.403   2.132
 5315SOL    HW116844   5.543   2.430   2.043
 5315SOL    HW216845   5.414   2.365   2.120
 5316SOL     OW16846   5.681   5.264   4.369
 5316SOL    HW116847   5.622   5.183   4.368
 5316SOL    HW216848   5.717   5.280   4.277
 5317SOL     OW16849   6.555   5.382   2.386
 5317SOL    HW116850   6.514   5.470   2.408
 5317SOL    HW216851   6.652   5.383   2.411
 5318SOL     OW16852   0.084   2.402   4.302
 5318SOL    HW116853   7.016   2.360   4.283
 5318SOL    HW216854   0.081   2.447   4.391
 5319SOL     OW16855   3.639   6.822   2.576
 5319SOL    HW116856   3.653   6.904   2.632
 5319SOL    HW216857   3.544   6.820   2.544
 5320SOL     OW16858   6.667   3.641   6.014
 5320SOL    HW116859   6.690   3.582   5.936
 5320SOL    HW216860   6.640   3.731   5.980
 5321SOL     OW16861   2.379   4.566   6.000
 5321SOL    HW116862   2.392   4.570   5.901
 5321SOL    HW216863   2.464   4.593   6.046
 5322SOL     OW16864   2.737   6.079   0.772
 5322SOL    HW116865   2.688   6.085   0.685
 5322SOL    HW216866   2.693   6.009   0.829
 5323SOL     OW16867   5.149   2.749   0.414
 5323SOL    HW116868   5.183   2.666   0.460
 5323SOL    HW216869   5.129   2.727   0.318
 5324SOL     OW16870   3.914   3.178   1.365
 5324SOL    HW116871   3.990   3.138   1.313
 5324SOL    HW216872   3.917   3.146   1.459
 5325SOL     OW16873   4.405   6.427   4.365
 5325SOL    HW116874   4.310   6.445   4.389
 5325SOL    HW216875   4.431   6.481   4.285
 5326SOL     OW16876   0.071   0.218   2.683
 5326SOL    HW116877   0.121   0.236   2.599
 5326SOL    HW216878   0.120   0.259   2.760
 5327SOL     OW16879   6.789   0.443   3.792
 5327SOL    HW116880   6.856   0.371   3.774
 5327SOL    HW216881   6.810   0.523   3.736
 5328SOL     OW16882   3.874   4.888   0.173
 5328SOL    HW116883   3.900   4.932   0.087
 5328SOL    HW216884   3.952   4.837   0.209
 5329SOL     OW16885   0.557   5.245   6.542
 5329SOL    HW116886   0.617   5.324   6.526
 5329SOL    HW216887   0.597   5.187   6.612
 5330SOL     OW16888   3.796   4.129   0.321
 5330SOL    HW116889   3.739   4.207   0.295
 5330SOL    HW216890   3.871   4.119   0.256
 5331SOL     OW16891   5.235   1.180   6.881
 5331SOL    HW116892   5.213   1.151   6.788
 5331SOL    HW216893   5.151   1.185   6.935
 5332SOL     OW16894   5.899   3.271   6.563
 5332SOL    HW116895   5.956   3.219   6.626
 5332SOL    HW216896   5.811   3.224   6.552
 5333SOL     OW16897   1.341   0.900   4.044
 5333SOL    HW116898   1.260   0.944   4.006
 5333SOL    HW216899   1.393   0.966   4.099
 5334SOL     OW16900   3.281   6.179   2.041
 5334SOL    HW116901   3.280   6.101   2.103
 5334SOL    HW216902   3.323   6.153   1.955
 5335SOL     OW16903   0.269   4.474   2.036
 5335SOL    HW116904   0.291   4.546   1.970
 5335SOL    HW216905   0.171   4.477   2.056
 5336SOL     OW16906   2.087   3.312   5.494
 5336SOL    HW116907   2.134   3.396   5.467
 5336SOL    HW216908   2.066   3.315   5.591
 5337SOL     OW16909   6.533   3.365   1.305
 5337SOL    HW116910   6.496   3.414   1.383
 5337SOL    HW216911   6.479   3.386   1.223
 5338SOL     OW16912   6.851   3.294   0.843
 5338SOL    HW116913   6.803   3.228   0.784
 5338SOL    HW216914   6.911   3.244   0.907
 5339SOL     OW16915   5.691   2.621   2.879
 5339SOL    HW116916   5.705   2.716   2.908
 5339SOL    HW216917   5.661   2.567   2.957
 5340SOL     OW16918   4.755   3.073   1.636
 5340SOL    HW116919   4.753   3.169   1.608
 5340SOL    HW216920   4.701   3.062   1.719
 5341SOL     OW16921   4.864   5.041   3.455
 5341SOL    HW116922   4.825   4.970   3.514
 5341SOL    HW216923   4.820   5.037   3.365
 5342SOL     OW16924   6.280   5.317   4.761
 5342SOL    HW116925   6.235   5.228   4.759
 5342SOL    HW216926   6.216   5.387   4.791
 5343SOL     OW16927   3.858   3.382   6.590
 5343SOL    HW116928   3.843   3.440   6.510
 5343SOL    HW216929   3.781   3.320   6.601
 5344SOL     OW16930   6.876   1.527   6.424
 5344SOL    HW116931   6.921   1.612   6.399
 5344SOL    HW216932   6.831   1.537   6.512
 5345SOL     OW16933   3.817   1.485   6.943
 5345SOL    HW116934   3.756   1.546   6.993
 5345SOL    HW216935   3.762   1.418   6.893
 5346SOL     OW16936   3.066   6.469   3.376
 5346SOL    HW116937   3.071   6.464   3.476
 5346SOL    HW216938   2.972   6.490   3.348
 5347SOL     OW16939   5.291   1.541   5.205
 5347SOL    HW116940   5.380   1.500   5.224
 5347SOL    HW216941   5.226   1.468   5.180
 5348SOL     OW16942   5.051   2.934   4.807
 5348SOL    HW116943   5.002   2.847   4.819
 5348SOL    HW216944   5.030   2.995   4.883
 5349SOL     OW16945   0.547   4.173   1.067
 5349SOL    HW116946   0.590   4.251   1.111
 5349SOL    HW216947   0.495   4.121   1.135
 5350SOL     OW16948   0.730   6.782   5.716
 5350SOL    HW116949   0.760   6.720   5.643
 5350SOL    HW216950   0.672   6.733   5.780
 5351SOL     OW16951   0.257   6.377   3.418
 5351SOL    HW116952   0.277   6.383   3.320
 5351SOL    HW216953   0.341   6.354   3.467
 5352SOL     OW16954   1.721   2.693   6.172
 5352SOL    HW116955   1.788   2.754   6.131
 5352SOL    HW216956   1.710   2.716   6.269
 5353SOL     OW16957   3.455   5.721   3.309
 5353SOL    HW116958   3.512   5.695   3.387
 5353SOL    HW216959   3.363   5.742   3.342
 5354SOL     OW16960   3.998   6.516   1.399
 5354SOL    HW116961   4.048   6.588   1.352
 5354SOL    HW216962   4.003   6.431   1.346
 5355SOL     OW16963   4.826   5.889   5.288
 5355SOL    HW116964   4.878   5.891   5.203
 5355SOL    HW216965   4.728   5.880   5.267
 5356SOL     OW16966   1.268   6.511   1.467
 5356SOL    HW116967   1.314   6.595   1.495
 5356SOL    HW216968   1.185   6.498   1.521
 5357SOL     OW16969   6.184   3.412   2.716
 5357SOL    HW116970   6.230   3.324   2.732
 5357SOL    HW216971   6.088   3.395   2.693
 5358SOL     OW16972   6.036   0.783   6.228
 5358SOL    HW116973   6.078   0.694   6.214
 5358SOL    HW216974   6.101   0.855   6.204
 5359SOL     OW16975   2.916   2.546   0.004
 5359SOL    HW116976   2.981   2.534   6.951
 5359SOL    HW216977   2.878   2.458   0.031
 5360SOL     OW16978   5.513   6.164   4.007
 5360SOL    HW116979   5.541   6.233   3.941
 5360SOL    HW216980   5.593   6.132   4.058
 5361SOL     OW16981   1.408   4.154   2.973
 5361SOL    HW116982   1.328   4.209   2.949
 5361SOL    HW216983   1.417   4.078   2.908
 5362SOL     OW16984   6.736   1.324   2.915
 5362SOL    HW116985   6.686   1.286   2.837
 5362SOL    HW216986   6.776   1.250   2.968
 5363SOL     OW16987   5.617   5.628   4.067
 5363SOL    HW116988   5.523   5.641   4.098
 5363SOL    HW216989   5.680   5.663   4.137
 5364SOL     OW16990   4.689   2.615   2.456
 5364SOL    HW116991   4.720   2.669   2.378
 5364SOL    HW216992   4.663   2.676   2.530
 5365SOL     OW16993   3.234   3.820   5.236
 5365SOL    HW116994   3.244   3.918   5.220
 5365SOL    HW216995   3.213   3.804   5.333
 5366SOL     OW16996   0.315   5.181   3.561
 5366SOL    HW116997   0.320   5.262   3.502
 5366SOL    HW216998   0.362   5.198   3.647
 5367SOL     OW16999   6.119   6.246   1.527
 5367SOL    HW117000   6.157   6.230   1.618
 5367SOL    HW217001   6.157   6.332   1.491
 5368SOL     OW17002   0.550   5.440   4.719
 5368SOL    HW117003   0.642   5.403   4.717
 5368SOL    HW217004   0.541   5.504   4.795
 5369SOL     OW17005   4.507   6.945   3.181
 5369SOL    HW117006   4.451   6.876   3.136
 5369SOL    HW217007   4.590   6.959   3.127
 5370SOL     OW17008   2.084   2.413   0.784
 5370SOL    HW117009   2.146   2.364   0.845
 5370SOL    HW217010   2.033   2.481   0.836
 5371SOL     OW17011   6.288   5.170   3.711
 5371SOL    HW117012   6.348   5.246   3.688
 5371SOL    HW217013   6.318   5.088   3.663
 5372SOL     OW17014   1.885   0.044   3.959
 5372SOL    HW117015   1.925   6.978   3.987
 5372SOL    HW217016   1.957   0.113   3.952
 5373SOL     OW17017   3.320   0.849   6.427
 5373SOL    HW117018   3.295   0.765   6.474
 5373SOL    HW217019   3.386   0.829   6.355
 5374SOL     OW17020   0.873   3.757   1.281
 5374SOL    HW117021   0.950   3.797   1.330
 5374SOL    HW217022   0.874   3.788   1.186
 5375SOL     OW17023   2.632   4.709   4.862
 5375SOL    HW117024   2.605   4.624   4.818
 5375SOL    HW217025   2.716   4.695   4.914
 5376SOL     OW17026   0.733   0.536   1.021
 5376SOL    HW117027   0.695   0.619   1.062
 5376SOL    HW217028   0.750   0.552   0.923
 5377SOL     OW17029   1.109   2.114   2.277
 5377SOL    HW117030   1.032   2.074   2.327
 5377SOL    HW217031   1.095   2.213   2.268
 5378SOL     OW17032   4.953   0.369   2.280
 5378SOL    HW117033   4.892   0.324   2.215
 5378SOL    HW217034   5.028   0.412   2.231
 5379SOL     OW17035   2.624   1.749   3.433
 5379SOL    HW117036   2.639   1.757   3.335
 5379SOL    HW217037   2.664   1.664   3.467
 5380SOL     OW17038   5.243   6.174   0.998
 5380SOL    HW117039   5.163   6.136   1.046
 5380SOL    HW217040   5.248   6.272   1.014
 5381SOL     OW17041   3.839   1.708   3.091
 5381SOL    HW117042   3.937   1.686   3.093
 5381SOL    HW217043   3.821   1.770   3.014
 5382SOL     OW17044   3.694   0.756   2.438
 5382SOL    HW117045   3.705   0.662   2.471
 5382SOL    HW217046   3.648   0.756   2.349
 5383SOL     OW17047   2.266   3.399   5.197
 5383SOL    HW117048   2.206   3.460   5.248
 5383SOL    HW217049   2.210   3.331   5.148
 5384SOL     OW17050   5.200   6.365   6.219
 5384SOL    HW117051   5.210   6.401   6.312
 5384SOL    HW217052   5.211   6.266   6.220
 5385SOL     OW17053   3.543   3.552   0.144
 5385SOL    HW117054   3.500   3.462   0.140
 5385SOL    HW217055   3.640   3.545   0.121
 5386SOL     OW17056   4.463   5.122   3.545
 5386SOL    HW117057   4.549   5.160   3.577
 5386SOL    HW217058   4.459   5.024   3.567
 5387SOL     OW17059   0.856   2.257   4.387
 5387SOL    HW117060   0.768   2.304   4.380
 5387SOL    HW217061   0.881   2.220   4.298
 5388SOL     OW17062   6.726   6.016   4.075
 5388SOL    HW117063   6.642   5.986   4.120
 5388SOL    HW217064   6.770   5.937   4.032
 5389SOL     OW17065   4.949   1.391   4.687
 5389SOL    HW117066   4.889   1.390   4.767
 5389SOL    HW217067   4.959   1.485   4.654
 5390SOL     OW17068   5.348   3.660   3.094
 5390SOL    HW117069   5.301   3.699   3.014
 5390SOL    HW217070   5.284   3.600   3.143
 5391SOL     OW17071   4.330   2.361   1.552
 5391SOL    HW117072   4.311   2.421   1.630
 5391SOL    HW217073   4.367   2.274   1.585
 5392SOL     OW17074   4.991   0.626   4.233
 5392SOL    HW117075   4.948   0.536   4.235
 5392SOL    HW217076   5.059   0.628   4.159
 5393SOL     OW17077   3.931   1.053   3.840
 5393SOL    HW117078   3.929   1.101   3.928
 5393SOL    HW217079   3.841   1.058   3.797
 5394SOL     OW17080   0.367   3.411   2.439
 5394SOL    HW117081   0.316   3.326   2.447
 5394SOL    HW217082   0.403   3.438   2.529
 5395SOL     OW17083   0.349   1.237   1.121
 5395SOL    HW117084   0.340   1.138   1.112
 5395SOL    HW217085   0.265   1.275   1.160
 5396SOL     OW17086   3.989   2.952   1.017
 5396SOL    HW117087   3.893   2.970   0.996
 5396SOL    HW217088   4.001   2.855   1.040
 5397SOL     OW17089   0.055   0.272   1.912
 5397SOL    HW117090   0.107   0.332   1.850
 5397SOL    HW217091   7.012   0.327   1.964
 5398SOL     OW17092   6.214   2.316   3.360
 5398SOL    HW117093   6.120   2.312   3.393
 5398SOL    HW217094   6.273   2.265   3.422
 5399SOL     OW17095   2.079   2.587   1.060
 5399SOL    HW117096   2.032   2.675   1.068
 5399SOL    HW217097   2.164   2.599   1.008
 5400SOL     OW17098   4.980   3.185   1.177
 5400SOL    HW117099   4.996   3.178   1.275
 5400SOL    HW217100   5.062   3.158   1.127
 5401SOL     OW17101   5.326   3.053   1.526
 5401SOL    HW117102   5.389   3.011   1.460
 5401SOL    HW217103   5.254   3.102   1.477
 5402SOL     OW17104   1.557   6.526   1.693
 5402SOL    HW117105   1.567   6.428   1.708
 5402SOL    HW217106   1.624   6.576   1.749
 5403SOL     OW17107   5.814   2.314   5.816
 5403SOL    HW117108   5.885   2.383   5.830
 5403SOL    HW217109   5.834   2.263   5.733
 5404SOL     OW17110   4.671   6.437   0.581
 5404SOL    HW117111   4.753   6.424   0.637
 5404SOL    HW217112   4.689   6.406   0.488
 5405SOL     OW17113   0.077   5.024   6.605
 5405SOL    HW117114   0.073   5.124   6.611
 5405SOL    HW217115   0.167   4.993   6.633
 5406SOL     OW17116   2.596   0.996   6.094
 5406SOL    HW117117   2.680   1.015   6.043
 5406SOL    HW217118   2.587   1.060   6.170
 5407SOL     OW17119   1.552   6.897   3.482
 5407SOL    HW117120   1.604   6.918   3.565
 5407SOL    HW217121   1.611   6.906   3.402
 5408SOL     OW17122   2.117   2.267   4.385
 5408SOL    HW117123   2.046   2.225   4.329
 5408SOL    HW217124   2.130   2.362   4.356
 5409SOL     OW17125   0.975   3.098   3.242
 5409SOL    HW117126   1.011   3.183   3.281
 5409SOL    HW217127   1.046   3.055   3.186
 5410SOL     OW17128   6.187   2.682   0.627
 5410SOL    HW117129   6.274   2.730   0.619
 5410SOL    HW217130   6.128   2.706   0.550
 5411SOL     OW17131   3.580   5.701   1.134
 5411SOL    HW117132   3.571   5.602   1.125
 5411SOL    HW217133   3.504   5.746   1.087
 5412SOL     OW17134   1.420   2.373   5.709
 5412SOL    HW117135   1.330   2.414   5.723
 5412SOL    HW217136   1.431   2.348   5.612
 5413SOL     OW17137   6.759   5.164   5.880
 5413SOL    HW117138   6.836   5.209   5.925
 5413SOL    HW217139   6.766   5.065   5.892
 5414SOL     OW17140   5.599   5.300   5.762
 5414SOL    HW117141   5.558   5.338   5.845
 5414SOL    HW217142   5.606   5.201   5.771
 5415SOL     OW17143   1.225   1.729   6.232
 5415SOL    HW117144   1.177   1.752   6.147
 5415SOL    HW217145   1.295   1.660   6.213
 5416SOL     OW17146   3.109   6.098   6.251
 5416SOL    HW117147   3.161   6.029   6.200
 5416SOL    HW217148   3.066   6.055   6.330
 5417SOL     OW17149   5.620   0.429   2.905
 5417SOL    HW117150   5.606   0.491   2.828
 5417SOL    HW217151   5.655   0.341   2.872
 5418SOL     OW17152   0.357   3.868   5.255
 5418SOL    HW117153   0.270   3.834   5.290
 5418SOL    HW217154   0.345   3.962   5.224
 5419SOL     OW17155   3.471   1.987   6.149
 5419SOL    HW117156   3.495   2.074   6.104
 5419SOL    HW217157   3.444   1.921   6.080
 5420SOL     OW17158   1.382   2.395   1.151
 5420SOL    HW117159   1.385   2.491   1.124
 5420SOL    HW217160   1.287   2.365   1.158
 5421SOL     OW17161   4.250   5.321   1.813
 5421SOL    HW117162   4.343   5.288   1.796
 5421SOL    HW217163   4.200   5.325   1.726
 5422SOL     OW17164   2.168   6.055   3.529
 5422SOL    HW117165   2.153   6.088   3.622
 5422SOL    HW217166   2.107   5.978   3.510
 5423SOL     OW17167   4.305   6.778   1.526
 5423SOL    HW117168   4.335   6.699   1.579
 5423SOL    HW217169   4.259   6.843   1.586
 5424SOL     OW17170   4.137   3.437   5.464
 5424SOL    HW117171   4.225   3.485   5.464
 5424SOL    HW217172   4.145   3.354   5.408
 5425SOL     OW17173   1.560   5.406   5.800
 5425SOL    HW117174   1.557   5.502   5.770
 5425SOL    HW217175   1.466   5.374   5.815
 5426SOL     OW17176   0.101   4.002   0.539
 5426SOL    HW117177   0.199   4.015   0.528
 5426SOL    HW217178   0.075   3.912   0.503
 5427SOL     OW17179   5.309   2.284   0.713
 5427SOL    HW117180   5.303   2.282   0.813
 5427SOL    HW217181   5.283   2.375   0.680
 5428SOL     OW17182   4.533   6.021   2.606
 5428SOL    HW117183   4.629   6.004   2.585
 5428SOL    HW217184   4.508   5.972   2.689
 5429SOL     OW17185   2.763   6.960   4.025
 5429SOL    HW117186   2.841   6.920   3.977
 5429SOL    HW217187   2.795   7.004   4.109
 5430SOL     OW17188   1.576   4.252   5.526
 5430SOL    HW117189   1.617   4.325   5.470
 5430SOL    HW217190   1.575   4.167   5.474
 5431SOL     OW17191   5.044   4.611   0.495
 5431SOL    HW117192   4.995   4.694   0.469
 5431SOL    HW217193   5.006   4.575   0.580
 5432SOL     OW17194   0.340   5.114   6.445
 5432SOL    HW117195   0.428   5.140   6.484
 5432SOL    HW217196   0.288   5.061   6.512
 5433SOL     OW17197   3.206   6.703   1.335
 5433SOL    HW117198   3.126   6.654   1.301
 5433SOL    HW217199   3.183   6.751   1.419
 5434SOL     OW17200   5.093   6.341   4.032
 5434SOL    HW117201   5.145   6.257   4.045
 5434SOL    HW217202   5.015   6.324   3.972
 5435SOL     OW17203   6.862   3.969   6.561
 5435SOL    HW117204   6.791   3.961   6.632
 5435SOL    HW217205   6.895   3.878   6.536
 5436SOL     OW17206   2.002   4.453   2.136
 5436SOL    HW117207   2.024   4.381   2.201
 5436SOL    HW217208   1.950   4.415   2.060
 5437SOL     OW17209   3.293   6.183   0.319
 5437SOL    HW117210   3.224   6.125   0.363
 5437SOL    HW217211   3.300   6.270   0.367
 5438SOL     OW17212   5.241   6.961   2.214
 5438SOL    HW117213   5.234   6.862   2.224
 5438SOL    HW217214   5.161   7.005   2.256
 5439SOL     OW17215   1.783   3.862   1.522
 5439SOL    HW117216   1.688   3.830   1.513
 5439SOL    HW217217   1.797   3.897   1.615
 5440SOL     OW17218   5.700   6.672   3.730
 5440SOL    HW117219   5.714   6.591   3.673
 5440SOL    HW217220   5.742   6.659   3.819
 5441SOL     OW17221   6.060   2.177   4.615
 5441SOL    HW117222   6.043   2.109   4.686
 5441SOL    HW217223   6.014   2.149   4.530
 5442SOL     OW17224   2.349   0.452   6.490
 5442SOL    HW117225   2.371   0.365   6.534
 5442SOL    HW217226   2.378   0.527   6.549
 5443SOL     OW17227   6.024   0.646   3.233
 5443SOL    HW117228   5.964   0.566   3.237
 5443SOL    HW217229   6.078   0.643   3.148
 5444SOL     OW17230   0.703   1.410   5.977
 5444SOL    HW117231   0.769   1.473   6.018
 5444SOL    HW217232   0.685   1.438   5.882
 5445SOL     OW17233   5.940   6.856   5.199
 5445SOL    HW117234   5.908   6.888   5.288
 5445SOL    HW217235   6.040   6.850   5.199
 5446SOL     OW17236   1.137   4.697   5.987
 5446SOL    HW117237   1.112   4.601   5.997
 5446SOL    HW217238   1.213   4.706   5.922
 5447SOL     OW17239   6.466   1.979   1.405
 5447SOL    HW117240   6.461   1.895   1.458
 5447SOL    HW217241   6.487   2.056   1.466
 5448SOL     OW17242   6.095   5.057   2.044
 5448SOL    HW117243   6.094   4.971   1.993
 5448SOL    HW217244   6.183   5.103   2.030
 5449SOL     OW17245   2.033   0.305   1.981
 5449SOL    HW117246   2.116   0.249   1.985
 5449SOL    HW217247   2.054   0.399   2.009
 5450SOL     OW17248   4.113   5.984   1.173
 5450SOL    HW117249   4.107   6.030   1.084
 5450SOL    HW217250   4.021   5.959   1.204
 5451SOL     OW17251   0.443   5.944   3.840
 5451SOL    HW117252   0.531   5.988   3.859
 5451SOL    HW217253   0.400   5.986   3.760
 5452SOL     OW17254   2.448   4.418   2.955
 5452SOL    HW117255   2.443   4.341   2.891
 5452SOL    HW217256   2.362   4.469   2.952
 5453SOL     OW17257   6.009   4.597   4.179
 5453SOL    HW117258   5.968   4.518   4.224
 5453SOL    HW217259   6.036   4.664   4.248
 5454SOL     OW17260   5.516   4.006   2.745
 5454SOL    HW117261   5.431   3.955   2.757
 5454SOL    HW217262   5.538   4.011   2.648
 5455SOL     OW17263   2.778   1.994   3.184
 5455SOL    HW117264   2.691   2.044   3.184
 5455SOL    HW217265   2.853   2.058   3.197
 5456SOL     OW17266   5.559   2.237   0.602
 5456SOL    HW117267   5.478   2.275   0.646
 5456SOL    HW217268   5.554   2.137   0.603
 5457SOL     OW17269   6.660   1.190   0.377
 5457SOL    HW117270   6.678   1.161   0.471
 5457SOL    HW217271   6.561   1.204   0.366
 5458SOL     OW17272   5.502   4.702   6.156
 5458SOL    HW117273   5.415   4.750   6.172
 5458SOL    HW217274   5.578   4.760   6.187
 5459SOL     OW17275   2.197   2.930   5.257
 5459SOL    HW117276   2.234   2.934   5.350
 5459SOL    HW217277   2.266   2.959   5.192
 5460SOL     OW17278   0.585   0.224   1.165
 5460SOL    HW117279   0.536   0.303   1.127
 5460SOL    HW217280   0.630   0.175   1.090
 5461SOL     OW17281   6.052   1.440   6.800
 5461SOL    HW117282   5.967   1.421   6.848
 5461SOL    HW217283   6.038   1.431   6.701
 5462SOL     OW17284   5.095   5.230   6.475
 5462SOL    HW117285   5.186   5.221   6.517
 5462SOL    HW217286   5.090   5.172   6.394
 5463SOL     OW17287   1.456   5.069   5.822
 5463SOL    HW117288   1.464   5.117   5.909
 5463SOL    HW217289   1.414   5.129   5.754
 5464SOL     OW17290   2.349   5.010   4.901
 5464SOL    HW117291   2.264   5.055   4.872
 5464SOL    HW217292   2.331   4.955   4.983
 5465SOL     OW17293   0.425   0.159   5.370
 5465SOL    HW117294   0.448   0.154   5.467
 5465SOL    HW217295   0.495   0.212   5.321
 5466SOL     OW17296   5.169   2.155   5.040
 5466SOL    HW117297   5.248   2.214   5.058
 5466SOL    HW217298   5.111   2.197   4.970
 5467SOL     OW17299   5.402   3.012   4.330
 5467SOL    HW117300   5.392   3.096   4.277
 5467SOL    HW217301   5.322   3.000   4.389
 5468SOL     OW17302   7.000   2.574   1.558
 5468SOL    HW117303   6.978   2.527   1.473
 5468SOL    HW217304   6.916   2.589   1.611
 5469SOL     OW17305   4.054   1.931   4.230
 5469SOL    HW117306   4.143   1.888   4.213
 5469SOL    HW217307   3.983   1.882   4.181
 5470SOL     OW17308   3.626   4.901   3.598
 5470SOL    HW117309   3.715   4.904   3.551
 5470SOL    HW217310   3.639   4.920   3.695
 5471SOL     OW17311   5.121   0.770   3.075
 5471SOL    HW117312   5.220   0.786   3.072
 5471SOL    HW217313   5.093   0.714   2.997
 5472SOL     OW17314   2.305   3.824   6.806
 5472SOL    HW117315   2.225   3.781   6.848
 5472SOL    HW217316   2.376   3.838   6.876
 5473SOL     OW17317   2.935   4.799   2.186
 5473SOL    HW117318   2.918   4.775   2.281
 5473SOL    HW217319   2.888   4.734   2.126
 5474SOL     OW17320   1.256   4.801   2.048
 5474SOL    HW117321   1.284   4.892   2.020
 5474SOL    HW217322   1.329   4.736   2.026
 5475SOL     OW17323   1.391   1.766   5.067
 5475SOL    HW117324   1.339   1.774   5.152
 5475SOL    HW217325   1.453   1.687   5.073
 5476SOL     OW17326   2.073   0.903   4.901
 5476SOL    HW117327   2.173   0.900   4.903
 5476SOL    HW217328   2.037   0.898   4.994
 5477SOL     OW17329   2.179   2.985   3.407
 5477SOL    HW117330   2.156   2.983   3.309
 5477SOL    HW217331   2.173   3.079   3.440
 5478SOL     OW17332   5.688   4.131   5.213
 5478SOL    HW117333   5.729   4.221   5.230
 5478SOL    HW217334   5.741   4.082   5.144
 5479SOL     OW17335   5.549   3.475   4.413
 5479SOL    HW117336   5.495   3.479   4.497
 5479SOL    HW217337   5.576   3.568   4.387
 5480SOL     OW17338   1.302   3.968   4.855
 5480SOL    HW117339   1.216   3.940   4.812
 5480SOL    HW217340   1.377   3.913   4.817
 5481SOL     OW17341   3.339   1.490   6.387
 5481SOL    HW117342   3.354   1.584   6.356
 5481SOL    HW217343   3.269   1.447   6.330
 5482SOL     OW17344   5.491   3.491   2.014
 5482SOL    HW117345   5.535   3.426   2.076
 5482SOL    HW217346   5.512   3.584   2.044
 5483SOL     OW17347   6.735   3.165   6.955
 5483SOL    HW117348   6.693   3.172   6.865
 5483SOL    HW217349   6.826   3.206   6.953
 5484SOL     OW17350   6.463   0.412   5.129
 5484SOL    HW117351   6.544   0.358   5.153
 5484SOL    HW217352   6.481   0.463   5.045
 5485SOL     OW17353   3.150   0.606   5.149
 5485SOL    HW117354   3.065   0.635   5.107
 5485SOL    HW217355   3.198   0.686   5.186
 5486SOL     OW17356   0.833   0.509   3.538
 5486SOL    HW117357   0.905   0.524   3.470
 5486SOL    HW217358   0.787   0.595   3.558
 5487SOL     OW17359   4.249   5.253   1.188
 5487SOL    HW117360   4.255   5.252   1.088
 5487SOL    HW217361   4.224   5.162   1.221
 5488SOL     OW17362   4.849   1.621   5.679
 5488SOL    HW117363   4.877   1.547   5.741
 5488SOL    HW217364   4.755   1.604   5.648
 5489SOL     OW17365   6.241   4.324   2.479
 5489SOL    HW117366   6.327   4.365   2.450
 5489SOL    HW217367   6.253   4.226   2.494
 5490SOL     OW17368   2.292   1.819   6.188
 5490SOL    HW117369   2.364   1.888   6.188
 5490SOL    HW217370   2.323   1.738   6.140
 5491SOL     OW17371   0.099   5.919   2.385
 5491SOL    HW117372   0.068   5.999   2.335
 5491SOL    HW217373   0.020   5.860   2.404
 5492SOL     OW17374   1.550   1.539   4.260
 5492SOL    HW117375   1.516   1.445   4.250
 5492SOL    HW217376   1.645   1.543   4.229
 5493SOL     OW17377   3.006   1.763   1.004
 5493SOL    HW117378   3.082   1.708   0.970
 5493SOL    HW217379   2.944   1.784   0.929
 5494SOL     OW17380   6.088   2.989   2.642
 5494SOL    HW117381   6.011   3.043   2.608
 5494SOL    HW217382   6.056   2.928   2.715
 5495SOL     OW17383   3.791   3.310   3.936
 5495SOL    HW117384   3.743   3.350   3.858
 5495SOL    HW217385   3.724   3.272   4.000
 5496SOL     OW17386   4.665   4.889   1.943
 5496SOL    HW117387   4.734   4.962   1.949
 5496SOL    HW217388   4.574   4.929   1.952
 5497SOL     OW17389   6.055   6.998   1.301
 5497SOL    HW117390   6.024   7.009   1.206
 5497SOL    HW217391   6.126   0.044   1.321
 5498SOL     OW17392   4.159   0.631   4.953
 5498SOL    HW117393   4.128   0.539   4.975
 5498SOL    HW217394   4.155   0.644   4.854
 5499SOL     OW17395   0.916   1.255   5.693
 5499SOL    HW117396   0.871   1.341   5.719
 5499SOL    HW217397   0.992   1.276   5.631
 5500SOL     OW17398   2.040   6.007   0.796
 5500SOL    HW117399   1.997   6.039   0.880
 5500SOL    HW217400   2.137   6.033   0.796
 5501SOL     OW17401   2.908   0.577   2.497
 5501SOL    HW117402   2.969   0.548   2.571
 5501SOL    HW217403   2.830   0.515   2.491
 5502SOL     OW17404   4.821   3.113   0.520
 5502SOL    HW117405   4.764   3.050   0.467
 5502SOL    HW217406   4.765   3.158   0.589
 5503SOL     OW17407   0.617   6.277   4.760
 5503SOL    HW117408   0.533   6.311   4.717
 5503SOL    HW217409   0.634   6.183   4.730
 5504SOL     OW17410   3.347   2.093   4.425
 5504SOL    HW117411   3.336   1.994   4.419
 5504SOL    HW217412   3.387   2.127   4.340
 5505SOL     OW17413   3.673   4.508   6.920
 5505SOL    HW117414   3.761   4.553   6.933
 5505SOL    HW217415   3.609   4.538   6.991
 5506SOL     OW17416   6.889   6.548   5.831
 5506SOL    HW117417   6.933   6.522   5.917
 5506SOL    HW217418   6.851   6.467   5.787
 5507SOL     OW17419   4.008   5.975   4.499
 5507SOL    HW117420   4.079   5.916   4.459
 5507SOL    HW217421   3.956   5.922   4.566
 5508SOL     OW17422   1.584   0.229   6.046
 5508SOL    HW117423   1.546   0.309   6.091
 5508SOL    HW217424   1.529   0.206   5.966
 5509SOL     OW17425   6.106   0.059   6.829
 5509SOL    HW117426   6.184   0.054   6.767
 5509SOL    HW217427   6.074   6.988   6.851
 5510SOL     OW17428   6.013   0.325   6.403
 5510SOL    HW117429   6.008   0.405   6.342
 5510SOL    HW217430   5.925   0.311   6.448
 5511SOL     OW17431   6.870   2.423   1.371
 5511SOL    HW117432   6.781   2.418   1.325
 5511SOL    HW217433   6.934   2.361   1.326
 5512SOL     OW17434   0.310   0.370   0.420
 5512SOL    HW117435   0.350   0.330   0.337
 5512SOL    HW217436   0.322   0.308   0.497
 5513SOL     OW17437   3.316   6.143   4.894
 5513SOL    HW117438   3.391   6.189   4.941
 5513SOL    HW217439   3.269   6.207   4.834
 5514SOL     OW17440   5.880   5.396   3.742
 5514SOL    HW117441   5.917   5.303   3.742
 5514SOL    HW217442   5.931   5.451   3.807
 5515SOL     OW17443   6.530   3.481   3.021
 5515SOL    HW117444   6.520   3.386   3.052
 5515SOL    HW217445   6.529   3.484   2.921
 5516SOL     OW17446   1.304   3.029   6.747
 5516SOL    HW117447   1.306   2.930   6.732
 5516SOL    HW217448   1.218   3.053   6.792
 5517SOL     OW17449   2.258   0.943   1.614
 5517SOL    HW117450   2.288   1.027   1.569
 5517SOL    HW217451   2.314   0.866   1.585
 5518SOL     OW17452   5.660   4.816   5.415
 5518SOL    HW117453   5.677   4.782   5.508
 5518SOL    HW217454   5.739   4.797   5.357
 5519SOL     OW17455   5.121   4.103   3.216
 5519SOL    HW117456   5.159   4.016   3.248
 5519SOL    HW217457   5.154   4.120   3.122
 5520SOL     OW17458   1.969   2.854   1.069
 5520SOL    HW117459   1.990   2.903   0.984
 5520SOL    HW217460   1.922   2.917   1.132
 5521SOL     OW17461   5.009   5.617   0.671
 5521SOL    HW117462   5.005   5.553   0.747
 5521SOL    HW217463   4.916   5.638   0.641
 5522SOL     OW17464   2.012   3.418   2.416
 5522SOL    HW117465   1.919   3.438   2.444
 5522SOL    HW217466   2.011   3.365   2.331
 5523SOL     OW17467   3.170   0.788   2.025
 5523SOL    HW117468   3.205   0.725   2.094
 5523SOL    HW217469   3.239   0.803   1.954
 5524SOL     OW17470   5.610   5.870   5.810
 5524SOL    HW117471   5.683   5.805   5.790
 5524SOL    HW217472   5.572   5.905   5.724
 5525SOL     OW17473   6.635   5.797   4.377
 5525SOL    HW117474   6.708   5.735   4.348
 5525SOL    HW217475   6.594   5.763   4.462
 5526SOL     OW17476   5.356   3.407   4.611
 5526SOL    HW117477   5.385   3.339   4.678
 5526SOL    HW217478   5.277   3.372   4.560
 5527SOL     OW17479   2.473   3.107   0.362
 5527SOL    HW117480   2.444   3.080   0.270
 5527SOL    HW217481   2.570   3.131   0.361
 5528SOL     OW17482   6.697   3.479   2.586
 5528SOL    HW117483   6.678   3.576   2.604
 5528SOL    HW217484   6.696   3.428   2.672
 5529SOL     OW17485   1.455   1.275   4.297
 5529SOL    HW117486   1.464   1.241   4.390
 5529SOL    HW217487   1.358   1.287   4.274
 5530SOL     OW17488   0.112   3.277   0.138
 5530SOL    HW117489   0.069   3.220   0.209
 5530SOL    HW217490   0.176   3.221   0.085
 5531SOL     OW17491   1.311   2.770   6.649
 5531SOL    HW117492   1.309   2.792   6.552
 5531SOL    HW217493   1.282   2.675   6.662
 5532SOL     OW17494   1.973   2.276   1.401
 5532SOL    HW117495   1.975   2.215   1.480
 5532SOL    HW217496   1.878   2.294   1.375
 5533SOL     OW17497   3.628   0.254   0.520
 5533SOL    HW117498   3.553   0.201   0.558
 5533SOL    HW217499   3.604   0.351   0.517
 5534SOL     OW17500   7.009   4.774   4.886
 5534SOL    HW117501   0.003   4.816   4.976
 5534SOL    HW217502   6.911   4.760   4.873
 5535SOL     OW17503   5.711   3.396   3.949
 5535SOL    HW117504   5.633   3.459   3.957
 5535SOL    HW217505   5.793   3.439   3.987
 5536SOL     OW17506   2.783   0.325   4.321
 5536SOL    HW117507   2.757   0.418   4.296
 5536SOL    HW217508   2.847   0.327   4.398
 5537SOL     OW17509   4.083   1.674   4.717
 5537SOL    HW117510   4.009   1.646   4.656
 5537SOL    HW217511   4.166   1.690   4.663
 5538SOL     OW17512   5.215   2.721   1.962
 5538SOL    HW117513   5.238   2.799   2.020
 5538SOL    HW217514   5.226   2.636   2.013
 5539SOL     OW17515   2.910   0.002   0.560
 5539SOL    HW117516   2.991   6.981   0.519
 5539SOL    HW217517   2.927   0.099   0.576
 5540SOL     OW17518   5.002   0.322   6.075
 5540SOL    HW117519   4.918   0.344   6.026
 5540SOL    HW217520   4.980   0.301   6.170
 5541SOL     OW17521   4.713   3.143   0.033
 5541SOL    HW117522   4.745   3.233   0.004
 5541SOL    HW217523   4.636   3.153   0.096
 5542SOL     OW17524   4.496   4.173   0.143
 5542SOL    HW117525   4.586   4.200   0.106
 5542SOL    HW217526   4.486   4.074   0.138
 5543SOL     OW17527   1.937   0.639   0.087
 5543SOL    HW117528   1.949   0.568   0.018
 5543SOL    HW217529   2.026   0.674   0.115
 5544SOL     OW17530   4.049   5.098   6.725
 5544SOL    HW117531   4.135   5.097   6.776
 5544SOL    HW217532   4.066   5.077   6.629
 5545SOL     OW17533   4.791   0.975   4.181
 5545SOL    HW117534   4.864   1.040   4.205
 5545SOL    HW217535   4.831   0.893   4.140
 5546SOL     OW17536   0.567   4.906   4.155
 5546SOL    HW117537   0.477   4.930   4.190
 5546SOL    HW217538   0.626   4.987   4.153
 5547SOL     OW17539   5.231   1.899   4.970
 5547SOL    HW117540   5.212   1.996   4.988
 5547SOL    HW217541   5.181   1.843   5.036
 5548SOL     OW17542   0.765   4.511   4.498
 5548SOL    HW117543   0.682   4.545   4.452
 5548SOL    HW217544   0.742   4.482   4.591
 5549SOL     OW17545   4.537   3.021   0.388
 5549SOL    HW117546   4.545   2.923   0.404
 5549SOL    HW217547   4.464   3.059   0.446
 5550SOL     OW17548   2.118   4.421   1.730
 5550SOL    HW117549   2.164   4.420   1.819
 5550SOL    HW217550   2.115   4.328   1.693
 5551SOL     OW17551   2.010   5.569   2.862
 5551SOL    HW117552   2.026   5.568   2.961
 5551SOL    HW217553   1.975   5.658   2.835
 5552SOL     OW17554   0.922   6.750   6.880
 5552SOL    HW117555   0.846   6.776   6.820
 5552SOL    HW217556   0.968   6.670   6.843
 5553SOL     OW17557   5.223   0.543   0.346
 5553SOL    HW117558   5.211   0.596   0.430
 5553SOL    HW217559   5.305   0.575   0.298
 5554SOL     OW17560   6.406   1.488   1.519
 5554SOL    HW117561   6.498   1.452   1.504
 5554SOL    HW217562   6.355   1.487   1.434
 5555SOL     OW17563   1.727   4.790   3.208
 5555SOL    HW117564   1.666   4.779   3.129
 5555SOL    HW217565   1.806   4.844   3.182
 5556SOL     OW17566   0.506   0.771   4.396
 5556SOL    HW117567   0.456   0.852   4.366
 5556SOL    HW217568   0.517   0.708   4.319
 5557SOL     OW17569   3.778   5.844   3.325
 5557SOL    HW117570   3.751   5.940   3.314
 5557SOL    HW217571   3.813   5.810   3.237
 5558SOL     OW17572   4.693   3.982   6.588
 5558SOL    HW117573   4.792   3.971   6.573
 5558SOL    HW217574   4.651   4.022   6.507
 5559SOL     OW17575   3.280   1.173   2.947
 5559SOL    HW117576   3.332   1.249   2.908
 5559SOL    HW217577   3.275   1.184   3.047
 5560SOL     OW17578   0.816   5.134   3.685
 5560SOL    HW117579   0.912   5.137   3.656
 5560SOL    HW217580   0.771   5.219   3.659
 5561SOL     OW17581   3.416   6.320   3.125
 5561SOL    HW117582   3.512   6.350   3.123
 5561SOL    HW217583   3.377   6.340   3.215
 5562SOL     OW17584   3.631   3.827   1.038
 5562SOL    HW117585   3.713   3.796   0.992
 5562SOL    HW217586   3.550   3.791   0.991
 5563SOL     OW17587   2.076   4.558   2.538
 5563SOL    HW117588   2.131   4.480   2.508
 5563SOL    HW217589   2.082   4.566   2.638
 5564SOL     OW17590   5.174   0.721   6.173
 5564SOL    HW117591   5.256   0.773   6.198
 5564SOL    HW217592   5.153   0.737   6.076
 5565SOL     OW17593   3.122   2.073   6.050
 5565SOL    HW117594   3.100   2.158   6.002
 5565SOL    HW217595   3.038   2.033   6.086
 5566SOL     OW17596   1.784   3.790   0.029
 5566SOL    HW117597   1.690   3.818   0.006
 5566SOL    HW217598   1.816   3.841   0.108
 5567SOL     OW17599   0.356   3.732   0.465
 5567SOL    HW117600   0.267   3.736   0.419
 5567SOL    HW217601   0.343   3.710   0.561
 5568SOL     OW17602   4.592   4.861   1.599
 5568SOL    HW117603   4.634   4.892   1.685
 5568SOL    HW217604   4.584   4.937   1.535
 5569SOL     OW17605   2.274   2.850   2.997
 5569SOL    HW117606   2.361   2.848   2.948
 5569SOL    HW217607   2.237   2.758   3.005
 5570SOL     OW17608   6.670   3.750   2.405
 5570SOL    HW117609   6.770   3.748   2.402
 5570SOL    HW217610   6.634   3.665   2.365
 5571SOL     OW17611   6.127   4.705   1.492
 5571SOL    HW117612   6.123   4.766   1.412
 5571SOL    HW217613   6.217   4.660   1.495
 5572SOL     OW17614   1.874   4.451   4.922
 5572SOL    HW117615   1.775   4.458   4.932
 5572SOL    HW217616   1.896   4.420   4.829
 5573SOL     OW17617   3.398   5.191   3.796
 5573SOL    HW117618   3.485   5.212   3.751
 5573SOL    HW217619   3.325   5.244   3.753
 5574SOL     OW17620   0.572   2.730   5.876
 5574SOL    HW117621   0.642   2.660   5.891
 5574SOL    HW217622   0.603   2.816   5.917
 5575SOL     OW17623   0.167   6.803   1.640
 5575SOL    HW117624   0.169   6.752   1.726
 5575SOL    HW217625   0.248   6.781   1.586
 5576SOL     OW17626   1.022   5.044   3.301
 5576SOL    HW117627   1.069   5.094   3.373
 5576SOL    HW217628   1.062   5.068   3.212
 5577SOL     OW17629   2.013   2.793   5.845
 5577SOL    HW117630   2.051   2.866   5.788
 5577SOL    HW217631   2.083   2.724   5.863
 5578SOL     OW17632   3.920   3.983   3.887
 5578SOL    HW117633   3.941   3.959   3.982
 5578SOL    HW217634   3.838   4.039   3.883
 5579SOL     OW17635   0.441   3.157   2.088
 5579SOL    HW117636   0.468   3.235   2.031
 5579SOL    HW217637   0.349   3.174   2.125
 5580SOL     OW17638   5.507   2.467   5.451
 5580SOL    HW117639   5.539   2.416   5.531
 5580SOL    HW217640   5.415   2.501   5.467
 5581SOL     OW17641   1.097   2.659   0.437
 5581SOL    HW117642   1.047   2.709   0.366
 5581SOL    HW217643   1.050   2.573   0.456
 5582SOL     OW17644   2.714   2.954   6.539
 5582SOL    HW117645   2.619   2.926   6.531
 5582SOL    HW217646   2.730   2.994   6.629
 5583SOL     OW17647   5.291   0.642   1.818
 5583SOL    HW117648   5.248   0.573   1.877
 5583SOL    HW217649   5.384   0.660   1.850
 5584SOL     OW17650   1.605   3.268   4.540
 5584SOL    HW117651   1.680   3.204   4.525
 5584SOL    HW217652   1.601   3.292   4.637
 5585SOL     OW17653   5.227   4.859   2.017
 5585SOL    HW117654   5.247   4.938   2.074
 5585SOL    HW217655   5.312   4.827   1.974
 5586SOL     OW17656   6.436   3.792   0.297
 5586SOL    HW117657   6.377   3.721   0.261
 5586SOL    HW217658   6.396   3.830   0.381
 5587SOL     OW17659   5.886   1.183   5.986
 5587SOL    HW117660   5.912   1.150   6.077
 5587SOL    HW217661   5.948   1.143   5.918
 5588SOL     OW17662   3.793   6.724   0.896
 5588SOL    HW117663   3.778   6.626   0.906
 5588SOL    HW217664   3.823   6.762   0.983
 5589SOL     OW17665   5.900   4.934   6.095
 5589SOL    HW117666   5.882   5.025   6.130
 5589SOL    HW217667   5.963   4.940   6.017
 5590SOL     OW17668   6.151   5.631   3.695
 5590SOL    HW117669   6.094   5.713   3.696
 5590SOL    HW217670   6.245   5.655   3.671
 5591SOL     OW17671   5.788   0.754   1.688
 5591SOL    HW117672   5.864   0.806   1.728
 5591SOL    HW217673   5.703   0.804   1.700
 5592SOL     OW17674   1.150   3.680   3.190
 5592SOL    HW117675   1.174   3.582   3.192
 5592SOL    HW217676   1.233   3.733   3.173
 5593SOL     OW17677   6.904   3.662   0.259
 5593SOL    HW117678   6.838   3.722   0.305
 5593SOL    HW217679   6.860   3.620   0.179
 5594SOL     OW17680   6.252   2.367   6.019
 5594SOL    HW117681   6.236   2.415   6.105
 5594SOL    HW217682   6.350   2.355   6.005
 5595SOL     OW17683   0.897   3.159   5.599
 5595SOL    HW117684   0.973   3.221   5.616
 5595SOL    HW217685   0.918   3.101   5.520
 5596SOL     OW17686   3.237   6.428   2.937
 5596SOL    HW117687   3.311   6.372   2.974
 5596SOL    HW217688   3.193   6.478   3.011
 5597SOL     OW17689   5.305   3.022   2.799
 5597SOL    HW117690   5.393   3.027   2.845
 5597SOL    HW217691   5.291   2.930   2.762
 5598SOL     OW17692   5.352   1.788   4.753
 5598SOL    HW117693   5.317   1.823   4.840
 5598SOL    HW217694   5.323   1.693   4.742
 5599SOL     OW17695   0.912   0.761   3.937
 5599SOL    HW117696   0.970   0.696   3.889
 5599SOL    HW217697   0.953   0.785   4.025
 5600SOL     OW17698   1.506   1.950   4.005
 5600SOL    HW117699   1.452   2.033   3.990
 5600SOL    HW217700   1.481   1.881   3.938
 5601SOL     OW17701   2.478   0.416   6.038
 5601SOL    HW117702   2.454   0.400   5.943
 5601SOL    HW217703   2.405   0.469   6.083
 5602SOL     OW17704   1.782   1.469   6.941
 5602SOL    HW117705   1.683   1.457   6.947
 5602SOL    HW217706   1.826   1.428   7.020
 5603SOL     OW17707   5.536   3.915   6.633
 5603SOL    HW117708   5.605   3.987   6.640
 5603SOL    HW217709   5.462   3.946   6.574
 5604SOL     OW17710   6.123   1.642   6.279
 5604SOL    HW117711   6.146   1.722   6.334
 5604SOL    HW217712   6.157   1.655   6.186
 5605SOL     OW17713   0.708   2.546   5.633
 5605SOL    HW117714   0.738   2.641   5.632
 5605SOL    HW217715   0.683   2.520   5.726
 5606SOL     OW17716   5.385   0.212   2.741
 5606SOL    HW117717   5.480   0.180   2.743
 5606SOL    HW217718   5.369   0.273   2.818
 5607SOL     OW17719   6.200   0.850   1.449
 5607SOL    HW117720   6.206   0.950   1.444
 5607SOL    HW217721   6.138   0.817   1.378
 5608SOL     OW17722   4.627   6.657   4.789
 5608SOL    HW117723   4.594   6.572   4.749
 5608SOL    HW217724   4.686   6.705   4.722
 5609SOL     OW17725   2.183   5.613   5.591
 5609SOL    HW117726   2.101   5.667   5.616
 5609SOL    HW217727   2.173   5.520   5.626
 5610SOL     OW17728   4.308   0.315   6.247
 5610SOL    HW117729   4.386   0.358   6.292
 5610SOL    HW217730   4.226   0.370   6.262
 5611SOL     OW17731   1.798   4.715   3.483
 5611SOL    HW117732   1.880   4.741   3.433
 5611SOL    HW217733   1.718   4.725   3.424
 5612SOL     OW17734   1.996   0.494   5.654
 5612SOL    HW117735   2.043   0.413   5.620
 5612SOL    HW217736   1.906   0.501   5.611
 5613SOL     OW17737   3.897   4.867   1.682
 5613SOL    HW117738   3.966   4.824   1.740
 5613SOL    HW217739   3.849   4.937   1.734
 5614SOL     OW17740   4.730   2.200   3.427
 5614SOL    HW117741   4.784   2.225   3.346
 5614SOL    HW217742   4.633   2.205   3.405
 5615SOL     OW17743   1.257   1.633   1.401
 5615SOL    HW117744   1.282   1.698   1.472
 5615SOL    HW217745   1.285   1.668   1.312
 5616SOL     OW17746   2.592   0.043   4.939
 5616SOL    HW117747   2.669   0.075   4.884
 5616SOL    HW217748   2.531   7.008   4.883
 5617SOL     OW17749   0.954   1.171   5.069
 5617SOL    HW117750   1.037   1.186   5.123
 5617SOL    HW217751   0.936   1.251   5.012
 5618SOL     OW17752   6.442   4.625   2.828
 5618SOL    HW117753   6.453   4.529   2.854
 5618SOL    HW217754   6.401   4.630   2.737
 5619SOL     OW17755   2.099   3.567   4.753
 5619SOL    HW117756   2.029   3.515   4.803
 5619SOL    HW217757   2.118   3.652   4.801
 5620SOL     OW17758   3.704   2.443   6.012
 5620SOL    HW117759   3.785   2.449   6.069
 5620SOL    HW217760   3.665   2.535   6.000
 5621SOL     OW17761   1.902   2.082   6.627
 5621SOL    HW117762   1.903   2.181   6.642
 5621SOL    HW217763   1.984   2.055   6.576
 5622SOL     OW17764   5.971   0.635   5.787
 5622SOL    HW117765   5.970   0.702   5.862
 5622SOL    HW217766   6.053   0.577   5.795
 5623SOL     OW17767   0.344   5.377   6.681
 5623SOL    HW117768   0.380   5.435   6.754
 5623SOL    HW217769   0.420   5.346   6.624
 5624SOL     OW17770   0.916   3.815   3.083
 5624SOL    HW117771   0.927   3.912   3.103
 5624SOL    HW217772   0.995   3.764   3.118
 5625SOL     OW17773   6.640   2.163   5.572
 5625SOL    HW117774   6.650   2.114   5.486
 5625SOL    HW217775   6.719   2.144   5.630
 5626SOL     OW17776   4.389   0.054   4.593
 5626SOL    HW117777   4.406   0.125   4.662
 5626SOL    HW217778   4.339   0.094   4.517
 5627SOL     OW17779   1.123   6.068   0.806
 5627SOL    HW117780   1.207   6.096   0.853
 5627SOL    HW217781   1.147   6.015   0.724
 5628SOL     OW17782   1.109   1.011   4.362
 5628SOL    HW117783   1.060   0.940   4.311
 5628SOL    HW217784   1.074   1.016   4.455
 5629SOL     OW17785   3.709   3.454   2.940
 5629SOL    HW117786   3.787   3.397   2.964
 5629SOL    HW217787   3.736   3.550   2.939
 5630SOL     OW17788   7.002   4.529   1.796
 5630SOL    HW117789   6.984   4.432   1.782
 5630SOL    HW217790   0.028   4.542   1.883
 5631SOL     OW17791   4.607   0.683   6.721
 5631SOL    HW117792   4.617   0.592   6.683
 5631SOL    HW217793   4.684   0.704   6.780
 5632SOL     OW17794   3.134   3.390   0.330
 5632SOL    HW117795   3.096   3.380   0.238
 5632SOL    HW217796   3.187   3.308   0.353
 5633SOL     OW17797   6.139   2.899   4.794
 5633SOL    HW117798   6.146   2.962   4.717
 5633SOL    HW217799   6.045   2.866   4.803
 5634SOL     OW17800   4.646   5.828   4.342
 5634SOL    HW117801   4.555   5.857   4.372
 5634SOL    HW217802   4.715   5.887   4.384
 5635SOL     OW17803   3.131   2.178   5.337
 5635SOL    HW117804   3.149   2.254   5.274
 5635SOL    HW217805   3.216   2.130   5.357
 5636SOL     OW17806   3.922   6.127   3.992
 5636SOL    HW117807   3.940   6.143   3.895
 5636SOL    HW217808   3.850   6.057   4.001
 5637SOL     OW17809   6.022   0.144   3.535
 5637SOL    HW117810   5.957   0.186   3.472
 5637SOL    HW217811   5.984   0.060   3.572
 5638SOL     OW17812   4.975   3.524   6.363
 5638SOL    HW117813   4.975   3.508   6.462
 5638SOL    HW217814   5.050   3.473   6.321
 5639SOL     OW17815   2.866   0.572   6.535
 5639SOL    HW117816   2.929   0.624   6.477
 5639SOL    HW217817   2.823   0.499   6.481
 5640SOL     OW17818   2.497   0.018   3.457
 5640SOL    HW117819   2.588   0.015   3.414
 5640SOL    HW217820   2.428   0.031   3.386
 5641SOL     OW17821   5.891   5.703   4.818
 5641SOL    HW117822   5.877   5.751   4.905
 5641SOL    HW217823   5.824   5.630   4.810
 5642SOL     OW17824   1.659   2.009   6.703
 5642SOL    HW117825   1.618   1.924   6.668
 5642SOL    HW217826   1.755   2.013   6.675
 5643SOL     OW17827   5.703   2.177   4.911
 5643SOL    HW117828   5.714   2.227   4.996
 5643SOL    HW217829   5.618   2.124   4.915
 5644SOL     OW17830   2.949   0.087   6.395
 5644SOL    HW117831   3.011   0.111   6.471
 5644SOL    HW217832   2.999   0.032   6.328
 5645SOL     OW17833   5.007   3.579   4.603
 5645SOL    HW117834   5.015   3.480   4.610
 5645SOL    HW217835   4.940   3.603   4.533
 5646SOL     OW17836   1.513   4.254   2.632
 5646SOL    HW117837   1.481   4.160   2.647
 5646SOL    HW217838   1.586   4.253   2.563
 5647SOL     OW17839   6.796   6.450   2.553
 5647SOL    HW117840   6.736   6.397   2.612
 5647SOL    HW217841   6.758   6.541   2.539
 5648SOL     OW17842   4.727   6.455   3.344
 5648SOL    HW117843   4.794   6.459   3.419
 5648SOL    HW217844   4.680   6.367   3.346
 5649SOL     OW17845   1.048   6.568   4.542
 5649SOL    HW117846   1.066   6.634   4.470
 5649SOL    HW217847   0.986   6.498   4.509
 5650SOL     OW17848   6.940   4.306   6.837
 5650SOL    HW117849   6.985   4.335   6.921
 5650SOL    HW217850   6.896   4.384   6.793
 5651SOL     OW17851   2.558   1.189   1.277
 5651SOL    HW117852   2.604   1.278   1.266
 5651SOL    HW217853   2.503   1.190   1.360
 5652SOL     OW17854   0.738   5.969   1.533
 5652SOL    HW117855   0.729   5.922   1.445
 5652SOL    HW217856   0.721   5.904   1.607
 5653SOL     OW17857   0.191   0.081   1.743
 5653SOL    HW117858   0.121   0.140   1.783
 5653SOL    HW217859   0.153   7.012   1.727
 5654SOL     OW17860   3.273   5.579   4.381
 5654SOL    HW117861   3.363   5.534   4.385
 5654SOL    HW217862   3.279   5.669   4.424
 5655SOL     OW17863   6.184   2.452   5.216
 5655SOL    HW117864   6.241   2.529   5.186
 5655SOL    HW217865   6.235   2.367   5.205
 5656SOL     OW17866   6.484   3.366   0.353
 5656SOL    HW117867   6.523   3.301   0.288
 5656SOL    HW217868   6.554   3.395   0.418
 5657SOL     OW17869   5.294   5.763   4.817
 5657SOL    HW117870   5.239   5.713   4.885
 5657SOL    HW217871   5.298   5.710   4.732
 5658SOL     OW17872   2.207   2.878   6.053
 5658SOL    HW117873   2.168   2.967   6.028
 5658SOL    HW217874   2.158   2.841   6.132
 5659SOL     OW17875   2.669   4.058   0.057
 5659SOL    HW117876   2.642   4.152   0.033
 5659SOL    HW217877   2.706   4.057   0.150
 5660SOL     OW17878   4.298   0.937   5.997
 5660SOL    HW117879   4.372   0.996   6.029
 5660SOL    HW217880   4.299   0.852   6.049
 5661SOL     OW17881   1.386   5.599   6.003
 5661SOL    HW117882   1.410   5.691   6.033
 5661SOL    HW217883   1.454   5.534   6.038
 5662SOL     OW17884   3.339   6.510   0.950
 5662SOL    HW117885   3.243   6.514   0.978
 5662SOL    HW217886   3.378   6.602   0.951
 5663SOL     OW17887   1.503   3.379   6.441
 5663SOL    HW117888   1.578   3.379   6.507
 5663SOL    HW217889   1.457   3.290   6.443
 5664SOL     OW17890   4.577   4.927   4.574
 5664SOL    HW117891   4.518   4.854   4.606
 5664SOL    HW217892   4.627   4.897   4.492
 5665SOL     OW17893   1.732   1.706   1.227
 5665SOL    HW117894   1.649   1.761   1.212
 5665SOL    HW217895   1.719   1.616   1.187
 5666SOL     OW17896   5.904   1.927   5.091
 5666SOL    HW117897   5.881   1.992   5.163
 5666SOL    HW217898   5.960   1.853   5.129
 5667SOL     OW17899   2.879   5.082   4.415
 5667SOL    HW117900   2.864   4.983   4.422
 5667SOL    HW217901   2.946   5.110   4.484
 5668SOL     OW17902   4.712   4.235   3.505
 5668SOL    HW117903   4.651   4.273   3.435
 5668SOL    HW217904   4.700   4.285   3.591
 5669SOL     OW17905   5.715   4.121   5.845
 5669SOL    HW117906   5.748   4.186   5.913
 5669SOL    HW217907   5.669   4.171   5.771
 5670SOL     OW17908   1.681   2.086   3.690
 5670SOL    HW117909   1.722   2.104   3.600
 5670SOL    HW217910   1.745   2.115   3.761
 5671SOL     OW17911   0.119   6.032   3.885
 5671SOL    HW117912   0.190   6.014   3.816
 5671SOL    HW217913   0.118   5.957   3.951
 5672SOL     OW17914   5.166   3.176   4.649
 5672SOL    HW117915   5.143   3.091   4.697
 5672SOL    HW217916   5.084   3.215   4.608
 5673SOL     OW17917   1.093   1.431   0.550
 5673SOL    HW117918   1.034   1.363   0.507
 5673SOL    HW217919   1.134   1.391   0.632
 5674SOL     OW17920   2.402   4.719   5.012
 5674SOL    HW117921   2.368   4.625   5.019
 5674SOL    HW217922   2.481   4.722   4.951
 5675SOL     OW17923   2.906   1.503   1.180
 5675SOL    HW117924   2.976   1.563   1.142
 5675SOL    HW217925   2.940   1.409   1.182
 5676SOL     OW17926   2.675   1.329   1.606
 5676SOL    HW117927   2.642   1.412   1.561
 5676SOL    HW217928   2.749   1.353   1.669
 5677SOL     OW17929   6.629   1.495   0.001
 5677SOL    HW117930   6.712   1.499   0.057
 5677SOL    HW217931   6.576   1.413   0.025
 5678SOL     OW17932   3.446   2.016   2.016
 5678SOL    HW117933   3.381   2.074   1.967
 5678SOL    HW217934   3.529   2.068   2.036
 5679SOL     OW17935   6.469   3.188   4.859
 5679SOL    HW117936   6.474   3.284   4.831
 5679SOL    HW217937   6.394   3.176   4.924
 5680SOL     OW17938   0.839   5.565   4.519
 5680SOL    HW117939   0.844   5.467   4.533
 5680SOL    HW217940   0.928   5.607   4.536
 5681SOL     OW17941   1.271   3.294   4.085
 5681SOL    HW117942   1.367   3.273   4.101
 5681SOL    HW217943   1.215   3.215   4.108
 5682SOL     OW17944   2.117   4.769   1.632
 5682SOL    HW117945   2.134   4.677   1.596
 5682SOL    HW217946   2.151   4.775   1.726
 5683SOL     OW17947   6.318   0.622   5.773
 5683SOL    HW117948   6.335   0.582   5.683
 5683SOL    HW217949   6.284   0.551   5.835
 5684SOL     OW17950   2.313   2.752   4.950
 5684SOL    HW117951   2.251   2.690   4.998
 5684SOL    HW217952   2.300   2.845   4.984
 5685SOL     OW17953   2.521   1.842   2.283
 5685SOL    HW117954   2.548   1.939   2.284
 5685SOL    HW217955   2.601   1.786   2.262
 5686SOL     OW17956   4.576   5.742   6.173
 5686SOL    HW117957   4.518   5.821   6.193
 5686SOL    HW217958   4.528   5.658   6.197
 5687SOL     OW17959   1.849   6.312   6.282
 5687SOL    HW117960   1.834   6.317   6.184
 5687SOL    HW217961   1.947   6.304   6.300
 5688SOL     OW17962   2.146   2.027   2.639
 5688SOL    HW117963   2.194   1.941   2.624
 5688SOL    HW217964   2.085   2.045   2.562
 5689SOL     OW17965   0.137   2.363   1.657
 5689SOL    HW117966   0.207   2.383   1.589
 5689SOL    HW217967   0.058   2.422   1.642
 5690SOL     OW17968   2.228   5.183   0.073
 5690SOL    HW117969   2.200   5.225   7.008
 5690SOL    HW217970   2.157   5.199   0.142
 5691SOL     OW17971   3.965   1.404   3.274
 5691SOL    HW117972   3.993   1.357   3.358
 5691SOL    HW217973   4.034   1.471   3.249
 5692SOL     OW17974   5.774   5.028   2.130
 5692SOL    HW117975   5.772   5.038   2.030
 5692SOL    HW217976   5.681   5.009   2.163
 5693SOL     OW17977   3.929   0.794   1.273
 5693SOL    HW117978   3.931   0.876   1.330
 5693SOL    HW217979   3.836   0.758   1.270
 5694SOL     OW17980   1.009   0.085   1.165
 5694SOL    HW117981   1.061   0.006   1.133
 5694SOL    HW217982   1.072   0.154   1.202
 5695SOL     OW17983   2.306   0.630   1.842
 5695SOL    HW117984   2.318   0.578   1.758
 5695SOL    HW217985   2.256   0.714   1.823
 5696SOL     OW17986   1.443   0.283   4.173
 5696SOL    HW117987   1.528   0.296   4.121
 5696SOL    HW217988   1.405   0.193   4.153
 5697SOL     OW17989   6.279   2.608   0.885
 5697SOL    HW117990   6.321   2.679   0.940
 5697SOL    HW217991   6.217   2.649   0.818
 5698SOL     OW17992   2.943   2.015   4.583
 5698SOL    HW117993   2.976   2.074   4.656
 5698SOL    HW217994   3.019   1.958   4.550
 5699SOL     OW17995   1.985   2.885   2.419
 5699SOL    HW117996   2.013   2.859   2.327
 5699SOL    HW217997   2.058   2.864   2.484
 5700SOL     OW17998   6.395   0.214   2.971
 5700SOL    HW117999   6.473   0.177   3.022
 5700SOL    HW218000   6.427   0.284   2.908
 5701SOL     OW18001   0.413   0.174   0.581
 5701SOL    HW118002   0.397   0.106   0.510
 5701SOL    HW218003   0.447   0.129   0.664
 5702SOL     OW18004   2.344   7.020   4.821
 5702SOL    HW118005   2.261   0.050   4.844
 5702SOL    HW218006   2.353   6.942   4.883
 5703SOL     OW18007   0.684   3.216   6.357
 5703SOL    HW118008   0.762   3.189   6.414
 5703SOL    HW218009   0.633   3.135   6.329
 5704SOL     OW18010   3.987   5.746   4.261
 5704SOL    HW118011   4.036   5.722   4.177
 5704SOL    HW218012   3.897   5.701   4.261
 5705SOL     OW18013   6.118   0.386   5.864
 5705SOL    HW118014   6.032   0.398   5.912
 5705SOL    HW218015   6.135   0.289   5.848
 5706SOL     OW18016   4.543   2.036   0.581
 5706SOL    HW118017   4.612   1.997   0.520
 5706SOL    HW218018   4.512   1.966   0.645
 5707SOL     OW18019   5.745   5.278   1.703
 5707SOL    HW118020   5.656   5.312   1.733
 5707SOL    HW218021   5.783   5.217   1.772
 5708SOL     OW18022   5.267   6.702   2.198
 5708SOL    HW118023   5.316   6.702   2.111
 5708SOL    HW218024   5.306   6.634   2.259
 5709SOL     OW18025   0.192   2.293   2.500
 5709SOL    HW118026   0.226   2.374   2.547
 5709SOL    HW218027   0.153   2.230   2.568
 5710SOL     OW18028   3.407   2.220   0.561
 5710SOL    HW118029   3.365   2.266   0.483
 5710SOL    HW218030   3.506   2.211   0.544
 5711SOL     OW18031   5.524   2.078   2.879
 5711SOL    HW118032   5.591   2.151   2.865
 5711SOL    HW218033   5.561   1.992   2.843
 5712SOL     OW18034   6.496   0.341   0.329
 5712SOL    HW118035   6.518   0.432   0.364
 5712SOL    HW218036   6.400   0.339   0.300
 5713SOL     OW18037   2.311   1.116   0.414
 5713SOL    HW118038   2.257   1.072   0.485
 5713SOL    HW218039   2.374   1.181   0.455
 5714SOL     OW18040   6.221   0.610   0.601
 5714SOL    HW118041   6.302   0.589   0.547
 5714SOL    HW218042   6.145   0.553   0.571
 5715SOL     OW18043   0.562   0.343   2.415
 5715SOL    HW118044   0.512   0.323   2.500
 5715SOL    HW218045   0.506   0.402   2.357
 5716SOL     OW18046   6.005   4.193   5.057
 5716SOL    HW118047   6.042   4.280   5.089
 5716SOL    HW218048   5.950   4.208   4.975
 5717SOL     OW18049   1.450   5.110   3.025
 5717SOL    HW118050   1.545   5.124   2.998
 5717SOL    HW218051   1.434   5.013   3.041
 5718SOL     OW18052   1.059   3.105   6.880
 5718SOL    HW118053   1.063   3.167   6.958
 5718SOL    HW218054   1.012   3.021   6.907
 5719SOL     OW18055   2.427   3.123   0.784
 5719SOL    HW118056   2.386   3.102   0.695
 5719SOL    HW218057   2.526   3.111   0.779
 5720SOL     OW18058   3.239   4.856   5.791
 5720SOL    HW118059   3.181   4.777   5.772
 5720SOL    HW218060   3.318   4.827   5.845
 5721SOL     OW18061   1.642   2.934   6.828
 5721SOL    HW118062   1.668   2.926   6.924
 5721SOL    HW218063   1.705   2.996   6.781
 5722SOL     OW18064   1.201   0.460   6.978
 5722SOL    HW118065   1.284   0.514   6.972
 5722SOL    HW218066   1.224   0.365   7.001
 5723SOL     OW18067   4.028   2.957   0.735
 5723SOL    HW118068   3.980   2.937   0.821
 5723SOL    HW218069   4.111   3.009   0.755
 5724SOL     OW18070   5.560   2.401   5.719
 5724SOL    HW118071   5.487   2.367   5.778
 5724SOL    HW218072   5.649   2.385   5.764
 5725SOL     OW18073   0.288   4.288   4.936
 5725SOL    HW118074   0.223   4.360   4.912
 5725SOL    HW218075   0.299   4.225   4.859
 5726SOL     OW18076   5.374   4.492   2.428
 5726SOL    HW118077   5.428   4.415   2.393
 5726SOL    HW218078   5.369   4.487   2.528
 5727SOL     OW18079   0.705   2.363   5.208
 5727SOL    HW118080   0.744   2.284   5.255
 5727SOL    HW218081   0.633   2.333   5.146
 5728SOL     OW18082   4.689   0.302   5.097
 5728SOL    HW118083   4.704   0.251   5.013
 5728SOL    HW218084   4.776   0.317   5.143
 5729SOL     OW18085   2.789   1.968   4.839
 5729SOL    HW118086   2.800   2.002   4.746
 5729SOL    HW218087   2.749   2.039   4.896
 5730SOL     OW18088   6.983   4.435   4.743
 5730SOL    HW118089   6.916   4.495   4.698
 5730SOL    HW218090   6.960   4.340   4.721
 5731SOL     OW18091   0.840   6.796   3.007
 5731SOL    HW118092   0.832   6.751   2.918
 5731SOL    HW218093   0.916   6.756   3.058
 5732SOL     OW18094   0.177   0.375   3.376
 5732SOL    HW118095   0.233   0.443   3.425
 5732SOL    HW218096   0.109   0.422   3.321
 5733SOL     OW18097   3.104   0.187   5.617
 5733SOL    HW118098   3.119   0.112   5.553
 5733SOL    HW218099   3.183   0.195   5.677
 5734SOL     OW18100   1.676   7.021   3.698
 5734SOL    HW118101   1.740   0.019   3.772
 5734SOL    HW218102   1.661   0.082   3.643
 5735SOL     OW18103   3.062   1.038   2.100
 5735SOL    HW118104   2.968   1.039   2.067
 5735SOL    HW218105   3.092   0.943   2.111
 5736SOL     OW18106   1.237   5.742   6.938
 5736SOL    HW118107   1.154   5.702   6.977
 5736SOL    HW218108   1.299   5.769   7.012
 5737SOL     OW18109   5.484   4.455   0.384
 5737SOL    HW118110   5.392   4.434   0.353
 5737SOL    HW218111   5.517   4.381   0.443
 5738SOL     OW18112   1.332   4.160   5.768
 5738SOL    HW118113   1.403   4.185   5.702
 5738SOL    HW218114   1.304   4.065   5.751
 5739SOL     OW18115   1.038   2.468   1.692
 5739SOL    HW118116   0.963   2.403   1.677
 5739SOL    HW218117   1.125   2.420   1.682
 5740SOL     OW18118   3.706   5.858   6.535
 5740SOL    HW118119   3.612   5.887   6.518
 5740SOL    HW218120   3.708   5.763   6.566
 5741SOL     OW18121   7.021   4.490   2.099
 5741SOL    HW118122   7.009   4.405   2.151
 5741SOL    HW218123   6.966   4.562   2.140
 5742SOL     OW18124   7.001   5.960   4.296
 5742SOL    HW118125   0.048   5.909   4.348
 5742SOL    HW218126   0.002   6.058   4.298
 5743SOL     OW18127   1.621   6.630   4.132
 5743SOL    HW118128   1.607   6.578   4.217
 5743SOL    HW218129   1.613   6.728   4.151
 5744SOL     OW18130   5.747   0.070   1.948
 5744SOL    HW118131   5.774   0.119   1.866
 5744SOL    HW218132   5.816   0.083   2.019
 5745SOL     OW18133   1.443   2.389   3.402
 5745SOL    HW118134   1.531   2.373   3.446
 5745SOL    HW218135   1.407   2.302   3.369
 5746SOL     OW18136   6.578   4.603   7.014
 5746SOL    HW118137   6.530   4.638   0.073
 5746SOL    HW218138   6.541   4.513   6.989
 5747SOL     OW18139   0.774   6.399   3.086
 5747SOL    HW118140   0.729   6.464   3.147
 5747SOL    HW218141   0.715   6.382   3.007
 5748SOL     OW18142   2.110   6.928   3.740
 5748SOL    HW118143   2.114   6.938   3.839
 5748SOL    HW218144   2.077   7.013   3.699
 5749SOL     OW18145   2.341   1.174   2.784
 5749SOL    HW118146   2.340   1.080   2.750
 5749SOL    HW218147   2.287   1.179   2.868
 5750SOL     OW18148   6.064   5.779   2.374
 5750SOL    HW118149   6.027   5.807   2.462
 5750SOL    HW218150   6.084   5.860   2.318
 5751SOL     OW18151   1.248   3.086   6.167
 5751SOL    HW118152   1.149   3.074   6.155
 5751SOL    HW218153   1.267   3.182   6.190
 5752SOL     OW18154   0.383   1.177   6.732
 5752SOL    HW118155   0.480   1.184   6.707
 5752SOL    HW218156   0.356   1.258   6.783
 5753SOL     OW18157   4.460   1.864   0.750
 5753SOL    HW118158   4.465   1.767   0.726
 5753SOL    HW218159   4.371   1.884   0.790
 5754SOL     OW18160   6.385   5.253   0.542
 5754SOL    HW118161   6.343   5.240   0.452
 5754SOL    HW218162   6.323   5.306   0.600
 5755SOL     OW18163   3.181   3.642   1.476
 5755SOL    HW118164   3.175   3.644   1.376
 5755SOL    HW218165   3.089   3.635   1.515
 5756SOL     OW18166   0.001   6.540   4.420
 5756SOL    HW118167   7.004   6.521   4.324
 5756SOL    HW218168   6.989   6.632   4.443
 5757SOL     OW18169   0.237   6.414   2.188
 5757SOL    HW118170   0.208   6.389   2.280
 5757SOL    HW218171   0.284   6.502   2.190
 5758SOL     OW18172   2.123   1.368   5.859
 5758SOL    HW118173   2.028   1.353   5.889
 5758SOL    HW218174   2.177   1.287   5.880
 5759SOL     OW18175   0.500   1.733   5.598
 5759SOL    HW118176   0.545   1.747   5.686
 5759SOL    HW218177   0.435   1.658   5.606
 5760SOL     OW18178   1.261   4.996   1.736
 5760SOL    HW118179   1.269   5.045   1.823
 5760SOL    HW218180   1.181   5.028   1.686
 5761SOL     OW18181   5.546   0.286   4.525
 5761SOL    HW118182   5.633   0.325   4.556
 5761SOL    HW218183   5.478   0.358   4.518
 5762SOL     OW18184   5.760   6.439   1.437
 5762SOL    HW118185   5.808   6.358   1.403
 5762SOL    HW218186   5.669   6.414   1.469
 5763SOL     OW18187   1.285   1.231   1.147
 5763SOL    HW118188   1.250   1.314   1.103
 5763SOL    HW218189   1.303   1.162   1.077
 5764SOL     OW18190   4.457   2.874   6.163
 5764SOL    HW118191   4.539   2.869   6.107
 5764SOL    HW218192   4.469   2.817   6.245
 5765SOL     OW18193   6.585   5.647   0.209
 5765SOL    HW118194   6.612   5.561   0.165
 5765SOL    HW218195   6.524   5.698   0.149
 5766SOL     OW18196   3.329   1.210   3.229
 5766SOL    HW118197   3.323   1.302   3.267
 5766SOL    HW218198   3.363   1.147   3.299
 5767SOL     OW18199   6.158   0.736   0.861
 5767SOL    HW118200   6.124   0.824   0.828
 5767SOL    HW218201   6.163   0.672   0.784
 5768SOL     OW18202   6.204   0.879   2.575
 5768SOL    HW118203   6.290   0.830   2.562
 5768SOL    HW218204   6.137   0.845   2.509
 5769SOL     OW18205   2.128   5.711   3.368
 5769SOL    HW118206   2.037   5.734   3.335
 5769SOL    HW218207   2.128   5.705   3.467
 5770SOL     OW18208   5.692   1.862   1.846
 5770SOL    HW118209   5.692   1.950   1.892
 5770SOL    HW218210   5.659   1.874   1.752
 5771SOL     OW18211   0.241   1.089   0.797
 5771SOL    HW118212   0.285   1.021   0.738
 5771SOL    HW218213   0.155   1.118   0.757
 5772SOL     OW18214   6.530   4.381   6.686
 5772SOL    HW118215   6.532   4.289   6.647
 5772SOL    HW218216   6.530   4.375   6.786
 5773SOL     OW18217   5.116   6.095   4.966
 5773SOL    HW118218   5.189   6.048   5.014
 5773SOL    HW218219   5.155   6.155   4.896
 5774SOL     OW18220   2.719   4.679   2.755
 5774SOL    HW118221   2.702   4.662   2.658
 5774SOL    HW218222   2.769   4.764   2.766
 5775SOL     OW18223   0.742   0.722   0.486
 5775SOL    HW118224   0.796   0.688   0.410
 5775SOL    HW218225   0.648   0.689   0.478
 5776SOL     OW18226   4.415   1.282   5.836
 5776SOL    HW118227   4.351   1.264   5.911
 5776SOL    HW218228   4.445   1.378   5.841
 5777SOL     OW18229   5.828   0.454   5.525
 5777SOL    HW118230   5.852   0.521   5.596
 5777SOL    HW218231   5.908   0.398   5.504
 5778SOL     OW18232   2.679   6.459   4.064
 5778SOL    HW118233   2.681   6.554   4.033
 5778SOL    HW218234   2.681   6.398   3.984
 5779SOL     OW18235   4.699   0.241   1.036
 5779SOL    HW118236   4.665   0.282   0.951
 5779SOL    HW218237   4.646   0.159   1.056
 5780SOL     OW18238   5.747   3.684   0.676
 5780SOL    HW118239   5.709   3.723   0.593
 5780SOL    HW218240   5.847   3.686   0.671
 5781SOL     OW18241   3.148   4.602   5.299
 5781SOL    HW118242   3.073   4.562   5.247
 5781SOL    HW218243   3.142   4.573   5.394
 5782SOL     OW18244   4.357   1.760   3.199
 5782SOL    HW118245   4.388   1.849   3.234
 5782SOL    HW218246   4.427   1.721   3.141
 5783SOL     OW18247   2.645   6.996   2.012
 5783SOL    HW118248   2.698   6.916   2.039
 5783SOL    HW218249   2.549   6.970   2.000
 5784SOL     OW18250   1.122   5.944   6.807
 5784SOL    HW118251   1.187   6.017   6.826
 5784SOL    HW218252   1.162   5.856   6.832
 5785SOL     OW18253   1.989   2.109   6.900
 5785SOL    HW118254   1.958   2.039   6.964
 5785SOL    HW218255   1.979   2.076   6.806
 5786SOL     OW18256   0.281   2.324   6.176
 5786SOL    HW118257   0.215   2.317   6.100
 5786SOL    HW218258   0.307   2.419   6.189
 5787SOL     OW18259   0.194   2.996   5.284
 5787SOL    HW118260   0.159   2.983   5.191
 5787SOL    HW218261   0.140   2.941   5.348
 5788SOL     OW18262   0.643   2.186   1.820
 5788SOL    HW118263   0.603   2.185   1.911
 5788SOL    HW218264   0.722   2.125   1.817
 5789SOL     OW18265   2.992   5.308   6.791
 5789SOL    HW118266   3.091   5.296   6.801
 5789SOL    HW218267   2.963   5.276   6.700
 5790SOL     OW18268   6.543   6.249   2.529
 5790SOL    HW118269   6.505   6.222   2.440
 5790SOL    HW218270   6.488   6.324   2.567
 5791SOL     OW18271   3.706   0.918   1.137
 5791SOL    HW118272   3.724   0.972   1.220
 5791SOL    HW218273   3.653   0.837   1.161
 5792SOL     OW18274   4.832   2.373   2.558
 5792SOL    HW118275   4.846   2.296   2.496
 5792SOL    HW218276   4.797   2.451   2.508
 5793SOL     OW18277   3.482   2.008   0.101
 5793SOL    HW118278   3.566   2.027   0.152
 5793SOL    HW218279   3.481   1.912   0.073
 5794SOL     OW18280   3.426   5.852   6.740
 5794SOL    HW118281   3.489   5.828   6.814
 5794SOL    HW218282   3.441   5.791   6.662
 5795SOL     OW18283   1.228   0.090   0.935
 5795SOL    HW118284   1.170   0.146   0.875
 5795SOL    HW218285   1.171   0.029   0.990
 5796SOL     OW18286   4.589   1.131   6.231
 5796SOL    HW118287   4.588   1.230   6.245
 5796SOL    HW218288   4.639   1.088   6.306
 5797SOL     OW18289   0.137   2.542   6.994
 5797SOL    HW118290   0.168   2.520   0.065
 5797SOL    HW218291   0.038   2.528   6.988
 5798SOL     OW18292   2.102   2.528   4.338
 5798SOL    HW118293   2.020   2.498   4.290
 5798SOL    HW218294   2.079   2.604   4.400
 5799SOL     OW18295   2.743   0.410   3.613
 5799SOL    HW118296   2.793   0.379   3.532
 5799SOL    HW218297   2.720   0.507   3.602
 5800SOL     OW18298   1.176   6.508   2.208
 5800SOL    HW118299   1.148   6.422   2.165
 5800SOL    HW218300   1.248   6.550   2.153
 5801SOL     OW18301   1.816   1.527   3.045
 5801SOL    HW118302   1.733   1.477   3.072
 5801SOL    HW218303   1.805   1.562   2.952
 5802SOL     OW18304   0.656   6.949   3.167
 5802SOL    HW118305   0.703   6.897   3.095
 5802SOL    HW218306   0.723   7.007   3.215
 5803SOL     OW18307   0.200   6.524   4.761
 5803SOL    HW118308   0.269   6.499   4.693
 5803SOL    HW218309   0.159   6.441   4.799
 5804SOL     OW18310   6.724   2.201   3.276
 5804SOL    HW118311   6.686   2.204   3.183
 5804SOL    HW218312   6.690   2.119   3.323
 5805SOL     OW18313   0.988   2.681   1.835
 5805SOL    HW118314   1.021   2.606   1.778
 5805SOL    HW218315   0.892   2.665   1.859
 5806SOL     OW18316   6.593   3.681   2.079
 5806SOL    HW118317   6.692   3.676   2.093
 5806SOL    HW218318   6.573   3.740   2.000
 5807SOL     OW18319   1.033   1.463   2.167
 5807SOL    HW118320   0.961   1.488   2.233
 5807SOL    HW218321   1.049   1.365   2.171
 5808SOL     OW18322   6.832   0.439   5.411
 5808SOL    HW118323   6.758   0.482   5.463
 5808SOL    HW218324   6.863   0.357   5.459
 5809SOL     OW18325   0.061   3.751   4.342
 5809SOL    HW118326   0.011   3.744   4.256
 5809SOL    HW218327   0.074   3.660   4.381
 5810SOL     OW18328   2.126   6.376   5.613
 5810SOL    HW118329   2.084   6.422   5.535
 5810SOL    HW218330   2.123   6.277   5.598
 5811SOL     OW18331   3.929   4.841   6.714
 5811SOL    HW118332   3.942   4.938   6.695
 5811SOL    HW218333   3.840   4.811   6.679
 5812SOL     OW18334   6.349   3.530   6.395
 5812SOL    HW118335   6.412   3.452   6.406
 5812SOL    HW218336   6.266   3.513   6.449
 5813SOL     OW18337   5.252   4.376   0.675
 5813SOL    HW118338   5.305   4.461   0.680
 5813SOL    HW218339   5.291   4.317   0.604
 5814SOL     OW18340   5.943   1.097   2.617
 5814SOL    HW118341   6.041   1.105   2.634
 5814SOL    HW218342   5.895   1.175   2.655
 5815SOL     OW18343   6.677   3.656   4.665
 5815SOL    HW118344   6.657   3.724   4.594
 5815SOL    HW218345   6.769   3.673   4.702
 5816SOL     OW18346   6.934   4.129   1.367
 5816SOL    HW118347   6.967   4.140   1.461
 5816SOL    HW218348   6.860   4.063   1.364
 5817SOL     OW18349   6.783   2.791   3.879
 5817SOL    HW118350   6.845   2.713   3.870
 5817SOL    HW218351   6.808   2.844   3.960
 5818SOL     OW18352   2.828   0.501   4.672
 5818SOL    HW118353   2.729   0.491   4.683
 5818SOL    HW218354   2.859   0.441   4.598
 5819SOL     OW18355   4.571   4.427   1.210
 5819SOL    HW118356   4.649   4.432   1.147
 5819SOL    HW218357   4.486   4.434   1.159
 5820SOL     OW18358   6.882   0.096   2.908
 5820SOL    HW118359   6.899   0.072   3.004
 5820SOL    HW218360   6.970   0.111   2.862
 5821SOL     OW18361   6.591   6.651   1.883
 5821SOL    HW118362   6.623   6.723   1.821
 5821SOL    HW218363   6.552   6.576   1.829
 5822SOL     OW18364   0.369   3.851   2.272
 5822SOL    HW118365   0.411   3.941   2.254
 5822SOL    HW218366   0.422   3.780   2.226
 5823SOL     OW18367   2.345   6.777   4.979
 5823SOL    HW118368   2.248   6.763   4.958
 5823SOL    HW218369   2.388   6.690   4.999
 5824SOL     OW18370   1.871   6.609   2.107
 5824SOL    HW118371   1.914   6.523   2.136
 5824SOL    HW218372   1.940   6.667   2.063
 5825SOL     OW18373   4.391   1.916   4.825
 5825SOL    HW118374   4.321   1.974   4.866
 5825SOL    HW218375   4.404   1.941   4.729
 5826SOL     OW18376   1.614   6.158   4.557
 5826SOL    HW118377   1.687   6.214   4.518
 5826SOL    HW218378   1.652   6.102   4.632
 5827SOL     OW18379   2.062   3.650   3.075
 5827SOL    HW118380   2.038   3.554   3.060
 5827SOL    HW218381   2.071   3.667   3.173
 5828SOL     OW18382   4.623   0.233   5.809
 5828SOL    HW118383   4.631   0.332   5.799
 5828SOL    HW218384   4.686   0.188   5.746
 5829SOL     OW18385   2.077   0.070   2.955
 5829SOL    HW118386   2.035   0.037   2.870
 5829SOL    HW218387   2.172   0.094   2.938
 5830SOL     OW18388   4.430   5.472   4.426
 5830SOL    HW118389   4.358   5.536   4.398
 5830SOL    HW218390   4.390   5.398   4.480
 5831SOL     OW18391   2.661   2.351   4.499
 5831SOL    HW118392   2.579   2.295   4.488
 5831SOL    HW218393   2.719   2.343   4.418
 5832SOL     OW18394   2.660   5.499   3.714
 5832SOL    HW118395   2.584   5.550   3.754
 5832SOL    HW218396   2.626   5.440   3.641
 5833SOL     OW18397   3.191   5.057   0.870
 5833SOL    HW118398   3.268   5.062   0.933
 5833SOL    HW218399   3.106   5.069   0.921
 5834SOL     OW18400   6.726   2.765   6.164
 5834SOL    HW118401   6.639   2.731   6.200
 5834SOL    HW218402   6.730   2.864   6.179
 5835SOL     OW18403   4.236   1.488   3.492
 5835SOL    HW118404   4.263   1.486   3.588
 5835SOL    HW218405   4.200   1.398   3.466
 5836SOL     OW18406   4.771   5.886   1.179
 5836SOL    HW118407   4.814   5.919   1.095
 5836SOL    HW218408   4.673   5.872   1.163
 5837SOL     OW18409   3.037   4.164   0.158
 5837SOL    HW118410   3.019   4.197   0.065
 5837SOL    HW218411   2.950   4.143   0.203
 5838SOL     OW18412   3.186   3.623   6.932
 5838SOL    HW118413   3.238   3.691   6.983
 5838SOL    HW218414   3.162   3.546   6.992
 5839SOL     OW18415   1.876   1.488   0.608
 5839SOL    HW118416   1.847   1.415   0.547
 5839SOL    HW218417   1.976   1.487   0.617
 5840SOL     OW18418   0.949   3.448   3.112
 5840SOL    HW118419   1.047   3.465   3.098
 5840SOL    HW218420   0.931   3.439   3.210
 5841SOL     OW18421   5.022   1.524   0.744
 5841SOL    HW118422   5.076   1.602   0.712
 5841SOL    HW218423   4.946   1.508   0.681
 5842SOL     OW18424   3.303   2.122   2.441
 5842SOL    HW118425   3.237   2.135   2.516
 5842SOL    HW218426   3.258   2.138   2.354
 5843SOL     OW18427   3.324   3.327   0.554
 5843SOL    HW118428   3.287   3.250   0.501
 5843SOL    HW218429   3.423   3.331   0.542
 5844SOL     OW18430   0.775   5.390   5.133
 5844SOL    HW118431   0.793   5.292   5.133
 5844SOL    HW218432   0.834   5.435   5.200
 5845SOL     OW18433   1.730   6.738   2.592
 5845SOL    HW118434   1.810   6.797   2.604
 5845SOL    HW218435   1.647   6.792   2.604
 5846SOL     OW18436   0.769   4.862   5.438
 5846SOL    HW118437   0.729   4.938   5.386
 5846SOL    HW218438   0.770   4.780   5.380
 5847SOL     OW18439   1.673   4.396   6.400
 5847SOL    HW118440   1.611   4.467   6.434
 5847SOL    HW218441   1.726   4.432   6.324
 5848SOL     OW18442   2.352   6.915   2.029
 5848SOL    HW118443   2.330   6.892   2.124
 5848SOL    HW218444   2.364   6.830   1.976
 5849SOL     OW18445   2.688   5.507   6.507
 5849SOL    HW118446   2.735   5.553   6.582
 5849SOL    HW218447   2.592   5.536   6.506
 5850SOL     OW18448   6.748   1.095   1.958
 5850SOL    HW118449   6.743   1.089   1.858
 5850SOL    HW218450   6.680   1.035   1.999
 5851SOL     OW18451   0.113   3.903   4.776
 5851SOL    HW118452   0.196   3.890   4.721
 5851SOL    HW218453   0.035   3.916   4.715
 5852SOL     OW18454   4.883   4.210   2.574
 5852SOL    HW118455   4.885   4.280   2.646
 5852SOL    HW218456   4.848   4.251   2.490
 5853SOL     OW18457   4.807   5.128   0.304
 5853SOL    HW118458   4.723   5.114   0.250
 5853SOL    HW218459   4.855   5.209   0.269
 5854SOL     OW18460   3.142   4.518   5.568
 5854SOL    HW118461   3.067   4.570   5.608
 5854SOL    HW218462   3.199   4.479   5.640
 5855SOL     OW18463   2.241   2.440   3.987
 5855SOL    HW118464   2.315   2.507   3.998
 5855SOL    HW218465   2.281   2.348   3.979
 5856SOL     OW18466   0.615   0.554   3.228
 5856SOL    HW118467   0.667   0.621   3.280
 5856SOL    HW218468   0.541   0.517   3.285
 5857SOL     OW18469   5.284   5.240   0.087
 5857SOL    HW118470   5.225   5.160   0.093
 5857SOL    HW218471   5.378   5.214   0.111
 5858SOL     OW18472   2.029   1.386   2.472
 5858SOL    HW118473   1.996   1.479   2.455
 5858SOL    HW218474   2.091   1.359   2.398
 5859SOL     OW18475   5.483   5.091   1.878
 5859SOL    HW118476   5.572   5.138   1.880
 5859SOL    HW218477   5.415   5.147   1.926
 5860SOL     OW18478   1.447   3.246   2.936
 5860SOL    HW118479   1.413   3.241   2.843
 5860SOL    HW218480   1.498   3.332   2.949
 5861SOL     OW18481   5.581   0.602   5.446
 5861SOL    HW118482   5.500   0.577   5.394
 5861SOL    HW218483   5.596   0.535   5.519
 5862SOL     OW18484   6.716   4.779   3.142
 5862SOL    HW118485   6.721   4.855   3.206
 5862SOL    HW218486   6.648   4.800   3.071
 5863SOL     OW18487   4.092   0.236   5.845
 5863SOL    HW118488   4.161   0.244   5.917
 5863SOL    HW218489   4.007   0.202   5.884
 5864SOL     OW18490   4.019   3.148   2.800
 5864SOL    HW118491   4.007   3.201   2.884
 5864SOL    HW218492   3.994   3.053   2.816
 5865SOL     OW18493   6.527   6.673   1.246
 5865SOL    HW118494   6.485   6.616   1.317
 5865SOL    HW218495   6.463   6.745   1.219
 5866SOL     OW18496   3.735   3.282   3.317
 5866SOL    HW118497   3.762   3.358   3.376
 5866SOL    HW218498   3.816   3.233   3.286
 5867SOL     OW18499   3.323   1.550   1.527
 5867SOL    HW118500   3.251   1.615   1.549
 5867SOL    HW218501   3.288   1.481   1.463
 5868SOL     OW18502   1.612   0.387   0.505
 5868SOL    HW118503   1.585   0.458   0.440
 5868SOL    HW218504   1.684   0.421   0.565
 5869SOL     OW18505   1.661   5.720   2.715
 5869SOL    HW118506   1.752   5.741   2.680
 5869SOL    HW218507   1.664   5.635   2.767
 5870SOL     OW18508   4.534   0.659   3.766
 5870SOL    HW118509   4.503   0.740   3.715
 5870SOL    HW218510   4.552   0.585   3.703
 5871SOL     OW18511   4.070   3.365   3.872
 5871SOL    HW118512   4.100   3.359   3.967
 5871SOL    HW218513   4.003   3.293   3.853
 5872SOL     OW18514   4.306   6.194   1.068
 5872SOL    HW118515   4.317   6.252   1.149
 5872SOL    HW218516   4.262   6.247   0.995
 5873SOL     OW18517   3.895   6.173   2.251
 5873SOL    HW118518   3.951   6.108   2.302
 5873SOL    HW218519   3.953   6.244   2.212
 5874SOL     OW18520   0.329   4.766   5.202
 5874SOL    HW118521   0.343   4.761   5.103
 5874SOL    HW218522   0.392   4.834   5.240
 5875SOL     OW18523   3.717   2.058   1.240
 5875SOL    HW118524   3.631   2.110   1.245
 5875SOL    HW218525   3.772   2.076   1.321
 5876SOL     OW18526   3.118   3.388   1.995
 5876SOL    HW118527   3.153   3.398   2.088
 5876SOL    HW218528   3.195   3.386   1.931
 5877SOL     OW18529   5.124   4.178   1.596
 5877SOL    HW118530   5.133   4.277   1.585
 5877SOL    HW218531   5.030   4.151   1.577
 5878SOL     OW18532   1.823   3.670   2.665
 5878SOL    HW118533   1.844   3.737   2.593
 5878SOL    HW218534   1.908   3.630   2.700
 5879SOL     OW18535   1.918   3.686   4.154
 5879SOL    HW118536   1.916   3.586   4.159
 5879SOL    HW218537   2.010   3.718   4.175
 5880SOL     OW18538   3.131   5.659   0.061
 5880SOL    HW118539   3.186   5.735   0.095
 5880SOL    HW218540   3.035   5.673   0.087
 5881SOL     OW18541   1.575   6.488   4.379
 5881SOL    HW118542   1.486   6.462   4.418
 5881SOL    HW218543   1.648   6.441   4.429
 5882SOL     OW18544   5.392   0.347   3.000
 5882SOL    HW118545   5.388   0.342   3.100
 5882SOL    HW218546   5.485   0.371   2.971
 5883SOL     OW18547   0.671   3.381   5.146
 5883SOL    HW118548   0.577   3.414   5.148
 5883SOL    HW218549   0.698   3.362   5.052
 5884SOL     OW18550   0.466   0.825   3.214
 5884SOL    HW118551   0.409   0.799   3.293
 5884SOL    HW218552   0.478   0.925   3.213
 5885SOL     OW18553   5.684   6.489   0.763
 5885SOL    HW118554   5.635   6.415   0.811
 5885SOL    HW218555   5.709   6.458   0.672
 5886SOL     OW18556   6.141   1.886   6.418
 5886SOL    HW118557   6.054   1.931   6.438
 5886SOL    HW218558   6.187   1.863   6.504
 5887SOL     OW18559   4.045   5.976   2.361
 5887SOL    HW118560   4.097   5.973   2.446
 5887SOL    HW218561   3.976   5.904   2.362
 5888SOL     OW18562   6.754   0.287   2.413
 5888SOL    HW118563   6.742   0.290   2.513
 5888SOL    HW218564   6.844   0.249   2.392
 5889SOL     OW18565   2.502   6.962   6.539
 5889SOL    HW118566   2.540   0.034   6.543
 5889SOL    HW218567   2.577   6.896   6.536
 5890SOL     OW18568   3.842   5.235   5.817
 5890SOL    HW118569   3.791   5.311   5.778
 5890SOL    HW218570   3.798   5.149   5.791
 5891SOL     OW18571   2.113   3.677   6.306
 5891SOL    HW118572   2.168   3.700   6.226
 5891SOL    HW218573   2.167   3.621   6.369
 5892SOL     OW18574   2.072   6.352   2.639
 5892SOL    HW118575   2.151   6.314   2.590
 5892SOL    HW218576   2.103   6.394   2.724
 5893SOL     OW18577   2.221   1.909   3.388
 5893SOL    HW118578   2.148   1.848   3.419
 5893SOL    HW218579   2.310   1.869   3.408
 5894SOL     OW18580   1.245   3.292   3.586
 5894SOL    HW118581   1.241   3.335   3.676
 5894SOL    HW218582   1.320   3.225   3.584
 5895SOL     OW18583   5.673   3.767   3.452
 5895SOL    HW118584   5.726   3.768   3.367
 5895SOL    HW218585   5.634   3.676   3.466
 5896SOL     OW18586   5.555   3.000   6.025
 5896SOL    HW118587   5.602   3.066   5.967
 5896SOL    HW218588   5.618   2.927   6.051
 5897SOL     OW18589   4.712   5.164   1.153
 5897SOL    HW118590   4.757   5.123   1.232
 5897SOL    HW218591   4.697   5.094   1.083
 5898SOL     OW18592   2.775   6.510   3.247
 5898SOL    HW118593   2.771   6.566   3.330
 5898SOL    HW218594   2.816   6.562   3.173
 5899SOL     OW18595   5.678   0.091   3.569
 5899SOL    HW118596   5.734   0.079   3.487
 5899SOL    HW218597   5.736   0.088   3.650
 5900SOL     OW18598   3.718   4.980   1.868
 5900SOL    HW118599   3.641   4.919   1.887
 5900SOL    HW218600   3.733   5.041   1.945
 5901SOL     OW18601   3.094   6.454   4.792
 5901SOL    HW118602   3.164   6.475   4.861
 5901SOL    HW218603   3.015   6.512   4.806
 5902SOL     OW18604   5.949   2.221   0.068
 5902SOL    HW118605   5.899   2.157   0.126
 5902SOL    HW218606   5.904   2.227   7.000
 5903SOL     OW18607   0.508   2.997   6.347
 5903SOL    HW118608   0.434   2.981   6.413
 5903SOL    HW218609   0.478   2.970   6.256
 5904SOL     OW18610   1.252   3.481   2.430
 5904SOL    HW118611   1.321   3.423   2.388
 5904SOL    HW218612   1.163   3.462   2.389
 5905SOL     OW18613   0.152   4.803   2.645
 5905SOL    HW118614   0.107   4.806   2.556
 5905SOL    HW218615   0.170   4.708   2.671
 5906SOL     OW18616   1.110   0.987   2.699
 5906SOL    HW118617   1.172   0.910   2.678
 5906SOL    HW218618   1.105   1.000   2.798
 5907SOL     OW18619   2.171   0.823   2.355
 5907SOL    HW118620   2.114   0.744   2.334
 5907SOL    HW218621   2.207   0.862   2.270
 5908SOL     OW18622   0.835   2.948   5.756
 5908SOL    HW118623   0.885   3.028   5.723
 5908SOL    HW218624   0.788   2.904   5.680
 5909SOL     OW18625   6.517   4.773   0.517
 5909SOL    HW118626   6.522   4.855   0.573
 5909SOL    HW218627   6.492   4.695   0.574
 5910SOL     OW18628   1.565   1.838   2.925
 5910SOL    HW118629   1.474   1.838   2.883
 5910SOL    HW218630   1.565   1.775   3.002
 5911SOL     OW18631   6.307   5.830   6.591
 5911SOL    HW118632   6.271   5.837   6.499
 5911SOL    HW218633   6.385   5.767   6.592
 5912SOL     OW18634   0.089   7.012   3.866
 5912SOL    HW118635   0.101   0.010   3.963
 5912SOL    HW218636   0.113   6.917   3.848
 5913SOL     OW18637   6.107   1.869   0.794
 5913SOL    HW118638   6.067   1.949   0.750
 5913SOL    HW218639   6.057   1.850   0.879
 5914SOL     OW18640   1.162   6.529   0.357
 5914SOL    HW118641   1.212   6.543   0.442
 5914SOL    HW218642   1.119   6.439   0.358
 5915SOL     OW18643   3.923   0.841   6.222
 5915SOL    HW118644   3.906   0.804   6.131
 5915SOL    HW218645   3.877   0.929   6.231
 5916SOL     OW18646   0.956   0.100   2.185
 5916SOL    HW118647   0.875   0.138   2.230
 5916SOL    HW218648   0.962   0.136   2.092
 5917SOL     OW18649   3.189   3.119   0.409
 5917SOL    HW118650   3.202   3.077   0.319
 5917SOL    HW218651   3.196   3.050   0.480
 5918SOL     OW18652   3.133   0.110   4.520
 5918SOL    HW118653   3.087   0.022   4.510
 5918SOL    HW218654   3.199   0.106   4.595
 5919SOL     OW18655   2.969   3.206   4.514
 5919SOL    HW118656   3.015   3.124   4.549
 5919SOL    HW218657   2.964   3.200   4.414
 5920SOL     OW18658   0.381   0.071   5.640
 5920SOL    HW118659   0.332   0.023   5.567
 5920SOL    HW218660   0.318   0.092   5.714
 5921SOL     OW18661   2.985   4.276   6.932
 5921SOL    HW118662   2.958   4.235   6.845
 5921SOL    HW218663   3.012   4.371   6.917
 5922SOL     OW18664   5.287   2.867   2.424
 5922SOL    HW118665   5.337   2.798   2.372
 5922SOL    HW218666   5.266   2.832   2.515
 5923SOL     OW18667   6.111   1.114   3.277
 5923SOL    HW118668   6.158   1.113   3.189
 5923SOL    HW218669   6.075   1.023   3.297
 5924SOL     OW18670   5.404   6.485   3.961
 5924SOL    HW118671   5.476   6.432   3.915
 5924SOL    HW218672   5.408   6.580   3.929
 5925SOL     OW18673   4.091   1.527   0.717
 5925SOL    HW118674   4.017   1.462   0.704
 5925SOL    HW218675   4.176   1.478   0.735
 5926SOL     OW18676   5.268   3.900   3.308
 5926SOL    HW118677   5.345   3.863   3.256
 5926SOL    HW218678   5.230   3.829   3.368
 5927SOL     OW18679   0.986   5.294   1.839
 5927SOL    HW118680   0.888   5.308   1.822
 5927SOL    HW218681   1.035   5.293   1.753
 5928SOL     OW18682   2.623   6.963   6.983
 5928SOL    HW118683   2.552   7.007   6.929
 5928SOL    HW218684   2.610   6.864   6.981
 5929SOL     OW18685   1.079   0.656   0.712
 5929SOL    HW118686   1.091   0.673   0.615
 5929SOL    HW218687   1.118   0.732   0.765
 5930SOL     OW18688   1.837   3.791   1.916
 5930SOL    HW118689   1.884   3.713   1.874
 5930SOL    HW218690   1.804   3.764   2.006
 5931SOL     OW18691   5.229   6.496   3.079
 5931SOL    HW118692   5.186   6.412   3.046
 5931SOL    HW218693   5.270   6.545   3.002
 5932SOL     OW18694   2.917   6.692   0.169
 5932SOL    HW118695   2.826   6.732   0.181
 5932SOL    HW218696   2.933   6.623   0.239
 5933SOL     OW18697   5.925   5.892   4.401
 5933SOL    HW118698   5.923   5.823   4.473
 5933SOL    HW218699   5.881   5.855   4.319
 5934SOL     OW18700   2.902   3.277   0.482
 5934SOL    HW118701   2.993   3.300   0.447
 5934SOL    HW218702   2.908   3.254   0.579
 5935SOL     OW18703   0.878   0.321   5.267
 5935SOL    HW118704   0.857   0.396   5.205
 5935SOL    HW218705   0.970   0.287   5.249
 5936SOL     OW18706   3.476   3.035   1.838
 5936SOL    HW118707   3.390   3.075   1.807
 5936SOL    HW218708   3.507   3.082   1.920
 5937SOL     OW18709   0.349   2.491   1.125
 5937SOL    HW118710   0.368   2.456   1.217
 5937SOL    HW218711   0.429   2.477   1.066
 5938SOL     OW18712   6.886   4.188   3.859
 5938SOL    HW118713   6.973   4.176   3.906
 5938SOL    HW218714   6.901   4.202   3.761
 5939SOL     OW18715   4.271   1.760   5.593
 5939SOL    HW118716   4.308   1.757   5.686
 5939SOL    HW218717   4.229   1.850   5.577
 5940SOL     OW18718   4.886   5.277   1.720
 5940SOL    HW118719   4.823   5.280   1.797
 5940SOL    HW218720   4.943   5.359   1.720
 5941SOL     OW18721   0.272   2.155   3.025
 5941SOL    HW118722   0.283   2.200   3.114
 5941SOL    HW218723   0.187   2.102   3.025
 5942SOL     OW18724   5.370   2.307   6.404
 5942SOL    HW118725   5.304   2.343   6.338
 5942SOL    HW218726   5.450   2.368   6.407
 5943SOL     OW18727   1.827   4.847   1.518
 5943SOL    HW118728   1.907   4.797   1.551
 5943SOL    HW218729   1.781   4.793   1.447
 5944SOL     OW18730   6.403   3.364   5.551
 5944SOL    HW118731   6.470   3.301   5.590
 5944SOL    HW218732   6.417   3.455   5.590
 5945SOL     OW18733   6.621   6.230   4.759
 5945SOL    HW118734   6.540   6.172   4.753
 5945SOL    HW218735   6.623   6.295   4.683
 5946SOL     OW18736   1.996   3.315   6.638
 5946SOL    HW118737   2.045   3.373   6.703
 5946SOL    HW218738   2.055   3.294   6.560
 5947SOL     OW18739   3.488   3.500   4.920
 5947SOL    HW118740   3.454   3.414   4.882
 5947SOL    HW218741   3.550   3.482   4.996
 5948SOL     OW18742   4.692   3.551   1.237
 5948SOL    HW118743   4.725   3.478   1.178
 5948SOL    HW218744   4.770   3.592   1.285
 5949SOL     OW18745   0.367   4.124   3.254
 5949SOL    HW118746   0.413   4.070   3.183
 5949SOL    HW218747   0.289   4.073   3.289
 5950SOL     OW18748   3.381   0.032   4.877
 5950SOL    HW118749   3.315   0.102   4.850
 5950SOL    HW218750   3.332   6.969   4.902
 5951SOL     OW18751   0.030   4.173   6.630
 5951SOL    HW118752   6.975   4.199   6.688
 5951SOL    HW218753   7.019   4.111   6.559
 5952SOL     OW18754   3.984   4.242   1.590
 5952SOL    HW118755   3.934   4.226   1.675
 5952SOL    HW218756   4.078   4.270   1.612
 5953SOL     OW18757   0.377   3.509   5.762
 5953SOL    HW118758   0.309   3.582   5.772
 5953SOL    HW218759   0.468   3.546   5.780
 5954SOL     OW18760   1.801   5.457   3.916
 5954SOL    HW118761   1.746   5.466   3.832
 5954SOL    HW218762   1.754   5.502   3.991
 5955SOL     OW18763   5.211   2.549   0.595
 5955SOL    HW118764   5.197   2.616   0.667
 5955SOL    HW218765   5.124   2.508   0.569
 5956SOL     OW18766   5.112   2.923   5.188
 5956SOL    HW118767   5.166   2.878   5.117
 5956SOL    HW218768   5.027   2.958   5.149
 5957SOL     OW18769   6.654   1.798   3.711
 5957SOL    HW118770   6.722   1.868   3.689
 5957SOL    HW218771   6.679   1.752   3.796
 5958SOL     OW18772   3.009   6.668   3.742
 5958SOL    HW118773   2.928   6.613   3.722
 5958SOL    HW218774   3.082   6.643   3.679
 5959SOL     OW18775   5.457   2.580   2.742
 5959SOL    HW118776   5.446   2.482   2.755
 5959SOL    HW218777   5.527   2.614   2.805
 5960SOL     OW18778   4.394   1.280   6.441
 5960SOL    HW118779   4.345   1.356   6.485
 5960SOL    HW218780   4.491   1.284   6.466
 5961SOL     OW18781   2.755   2.376   3.703
 5961SOL    HW118782   2.690   2.413   3.636
 5961SOL    HW218783   2.827   2.326   3.655
 5962SOL     OW18784   4.899   4.860   0.422
 5962SOL    HW118785   4.804   4.836   0.403
 5962SOL    HW218786   4.910   4.959   0.418
 5963SOL     OW18787   2.138   3.934   0.620
 5963SOL    HW118788   2.074   4.006   0.648
 5963SOL    HW218789   2.220   3.938   0.678
 5964SOL     OW18790   1.976   0.090   3.560
 5964SOL    HW118791   1.929   0.167   3.517
 5964SOL    HW218792   1.964   0.008   3.504
 5965SOL     OW18793   2.707   0.450   1.065
 5965SOL    HW118794   2.735   0.374   1.124
 5965SOL    HW218795   2.657   0.414   0.986
 5966SOL     OW18796   2.443   1.516   5.039
 5966SOL    HW118797   2.498   1.433   5.050
 5966SOL    HW218798   2.417   1.551   5.129
 5967SOL     OW18799   4.518   2.351   5.440
 5967SOL    HW118800   4.571   2.275   5.479
 5967SOL    HW218801   4.450   2.314   5.377
 5968SOL     OW18802   5.930   2.215   2.349
 5968SOL    HW118803   5.948   2.180   2.257
 5968SOL    HW218804   5.903   2.311   2.344
 5969SOL     OW18805   4.793   0.157   0.709
 5969SOL    HW118806   4.831   0.223   0.774
 5969SOL    HW218807   4.711   0.115   0.748
 5970SOL     OW18808   6.844   2.911   0.666
 5970SOL    HW118809   6.767   2.965   0.632
 5970SOL    HW218810   6.852   2.922   0.765
 5971SOL     OW18811   6.931   5.543   3.804
 5971SOL    HW118812   6.876   5.564   3.723
 5971SOL    HW218813   0.007   5.552   3.780
 5972SOL     OW18814   5.794   5.205   0.267
 5972SOL    HW118815   5.702   5.232   0.240
 5972SOL    HW218816   5.861   5.243   0.204
 5973SOL     OW18817   2.938   1.334   2.532
 5973SOL    HW118818   2.962   1.298   2.442
 5973SOL    HW218819   2.885   1.418   2.521
 5974SOL     OW18820   5.957   1.841   4.612
 5974SOL    HW118821   5.942   1.886   4.523
 5974SOL    HW218822   5.917   1.896   4.684
 5975SOL     OW18823   4.109   5.412   1.574
 5975SOL    HW118824   4.122   5.489   1.636
 5975SOL    HW218825   4.086   5.446   1.483
 5976SOL     OW18826   1.833   3.963   5.645
 5976SOL    HW118827   1.888   4.001   5.571
 5976SOL    HW218828   1.854   3.866   5.655
 5977SOL     OW18829   6.744   5.441   0.725
 5977SOL    HW118830   6.712   5.382   0.651
 5977SOL    HW218831   6.666   5.493   0.761
 5978SOL     OW18832   2.759   3.887   6.857
 5978SOL    HW118833   2.761   3.915   6.953
 5978SOL    HW218834   2.848   3.847   6.832
 5979SOL     OW18835   6.555   0.076   1.141
 5979SOL    HW118836   6.508   0.012   1.202
 5979SOL    HW218837   6.495   0.100   1.065
 5980SOL     OW18838   3.080   2.300   0.899
 5980SOL    HW118839   3.080   2.379   0.960
 5980SOL    HW218840   3.052   2.219   0.950
 5981SOL     OW18841   2.762   1.902   1.282
 5981SOL    HW118842   2.857   1.931   1.266
 5981SOL    HW218843   2.740   1.912   1.379
 5982SOL     OW18844   5.413   2.809   1.640
 5982SOL    HW118845   5.371   2.895   1.608
 5982SOL    HW218846   5.500   2.795   1.593
 5983SOL     OW18847   0.102   0.690   3.696
 5983SOL    HW118848   0.128   0.767   3.755
 5983SOL    HW218849   0.003   0.681   3.696
 5984SOL     OW18850   6.045   5.906   3.716
 5984SOL    HW118851   5.985   5.933   3.792
 5984SOL    HW218852   6.019   5.958   3.634
 5985SOL     OW18853   6.736   3.370   2.322
 5985SOL    HW118854   6.752   3.370   2.421
 5985SOL    HW218855   6.643   3.401   2.304
 5986SOL     OW18856   4.136   3.535   3.668
 5986SOL    HW118857   4.125   3.460   3.732
 5986SOL    HW218858   4.120   3.622   3.715
 5987SOL     OW18859   0.251   5.730   5.352
 5987SOL    HW118860   0.179   5.675   5.309
 5987SOL    HW218861   0.264   5.699   5.447
 5988SOL     OW18862   0.989   2.678   0.044
 5988SOL    HW118863   0.987   2.632   6.976
 5988SOL    HW218864   1.075   2.657   0.090
 5989SOL     OW18865   1.382   6.732   5.526
 5989SOL    HW118866   1.377   6.652   5.585
 5989SOL    HW218867   1.316   6.801   5.556
 5990SOL     OW18868   2.613   4.710   1.877
 5990SOL    HW118869   2.674   4.672   1.947
 5990SOL    HW218870   2.612   4.650   1.797
 5991SOL     OW18871   5.403   0.517   0.709
 5991SOL    HW118872   5.444   0.605   0.732
 5991SOL    HW218873   5.432   0.448   0.776
 5992SOL     OW18874   3.623   5.736   2.914
 5992SOL    HW118875   3.683   5.656   2.907
 5992SOL    HW218876   3.529   5.709   2.893
 5993SOL     OW18877   6.007   1.910   0.367
 5993SOL    HW118878   6.097   1.953   0.359
 5993SOL    HW218879   6.015   1.826   0.421
 5994SOL     OW18880   6.499   3.406   0.081
 5994SOL    HW118881   6.453   3.426   0.168
 5994SOL    HW218882   6.539   3.315   0.084
 5995SOL     OW18883   5.014   3.564   1.155
 5995SOL    HW118884   4.962   3.575   1.240
 5995SOL    HW218885   4.973   3.491   1.100
 5996SOL     OW18886   2.718   6.863   1.490
 5996SOL    HW118887   2.725   6.781   1.548
 5996SOL    HW218888   2.778   6.852   1.410
 5997SOL     OW18889   6.342   0.575   4.010
 5997SOL    HW118890   6.347   0.673   3.989
 5997SOL    HW218891   6.259   0.557   4.062
 5998SOL     OW18892   0.084   6.129   6.883
 5998SOL    HW118893   0.009   6.168   6.829
 5998SOL    HW218894   0.136   6.203   6.925
 5999SOL     OW18895   5.128   3.213   1.404
 5999SOL    HW118896   5.079   3.260   1.478
 5999SOL    HW218897   5.197   3.274   1.366
 6000SOL     OW18898   0.377   4.016   1.235
 6000SOL    HW118899   0.345   3.953   1.165
 6000SOL    HW218900   0.301   4.073   1.266
 6001SOL     OW18901   5.901   5.486   6.020
 6001SOL    HW118902   5.846   5.540   5.956
 6001SOL    HW218903   5.848   5.467   6.102
 6002SOL     OW18904   5.558   5.055   5.552
 6002SOL    HW118905   5.570   4.965   5.509
 6002SOL    HW218906   5.643   5.084   5.595
 6003SOL     OW18907   2.656   2.138   5.010
 6003SOL    HW118908   2.650   2.187   4.923
 6003SOL    HW218909   2.582   2.070   5.015
 6004SOL     OW18910   5.267   3.210   4.998
 6004SOL    HW118911   5.215   3.293   4.976
 6004SOL    HW218912   5.205   3.131   4.997
 6005SOL     OW18913   4.183   4.196   6.870
 6005SOL    HW118914   4.254   4.266   6.864
 6005SOL    HW218915   4.225   4.107   6.888
 6006SOL     OW18916   3.103   5.984   6.725
 6006SOL    HW118917   3.203   5.983   6.719
 6006SOL    HW218918   3.075   6.062   6.782
 6007SOL     OW18919   1.977   6.056   4.486
 6007SOL    HW118920   1.939   5.964   4.495
 6007SOL    HW218921   2.077   6.051   4.484
 6008SOL     OW18922   2.250   3.936   6.465
 6008SOL    HW118923   2.181   3.921   6.394
 6008SOL    HW218924   2.230   4.021   6.513
 6009SOL     OW18925   4.263   4.929   2.674
 6009SOL    HW118926   4.325   4.911   2.751
 6009SOL    HW218927   4.283   5.019   2.635
 6010SOL     OW18928   0.684   4.440   4.791
 6010SOL    HW118929   0.660   4.349   4.824
 6010SOL    HW218930   0.618   4.506   4.827
 6011SOL     OW18931   6.103   1.395   3.252
 6011SOL    HW118932   6.016   1.435   3.222
 6011SOL    HW218933   6.102   1.296   3.238
 6012SOL     OW18934   6.424   0.346   5.956
 6012SOL    HW118935   6.329   0.335   5.926
 6012SOL    HW218936   6.434   0.312   6.050
 6013SOL     OW18937   5.929   1.453   1.941
 6013SOL    HW118938   5.980   1.376   1.904
 6013SOL    HW218939   5.850   1.419   1.993
 6014SOL     OW18940   3.099   3.096   3.880
 6014SOL    HW118941   3.061   3.087   3.972
 6014SOL    HW218942   3.045   3.163   3.829
 6015SOL     OW18943   6.128   0.332   3.773
 6015SOL    HW118944   6.211   0.309   3.825
 6015SOL    HW218945   6.114   0.263   3.701
 6016SOL     OW18946   4.063   2.260   4.253
 6016SOL    HW118947   3.993   2.207   4.300
 6016SOL    HW218948   4.030   2.353   4.237
 6017SOL     OW18949   1.190   1.565   5.639
 6017SOL    HW118950   1.194   1.511   5.724
 6017SOL    HW218951   1.279   1.608   5.623
 6018SOL     OW18952   2.607   0.992   3.988
 6018SOL    HW118953   2.635   1.046   3.908
 6018SOL    HW218954   2.609   1.049   4.069
 6019SOL     OW18955   6.175   4.493   6.273
 6019SOL    HW118956   6.163   4.519   6.369
 6019SOL    HW218957   6.256   4.538   6.236
 6020SOL     OW18958   0.965   5.218   5.992
 6020SOL    HW118959   0.866   5.231   5.980
 6020SOL    HW218960   0.993   5.132   5.949
 6021SOL     OW18961   5.643   6.829   3.454
 6021SOL    HW118962   5.705   6.796   3.525
 6021SOL    HW218963   5.697   6.859   3.375
 6022SOL     OW18964   6.415   2.567   2.038
 6022SOL    HW118965   6.362   2.484   2.019
 6022SOL    HW218966   6.367   2.622   2.106
 6023SOL     OW18967   4.079   0.055   2.193
 6023SOL    HW118968   3.991   0.080   2.232
 6023SOL    HW218969   4.098   6.979   2.212
 6024SOL     OW18970   0.852   6.363   6.481
 6024SOL    HW118971   0.826   6.459   6.474
 6024SOL    HW218972   0.926   6.343   6.417
 6025SOL     OW18973   2.732   0.399   5.030
 6025SOL    HW118974   2.785   0.368   4.951
 6025SOL    HW218975   2.792   0.403   5.110
 6026SOL     OW18976   6.098   6.074   4.265
 6026SOL    HW118977   6.131   6.028   4.182
 6026SOL    HW218978   6.032   6.015   4.312
 6027SOL     OW18979   5.597   5.108   6.072
 6027SOL    HW118980   5.633   5.045   6.140
 6027SOL    HW218981   5.497   5.112   6.079
 6028SOL     OW18982   5.693   5.661   6.012
 6028SOL    HW118983   5.601   5.626   6.027
 6028SOL    HW218984   5.719   5.721   6.087
 6029SOL     OW18985   3.174   1.561   3.058
 6029SOL    HW118986   3.117   1.539   2.978
 6029SOL    HW218987   3.115   1.591   3.133
 6030SOL     OW18988   5.894   3.283   4.242
 6030SOL    HW118989   5.913   3.359   4.180
 6030SOL    HW218990   5.917   3.196   4.197
 6031SOL     OW18991   0.193   5.994   5.031
 6031SOL    HW118992   0.234   6.056   4.965
 6031SOL    HW218993   0.201   5.900   4.999
 6032SOL     OW18994   3.338   6.399   3.376
 6032SOL    HW118995   3.246   6.406   3.415
 6032SOL    HW218996   3.384   6.488   3.384
 6033SOL     OW18997   0.922   1.237   2.772
 6033SOL    HW118998   0.890   1.200   2.685
 6033SOL    HW218999   1.011   1.198   2.795
 6034SOL     OW19000   0.069   6.860   1.033
 6034SOL    HW119001   0.085   6.949   0.989
 6034SOL    HW219002   7.001   6.824   1.004
 6035SOL     OW19003   2.681   0.399   2.432
 6035SOL    HW119004   2.683   0.454   2.349
 6035SOL    HW219005   2.686   0.302   2.408
 6036SOL     OW19006   6.375   3.324   0.808
 6036SOL    HW119007   6.299   3.364   0.756
 6036SOL    HW219008   6.447   3.392   0.818
 6037SOL     OW19009   4.663   1.737   6.140
 6037SOL    HW119010   4.761   1.750   6.135
 6037SOL    HW219011   4.640   1.642   6.116
 6038SOL     OW19012   1.400   1.156   6.260
 6038SOL    HW119013   1.340   1.167   6.339
 6038SOL    HW219014   1.373   1.075   6.208
 6039SOL     OW19015   3.993   3.723   3.808
 6039SOL    HW119016   3.916   3.676   3.851
 6039SOL    HW219017   4.003   3.814   3.848
 6040SOL     OW19018   6.816   1.794   0.809
 6040SOL    HW119019   6.784   1.859   0.740
 6040SOL    HW219020   6.900   1.828   0.851
 6041SOL     OW19021   1.838   3.666   6.215
 6041SOL    HW119022   1.920   3.680   6.271
 6041SOL    HW219023   1.798   3.578   6.237
 6042SOL     OW19024   3.101   5.837   3.685
 6042SOL    HW119025   3.135   5.848   3.778
 6042SOL    HW219026   3.016   5.784   3.687
 6043SOL     OW19027   2.565   6.958   2.927
 6043SOL    HW119028   2.567   6.885   2.858
 6043SOL    HW219029   2.590   6.920   3.016
 6044SOL     OW19030   0.346   3.191   1.202
 6044SOL    HW119031   0.307   3.105   1.235
 6044SOL    HW219032   0.298   3.267   1.245
 6045SOL     OW19033   6.061   1.469   3.657
 6045SOL    HW119034   6.096   1.381   3.689
 6045SOL    HW219035   5.972   1.456   3.613
 6046SOL     OW19036   3.494   3.202   2.890
 6046SOL    HW119037   3.578   3.152   2.909
 6046SOL    HW219038   3.465   3.186   2.796
 6047SOL     OW19039   6.839   1.585   0.461
 6047SOL    HW119040   6.844   1.680   0.431
 6047SOL    HW219041   6.825   1.583   0.560
 6048SOL     OW19042   5.448   5.879   3.127
 6048SOL    HW119043   5.441   5.973   3.093
 6048SOL    HW219044   5.520   5.830   3.077
 6049SOL     OW19045   4.313   5.201   6.851
 6049SOL    HW119046   4.297   5.272   6.921
 6049SOL    HW219047   4.402   5.159   6.865
 6050SOL     OW19048   2.927   5.413   2.507
 6050SOL    HW119049   2.844   5.468   2.519
 6050SOL    HW219050   2.903   5.322   2.475
 6051SOL     OW19051   0.702   1.558   3.075
 6051SOL    HW119052   0.625   1.619   3.096
 6051SOL    HW219053   0.667   1.474   3.032
 6052SOL     OW19054   5.292   5.504   0.638
 6052SOL    HW119055   5.330   5.414   0.614
 6052SOL    HW219056   5.228   5.534   0.568
 6053SOL     OW19057   4.549   2.679   6.331
 6053SOL    HW119058   4.616   2.680   6.405
 6053SOL    HW219059   4.508   2.587   6.324
 6054SOL     OW19060   4.058   4.154   0.988
 6054SOL    HW119061   4.100   4.086   1.047
 6054SOL    HW219062   4.051   4.241   1.038
 6055SOL     OW19063   3.035   4.248   0.943
 6055SOL    HW119064   3.037   4.183   0.868
 6055SOL    HW219065   2.983   4.329   0.915
 6056SOL     OW19066   4.998   6.388   3.469
 6056SOL    HW119067   4.986   6.332   3.552
 6056SOL    HW219068   5.063   6.343   3.408
 6057SOL     OW19069   5.237   0.630   4.066
 6057SOL    HW119070   5.314   0.681   4.028
 6057SOL    HW219071   5.270   0.554   4.122
 6058SOL     OW19072   6.896   2.540   5.849
 6058SOL    HW119073   6.877   2.638   5.853
 6058SOL    HW219074   6.825   2.495   5.795
 6059SOL     OW19075   4.452   2.642   6.653
 6059SOL    HW119076   4.458   2.742   6.647
 6059SOL    HW219077   4.405   2.616   6.737
 6060SOL     OW19078   2.344   2.659   0.582
 6060SOL    HW119079   2.259   2.663   0.530
 6060SOL    HW219080   2.413   2.716   0.538
 6061SOL     OW19081   3.722   4.237   6.924
 6061SOL    HW119082   3.651   4.203   6.985
 6061SOL    HW219083   3.732   4.336   6.937
 6062SOL     OW19084   2.062   2.235   6.269
 6062SOL    HW119085   2.119   2.317   6.258
 6062SOL    HW219086   2.119   2.159   6.299
 6063SOL     OW19087   4.372   3.761   6.728
 6063SOL    HW119088   4.441   3.691   6.710
 6063SOL    HW219089   4.386   3.800   6.819
 6064SOL     OW19090   6.409   5.763   1.175
 6064SOL    HW119091   6.357   5.779   1.259
 6064SOL    HW219092   6.384   5.674   1.138
 6065SOL     OW19093   2.229   6.493   1.740
 6065SOL    HW119094   2.286   6.419   1.706
 6065SOL    HW219095   2.207   6.556   1.665
 6066SOL     OW19096   5.433   6.323   2.866
 6066SOL    HW119097   5.417   6.276   2.953
 6066SOL    HW219098   5.425   6.422   2.879
 6067SOL     OW19099   6.890   5.972   5.610
 6067SOL    HW119100   6.937   6.022   5.538
 6067SOL    HW219101   6.945   5.975   5.694
 6068SOL     OW19102   5.116   2.195   4.312
 6068SOL    HW119103   5.194   2.133   4.307
 6068SOL    HW219104   5.105   2.243   4.225
 6069SOL     OW19105   6.991   4.150   6.149
 6069SOL    HW119106   6.921   4.079   6.163
 6069SOL    HW219107   0.037   4.118   6.082
 6070SOL     OW19108   2.350   1.619   1.094
 6070SOL    HW119109   2.399   1.702   1.119
 6070SOL    HW219110   2.267   1.611   1.149
 6071SOL     OW19111   6.155   1.357   5.736
 6071SOL    HW119112   6.154   1.290   5.810
 6071SOL    HW219113   6.086   1.333   5.668
 6072SOL     OW19114   6.622   3.691   6.719
 6072SOL    HW119115   6.570   3.624   6.772
 6072SOL    HW219116   6.599   3.784   6.750
 6073SOL     OW19117   5.169   3.630   7.008
 6073SOL    HW119118   5.195   3.601   0.079
 6073SOL    HW219119   5.173   3.730   7.002
 6074SOL     OW19120   1.269   6.696   2.376
 6074SOL    HW119121   1.217   6.634   2.318
 6074SOL    HW219122   1.364   6.665   2.380
 6075SOL     OW19123   5.723   0.698   6.403
 6075SOL    HW119124   5.808   0.745   6.430
 6075SOL    HW219125   5.644   0.754   6.430
 6076SOL     OW19126   0.526   6.039   2.703
 6076SOL    HW119127   0.564   6.065   2.792
 6076SOL    HW219128   0.511   6.121   2.648
 6077SOL     OW19129   5.412   6.098   2.523
 6077SOL    HW119130   5.338   6.156   2.557
 6077SOL    HW219131   5.414   6.100   2.423
 6078SOL     OW19132   4.674   3.705   0.019
 6078SOL    HW119133   4.602   3.773   0.014
 6078SOL    HW219134   4.642   3.620   6.999
 6079SOL     OW19135   3.027   2.282   0.340
 6079SOL    HW119136   3.087   2.308   0.416
 6079SOL    HW219137   2.941   2.333   0.347
 6080SOL     OW19138   6.563   3.985   5.996
 6080SOL    HW119139   6.537   4.018   5.905
 6080SOL    HW219140   6.486   4.000   6.059
 6081SOL     OW19141   1.959   3.287   3.764
 6081SOL    HW119142   1.979   3.189   3.773
 6081SOL    HW219143   1.967   3.330   3.854
 6082SOL     OW19144   4.765   1.536   1.467
 6082SOL    HW119145   4.767   1.510   1.563
 6082SOL    HW219146   4.772   1.636   1.460
 6083SOL     OW19147   4.652   0.432   6.596
 6083SOL    HW119148   4.674   0.437   6.499
 6083SOL    HW219149   4.728   0.390   6.645
 6084SOL     OW19150   6.761   5.597   2.795
 6084SOL    HW119151   6.774   5.649   2.880
 6084SOL    HW219152   6.689   5.529   2.808
 6085SOL     OW19153   0.725   6.943   0.195
 6085SOL    HW119154   0.678   6.878   0.136
 6085SOL    HW219155   0.689   6.936   0.288
 6086SOL     OW19156   3.522   4.109   0.042
 6086SOL    HW119157   3.440   4.152   0.003
 6086SOL    HW219158   3.533   4.017   0.003
 6087SOL     OW19159   4.600   0.119   0.502
 6087SOL    HW119160   4.679   0.101   0.560
 6087SOL    HW219161   4.614   0.205   0.452
 6088SOL     OW19162   4.572   5.638   2.490
 6088SOL    HW119163   4.666   5.614   2.515
 6088SOL    HW219164   4.509   5.604   2.560
 6089SOL     OW19165   5.934   3.734   3.710
 6089SOL    HW119166   5.844   3.777   3.714
 6089SOL    HW219167   5.975   3.753   3.621
 6090SOL     OW19168   3.880   5.377   4.081
 6090SOL    HW119169   3.978   5.364   4.071
 6090SOL    HW219170   3.855   5.367   4.178
 6091SOL     OW19171   1.115   1.209   1.384
 6091SOL    HW119172   1.156   1.222   1.294
 6091SOL    HW219173   1.066   1.292   1.411
 6092SOL     OW19174   2.655   0.119   1.555
 6092SOL    HW119175   2.667   0.022   1.534
 6092SOL    HW219176   2.696   0.139   1.644
 6093SOL     OW19177   2.534   2.471   2.324
 6093SOL    HW119178   2.611   2.497   2.266
 6093SOL    HW219179   2.465   2.425   2.268
 6094SOL     OW19180   0.710   6.165   5.034
 6094SOL    HW119181   0.701   6.153   4.935
 6094SOL    HW219182   0.666   6.088   5.080
 6095SOL     OW19183   4.655   4.604   1.813
 6095SOL    HW119184   4.711   4.537   1.861
 6095SOL    HW219185   4.696   4.695   1.821
 6096SOL     OW19186   5.175   5.995   3.151
 6096SOL    HW119187   5.083   6.022   3.177
 6096SOL    HW219188   5.183   5.895   3.156
 6097SOL     OW19189   2.063   4.886   2.563
 6097SOL    HW119190   2.137   4.820   2.549
 6097SOL    HW219191   2.034   4.884   2.658
 6098SOL     OW19192   6.437   0.565   4.912
 6098SOL    HW119193   6.397   0.656   4.921
 6098SOL    HW219194   6.426   0.532   4.819
 6099SOL     OW19195   3.518   0.718   5.891
 6099SOL    HW119196   3.437   0.699   5.835
 6099SOL    HW219197   3.490   0.749   5.982
 6100SOL     OW19198   0.769   5.618   4.994
 6100SOL    HW119199   0.776   5.530   5.042
 6100SOL    HW219200   0.845   5.627   4.930
 6101SOL     OW19201   6.847   3.400   1.496
 6101SOL    HW119202   6.856   3.499   1.507
 6101SOL    HW219203   6.896   3.371   1.414
 6102SOL     OW19204   3.646   0.125   2.650
 6102SOL    HW119205   3.680   0.196   2.711
 6102SOL    HW219206   3.547   0.137   2.637
 6103SOL     OW19207   6.583   1.610   2.183
 6103SOL    HW119208   6.589   1.707   2.209
 6103SOL    HW219209   6.494   1.593   2.141
 6104SOL     OW19210   6.705   0.653   4.398
 6104SOL    HW119211   6.743   0.561   4.403
 6104SOL    HW219212   6.703   0.683   4.303
 6105SOL     OW19213   3.326   4.304   6.002
 6105SOL    HW119214   3.347   4.209   5.980
 6105SOL    HW219215   3.253   4.308   6.070
 6106SOL     OW19216   6.209   4.866   5.414
 6106SOL    HW119217   6.289   4.912   5.374
 6106SOL    HW219218   6.216   4.767   5.397
 6107SOL     OW19219   5.948   4.784   5.361
 6107SOL    HW119220   5.950   4.751   5.267
 6107SOL    HW219221   6.039   4.816   5.388
 6108SOL     OW19222   2.115   0.909   6.922
 6108SOL    HW119223   2.179   0.946   6.855
 6108SOL    HW219224   2.072   0.826   6.885
 6109SOL     OW19225   6.679   6.639   3.912
 6109SOL    HW119226   6.682   6.726   3.960
 6109SOL    HW219227   6.756   6.582   3.941
 6110SOL     OW19228   2.028   1.285   4.065
 6110SOL    HW119229   2.069   1.352   4.127
 6110SOL    HW219230   2.100   1.228   4.025
 6111SOL     OW19231   2.273   3.700   1.163
 6111SOL    HW119232   2.209   3.623   1.163
 6111SOL    HW219233   2.332   3.694   1.083
 6112SOL     OW19234   5.043   6.905   4.042
 6112SOL    HW119235   4.963   6.919   4.100
 6112SOL    HW219236   5.110   6.849   4.090
 6113SOL     OW19237   1.932   5.565   1.103
 6113SOL    HW119238   1.841   5.526   1.085
 6113SOL    HW219239   1.940   5.653   1.054
 6114SOL     OW19240   5.120   1.808   1.003
 6114SOL    HW119241   5.138   1.797   0.906
 6114SOL    HW219242   5.154   1.897   1.034
 6115SOL     OW19243   0.919   0.836   6.325
 6115SOL    HW119244   0.894   0.739   6.329
 6115SOL    HW219245   1.010   0.845   6.286
 6116SOL     OW19246   5.709   3.479   6.678
 6116SOL    HW119247   5.726   3.443   6.770
 6116SOL    HW219248   5.757   3.423   6.611
 6117SOL     OW19249   1.623   2.017   1.558
 6117SOL    HW119250   1.605   2.034   1.655
 6117SOL    HW219251   1.570   2.081   1.502
 6118SOL     OW19252   5.921   0.945   1.907
 6118SOL    HW119253   5.886   0.983   1.821
 6118SOL    HW219254   5.856   0.963   1.980
 6119SOL     OW19255   6.534   1.766   6.598
 6119SOL    HW119256   6.577   1.738   6.684
 6119SOL    HW219257   6.439   1.792   6.615
 6120SOL     OW19258   3.121   0.597   4.405
 6120SOL    HW119259   3.144   0.693   4.414
 6120SOL    HW219260   3.074   0.581   4.318
 6121SOL     OW19261   1.757   2.322   4.759
 6121SOL    HW119262   1.710   2.408   4.735
 6121SOL    HW219263   1.848   2.343   4.795
 6122SOL     OW19264   5.407   4.877   5.240
 6122SOL    HW119265   5.451   4.868   5.329
 6122SOL    HW219266   5.457   4.824   5.172
 6123SOL     OW19267   5.724   1.723   5.346
 6123SOL    HW119268   5.807   1.771   5.318
 6123SOL    HW219269   5.674   1.694   5.264
 6124SOL     OW19270   2.691   6.121   4.231
 6124SOL    HW119271   2.612   6.178   4.208
 6124SOL    HW219272   2.671   6.026   4.210
 6125SOL     OW19273   2.916   1.921   6.140
 6125SOL    HW119274   2.963   1.834   6.156
 6125SOL    HW219275   2.867   1.916   6.052
 6126SOL     OW19276   6.011   2.988   5.937
 6126SOL    HW119277   6.083   3.002   6.006
 6126SOL    HW219278   6.011   3.064   5.873
 6127SOL     OW19279   4.925   2.010   2.642
 6127SOL    HW119280   5.002   2.075   2.643
 6127SOL    HW219281   4.851   2.048   2.587
 6128SOL     OW19282   5.839   5.767   6.785
 6128SOL    HW119283   5.752   5.770   6.736
 6128SOL    HW219284   5.869   5.672   6.794
 6129SOL     OW19285   2.086   5.942   2.211
 6129SOL    HW119286   2.107   5.844   2.211
 6129SOL    HW219287   1.988   5.954   2.225
 6130SOL     OW19288   5.855   2.997   0.313
 6130SOL    HW119289   5.782   2.958   0.370
 6130SOL    HW219290   5.825   2.999   0.218
 6131SOL     OW19291   6.331   1.909   2.857
 6131SOL    HW119292   6.309   1.862   2.943
 6131SOL    HW219293   6.369   1.843   2.792
 6132SOL     OW19294   3.818   1.308   6.207
 6132SOL    HW119295   3.817   1.351   6.117
 6132SOL    HW219296   3.794   1.211   6.198
 6133SOL     OW19297   0.709   2.228   2.987
 6133SOL    HW119298   0.700   2.327   2.997
 6133SOL    HW219299   0.795   2.197   3.028
 6134SOL     OW19300   0.485   6.294   5.721
 6134SOL    HW119301   0.568   6.333   5.761
 6134SOL    HW219302   0.497   6.286   5.622
 6135SOL     OW19303   0.178   6.842   0.195
 6135SOL    HW119304   0.100   6.869   0.251
 6135SOL    HW219305   0.158   6.860   0.099
 6136SOL     OW19306   0.700   2.949   2.832
 6136SOL    HW119307   0.716   2.934   2.930
 6136SOL    HW219308   0.775   3.003   2.794
 6137SOL     OW19309   0.035   4.239   1.605
 6137SOL    HW119310   0.055   4.332   1.575
 6137SOL    HW219311   0.112   4.203   1.657
 6138SOL     OW19312   4.441   0.289   2.297
 6138SOL    HW119313   4.408   0.213   2.353
 6138SOL    HW219314   4.471   0.363   2.357
 6139SOL     OW19315   1.415   0.795   5.000
 6139SOL    HW119316   1.318   0.786   4.977
 6139SOL    HW219317   1.445   0.889   4.980
 6140SOL     OW19318   1.709   0.208   2.790
 6140SOL    HW119319   1.728   0.293   2.839
 6140SOL    HW219320   1.624   0.169   2.824
 6141SOL     OW19321   0.701   0.649   5.912
 6141SOL    HW119322   0.691   0.734   5.965
 6141SOL    HW219323   0.730   0.575   5.972
 6142SOL     OW19324   6.646   0.179   1.617
 6142SOL    HW119325   6.586   0.100   1.621
 6142SOL    HW219326   6.697   0.177   1.531
 6143SOL     OW19327   0.029   3.750   5.608
 6143SOL    HW119328   6.984   3.815   5.646
 6143SOL    HW219329   0.052   3.777   5.514
 6144SOL     OW19330   4.415   5.357   2.760
 6144SOL    HW119331   4.375   5.408   2.683
 6144SOL    HW219332   4.432   5.262   2.732
 6145SOL     OW19333   4.913   3.702   3.952
 6145SOL    HW119334   4.899   3.663   3.861
 6145SOL    HW219335   4.868   3.791   3.957
 6146SOL     OW19336   5.753   0.138   5.270
 6146SOL    HW119337   5.736   0.237   5.265
 6146SOL    HW219338   5.778   0.104   5.179
 6147SOL     OW19339   1.405   2.590   5.029
 6147SOL    HW119340   1.372   2.684   5.039
 6147SOL    HW219341   1.345   2.539   4.968
 6148SOL     OW19342   3.885   5.035   6.975
 6148SOL    HW119343   3.917   5.119   7.018
 6148SOL    HW219344   3.898   5.040   6.876
 6149SOL     OW19345   3.165   1.260   1.646
 6149SOL    HW119346   3.210   1.308   1.721
 6149SOL    HW219347   3.106   1.324   1.596
 6150SOL     OW19348   1.030   4.198   5.538
 6150SOL    HW119349   0.977   4.170   5.618
 6150SOL    HW219350   1.113   4.142   5.533
 6151SOL     OW19351   4.434   5.231   3.170
 6151SOL    HW119352   4.529   5.204   3.187
 6151SOL    HW219353   4.431   5.290   3.089
 6152SOL     OW19354   1.609   4.466   3.921
 6152SOL    HW119355   1.560   4.430   3.841
 6152SOL    HW219356   1.546   4.473   3.998
 6153SOL     OW19357   5.141   5.650   1.007
 6153SOL    HW119358   5.099   5.581   0.948
 6153SOL    HW219359   5.235   5.623   1.028
 6154SOL     OW19360   5.133   3.751   2.386
 6154SOL    HW119361   5.126   3.701   2.300
 6154SOL    HW219362   5.225   3.741   2.424
 6155SOL     OW19363   2.066   1.434   3.042
 6155SOL    HW119364   2.136   1.504   3.055
 6155SOL    HW219365   1.975   1.475   3.054
 6156SOL     OW19366   5.067   4.781   1.348
 6156SOL    HW119367   5.074   4.692   1.304
 6156SOL    HW219368   5.131   4.785   1.425
 6157SOL     OW19369   0.746   2.610   1.987
 6157SOL    HW119370   0.734   2.535   2.051
 6157SOL    HW219371   0.659   2.628   1.940
 6158SOL     OW19372   3.022   2.187   4.793
 6158SOL    HW119373   2.932   2.232   4.788
 6158SOL    HW219374   3.071   2.220   4.873
 6159SOL     OW19375   6.562   2.567   0.665
 6159SOL    HW119376   6.549   2.516   0.750
 6159SOL    HW219377   6.499   2.644   0.663
 6160SOL     OW19378   1.319   0.577   1.218
 6160SOL    HW119379   1.241   0.515   1.213
 6160SOL    HW219380   1.289   0.671   1.199
 6161SOL     OW19381   4.219   3.545   6.508
 6161SOL    HW119382   4.146   3.596   6.464
 6161SOL    HW219383   4.193   3.522   6.602
 6162SOL     OW19384   6.040   5.325   2.444
 6162SOL    HW119385   6.103   5.287   2.375
 6162SOL    HW219386   5.990   5.251   2.487
 6163SOL     OW19387   5.948   6.072   3.528
 6163SOL    HW119388   5.879   6.021   3.477
 6163SOL    HW219389   6.013   6.114   3.464
 6164SOL     OW19390   3.046   3.737   4.312
 6164SOL    HW119391   3.138   3.754   4.348
 6164SOL    HW219392   3.034   3.639   4.298
 6165SOL     OW19393   3.634   1.605   0.095
 6165SOL    HW119394   3.557   1.660   0.064
 6165SOL    HW219395   3.618   1.574   0.188
 6166SOL     OW19396   2.437   2.865   6.463
 6166SOL    HW119397   2.424   2.827   6.372
 6166SOL    HW219398   2.358   2.919   6.489
 6167SOL     OW19399   1.636   3.440   3.010
 6167SOL    HW119400   1.716   3.422   2.953
 6167SOL    HW219401   1.666   3.458   3.104
 6168SOL     OW19402   0.413   4.284   3.654
 6168SOL    HW119403   0.463   4.364   3.688
 6168SOL    HW219404   0.464   4.243   3.578
 6169SOL     OW19405   2.053   0.657   6.763
 6169SOL    HW119406   2.137   0.603   6.768
 6169SOL    HW219407   2.030   0.673   6.667
 6170SOL     OW19408   3.058   4.098   0.694
 6170SOL    HW119409   2.971   4.074   0.650
 6170SOL    HW219410   3.099   4.176   0.646
 6171SOL     OW19411   2.120   3.923   2.079
 6171SOL    HW119412   2.154   3.894   1.990
 6171SOL    HW219413   2.111   3.844   2.139
 6172SOL     OW19414   2.470   5.573   2.514
 6172SOL    HW119415   2.445   5.653   2.569
 6172SOL    HW219416   2.419   5.574   2.428
 6173SOL     OW19417   1.359   5.867   2.154
 6173SOL    HW119418   1.359   5.800   2.228
 6173SOL    HW219419   1.355   5.819   2.066
 6174SOL     OW19420   5.528   4.979   2.196
 6174SOL    HW119421   5.444   5.010   2.240
 6174SOL    HW219422   5.515   4.888   2.159
 6175SOL     OW19423   5.345   0.272   3.280
 6175SOL    HW119424   5.295   0.215   3.346
 6175SOL    HW219425   5.316   0.367   3.290
 6176SOL     OW19426   6.404   3.099   6.245
 6176SOL    HW119427   6.447   3.189   6.245
 6176SOL    HW219428   6.461   3.034   6.193
 6177SOL     OW19429   6.663   2.676   1.269
 6177SOL    HW119430   6.630   2.582   1.264
 6177SOL    HW219431   6.761   2.678   1.251
 6178SOL     OW19432   6.107   3.067   1.462
 6178SOL    HW119433   6.184   3.006   1.482
 6178SOL    HW219434   6.136   3.162   1.476
 6179SOL     OW19435   0.761   2.229   5.553
 6179SOL    HW119436   0.807   2.143   5.575
 6179SOL    HW219437   0.665   2.211   5.531
 6180SOL     OW19438   3.735   6.724   6.447
 6180SOL    HW119439   3.722   6.675   6.361
 6180SOL    HW219440   3.666   6.795   6.456
 6181SOL     OW19441   5.164   5.708   7.006
 6181SOL    HW119442   5.232   5.687   6.935
 6181SOL    HW219443   5.195   5.673   0.073
 6182SOL     OW19444   4.571   6.519   6.720
 6182SOL    HW119445   4.668   6.494   6.715
 6182SOL    HW219446   4.518   6.459   6.660
 6183SOL     OW19447   2.928   0.462   3.399
 6183SOL    HW119448   3.027   0.460   3.411
 6183SOL    HW219449   2.893   0.369   3.388
 6184SOL     OW19450   6.523   0.662   6.464
 6184SOL    HW119451   6.453   0.653   6.393
 6184SOL    HW219452   6.499   0.738   6.525
 6185SOL     OW19453   0.701   3.772   6.223
 6185SOL    HW119454   0.620   3.804   6.272
 6185SOL    HW219455   0.708   3.673   6.230
 6186SOL     OW19456   5.797   0.007   5.034
 6186SOL    HW119457   5.851   6.962   5.085
 6186SOL    HW219458   5.729   6.981   4.978
 6187SOL     OW19459   4.209   5.079   4.224
 6187SOL    HW119460   4.109   5.079   4.229
 6187SOL    HW219461   4.238   5.067   4.129
 6188SOL     OW19462   2.898   0.234   1.891
 6188SOL    HW119463   2.872   0.147   1.851
 6188SOL    HW219464   2.873   0.309   1.830
 6189SOL     OW19465   5.943   5.178   3.392
 6189SOL    HW119466   5.966   5.257   3.449
 6189SOL    HW219467   6.004   5.176   3.312
 6190SOL     OW19468   5.111   2.542   6.738
 6190SOL    HW119469   5.068   2.596   6.810
 6190SOL    HW219470   5.110   2.593   6.652
 6191SOL     OW19471   6.467   2.168   6.620
 6191SOL    HW119472   6.401   2.169   6.545
 6191SOL    HW219473   6.546   2.112   6.595
 6192SOL     OW19474   3.383   2.574   0.091
 6192SOL    HW119475   3.285   2.591   0.088
 6192SOL    HW219476   3.430   2.655   0.126
 6193SOL     OW19477   5.900   6.862   1.470
 6193SOL    HW119478   5.960   6.907   1.403
 6193SOL    HW219479   5.818   6.917   1.483
 6194SOL     OW19480   2.111   0.178   0.133
 6194SOL    HW119481   2.208   0.174   0.109
 6194SOL    HW219482   2.100   0.161   0.231
 6195SOL     OW19483   3.123   6.761   6.408
 6195SOL    HW119484   3.216   6.722   6.405
 6195SOL    HW219485   3.078   6.735   6.493
 6196SOL     OW19486   6.967   1.038   6.840
 6196SOL    HW119487   7.008   1.128   6.859
 6196SOL    HW219488   7.007   0.970   6.901
 6197SOL     OW19489   2.280   3.112   0.541
 6197SOL    HW119490   2.229   3.027   0.548
 6197SOL    HW219491   2.344   3.106   0.464
 6198SOL     OW19492   4.176   5.095   2.414
 6198SOL    HW119493   4.093   5.128   2.460
 6198SOL    HW219494   4.154   5.068   2.321
 6199SOL     OW19495   1.371   0.620   6.330
 6199SOL    HW119496   1.452   0.669   6.363
 6199SOL    HW219497   1.321   0.584   6.409
 6200SOL     OW19498   3.623   6.914   6.031
 6200SOL    HW119499   3.710   6.932   6.077
 6200SOL    HW219500   3.571   6.999   6.023
 6201SOL     OW19501   2.490   4.466   4.296
 6201SOL    HW119502   2.421   4.535   4.274
 6201SOL    HW219503   2.451   4.375   4.282
 6202SOL     OW19504   3.185   2.594   1.401
 6202SOL    HW119505   3.198   2.538   1.483
 6202SOL    HW219506   3.091   2.629   1.399
 6203SOL     OW19507   4.662   1.854   5.451
 6203SOL    HW119508   4.750   1.832   5.408
 6203SOL    HW219509   4.590   1.798   5.410
 6204SOL     OW19510   1.522   6.531   5.879
 6204SOL    HW119511   1.466   6.543   5.797
 6204SOL    HW219512   1.543   6.621   5.918
 6205SOL     OW19513   5.466   5.613   0.144
 6205SOL    HW119514   5.489   5.614   0.046
 6205SOL    HW219515   5.497   5.697   0.187
 6206SOL     OW19516   4.997   0.145   3.146
 6206SOL    HW119517   4.950   0.214   3.091
 6206SOL    HW219518   5.040   0.189   3.225
 6207SOL     OW19519   1.691   3.792   4.751
 6207SOL    HW119520   1.747   3.719   4.792
 6207SOL    HW219521   1.594   3.766   4.755
 6208SOL     OW19522   5.558   6.291   6.361
 6208SOL    HW119523   5.527   6.364   6.301
 6208SOL    HW219524   5.541   6.203   6.318
 6209SOL     OW19525   3.518   5.438   1.085
 6209SOL    HW119526   3.433   5.419   1.036
 6209SOL    HW219527   3.595   5.398   1.036
 6210SOL     OW19528   5.895   4.751   3.480
 6210SOL    HW119529   5.938   4.763   3.390
 6210SOL    HW219530   5.844   4.664   3.480
 6211SOL     OW19531   2.327   0.497   4.946
 6211SOL    HW119532   2.238   0.494   4.902
 6211SOL    HW219533   2.346   0.408   4.990
 6212SOL     OW19534   6.862   6.591   3.653
 6212SOL    HW119535   6.848   6.562   3.747
 6212SOL    HW219536   6.818   6.680   3.638
 6213SOL     OW19537   0.393   6.468   5.979
 6213SOL    HW119538   0.405   6.470   6.079
 6213SOL    HW219539   0.443   6.390   5.941
 6214SOL     OW19540   6.519   4.907   2.726
 6214SOL    HW119541   6.477   4.944   2.643
 6214SOL    HW219542   6.490   4.812   2.738
 6215SOL     OW19543   3.069   4.654   0.784
 6215SOL    HW119544   3.078   4.716   0.707
 6215SOL    HW219545   2.973   4.650   0.813
 6216SOL     OW19546   6.422   1.745   2.666
 6216SOL    HW119547   6.387   1.663   2.622
 6216SOL    HW219548   6.522   1.744   2.666
 6217SOL     OW19549   5.671   3.095   1.858
 6217SOL    HW119550   5.591   3.042   1.886
 6217SOL    HW219551   5.674   3.181   1.908
 6218SOL     OW19552   3.595   5.132   4.624
 6218SOL    HW119553   3.523   5.116   4.692
 6218SOL    HW219554   3.591   5.061   4.553
 6219SOL     OW19555   0.951   1.579   4.336
 6219SOL    HW119556   0.854   1.557   4.351
 6219SOL    HW219557   0.964   1.678   4.341
 6220SOL     OW19558   1.322   4.090   5.381
 6220SOL    HW119559   1.340   4.182   5.347
 6220SOL    HW219560   1.408   4.040   5.390
 6221SOL     OW19561   3.887   4.902   4.447
 6221SOL    HW119562   3.891   4.807   4.417
 6221SOL    HW219563   3.864   4.906   4.544
 6222SOL     OW19564   0.060   1.341   1.148
 6222SOL    HW119565   0.007   1.256   1.142
 6222SOL    HW219566   0.046   1.394   1.064
 6223SOL     OW19567   5.205   3.799   4.752
 6223SOL    HW119568   5.139   3.750   4.809
 6223SOL    HW219569   5.293   3.751   4.753
 6224SOL     OW19570   2.586   1.031   5.247
 6224SOL    HW119571   2.550   1.086   5.323
 6224SOL    HW219572   2.517   0.964   5.220
 6225SOL     OW19573   4.357   2.246   0.110
 6225SOL    HW119574   4.433   2.262   0.048
 6225SOL    HW219575   4.348   2.148   0.128
 6226SOL     OW19576   6.217   7.005   4.480
 6226SOL    HW119577   6.233   0.019   4.572
 6226SOL    HW219578   6.226   0.058   4.413
 6227SOL     OW19579   3.119   4.651   6.344
 6227SOL    HW119580   3.170   4.619   6.424
 6227SOL    HW219581   3.147   4.744   6.322
 6228SOL     OW19582   0.054   0.634   3.412
 6228SOL    HW119583   7.003   0.691   3.374
 6228SOL    HW219584   0.041   0.624   3.511
 6229SOL     OW19585   2.052   2.827   2.159
 6229SOL    HW119586   1.992   2.804   2.083
 6229SOL    HW219587   2.078   2.923   2.152
 6230SOL     OW19588   2.218   2.404   3.128
 6230SOL    HW119589   2.129   2.359   3.119
 6230SOL    HW219590   2.270   2.394   3.044
 6231SOL     OW19591   0.068   5.066   1.525
 6231SOL    HW119592   0.159   5.061   1.568
 6231SOL    HW219593   0.077   5.106   1.434
 6232SOL     OW19594   0.844   1.211   6.501
 6232SOL    HW119595   0.776   1.274   6.463
 6232SOL    HW219596   0.831   1.120   6.461
 6233SOL     OW19597   4.765   2.184   0.279
 6233SOL    HW119598   4.701   2.112   0.251
 6233SOL    HW219599   4.716   2.254   0.330
 6234SOL     OW19600   2.356   2.431   3.715
 6234SOL    HW119601   2.264   2.467   3.721
 6234SOL    HW219602   2.412   2.467   3.789
 6235SOL     OW19603   2.639   6.331   3.692
 6235SOL    HW119604   2.623   6.252   3.632
 6235SOL    HW219605   2.689   6.301   3.774
 6236SOL     OW19606   6.721   3.818   0.354
 6236SOL    HW119607   6.718   3.883   0.279
 6236SOL    HW219608   6.633   3.770   0.360
 6237SOL     OW19609   4.464   6.732   0.449
 6237SOL    HW119610   4.562   6.739   0.468
 6237SOL    HW219611   4.423   6.823   0.449
 6238SOL     OW19612   4.764   4.391   1.022
 6238SOL    HW119613   4.812   4.337   1.091
 6238SOL    HW219614   4.829   4.451   0.976
 6239SOL     OW19615   2.399   0.674   3.673
 6239SOL    HW119616   2.418   0.708   3.765
 6239SOL    HW219617   2.358   0.584   3.678
 6240SOL     OW19618   2.357   3.823   0.772
 6240SOL    HW119619   2.385   3.766   0.696
 6240SOL    HW219620   2.418   3.807   0.850
 6241SOL     OW19621   4.673   0.229   1.698
 6241SOL    HW119622   4.740   0.301   1.680
 6241SOL    HW219623   4.593   0.269   1.744
 6242SOL     OW19624   4.037   2.196   3.639
 6242SOL    HW119625   3.954   2.189   3.695
 6242SOL    HW219626   4.109   2.139   3.679
 6243SOL     OW19627   6.003   5.504   3.267
 6243SOL    HW119628   5.990   5.465   3.359
 6243SOL    HW219629   6.050   5.592   3.275
 6244SOL     OW19630   1.903   1.859   2.354
 6244SOL    HW119631   1.929   1.951   2.382
 6244SOL    HW219632   1.945   1.838   2.266
 6245SOL     OW19633   2.044   4.581   0.540
 6245SOL    HW119634   1.978   4.655   0.527
 6245SOL    HW219635   2.127   4.617   0.583
 6246SOL     OW19636   2.841   1.045   5.990
 6246SOL    HW119637   2.904   0.978   5.952
 6246SOL    HW219638   2.881   1.136   5.984
 6247SOL     OW19639   6.848   6.258   2.942
 6247SOL    HW119640   6.878   6.179   2.996
 6247SOL    HW219641   6.908   6.268   2.863
 6248SOL     OW19642   0.607   4.961   1.106
 6248SOL    HW119643   0.551   4.905   1.045
 6248SOL    HW219644   0.618   4.914   1.194
 6249SOL     OW19645   5.241   3.769   6.543
 6249SOL    HW119646   5.259   3.739   6.449
 6249SOL    HW219647   5.290   3.710   6.607
 6250SOL     OW19648   5.318   5.145   6.128
 6250SOL    HW119649   5.228   5.143   6.172
 6250SOL    HW219650   5.310   5.188   6.038
 6251SOL     OW19651   4.484   2.213   1.032
 6251SOL    HW119652   4.542   2.140   0.997
 6251SOL    HW219653   4.390   2.200   0.999
 6252SOL     OW19654   2.414   6.295   5.212
 6252SOL    HW119655   2.430   6.356   5.289
 6252SOL    HW219656   2.468   6.212   5.223
 6253SOL     OW19657   1.650   3.923   1.259
 6253SOL    HW119658   1.648   3.854   1.332
 6253SOL    HW219659   1.661   3.878   1.171
 6254SOL     OW19660   5.124   0.528   0.651
 6254SOL    HW119661   5.114   0.625   0.670
 6254SOL    HW219662   5.220   0.501   0.667
 6255SOL     OW19663   0.198   1.317   2.420
 6255SOL    HW119664   0.164   1.411   2.423
 6255SOL    HW219665   0.242   1.295   2.507
 6256SOL     OW19666   3.164   4.900   3.128
 6256SOL    HW119667   3.224   4.881   3.205
 6256SOL    HW219668   3.070   4.912   3.161
 6257SOL     OW19669   4.406   2.932   6.612
 6257SOL    HW119670   4.445   2.969   6.696
 6257SOL    HW219671   4.306   2.940   6.615
 6258SOL     OW19672   5.190   2.002   2.918
 6258SOL    HW119673   5.205   2.101   2.907
 6258SOL    HW219674   5.249   1.967   2.991
 6259SOL     OW19675   3.082   2.355   1.708
 6259SOL    HW119676   3.019   2.359   1.785
 6259SOL    HW219677   3.031   2.344   1.623
 6260SOL     OW19678   3.577   3.523   0.444
 6260SOL    HW119679   3.600   3.426   0.451
 6260SOL    HW219680   3.502   3.534   0.378
 6261SOL     OW19681   4.029   0.769   0.177
 6261SOL    HW119682   4.045   0.690   0.117
 6261SOL    HW219683   3.937   0.804   0.162
 6262SOL     OW19684   0.171   5.385   5.696
 6262SOL    HW119685   0.087   5.431   5.725
 6262SOL    HW219686   0.189   5.308   5.758
 6263SOL     OW19687   6.025   0.558   1.017
 6263SOL    HW119688   5.927   0.540   1.008
 6263SOL    HW219689   6.046   0.648   0.979
 6264SOL     OW19690   2.100   1.357   6.829
 6264SOL    HW119691   2.008   1.391   6.853
 6264SOL    HW219692   2.160   1.365   6.909
 6265SOL     OW19693   4.229   2.926   1.488
 6265SOL    HW119694   4.252   2.943   1.584
 6265SOL    HW219695   4.216   2.828   1.475
 6266SOL     OW19696   2.180   0.066   2.640
 6266SOL    HW119697   2.231   0.064   2.726
 6266SOL    HW219698   2.232   0.117   2.571
 6267SOL     OW19699   2.409   6.831   6.776
 6267SOL    HW119700   2.453   6.862   6.692
 6267SOL    HW219701   2.468   6.766   6.824
 6268SOL     OW19702   3.010   4.839   2.888
 6268SOL    HW119703   2.925   4.872   2.928
 6268SOL    HW219704   3.087   4.861   2.948
 6269SOL     OW19705   6.206   4.923   0.793
 6269SOL    HW119706   6.128   4.970   0.751
 6269SOL    HW219707   6.172   4.849   0.852
 6270SOL     OW19708   0.614   1.525   4.656
 6270SOL    HW119709   0.623   1.564   4.564
 6270SOL    HW219710   0.560   1.441   4.651
 6271SOL     OW19711   5.932   1.221   1.095
 6271SOL    HW119712   5.834   1.229   1.078
 6271SOL    HW219713   5.959   1.125   1.089
 6272SOL     OW19714   1.639   1.830   3.577
 6272SOL    HW119715   1.618   1.920   3.616
 6272SOL    HW219716   1.730   1.802   3.605
 6273SOL     OW19717   3.655   0.726   1.508
 6273SOL    HW119718   3.673   0.640   1.461
 6273SOL    HW219719   3.683   0.718   1.603
 6274SOL     OW19720   3.626   6.148   5.816
 6274SOL    HW119721   3.605   6.148   5.914
 6274SOL    HW219722   3.541   6.153   5.764
 6275SOL     OW19723   2.601   0.640   4.524
 6275SOL    HW119724   2.531   0.709   4.509
 6275SOL    HW219725   2.578   0.587   4.606
 6276SOL     OW19726   1.422   5.239   4.415
 6276SOL    HW119727   1.401   5.142   4.419
 6276SOL    HW219728   1.521   5.253   4.418
 6277SOL     OW19729   5.394   3.274   3.228
 6277SOL    HW119730   5.451   3.207   3.276
 6277SOL    HW219731   5.435   3.295   3.139
 6278SOL     OW19732   5.360   0.415   4.212
 6278SOL    HW119733   5.342   0.335   4.269
 6278SOL    HW219734   5.448   0.456   4.238
 6279SOL     OW19735   4.664   1.738   0.058
 6279SOL    HW119736   4.694   1.832   0.076
 6279SOL    HW219737   4.634   1.730   6.984
 6280SOL     OW19738   0.712   5.127   5.909
 6280SOL    HW119739   0.748   5.086   5.826
 6280SOL    HW219740   0.697   5.057   5.978
 6281SOL     OW19741   2.769   6.861   5.416
 6281SOL    HW119742   2.750   6.823   5.326
 6281SOL    HW219743   2.861   6.902   5.416
 6282SOL     OW19744   1.623   0.230   3.559
 6282SOL    HW119745   1.535   0.235   3.513
 6282SOL    HW219746   1.624   0.296   3.635
 6283SOL     OW19747   0.105   2.295   5.318
 6283SOL    HW119748   0.103   2.315   5.220
 6283SOL    HW219749   0.157   2.366   5.366
 6284SOL     OW19750   2.576   4.836   6.186
 6284SOL    HW119751   2.610   4.845   6.279
 6284SOL    HW219752   2.599   4.745   6.150
 6285SOL     OW19753   1.693   4.491   2.650
 6285SOL    HW119754   1.641   4.460   2.730
 6285SOL    HW219755   1.697   4.417   2.583
 6286SOL     OW19756   5.751   0.139   4.390
 6286SOL    HW119757   5.670   0.148   4.448
 6286SOL    HW219758   5.801   0.056   4.415
 6287SOL     OW19759   4.773   4.182   1.976
 6287SOL    HW119760   4.683   4.225   1.971
 6287SOL    HW219761   4.780   4.112   1.905
 6288SOL     OW19762   5.213   3.728   1.178
 6288SOL    HW119763   5.146   3.654   1.166
 6288SOL    HW219764   5.216   3.784   1.095
 6289SOL     OW19765   1.360   1.058   3.006
 6289SOL    HW119766   1.329   0.963   3.005
 6289SOL    HW219767   1.457   1.062   2.984
 6290SOL     OW19768   5.802   3.697   3.207
 6290SOL    HW119769   5.900   3.704   3.225
 6290SOL    HW219770   5.785   3.616   3.151
 6291SOL     OW19771   3.900   3.985   2.862
 6291SOL    HW119772   3.981   3.926   2.869
 6291SOL    HW219773   3.851   3.985   2.949
 6292SOL     OW19774   0.517   1.786   1.846
 6292SOL    HW119775   0.494   1.802   1.942
 6292SOL    HW219776   0.451   1.833   1.788
 6293SOL     OW19777   4.799   6.113   0.586
 6293SOL    HW119778   4.702   6.127   0.568
 6293SOL    HW219779   4.833   6.186   0.645
 6294SOL     OW19780   3.983   5.279   2.555
 6294SOL    HW119781   3.997   5.238   2.645
 6294SOL    HW219782   4.002   5.377   2.559
 6295SOL     OW19783   6.322   6.466   6.058
 6295SOL    HW119784   6.322   6.484   5.959
 6295SOL    HW219785   6.378   6.385   6.077
 6296SOL     OW19786   6.500   1.275   2.283
 6296SOL    HW119787   6.515   1.362   2.331
 6296SOL    HW219788   6.492   1.291   2.185
 6297SOL     OW19789   5.616   0.254   5.850
 6297SOL    HW119790   5.542   0.319   5.863
 6297SOL    HW219791   5.585   0.178   5.792
 6298SOL     OW19792   1.312   1.838   4.336
 6298SOL    HW119793   1.380   1.806   4.270
 6298SOL    HW219794   1.316   1.780   4.418
 6299SOL     OW19795   6.615   3.168   0.180
 6299SOL    HW119796   6.615   3.103   0.256
 6299SOL    HW219797   6.658   3.126   0.100
 6300SOL     OW19798   5.132   1.009   4.063
 6300SOL    HW119799   5.195   0.933   4.079
 6300SOL    HW219800   5.146   1.046   3.971
 6301SOL     OW19801   3.171   0.151   0.922
 6301SOL    HW119802   3.106   0.181   0.852
 6301SOL    HW219803   3.121   0.125   1.005
 6302SOL     OW19804   0.496   1.106   3.217
 6302SOL    HW119805   0.464   1.164   3.292
 6302SOL    HW219806   0.467   1.144   3.130
 6303SOL     OW19807   2.400   5.911   5.585
 6303SOL    HW119808   2.468   5.849   5.547
 6303SOL    HW219809   2.329   5.929   5.516
 6304SOL     OW19810   3.326   1.059   6.253
 6304SOL    HW119811   3.332   0.997   6.330
 6304SOL    HW219812   3.303   1.151   6.285
 6305SOL     OW19813   5.684   1.355   2.055
 6305SOL    HW119814   5.709   1.279   2.116
 6305SOL    HW219815   5.687   1.324   1.960
 6306SOL     OW19816   5.679   3.026   4.039
 6306SOL    HW119817   5.682   3.062   4.132
 6306SOL    HW219818   5.621   3.084   3.982
 6307SOL     OW19819   2.795   4.973   0.441
 6307SOL    HW119820   2.848   5.029   0.504
 6307SOL    HW219821   2.856   4.911   0.391
 6308SOL     OW19822   2.876   2.146   5.473
 6308SOL    HW119823   2.827   2.170   5.390
 6308SOL    HW219824   2.974   2.164   5.461
 6309SOL     OW19825   6.127   2.424   4.770
 6309SOL    HW119826   6.042   2.418   4.823
 6309SOL    HW219827   6.129   2.352   4.702
 6310SOL     OW19828   1.134   4.591   4.953
 6310SOL    HW119829   1.110   4.597   4.856
 6310SOL    HW219830   1.058   4.552   5.004
 6311SOL     OW19831   6.355   6.427   4.780
 6311SOL    HW119832   6.291   6.482   4.728
 6311SOL    HW219833   6.449   6.452   4.755
 6312SOL     OW19834   4.899   4.644   5.773
 6312SOL    HW119835   4.832   4.718   5.772
 6312SOL    HW219836   4.971   4.664   5.707
 6313SOL     OW19837   2.557   5.326   3.199
 6313SOL    HW119838   2.521   5.237   3.172
 6313SOL    HW219839   2.594   5.321   3.291
 6314SOL     OW19840   3.202   6.448   3.616
 6314SOL    HW119841   3.187   6.351   3.633
 6314SOL    HW219842   3.280   6.480   3.669
 6315SOL     OW19843   2.491   3.645   0.604
 6315SOL    HW119844   2.499   3.648   0.505
 6315SOL    HW219845   2.558   3.580   0.641
 6316SOL     OW19846   5.075   1.992   5.666
 6316SOL    HW119847   5.107   1.958   5.755
 6316SOL    HW219848   5.130   2.071   5.638
 6317SOL     OW19849   6.335   5.719   4.071
 6317SOL    HW119850   6.335   5.664   4.155
 6317SOL    HW219851   6.382   5.669   3.998
 6318SOL     OW19852   2.496   2.031   4.507
 6318SOL    HW119853   2.430   1.965   4.542
 6318SOL    HW219854   2.538   1.996   4.423
 6319SOL     OW19855   0.639   1.315   2.915
 6319SOL    HW119856   0.617   1.355   2.826
 6319SOL    HW219857   0.717   1.254   2.906
 6320SOL     OW19858   7.014   2.529   3.516
 6320SOL    HW119859   6.955   2.576   3.450
 6320SOL    HW219860   6.958   2.475   3.578
 6321SOL     OW19861   2.012   3.718   6.815
 6321SOL    HW119862   1.949   3.766   6.754
 6321SOL    HW219863   2.042   3.633   6.773
 6322SOL     OW19864   0.801   1.059   0.177
 6322SOL    HW119865   0.721   1.057   0.239
 6322SOL    HW219866   0.774   1.098   0.089
 6323SOL     OW19867   3.957   1.526   1.469
 6323SOL    HW119868   3.995   1.609   1.510
 6323SOL    HW219869   3.869   1.505   1.512
 6324SOL     OW19870   4.209   1.811   6.658
 6324SOL    HW119871   4.157   1.726   6.657
 6324SOL    HW219872   4.300   1.795   6.620
 6325SOL     OW19873   1.320   2.732   2.170
 6325SOL    HW119874   1.271   2.646   2.151
 6325SOL    HW219875   1.256   2.800   2.205
 6326SOL     OW19876   5.124   5.850   1.201
 6326SOL    HW119877   5.099   5.774   1.141
 6326SOL    HW219878   5.119   5.821   1.296
 6327SOL     OW19879   5.013   5.098   5.936
 6327SOL    HW119880   5.097   5.086   5.882
 6327SOL    HW219881   4.934   5.092   5.875
 6328SOL     OW19882   3.061   4.354   6.518
 6328SOL    HW119883   3.077   4.372   6.421
 6328SOL    HW219884   3.134   4.296   6.554
 6329SOL     OW19885   1.281   1.842   2.820
 6329SOL    HW119886   1.204   1.822   2.881
 6329SOL    HW219887   1.284   1.940   2.801
 6330SOL     OW19888   3.302   1.214   0.394
 6330SOL    HW119889   3.301   1.194   0.492
 6330SOL    HW219890   3.281   1.311   0.380
 6331SOL     OW19891   5.944   3.166   2.514
 6331SOL    HW119892   6.010   3.212   2.455
 6331SOL    HW219893   5.879   3.114   2.458
 6332SOL     OW19894   5.650   6.065   2.114
 6332SOL    HW119895   5.612   6.153   2.084
 6332SOL    HW219896   5.677   6.011   2.035
 6333SOL     OW19897   2.268   5.474   2.789
 6333SOL    HW119898   2.285   5.554   2.733
 6333SOL    HW219899   2.210   5.498   2.866
 6334SOL     OW19900   2.467   1.577   2.494
 6334SOL    HW119901   2.397   1.520   2.539
 6334SOL    HW219902   2.425   1.627   2.419
 6335SOL     OW19903   6.860   1.473   0.122
 6335SOL    HW119904   6.957   1.478   0.099
 6335SOL    HW219905   6.841   1.386   0.167
 6336SOL     OW19906   0.292   3.232   5.374
 6336SOL    HW119907   0.237   3.306   5.336
 6336SOL    HW219908   0.245   3.144   5.360
 6337SOL     OW19909   6.689   4.557   5.050
 6337SOL    HW119910   6.771   4.499   5.054
 6337SOL    HW219911   6.705   4.631   4.984
 6338SOL     OW19912   3.475   1.159   4.301
 6338SOL    HW119913   3.550   1.221   4.326
 6338SOL    HW219914   3.512   1.067   4.286
 6339SOL     OW19915   6.702   2.699   4.716
 6339SOL    HW119916   6.736   2.780   4.763
 6339SOL    HW219917   6.747   2.617   4.753
 6340SOL     OW19918   1.849   5.092   4.395
 6340SOL    HW119919   1.943   5.093   4.431
 6340SOL    HW219920   1.799   5.016   4.437
 6341SOL     OW19921   6.727   4.526   2.787
 6341SOL    HW119922   6.628   4.530   2.780
 6341SOL    HW219923   6.768   4.549   2.698
 6342SOL     OW19924   1.652   2.825   1.004
 6342SOL    HW119925   1.567   2.803   1.053
 6342SOL    HW219926   1.715   2.872   1.065
 6343SOL     OW19927   3.840   0.962   0.520
 6343SOL    HW119928   3.882   1.012   0.445
 6343SOL    HW219929   3.812   1.026   0.592
 6344SOL     OW19930   0.140   4.393   4.055
 6344SOL    HW119931   0.214   4.329   4.074
 6344SOL    HW219932   0.094   4.418   4.140
 6345SOL     OW19933   2.861   2.184   2.333
 6345SOL    HW119934   2.875   2.250   2.260
 6345SOL    HW219935   2.927   2.109   2.324
 6346SOL     OW19936   1.330   5.346   3.986
 6346SOL    HW119937   1.293   5.437   3.965
 6346SOL    HW219938   1.348   5.298   3.900
 6347SOL     OW19939   3.325   0.518   1.716
 6347SOL    HW119940   3.234   0.480   1.734
 6347SOL    HW219941   3.378   0.519   1.801
 6348SOL     OW19942   1.192   2.158   4.602
 6348SOL    HW119943   1.177   2.093   4.677
 6348SOL    HW219944   1.285   2.149   4.568
 6349SOL     OW19945   2.092   0.174   0.437
 6349SOL    HW119946   2.173   0.129   0.399
 6349SOL    HW219947   2.045   0.111   0.498
 6350SOL     OW19948   1.041   6.133   2.698
 6350SOL    HW119949   1.045   6.139   2.798
 6350SOL    HW219950   1.090   6.210   2.658
 6351SOL     OW19951   0.334   1.425   3.143
 6351SOL    HW119952   0.311   1.372   3.224
 6351SOL    HW219953   0.273   1.504   3.135
 6352SOL     OW19954   6.772   6.391   2.283
 6352SOL    HW119955   6.756   6.484   2.250
 6352SOL    HW219956   6.787   6.392   2.382
 6353SOL     OW19957   0.203   6.849   2.379
 6353SOL    HW119958   0.223   6.777   2.312
 6353SOL    HW219959   0.236   6.821   2.469
 6354SOL     OW19960   0.138   6.455   4.014
 6354SOL    HW119961   0.226   6.500   3.998
 6354SOL    HW219962   0.154   6.361   4.046
 6355SOL     OW19963   1.338   2.151   2.068
 6355SOL    HW119964   1.370   2.239   2.031
 6355SOL    HW219965   1.294   2.167   2.157
 6356SOL     OW19966   3.148   2.852   1.253
 6356SOL    HW119967   3.080   2.801   1.306
 6356SOL    HW219968   3.229   2.868   1.310
 6357SOL     OW19969   4.594   2.278   0.683
 6357SOL    HW119970   4.578   2.184   0.652
 6357SOL    HW219971   4.517   2.307   0.741
 6358SOL     OW19972   0.488   2.488   4.116
 6358SOL    HW119973   0.437   2.527   4.192
 6358SOL    HW219974   0.567   2.544   4.095
 6359SOL     OW19975   6.782   0.917   6.670
 6359SOL    HW119976   6.804   0.857   6.593
 6359SOL    HW219977   6.866   0.947   6.715
 6360SOL     OW19978   3.338   6.206   4.222
 6360SOL    HW119979   3.244   6.224   4.193
 6360SOL    HW219980   3.388   6.161   4.148
 6361SOL     OW19981   3.987   6.007   6.004
 6361SOL    HW119982   3.958   6.072   6.074
 6361SOL    HW219983   3.918   6.002   5.932
 6362SOL     OW19984   6.136   5.417   6.255
 6362SOL    HW119985   6.154   5.319   6.264
 6362SOL    HW219986   6.197   5.456   6.186
 6363SOL     OW19987   0.916   5.978   4.113
 6363SOL    HW119988   0.876   5.893   4.079
 6363SOL    HW219989   0.844   6.047   4.121
 6364SOL     OW19990   2.050   2.812   6.271
 6364SOL    HW119991   2.082   2.719   6.255
 6364SOL    HW219992   2.017   2.820   6.366
 6365SOL     OW19993   4.898   5.697   2.526
 6365SOL    HW119994   4.985   5.721   2.569
 6365SOL    HW219995   4.911   5.619   2.465
 6366SOL     OW19996   6.970   4.644   6.198
 6366SOL    HW119997   0.011   4.717   6.227
 6366SOL    HW219998   7.016   4.586   6.130
 6367SOL     OW19999   5.927   5.886   2.628
 6367SOL    HW120000   5.889   5.812   2.684
 6367SOL    HW220001   5.861   5.960   2.621
 6368SOL     OW20002   2.951   0.158   3.984
 6368SOL    HW120003   2.890   0.080   4.001
 6368SOL    HW220004   2.991   0.188   4.070
 6369SOL     OW20005   2.327   5.228   5.098
 6369SOL    HW120006   2.344   5.152   5.034
 6369SOL    HW220007   2.229   5.245   5.103
 6370SOL     OW20008   6.314   2.669   2.257
 6370SOL    HW120009   6.280   2.613   2.333
 6370SOL    HW220010   6.338   2.760   2.292
 6371SOL     OW20011   4.978   1.983   3.170
 6371SOL    HW120012   5.051   2.021   3.115
 6371SOL    HW220013   4.977   2.027   3.260
 6372SOL     OW20014   2.816   5.836   2.341
 6372SOL    HW120015   2.880   5.781   2.288
 6372SOL    HW220016   2.796   5.790   2.428
 6373SOL     OW20017   3.959   4.476   6.819
 6373SOL    HW120018   4.027   4.543   6.848
 6373SOL    HW220019   3.983   4.386   6.855
 6374SOL     OW20020   3.000   3.593   2.840
 6374SOL    HW120021   2.958   3.528   2.776
 6374SOL    HW220022   2.999   3.684   2.800
 6375SOL     OW20023   1.594   6.246   2.861
 6375SOL    HW120024   1.505   6.201   2.854
 6375SOL    HW220025   1.654   6.213   2.788
 6376SOL     OW20026   0.461   2.443   5.555
 6376SOL    HW120027   0.557   2.468   5.543
 6376SOL    HW220028   0.447   2.409   5.648
 6377SOL     OW20029   0.566   1.275   4.384
 6377SOL    HW120030   0.518   1.274   4.472
 6377SOL    HW220031   0.655   1.230   4.394
 6378SOL     OW20032   4.448   4.771   3.530
 6378SOL    HW120033   4.380   4.766   3.457
 6378SOL    HW220034   4.416   4.718   3.609
 6379SOL     OW20035   2.512   4.936   2.691
 6379SOL    HW120036   2.479   4.864   2.630
 6379SOL    HW220037   2.469   5.023   2.666
 6380SOL     OW20038   0.824   0.621   5.640
 6380SOL    HW120039   0.819   0.637   5.739
 6380SOL    HW220040   0.815   0.524   5.621
 6381SOL     OW20041   3.066   3.408   1.721
 6381SOL    HW120042   3.015   3.408   1.806
 6381SOL    HW220043   3.164   3.408   1.741
 6382SOL     OW20044   1.264   4.376   5.024
 6382SOL    HW120045   1.184   4.318   5.040
 6382SOL    HW220046   1.234   4.471   5.013
 6383SOL     OW20047   4.105   1.268   3.948
 6383SOL    HW120048   4.060   1.194   3.998
 6383SOL    HW220049   4.184   1.231   3.899
 6384SOL     OW20050   6.099   4.491   2.743
 6384SOL    HW120051   6.136   4.561   2.681
 6384SOL    HW220052   6.166   4.418   2.755
 6385SOL     OW20053   0.834   5.996   4.552
 6385SOL    HW120054   0.870   5.949   4.471
 6385SOL    HW220055   0.857   6.093   4.547
 6386SOL     OW20056   2.833   5.513   1.972
 6386SOL    HW120057   2.779   5.582   2.019
 6386SOL    HW220058   2.877   5.453   2.039
 6387SOL     OW20059   6.773   1.879   5.106
 6387SOL    HW120060   6.761   1.963   5.158
 6387SOL    HW220061   6.713   1.808   5.143
 6388SOL     OW20062   2.124   4.571   3.170
 6388SOL    HW120063   2.030   4.546   3.147
 6388SOL    HW220064   2.125   4.623   3.256
 6389SOL     OW20065   0.756   4.897   1.991
 6389SOL    HW120066   0.805   4.811   1.997
 6389SOL    HW220067   0.744   4.923   1.895
 6390SOL     OW20068   0.178   3.888   3.990
 6390SOL    HW120069   0.148   3.818   3.925
 6390SOL    HW220070   0.197   3.973   3.941
 6391SOL     OW20071   3.513   1.153   6.898
 6391SOL    HW120072   3.584   1.083   6.889
 6391SOL    HW220073   3.426   1.110   6.921
 6392SOL     OW20074   1.511   6.571   3.882
 6392SOL    HW120075   1.411   6.561   3.879
 6392SOL    HW220076   1.541   6.579   3.977
 6393SOL     OW20077   5.121   0.780   0.725
 6393SOL    HW120078   5.046   0.831   0.768
 6393SOL    HW220079   5.208   0.812   0.761
 6394SOL     OW20080   3.288   4.940   1.479
 6394SOL    HW120081   3.241   4.920   1.565
 6394SOL    HW220082   3.265   4.869   1.412
 6395SOL     OW20083   5.705   0.935   1.036
 6395SOL    HW120084   5.652   1.010   0.996
 6395SOL    HW220085   5.670   0.915   1.127
 6396SOL     OW20086   5.679   3.634   5.303
 6396SOL    HW120087   5.754   3.658   5.241
 6396SOL    HW220088   5.658   3.537   5.294
 6397SOL     OW20089   0.158   0.810   0.354
 6397SOL    HW120090   0.073   0.859   0.376
 6397SOL    HW220091   0.147   0.713   0.375
 6398SOL     OW20092   3.788   1.031   1.374
 6398SOL    HW120093   3.820   1.126   1.373
 6398SOL    HW220094   3.769   1.003   1.468
 6399SOL     OW20095   2.489   5.862   6.783
 6399SOL    HW120096   2.489   5.960   6.803
 6399SOL    HW220097   2.396   5.833   6.757
 6400SOL     OW20098   2.681   5.466   4.114
 6400SOL    HW120099   2.655   5.395   4.049
 6400SOL    HW220100   2.698   5.551   4.065
 6401SOL     OW20101   1.707   4.407   4.269
 6401SOL    HW120102   1.756   4.333   4.315
 6401SOL    HW220103   1.662   4.371   4.187
 6402SOL     OW20104   1.669   2.188   3.264
 6402SOL    HW120105   1.682   2.175   3.166
 6402SOL    HW220106   1.734   2.131   3.314
 6403SOL     OW20107   0.700   5.844   1.298
 6403SOL    HW120108   0.636   5.880   1.230
 6403SOL    HW220109   0.775   5.798   1.252
 6404SOL     OW20110   5.035   1.310   3.194
 6404SOL    HW120111   4.957   1.336   3.136
 6404SOL    HW220112   5.117   1.303   3.138
 6405SOL     OW20113   2.687   1.481   1.916
 6405SOL    HW120114   2.603   1.526   1.886
 6405SOL    HW220115   2.740   1.451   1.837
 6406SOL     OW20116   2.537   2.355   3.504
 6406SOL    HW120117   2.474   2.372   3.580
 6406SOL    HW220118   2.489   2.301   3.434
 6407SOL     OW20119   4.562   5.099   6.111
 6407SOL    HW120120   4.612   5.155   6.176
 6407SOL    HW220121   4.505   5.157   6.054
 6408SOL     OW20122   6.336   1.428   0.263
 6408SOL    HW120123   6.384   1.408   0.178
 6408SOL    HW220124   6.402   1.451   0.334
 6409SOL     OW20125   0.968   4.224   2.012
 6409SOL    HW120126   1.031   4.247   2.086
 6409SOL    HW220127   0.982   4.130   1.984
 6410SOL     OW20128   1.444   1.368   1.641
 6410SOL    HW120129   1.456   1.301   1.568
 6410SOL    HW220130   1.527   1.423   1.650
 6411SOL     OW20131   2.025   0.779   3.225
 6411SOL    HW120132   1.977   0.866   3.220
 6411SOL    HW220133   2.049   0.759   3.320
 6412SOL     OW20134   6.928   2.163   5.015
 6412SOL    HW120135   6.921   2.262   5.026
 6412SOL    HW220136   6.934   2.141   4.918
 6413SOL     OW20137   0.249   4.298   0.518
 6413SOL    HW120138   0.288   4.362   0.585
 6413SOL    HW220139   0.259   4.205   0.552
 6414SOL     OW20140   6.450   6.586   2.885
 6414SOL    HW120141   6.475   6.666   2.830
 6414SOL    HW220142   6.420   6.512   2.824
 6415SOL     OW20143   1.677   1.508   1.960
 6415SOL    HW120144   1.584   1.528   1.992
 6415SOL    HW220145   1.738   1.498   2.038
 6416SOL     OW20146   2.124   6.669   6.501
 6416SOL    HW120147   2.209   6.618   6.510
 6416SOL    HW220148   2.054   6.628   6.559
 6417SOL     OW20149   0.347   6.627   3.177
 6417SOL    HW120150   0.439   6.588   3.179
 6417SOL    HW220151   0.303   6.601   3.090
 6418SOL     OW20152   6.744   6.092   2.496
 6418SOL    HW120153   6.670   6.158   2.497
 6418SOL    HW220154   6.832   6.139   2.508
 6419SOL     OW20155   2.673   4.376   1.055
 6419SOL    HW120156   2.694   4.452   0.993
 6419SOL    HW220157   2.648   4.412   1.145
 6420SOL     OW20158   0.887   3.465   0.056
 6420SOL    HW120159   0.926   3.556   0.061
 6420SOL    HW220160   0.853   3.448   6.984
 6421SOL     OW20161   5.872   1.792   1.023
 6421SOL    HW120162   5.849   1.720   1.089
 6421SOL    HW220163   5.870   1.881   1.068
 6422SOL     OW20164   6.333   1.900   3.627
 6422SOL    HW120165   6.338   1.803   3.605
 6422SOL    HW220166   6.239   1.924   3.654
 6423SOL     OW20167   4.974   4.377   0.679
 6423SOL    HW120168   5.074   4.376   0.685
 6423SOL    HW220169   4.938   4.286   0.697
 6424SOL     OW20170   6.618   5.009   4.939
 6424SOL    HW120171   6.681   5.081   4.967
 6424SOL    HW220172   6.622   4.998   4.840
 6425SOL     OW20173   0.270   4.906   0.939
 6425SOL    HW120174   0.354   4.853   0.927
 6425SOL    HW220175   0.284   5.000   0.907
 6426SOL     OW20176   6.742   2.770   3.618
 6426SOL    HW120177   6.770   2.807   3.707
 6426SOL    HW220178   6.684   2.689   3.634
 6427SOL     OW20179   0.967   3.048   6.144
 6427SOL    HW120180   0.900   2.988   6.188
 6427SOL    HW220181   0.931   3.142   6.142
 6428SOL     OW20182   6.703   3.038   3.051
 6428SOL    HW120183   6.682   3.112   3.115
 6428SOL    HW220184   6.726   2.955   3.103
 6429SOL     OW20185   0.968   0.769   4.292
 6429SOL    HW120186   1.032   0.730   4.226
 6429SOL    HW220187   0.917   0.696   4.337
 6430SOL     OW20188   5.889   3.686   0.149
 6430SOL    HW120189   5.815   3.750   0.171
 6430SOL    HW220190   5.865   3.595   0.183
 6431SOL     OW20191   5.273   1.023   3.293
 6431SOL    HW120192   5.336   1.094   3.324
 6431SOL    HW220193   5.179   1.051   3.308
 6432SOL     OW20194   5.854   3.519   6.912
 6432SOL    HW120195   5.865   3.584   6.988
 6432SOL    HW220196   5.871   3.566   6.826
 6433SOL     OW20197   2.630   3.869   1.692
 6433SOL    HW120198   2.625   3.955   1.742
 6433SOL    HW220199   2.702   3.875   1.622
 6434SOL     OW20200   2.241   5.674   0.458
 6434SOL    HW120201   2.319   5.732   0.435
 6434SOL    HW220202   2.199   5.707   0.543
 6435SOL     OW20203   4.900   3.919   0.262
 6435SOL    HW120204   4.931   3.825   0.250
 6435SOL    HW220205   4.807   3.920   0.299
 6436SOL     OW20206   1.524   2.916   2.363
 6436SOL    HW120207   1.591   2.854   2.404
 6436SOL    HW220208   1.568   2.969   2.291
 6437SOL     OW20209   0.132   0.792   6.758
 6437SOL    HW120210   0.093   0.720   6.701
 6437SOL    HW220211   0.201   0.843   6.707
 6438SOL     OW20212   1.045   3.617   3.798
 6438SOL    HW120213   1.027   3.620   3.700
 6438SOL    HW220214   0.963   3.645   3.848
 6439SOL     OW20215   6.969   6.656   1.929
 6439SOL    HW120216   6.937   6.569   1.965
 6439SOL    HW220217   0.042   6.646   1.894
 6440SOL     OW20218   0.480   0.524   2.200
 6440SOL    HW120219   0.481   0.622   2.220
 6440SOL    HW220220   0.538   0.505   2.121
 6441SOL     OW20221   3.538   1.237   3.486
 6441SOL    HW120222   3.479   1.166   3.448
 6441SOL    HW220223   3.634   1.209   3.477
 6442SOL     OW20224   3.549   0.526   3.770
 6442SOL    HW120225   3.546   0.501   3.673
 6442SOL    HW220226   3.524   0.622   3.780
 6443SOL     OW20227   2.290   1.426   0.397
 6443SOL    HW120228   2.349   1.384   0.466
 6443SOL    HW220229   2.339   1.501   0.353
 6444SOL     OW20230   0.730   0.918   3.838
 6444SOL    HW120231   0.798   0.857   3.879
 6444SOL    HW220232   0.699   0.881   3.751
 6445SOL     OW20233   3.742   3.639   5.639
 6445SOL    HW120234   3.799   3.576   5.692
 6445SOL    HW220235   3.666   3.669   5.696
 6446SOL     OW20236   6.564   1.454   1.075
 6446SOL    HW120237   6.567   1.540   1.025
 6446SOL    HW220238   6.638   1.452   1.142
 6447SOL     OW20239   1.879   6.987   2.756
 6447SOL    HW120240   1.886   6.932   2.839
 6447SOL    HW220241   1.816   0.042   2.773
 6448SOL     OW20242   6.372   2.111   2.671
 6448SOL    HW120243   6.284   2.139   2.631
 6448SOL    HW220244   6.355   2.043   2.743
 6449SOL     OW20245   3.229   3.141   1.495
 6449SOL    HW120246   3.161   3.174   1.430
 6449SOL    HW220247   3.273   3.059   1.458
 6450SOL     OW20248   6.792   3.565   0.036
 6450SOL    HW120249   6.833   3.509   6.985
 6450SOL    HW220250   6.699   3.533   0.055
 6451SOL     OW20251   2.234   0.065   4.334
 6451SOL    HW120252   2.239   6.995   4.294
 6451SOL    HW220253   2.144   0.079   4.374
 6452SOL     OW20254   4.041   6.611   3.565
 6452SOL    HW120255   4.103   6.616   3.644
 6452SOL    HW220256   4.085   6.560   3.492
 6453SOL     OW20257   2.038   4.010   6.241
 6453SOL    HW120258   1.988   4.096   6.238
 6453SOL    HW220259   1.992   3.943   6.182
 6454SOL     OW20260   2.640   1.284   4.673
 6454SOL    HW120261   2.698   1.302   4.753
 6454SOL    HW220262   2.608   1.371   4.635
 6455SOL     OW20263   6.457   3.047   5.462
 6455SOL    HW120264   6.556   3.034   5.471
 6455SOL    HW220265   6.422   2.984   5.393
 6456SOL     OW20266   6.672   0.740   4.653
 6456SOL    HW120267   6.581   0.706   4.679
 6456SOL    HW220268   6.689   0.719   4.557
 6457SOL     OW20269   6.618   3.103   2.293
 6457SOL    HW120270   6.596   3.151   2.208
 6457SOL    HW220271   6.714   3.077   2.292
 6458SOL     OW20272   1.267   5.968   2.590
 6458SOL    HW120273   1.340   5.937   2.651
 6458SOL    HW220274   1.204   6.027   2.640
 6459SOL     OW20275   5.680   4.631   0.539
 6459SOL    HW120276   5.636   4.586   0.461
 6459SOL    HW220277   5.778   4.643   0.520
 6460SOL     OW20278   3.238   4.799   0.059
 6460SOL    HW120279   3.335   4.821   0.061
 6460SOL    HW220280   3.207   4.773   0.150
 6461SOL     OW20281   3.987   5.702   4.664
 6461SOL    HW120282   4.019   5.672   4.753
 6461SOL    HW220283   3.917   5.773   4.676
 6462SOL     OW20284   1.917   2.936   3.790
 6462SOL    HW120285   2.003   2.985   3.778
 6462SOL    HW220286   1.904   2.872   3.715
 6463SOL     OW20287   1.302   4.491   5.487
 6463SOL    HW120288   1.226   4.533   5.437
 6463SOL    HW220289   1.358   4.437   5.424
 6464SOL     OW20290   0.864   5.466   2.429
 6464SOL    HW120291   0.793   5.397   2.439
 6464SOL    HW220292   0.904   5.486   2.519
 6465SOL     OW20293   6.644   0.812   3.030
 6465SOL    HW120294   6.618   0.748   3.103
 6465SOL    HW220295   6.731   0.855   3.054
 6466SOL     OW20296   0.423   2.742   5.295
 6466SOL    HW120297   0.499   2.694   5.339
 6466SOL    HW220298   0.391   2.816   5.354
 6467SOL     OW20299   2.747   1.145   6.673
 6467SOL    HW120300   2.771   1.094   6.755
 6467SOL    HW220301   2.691   1.088   6.612
 6468SOL     OW20302   4.771   4.549   0.572
 6468SOL    HW120303   4.684   4.531   0.617
 6468SOL    HW220304   4.839   4.482   0.602
 6469SOL     OW20305   6.596   1.009   5.962
 6469SOL    HW120306   6.688   1.050   5.958
 6469SOL    HW220307   6.558   1.022   6.054
 6470SOL     OW20308   6.467   6.101   5.315
 6470SOL    HW120309   6.471   6.198   5.291
 6470SOL    HW220310   6.537   6.080   5.383
 6471SOL     OW20311   5.412   5.527   6.023
 6471SOL    HW120312   5.336   5.482   5.976
 6471SOL    HW220313   5.404   5.626   6.012
 6472SOL     OW20314   1.209   5.908   1.071
 6472SOL    HW120315   1.271   5.927   1.148
 6472SOL    HW220316   1.114   5.917   1.101
 6473SOL     OW20317   2.265   1.448   5.603
 6473SOL    HW120318   2.241   1.359   5.564
 6473SOL    HW220319   2.253   1.445   5.702
 6474SOL     OW20320   2.491   3.473   5.320
 6474SOL    HW120321   2.476   3.569   5.346
 6474SOL    HW220322   2.413   3.441   5.266
 6475SOL     OW20323   4.671   6.248   4.072
 6475SOL    HW120324   4.661   6.347   4.086
 6475SOL    HW220325   4.648   6.225   3.977
 6476SOL     OW20326   5.063   4.761   2.505
 6476SOL    HW120327   5.159   4.763   2.533
 6476SOL    HW220328   5.042   4.840   2.448
 6477SOL     OW20329   0.253   6.468   6.588
 6477SOL    HW120330   0.309   6.479   6.671
 6477SOL    HW220331   0.303   6.504   6.510
 6478SOL     OW20332   4.876   6.305   0.766
 6478SOL    HW120333   4.971   6.277   0.779
 6478SOL    HW220334   4.848   6.363   0.842
 6479SOL     OW20335   4.399   6.246   2.304
 6479SOL    HW120336   4.355   6.313   2.245
 6479SOL    HW220337   4.350   6.241   2.391
 6480SOL     OW20338   2.822   1.751   0.803
 6480SOL    HW120339   2.724   1.765   0.792
 6480SOL    HW220340   2.868   1.767   0.715
 6481SOL     OW20341   4.370   0.745   1.425
 6481SOL    HW120342   4.365   0.833   1.473
 6481SOL    HW220343   4.412   0.677   1.485
 6482SOL     OW20344   0.040   0.824   7.008
 6482SOL    HW120345   0.119   0.859   0.036
 6482SOL    HW220346   0.067   0.795   6.916
 6483SOL     OW20347   2.062   6.427   2.257
 6483SOL    HW120348   2.119   6.368   2.200
 6483SOL    HW220349   2.120   6.483   2.316
 6484SOL     OW20350   5.398   5.886   3.418
 6484SOL    HW120351   5.464   5.946   3.464
 6484SOL    HW220352   5.420   5.880   3.321
 6485SOL     OW20353   0.749   3.020   3.497
 6485SOL    HW120354   0.726   3.095   3.435
 6485SOL    HW220355   0.835   3.040   3.544
 6486SOL     OW20356   1.743   3.157   3.056
 6486SOL    HW120357   1.659   3.186   3.009
 6486SOL    HW220358   1.751   3.057   3.050
 6487SOL     OW20359   5.983   5.662   3.043
 6487SOL    HW120360   5.968   5.745   3.097
 6487SOL    HW220361   6.024   5.592   3.102
 6488SOL     OW20362   3.509   5.108   6.155
 6488SOL    HW120363   3.424   5.157   6.134
 6488SOL    HW220364   3.555   5.083   6.069
 6489SOL     OW20365   2.276   2.216   5.359
 6489SOL    HW120366   2.291   2.241   5.454
 6489SOL    HW220367   2.363   2.197   5.314
 6490SOL     OW20368   3.662   1.258   0.427
 6490SOL    HW120369   3.747   1.270   0.374
 6490SOL    HW220370   3.613   1.177   0.393
 6491SOL     OW20371   3.692   1.590   6.314
 6491SOL    HW120372   3.729   1.498   6.331
 6491SOL    HW220373   3.647   1.591   6.224
 6492SOL     OW20374   5.745   5.655   6.420
 6492SOL    HW120375   5.692   5.740   6.410
 6492SOL    HW220376   5.843   5.677   6.415
 6493SOL     OW20377   1.189   6.176   5.641
 6493SOL    HW120378   1.247   6.250   5.676
 6493SOL    HW220379   1.168   6.113   5.715
 6494SOL     OW20380   1.374   0.293   3.467
 6494SOL    HW120381   1.355   0.386   3.435
 6494SOL    HW220382   1.356   0.229   3.392
 6495SOL     OW20383   4.894   5.482   2.348
 6495SOL    HW120384   4.893   5.383   2.333
 6495SOL    HW220385   4.917   5.529   2.262
 6496SOL     OW20386   1.720   6.973   3.243
 6496SOL    HW120387   1.812   6.935   3.253
 6496SOL    HW220388   1.675   6.930   3.164
 6497SOL     OW20389   0.302   5.498   0.099
 6497SOL    HW120390   0.224   5.500   0.037
 6497SOL    HW220391   0.272   5.465   0.189
 6498SOL     OW20392   1.587   4.171   3.645
 6498SOL    HW120393   1.593   4.108   3.723
 6498SOL    HW220394   1.513   4.236   3.660
 6499SOL     OW20395   6.038   0.938   3.930
 6499SOL    HW120396   6.037   1.035   3.953
 6499SOL    HW220397   6.023   0.884   4.013
 6500SOL     OW20398   5.493   4.861   3.763
 6500SOL    HW120399   5.515   4.788   3.698
 6500SOL    HW220400   5.516   4.950   3.724
 6501SOL     OW20401   7.018   3.547   0.770
 6501SOL    HW120402   6.968   3.462   0.752
 6501SOL    HW220403   0.059   3.532   0.847
 6502SOL     OW20404   1.136   4.527   2.365
 6502SOL    HW120405   1.051   4.527   2.418
 6502SOL    HW220406   1.167   4.622   2.351
 6503SOL     OW20407   4.433   0.485   4.634
 6503SOL    HW120408   4.472   0.398   4.666
 6503SOL    HW220409   4.432   0.551   4.709
 6504SOL     OW20410   2.103   1.351   0.779
 6504SOL    HW120411   2.141   1.260   0.764
 6504SOL    HW220412   2.175   1.419   0.770
 6505SOL     OW20413   5.624   5.420   1.049
 6505SOL    HW120414   5.641   5.504   0.998
 6505SOL    HW220415   5.546   5.434   1.111
 6506SOL     OW20416   1.803   2.013   0.936
 6506SOL    HW120417   1.718   2.048   0.897
 6506SOL    HW220418   1.880   2.036   0.876
 6507SOL     OW20419   2.802   0.973   2.173
 6507SOL    HW120420   2.844   0.907   2.235
 6507SOL    HW220421   2.778   1.056   2.225
 6508SOL     OW20422   2.337   1.485   2.130
 6508SOL    HW120423   2.375   1.547   2.200
 6508SOL    HW220424   2.238   1.478   2.143
 6509SOL     OW20425   0.868   2.569   4.678
 6509SOL    HW120426   0.908   2.568   4.586
 6509SOL    HW220427   0.821   2.656   4.693
 6510SOL     OW20428   5.376   4.991   6.694
 6510SOL    HW120429   5.383   5.088   6.667
 6510SOL    HW220430   5.310   4.946   6.634
 6511SOL     OW20431   6.265   6.105   5.516
 6511SOL    HW120432   6.334   6.093   5.444
 6511SOL    HW220433   6.235   6.015   5.548
 6512SOL     OW20434   5.308   6.724   4.124
 6512SOL    HW120435   5.341   6.716   4.030
 6512SOL    HW220436   5.224   6.670   4.135
 6513SOL     OW20437   2.823   6.673   2.746
 6513SOL    HW120438   2.876   6.754   2.722
 6513SOL    HW220439   2.727   6.688   2.724
 6514SOL     OW20440   3.376   6.790   3.631
 6514SOL    HW120441   3.465   6.775   3.672
 6514SOL    HW220442   3.323   6.854   3.687
 6515SOL     OW20443   0.833   1.231   4.467
 6515SOL    HW120444   0.925   1.261   4.446
 6515SOL    HW220445   0.835   1.173   4.548
 6516SOL     OW20446   1.689   1.405   5.627
 6516SOL    HW120447   1.599   1.414   5.583
 6516SOL    HW220448   1.684   1.440   5.720
 6517SOL     OW20449   1.462   2.075   0.077
 6517SOL    HW120450   1.400   2.007   0.037
 6517SOL    HW220451   1.544   2.083   0.020
 6518SOL     OW20452   5.833   6.462   0.281
 6518SOL    HW120453   5.801   6.459   0.376
 6518SOL    HW220454   5.821   6.555   0.245
 6519SOL     OW20455   2.070   1.708   3.501
 6519SOL    HW120456   2.154   1.665   3.535
 6519SOL    HW220457   2.000   1.637   3.486
 6520SOL     OW20458   5.809   5.086   1.873
 6520SOL    HW120459   5.801   5.032   1.789
 6520SOL    HW220460   5.905   5.089   1.901
 6521SOL     OW20461   1.300   1.970   5.724
 6521SOL    HW120462   1.283   2.031   5.648
 6521SOL    HW220463   1.398   1.969   5.746
 6522SOL     OW20464   2.744   5.198   5.077
 6522SOL    HW120465   2.666   5.257   5.055
 6522SOL    HW220466   2.721   5.103   5.054
 6523SOL     OW20467   1.667   2.441   6.987
 6523SOL    HW120468   1.646   2.481   0.054
 6523SOL    HW220469   1.649   2.343   6.989
 6524SOL     OW20470   3.273   4.110   4.407
 6524SOL    HW120471   3.258   4.024   4.357
 6524SOL    HW220472   3.235   4.102   4.499
 6525SOL     OW20473   0.680   2.696   4.397
 6525SOL    HW120474   0.722   2.724   4.311
 6525SOL    HW220475   0.580   2.700   4.389
 6526SOL     OW20476   1.779   6.116   4.250
 6526SOL    HW120477   1.716   6.101   4.326
 6526SOL    HW220478   1.734   6.176   4.182
 6527SOL     OW20479   2.297   0.756   4.383
 6527SOL    HW120480   2.271   0.798   4.296
 6527SOL    HW220481   2.244   0.797   4.457
 6528SOL     OW20482   6.705   6.706   3.374
 6528SOL    HW120483   6.616   6.749   3.362
 6528SOL    HW220484   6.770   6.772   3.413
 6529SOL     OW20485   6.559   2.489   1.573
 6529SOL    HW120486   6.523   2.552   1.642
 6529SOL    HW220487   6.625   2.427   1.616
 6530SOL     OW20488   6.611   2.212   0.552
 6530SOL    HW120489   6.519   2.228   0.586
 6530SOL    HW220490   6.674   2.276   0.596
 6531SOL     OW20491   5.378   2.754   4.161
 6531SOL    HW120492   5.379   2.714   4.252
 6531SOL    HW220493   5.393   2.853   4.167
 6532SOL     OW20494   1.211   2.513   6.673
 6532SOL    HW120495   1.218   2.488   6.576
 6532SOL    HW220496   1.289   2.476   6.723
 6533SOL     OW20497   4.490   1.213   1.067
 6533SOL    HW120498   4.406   1.173   1.102
 6533SOL    HW220499   4.530   1.272   1.138
 6534SOL     OW20500   2.043   3.255   0.470
 6534SOL    HW120501   2.138   3.225   0.460
 6534SOL    HW220502   2.032   3.345   0.427
 6535SOL     OW20503   2.235   3.510   5.700
 6535SOL    HW120504   2.237   3.605   5.668
 6535SOL    HW220505   2.322   3.465   5.679
 6536SOL     OW20506   6.887   2.474   6.980
 6536SOL    HW120507   6.814   2.519   6.928
 6536SOL    HW220508   6.873   2.490   0.056
 6537SOL     OW20509   0.623   0.101   6.925
 6537SOL    HW120510   0.576   0.189   6.912
 6537SOL    HW220511   0.681   0.107   7.007
 6538SOL     OW20512   1.875   3.097   6.277
 6538SOL    HW120513   1.826   3.158   6.214
 6538SOL    HW220514   1.900   3.013   6.229
 6539SOL     OW20515   2.533   1.480   6.486
 6539SOL    HW120516   2.489   1.471   6.397
 6539SOL    HW220517   2.463   1.474   6.558
 6540SOL     OW20518   3.131   1.460   4.089
 6540SOL    HW120519   3.136   1.560   4.083
 6540SOL    HW220520   3.164   1.420   4.003
 6541SOL     OW20521   2.662   2.639   5.435
 6541SOL    HW120522   2.691   2.584   5.356
 6541SOL    HW220523   2.580   2.691   5.411
 6542SOL     OW20524   5.669   4.508   3.502
 6542SOL    HW120525   5.609   4.471   3.431
 6542SOL    HW220526   5.757   4.460   3.499
 6543SOL     OW20527   0.140   5.770   6.503
 6543SOL    HW120528   0.170   5.803   6.413
 6543SOL    HW220529   0.219   5.764   6.564
 6544SOL     OW20530   6.305   5.964   3.734
 6544SOL    HW120531   6.316   5.981   3.636
 6544SOL    HW220532   6.209   5.945   3.754
 6545SOL     OW20533   5.354   2.806   6.073
 6545SOL    HW120534   5.396   2.716   6.059
 6545SOL    HW220535   5.414   2.877   6.036
 6546SOL     OW20536   3.478   4.790   5.921
 6546SOL    HW120537   3.550   4.743   5.871
 6546SOL    HW220538   3.444   4.732   5.995
 6547SOL     OW20539   5.259   1.660   6.494
 6547SOL    HW120540   5.244   1.561   6.502
 6547SOL    HW220541   5.175   1.704   6.463
 6548SOL     OW20542   6.155   4.425   5.133
 6548SOL    HW120543   6.094   4.504   5.128
 6548SOL    HW220544   6.249   4.456   5.148
 6549SOL     OW20545   3.176   1.470   1.873
 6549SOL    HW120546   3.216   1.561   1.885
 6549SOL    HW220547   3.177   1.421   1.960
 6550SOL     OW20548   0.966   5.589   3.671
 6550SOL    HW120549   0.947   5.684   3.644
 6550SOL    HW220550   1.053   5.560   3.630
 6551SOL     OW20551   2.522   4.893   2.096
 6551SOL    HW120552   2.578   4.975   2.085
 6551SOL    HW220553   2.540   4.830   2.020
 6552SOL     OW20554   4.303   5.177   6.548
 6552SOL    HW120555   4.387   5.181   6.494
 6552SOL    HW220556   4.325   5.167   6.645
 6553SOL     OW20557   0.033   2.888   2.745
 6553SOL    HW120558   0.131   2.879   2.730
 6553SOL    HW220559   0.010   2.861   2.838
 6554SOL     OW20560   0.122   3.429   5.124
 6554SOL    HW120561   0.071   3.497   5.072
 6554SOL    HW220562   0.094   3.337   5.095
 6555SOL     OW20563   0.666   1.354   2.114
 6555SOL    HW120564   0.570   1.331   2.129
 6555SOL    HW220565   0.718   1.272   2.094
 6556SOL     OW20566   3.321   0.478   4.129
 6556SOL    HW120567   3.349   0.423   4.050
 6556SOL    HW220568   3.333   0.424   4.213
 6557SOL     OW20569   5.914   6.222   1.344
 6557SOL    HW120570   5.986   6.239   1.412
 6557SOL    HW220571   5.868   6.136   1.365
 6558SOL     OW20572   6.592   5.932   6.432
 6558SOL    HW120573   6.692   5.944   6.428
 6558SOL    HW220574   6.570   5.853   6.489
 6559SOL     OW20575   3.195   3.227   0.914
 6559SOL    HW120576   3.237   3.149   0.962
 6559SOL    HW220577   3.106   3.199   0.878
 6560SOL     OW20578   3.662   1.888   0.570
 6560SOL    HW120579   3.672   1.954   0.496
 6560SOL    HW220580   3.718   1.808   0.552
 6561SOL     OW20581   3.875   4.088   4.379
 6561SOL    HW120582   3.778   4.096   4.402
 6561SOL    HW220583   3.917   4.179   4.378
 6562SOL     OW20584   5.900   3.315   5.493
 6562SOL    HW120585   5.883   3.316   5.395
 6562SOL    HW220586   5.980   3.371   5.514
 6563SOL     OW20587   1.536   5.243   2.653
 6563SOL    HW120588   1.502   5.273   2.564
 6563SOL    HW220589   1.502   5.151   2.672
 6564SOL     OW20590   0.988   6.167   2.991
 6564SOL    HW120591   0.961   6.144   3.084
 6564SOL    HW220592   0.978   6.265   2.977
 6565SOL     OW20593   6.514   3.436   5.051
 6565SOL    HW120594   6.514   3.483   4.963
 6565SOL    HW220595   6.604   3.395   5.066
 6566SOL     OW20596   3.652   6.909   0.677
 6566SOL    HW120597   3.689   6.861   0.757
 6566SOL    HW220598   3.667   7.007   0.686
 6567SOL     OW20599   6.279   2.849   1.547
 6567SOL    HW120600   6.282   2.840   1.646
 6567SOL    HW220601   6.373   2.857   1.512
 6568SOL     OW20602   4.069   4.102   1.391
 6568SOL    HW120603   4.028   4.159   1.463
 6568SOL    HW220604   4.169   4.105   1.399
 6569SOL     OW20605   0.829   5.012   6.550
 6569SOL    HW120606   0.773   5.019   6.632
 6569SOL    HW220607   0.859   4.917   6.539
 6570SOL     OW20608   5.850   3.026   1.434
 6570SOL    HW120609   5.949   3.037   1.437
 6570SOL    HW220610   5.819   3.026   1.339
 6571SOL     OW20611   2.875   6.272   3.887
 6571SOL    HW120612   2.881   6.191   3.945
 6571SOL    HW220613   2.929   6.346   3.927
 6572SOL     OW20614   1.118   3.752   6.766
 6572SOL    HW120615   1.134   3.831   6.708
 6572SOL    HW220616   1.019   3.737   6.775
 6573SOL     OW20617   1.881   2.372   2.131
 6573SOL    HW120618   1.881   2.406   2.226
 6573SOL    HW220619   1.947   2.425   2.078
 6574SOL     OW20620   2.025   4.849   3.397
 6574SOL    HW120621   2.013   4.938   3.441
 6574SOL    HW220622   2.012   4.859   3.298
 6575SOL     OW20623   1.610   1.068   2.449
 6575SOL    HW120624   1.533   1.054   2.511
 6575SOL    HW220625   1.677   1.128   2.493
 6576SOL     OW20626   1.372   6.328   4.556
 6576SOL    HW120627   1.455   6.274   4.539
 6576SOL    HW220628   1.368   6.353   4.653
 6577SOL     OW20629   6.604   2.412   4.507
 6577SOL    HW120630   6.523   2.465   4.534
 6577SOL    HW220631   6.670   2.472   4.462
 6578SOL     OW20632   6.728   5.239   3.133
 6578SOL    HW120633   6.676   5.179   3.073
 6578SOL    HW220634   6.665   5.286   3.195
 6579SOL     OW20635   0.705   3.851   2.533
 6579SOL    HW120636   0.605   3.846   2.528
 6579SOL    HW220637   0.738   3.793   2.607
 6580SOL     OW20638   6.147   2.393   1.588
 6580SOL    HW120639   6.164   2.469   1.526
 6580SOL    HW220640   6.106   2.317   1.537
 6581SOL     OW20641   2.076   2.146   5.183
 6581SOL    HW120642   2.129   2.104   5.110
 6581SOL    HW220643   2.138   2.180   5.254
 6582SOL     OW20644   6.993   0.231   2.278
 6582SOL    HW120645   7.017   0.138   2.252
 6582SOL    HW220646   6.947   0.276   2.201
 6583SOL     OW20647   5.022   2.045   5.366
 6583SOL    HW120648   5.097   2.037   5.300
 6583SOL    HW220649   5.042   1.988   5.446
 6584SOL     OW20650   5.051   1.815   6.956
 6584SOL    HW120651   5.022   1.729   6.914
 6584SOL    HW220652   4.977   1.851   7.012
 6585SOL     OW20653   2.171   1.067   0.719
 6585SOL    HW120654   2.091   1.014   0.693
 6585SOL    HW220655   2.214   1.026   0.800
 6586SOL     OW20656   0.017   1.773   0.141
 6586SOL    HW120657   7.000   1.811   0.226
 6586SOL    HW220658   6.973   1.787   0.067
 6587SOL     OW20659   2.046   6.881   2.514
 6587SOL    HW120660   2.085   6.951   2.572
 6587SOL    HW220661   1.990   6.923   2.443
 6588SOL     OW20662   2.408   2.730   0.233
 6588SOL    HW120663   2.344   2.792   0.188
 6588SOL    HW220664   2.471   2.783   0.290
 6589SOL     OW20665   5.327   1.639   5.574
 6589SOL    HW120666   5.360   1.660   5.666
 6589SOL    HW220667   5.233   1.670   5.564
 6590SOL     OW20668   6.463   1.026   5.365
 6590SOL    HW120669   6.489   0.931   5.381
 6590SOL    HW220670   6.378   1.047   5.414
 6591SOL     OW20671   5.701   1.098   2.819
 6591SOL    HW120672   5.749   1.038   2.756
 6591SOL    HW220673   5.765   1.133   2.887
 6592SOL     OW20674   5.550   5.598   4.755
 6592SOL    HW120675   5.602   5.642   4.682
 6592SOL    HW220676   5.468   5.555   4.717
 6593SOL     OW20677   4.307   0.504   2.831
 6593SOL    HW120678   4.397   0.547   2.832
 6593SOL    HW220679   4.287   0.469   2.739
 6594SOL     OW20680   5.451   0.810   6.438
 6594SOL    HW120681   5.471   0.902   6.474
 6594SOL    HW220682   5.471   0.807   6.340
 6595SOL     OW20683   1.677   3.430   0.797
 6595SOL    HW120684   1.722   3.428   0.886
 6595SOL    HW220685   1.701   3.514   0.749
 6596SOL     OW20686   3.559   6.761   4.921
 6596SOL    HW120687   3.608   6.674   4.935
 6596SOL    HW220688   3.480   6.745   4.862
 6597SOL     OW20689   6.485   4.620   6.526
 6597SOL    HW120690   6.521   4.549   6.586
 6597SOL    HW220691   6.515   4.603   6.432
 6598SOL     OW20692   2.028   5.565   5.321
 6598SOL    HW120693   2.114   5.583   5.274
 6598SOL    HW220694   1.972   5.648   5.323
 6599SOL     OW20695   4.584   3.781   5.847
 6599SOL    HW120696   4.591   3.816   5.753
 6599SOL    HW220697   4.649   3.831   5.905
 6600SOL     OW20698   4.222   5.928   4.272
 6600SOL    HW120699   4.274   5.984   4.207
 6600SOL    HW220700   4.130   5.912   4.236
 6601SOL     OW20701   1.137   0.359   1.262
 6601SOL    HW120702   1.054   0.394   1.218
 6601SOL    HW220703   1.111   0.296   1.336
 6602SOL     OW20704   6.310   1.289   1.750
 6602SOL    HW120705   6.387   1.227   1.733
 6602SOL    HW220706   6.319   1.369   1.690
 6603SOL     OW20707   2.165   2.353   2.777
 6603SOL    HW120708   2.076   2.317   2.807
 6603SOL    HW220709   2.183   2.325   2.683
 6604SOL     OW20710   3.956   5.812   3.094
 6604SOL    HW120711   4.024   5.881   3.119
 6604SOL    HW220712   4.001   5.725   3.076
 6605SOL     OW20713   5.983   6.570   7.009
 6605SOL    HW120714   5.893   6.602   0.019
 6605SOL    HW220715   5.971   6.489   6.952
 6606SOL     OW20716   6.222   1.221   2.571
 6606SOL    HW120717   6.233   1.249   2.476
 6606SOL    HW220718   6.277   1.139   2.588
 6607SOL     OW20719   1.406   2.081   3.585
 6607SOL    HW120720   1.479   2.087   3.653
 6607SOL    HW220721   1.343   2.008   3.611
 6608SOL     OW20722   5.539   3.808   4.790
 6608SOL    HW120723   5.613   3.828   4.855
 6608SOL    HW220724   5.484   3.733   4.826
 6609SOL     OW20725   5.564   1.505   6.701
 6609SOL    HW120726   5.627   1.570   6.744
 6609SOL    HW220727   5.513   1.458   6.773
 6610SOL     OW20728   2.886   1.131   0.504
 6610SOL    HW120729   2.952   1.117   0.430
 6610SOL    HW220730   2.929   1.180   0.579
 6611SOL     OW20731   5.476   3.290   2.979
 6611SOL    HW120732   5.510   3.207   2.936
 6611SOL    HW220733   5.419   3.340   2.914
 6612SOL     OW20734   0.951   5.875   6.054
 6612SOL    HW120735   0.854   5.851   6.047
 6612SOL    HW220736   1.003   5.793   6.075
 6613SOL     OW20737   5.173   5.032   1.249
 6613SOL    HW120738   5.246   5.070   1.306
 6613SOL    HW220739   5.130   4.955   1.296
 6614SOL     OW20740   5.033   5.696   6.105
 6614SOL    HW120741   5.044   5.598   6.085
 6614SOL    HW220742   4.962   5.707   6.175
 6615SOL     OW20743   1.100   4.477   5.676
 6615SOL    HW120744   1.191   4.503   5.643
 6615SOL    HW220745   1.082   4.382   5.652
 6616SOL     OW20746   4.840   0.426   4.803
 6616SOL    HW120747   4.839   0.514   4.754
 6616SOL    HW220748   4.909   0.366   4.763
 6617SOL     OW20749   4.824   0.027   5.249
 6617SOL    HW120750   4.742   0.082   5.269
 6617SOL    HW220751   4.807   6.992   5.169
 6618SOL     OW20752   0.650   4.868   1.353
 6618SOL    HW120753   0.748   4.876   1.370
 6618SOL    HW220754   0.602   4.858   1.440
 6619SOL     OW20755   6.493   6.387   1.818
 6619SOL    HW120756   6.490   6.298   1.863
 6619SOL    HW220757   6.405   6.404   1.772
 6620SOL     OW20758   3.858   3.262   5.829
 6620SOL    HW120759   3.915   3.286   5.907
 6620SOL    HW220760   3.827   3.168   5.838
 6621SOL     OW20761   2.932   3.698   0.150
 6621SOL    HW120762   2.911   3.631   0.079
 6621SOL    HW220763   3.003   3.760   0.117
 6622SOL     OW20764   6.162   6.765   0.413
 6622SOL    HW120765   6.097   6.690   0.399
 6622SOL    HW220766   6.126   6.848   0.371
 6623SOL     OW20767   3.432   3.706   2.595
 6623SOL    HW120768   3.400   3.793   2.631
 6623SOL    HW220769   3.517   3.720   2.545
 6624SOL     OW20770   4.674   5.437   4.024
 6624SOL    HW120771   4.620   5.512   3.984
 6624SOL    HW220772   4.739   5.475   4.089
 6625SOL     OW20773   5.505   0.201   6.989
 6625SOL    HW120774   5.510   0.206   6.889
 6625SOL    HW220775   5.513   0.106   7.018
 6626SOL     OW20776   3.177   5.316   3.381
 6626SOL    HW120777   3.134   5.403   3.355
 6626SOL    HW220778   3.111   5.242   3.372
 6627SOL     OW20779   1.958   6.224   1.982
 6627SOL    HW120780   1.886   6.234   2.051
 6627SOL    HW220781   2.042   6.192   2.027
 6628SOL     OW20782   4.106   6.269   3.257
 6628SOL    HW120783   4.201   6.293   3.272
 6628SOL    HW220784   4.092   6.171   3.276
 6629SOL     OW20785   3.571   3.844   0.431
 6629SOL    HW120786   3.570   3.807   0.339
 6629SOL    HW220787   3.529   3.778   0.494
 6630SOL     OW20788   2.745   1.948   5.606
 6630SOL    HW120789   2.791   1.869   5.565
 6630SOL    HW220790   2.775   2.031   5.559
 6631SOL     OW20791   3.766   0.523   2.020
 6631SOL    HW120792   3.799   0.430   2.039
 6631SOL    HW220793   3.791   0.548   1.927
 6632SOL     OW20794   6.974   2.604   2.552
 6632SOL    HW120795   0.045   2.599   2.592
 6632SOL    HW220796   6.929   2.688   2.582
 6633SOL     OW20797   0.445   6.943   1.025
 6633SOL    HW120798   0.397   6.952   1.112
 6633SOL    HW220799   0.540   6.916   1.043
 6634SOL     OW20800   0.063   2.887   5.888
 6634SOL    HW120801   0.071   2.788   5.878
 6634SOL    HW220802   0.134   2.933   5.835
 6635SOL     OW20803   4.280   4.629   2.836
 6635SOL    HW120804   4.308   4.607   2.742
 6635SOL    HW220805   4.314   4.720   2.860
 6636SOL     OW20806   1.516   2.568   4.003
 6636SOL    HW120807   1.520   2.470   4.024
 6636SOL    HW220808   1.518   2.581   3.904
 6637SOL     OW20809   6.634   1.320   1.485
 6637SOL    HW120810   6.576   1.249   1.526
 6637SOL    HW220811   6.630   1.314   1.386
 6638SOL     OW20812   2.477   6.473   6.136
 6638SOL    HW120813   2.455   6.391   6.187
 6638SOL    HW220814   2.495   6.450   6.041
 6639SOL     OW20815   5.357   5.660   6.800
 6639SOL    HW120816   5.435   5.673   6.738
 6639SOL    HW220817   5.345   5.562   6.817
 6640SOL     OW20818   5.620   2.764   3.671
 6640SOL    HW120819   5.559   2.688   3.652
 6640SOL    HW220820   5.714   2.738   3.648
 6641SOL     OW20821   2.246   4.364   6.853
 6641SOL    HW120822   2.226   4.446   6.907
 6641SOL    HW220823   2.161   4.329   6.812
 6642SOL     OW20824   6.996   6.899   0.349
 6642SOL    HW120825   6.974   6.977   0.408
 6642SOL    HW220826   6.913   6.870   0.300
 6643SOL     OW20827   4.223   5.910   6.945
 6643SOL    HW120828   4.319   5.888   6.928
 6643SOL    HW220829   4.169   5.893   6.863
 6644SOL     OW20830   2.391   4.550   2.297
 6644SOL    HW120831   2.326   4.617   2.261
 6644SOL    HW220832   2.478   4.560   2.249
 6645SOL     OW20833   6.736   4.756   4.891
 6645SOL    HW120834   6.729   4.770   4.792
 6645SOL    HW220835   6.708   4.839   4.938
 6646SOL     OW20836   1.740   6.456   3.528
 6646SOL    HW120837   1.774   6.367   3.561
 6646SOL    HW220838   1.741   6.522   3.603
 6647SOL     OW20839   3.735   1.872   2.115
 6647SOL    HW120840   3.764   1.944   2.179
 6647SOL    HW220841   3.769   1.893   2.024
 6648SOL     OW20842   4.816   6.038   2.021
 6648SOL    HW120843   4.771   6.007   2.105
 6648SOL    HW220844   4.824   5.962   1.957
 6649SOL     OW20845   3.673   2.266   6.338
 6649SOL    HW120846   3.613   2.246   6.260
 6649SOL    HW220847   3.673   2.364   6.357
 6650SOL     OW20848   2.958   2.170   3.227
 6650SOL    HW120849   3.056   2.186   3.241
 6650SOL    HW220850   2.907   2.249   3.260
 6651SOL     OW20851   1.232   2.667   0.112
 6651SOL    HW120852   1.289   2.694   0.034
 6651SOL    HW220853   1.273   2.589   0.158
 6652SOL     OW20854   0.647   5.516   3.415
 6652SOL    HW120855   0.739   5.499   3.379
 6652SOL    HW220856   0.650   5.593   3.479
 6653SOL     OW20857   3.241   3.471   3.298
 6653SOL    HW120858   3.209   3.469   3.203
 6653SOL    HW220859   3.340   3.460   3.300
 6654SOL     OW20860   2.202   3.343   1.676
 6654SOL    HW120861   2.133   3.411   1.652
 6654SOL    HW220862   2.262   3.381   1.747
 6655SOL     OW20863   2.334   0.350   0.835
 6655SOL    HW120864   2.303   0.355   0.930
 6655SOL    HW220865   2.258   0.323   0.776
 6656SOL     OW20866   6.370   2.328   1.208
 6656SOL    HW120867   6.288   2.293   1.252
 6656SOL    HW220868   6.406   2.260   1.144
 6657SOL     OW20869   2.907   5.173   6.010
 6657SOL    HW120870   2.992   5.145   5.965
 6657SOL    HW220871   2.927   5.205   6.103
 6658SOL     OW20872   5.202   0.251   5.896
 6658SOL    HW120873   5.127   0.263   5.961
 6658SOL    HW220874   5.168   0.266   5.803
 6659SOL     OW20875   1.538   3.220   6.706
 6659SOL    HW120876   1.486   3.289   6.757
 6659SOL    HW220877   1.530   3.132   6.751
 6660SOL     OW20878   0.149   0.165   3.070
 6660SOL    HW120879   0.160   0.113   3.154
 6660SOL    HW220880   0.233   0.161   3.016
 6661SOL     OW20881   0.240   5.774   3.417
 6661SOL    HW120882   0.154   5.730   3.389
 6661SOL    HW220883   0.310   5.756   3.348
 6662SOL     OW20884   0.986   3.826   6.142
 6662SOL    HW120885   0.890   3.851   6.154
 6662SOL    HW220886   0.995   3.765   6.063
 6663SOL     OW20887   0.381   5.346   2.201
 6663SOL    HW120888   0.445   5.285   2.154
 6663SOL    HW220889   0.322   5.293   2.261
 6664SOL     OW20890   0.651   1.975   3.156
 6664SOL    HW120891   0.693   2.048   3.211
 6664SOL    HW220892   0.619   2.013   3.069
 6665SOL     OW20893   2.721   6.348   2.202
 6665SOL    HW120894   2.802   6.392   2.240
 6665SOL    HW220895   2.743   6.311   2.112
 6666SOL     OW20896   5.968   0.019   0.463
 6666SOL    HW120897   6.007   0.026   0.555
 6666SOL    HW220898   5.954   0.111   0.425
 6667SOL     OW20899   6.843   5.001   4.067
 6667SOL    HW120900   6.916   5.057   4.109
 6667SOL    HW220901   6.825   4.923   4.126
 6668SOL     OW20902   0.351   6.322   1.520
 6668SOL    HW120903   0.397   6.242   1.482
 6668SOL    HW220904   0.410   6.364   1.590
 6669SOL     OW20905   1.632   5.427   2.820
 6669SOL    HW120906   1.595   5.366   2.750
 6669SOL    HW220907   1.580   5.415   2.905
 6670SOL     OW20908   3.555   4.504   0.482
 6670SOL    HW120909   3.651   4.488   0.504
 6670SOL    HW220910   3.541   4.491   0.384
 6671SOL     OW20911   0.283   2.515   5.344
 6671SOL    HW120912   0.346   2.484   5.416
 6671SOL    HW220913   0.331   2.579   5.284
 6672SOL     OW20914   1.459   0.479   5.309
 6672SOL    HW120915   1.467   0.570   5.269
 6672SOL    HW220916   1.397   0.482   5.387
 6673SOL     OW20917   5.252   4.833   1.544
 6673SOL    HW120918   5.198   4.855   1.626
 6673SOL    HW220919   5.272   4.735   1.543
 6674SOL     OW20920   0.657   0.105   4.350
 6674SOL    HW120921   0.748   0.144   4.366
 6674SOL    HW220922   0.635   0.112   4.252
 6675SOL     OW20923   6.874   6.265   0.453
 6675SOL    HW120924   6.963   6.306   0.471
 6675SOL    HW220925   6.861   6.253   0.355
 6676SOL     OW20926   1.098   2.109   6.847
 6676SOL    HW120927   1.062   2.126   6.756
 6676SOL    HW220928   1.179   2.165   6.862
 6677SOL     OW20929   6.490   3.897   0.066
 6677SOL    HW120930   6.587   3.920   0.063
 6677SOL    HW220931   6.472   3.840   0.146
 6678SOL     OW20932   1.104   2.892   4.825
 6678SOL    HW120933   1.017   2.900   4.875
 6678SOL    HW220934   1.152   2.809   4.855
 6679SOL     OW20935   1.897   1.736   4.128
 6679SOL    HW120936   1.988   1.768   4.105
 6679SOL    HW220937   1.845   1.810   4.170
 6680SOL     OW20938   2.213   6.540   6.080
 6680SOL    HW120939   2.304   6.524   6.119
 6680SOL    HW220940   2.218   6.536   5.980
 6681SOL     OW20941   5.841   5.522   0.046
 6681SOL    HW120942   5.840   5.427   0.079
 6681SOL    HW220943   5.936   5.551   0.030
 6682SOL     OW20944   6.866   5.930   2.828
 6682SOL    HW120945   6.932   5.977   2.769
 6682SOL    HW220946   6.805   5.874   2.772
 6683SOL     OW20947   5.100   1.749   4.156
 6683SOL    HW120948   5.123   1.833   4.108
 6683SOL    HW220949   5.153   1.744   4.241
 6684SOL     OW20950   2.117   0.567   2.030
 6684SOL    HW120951   2.172   0.601   2.106
 6684SOL    HW220952   2.166   0.582   1.944
 6685SOL     OW20953   5.281   3.715   6.243
 6685SOL    HW120954   5.376   3.744   6.244
 6685SOL    HW220955   5.265   3.653   6.166
 6686SOL     OW20956   5.418   4.232   3.991
 6686SOL    HW120957   5.405   4.189   3.902
 6686SOL    HW220958   5.355   4.310   4.000
 6687SOL     OW20959   0.966   1.339   0.028
 6687SOL    HW120960   1.053   1.385   0.012
 6687SOL    HW220961   0.967   1.296   0.118
 6688SOL     OW20962   0.615   5.114   3.484
 6688SOL    HW120963   0.535   5.167   3.512
 6688SOL    HW220964   0.668   5.088   3.565
 6689SOL     OW20965   4.552   5.097   0.183
 6689SOL    HW120966   4.479   5.161   0.158
 6689SOL    HW220967   4.515   5.028   0.245
 6690SOL     OW20968   1.302   1.949   0.715
 6690SOL    HW120969   1.340   1.988   0.631
 6690SOL    HW220970   1.235   2.013   0.754
 6691SOL     OW20971   1.660   5.415   1.213
 6691SOL    HW120972   1.599   5.485   1.175
 6691SOL    HW220973   1.645   5.329   1.165
 6692SOL     OW20974   3.385   4.025   5.998
 6692SOL    HW120975   3.483   4.045   5.997
 6692SOL    HW220976   3.357   3.994   5.907
 6693SOL     OW20977   3.535   4.210   4.815
 6693SOL    HW120978   3.465   4.277   4.838
 6693SOL    HW220979   3.495   4.137   4.760
 6694SOL     OW20980   2.896   6.083   0.349
 6694SOL    HW120981   2.870   6.030   0.268
 6694SOL    HW220982   2.972   6.038   0.395
 6695SOL     OW20983   1.383   1.660   6.723
 6695SOL    HW120984   1.363   1.724   6.649
 6695SOL    HW220985   1.371   1.566   6.689
 6696SOL     OW20986   2.043   3.311   2.170
 6696SOL    HW120987   2.106   3.361   2.110
 6696SOL    HW220988   2.071   3.215   2.175
 6697SOL     OW20989   5.594   1.836   3.350
 6697SOL    HW120990   5.498   1.848   3.373
 6697SOL    HW220991   5.602   1.799   3.257
 6698SOL     OW20992   3.835   4.046   0.606
 6698SOL    HW120993   3.834   3.947   0.613
 6698SOL    HW220994   3.821   4.073   0.510
 6699SOL     OW20995   1.483   3.530   6.907
 6699SOL    HW120996   1.412   3.462   6.890
 6699SOL    HW220997   1.455   3.617   6.866
 6700SOL     OW20998   6.233   6.495   6.595
 6700SOL    HW120999   6.186   6.576   6.631
 6700SOL    HW221000   6.262   6.512   6.501
 6701SOL     OW21001   0.691   2.228   0.889
 6701SOL    HW121002   0.643   2.309   0.923
 6701SOL    HW221003   0.626   2.155   0.869
 6702SOL     OW21004   1.795   2.984   1.234
 6702SOL    HW121005   1.807   3.066   1.289
 6702SOL    HW221006   1.741   2.917   1.285
 6703SOL     OW21007   0.366   2.443   6.890
 6703SOL    HW121008   0.435   2.417   6.958
 6703SOL    HW221009   0.289   2.488   6.936
 6704SOL     OW21010   5.287   1.860   3.489
 6704SOL    HW121011   5.210   1.913   3.453
 6704SOL    HW221012   5.283   1.766   3.455
 6705SOL     OW21013   6.370   1.229   0.565
 6705SOL    HW121014   6.292   1.173   0.593
 6705SOL    HW221015   6.455   1.185   0.592
 6706SOL     OW21016   0.644   5.063   6.776
 6706SOL    HW121017   0.650   5.147   6.830
 6706SOL    HW221018   0.622   4.986   6.835
 6707SOL     OW21019   1.162   6.008   2.308
 6707SOL    HW121020   1.213   5.938   2.258
 6707SOL    HW221021   1.190   6.008   2.404
 6708SOL     OW21022   2.798   5.821   1.371
 6708SOL    HW121023   2.838   5.861   1.453
 6708SOL    HW221024   2.754   5.734   1.394
 6709SOL     OW21025   5.876   1.341   2.760
 6709SOL    HW121026   5.925   1.411   2.709
 6709SOL    HW221027   5.812   1.384   2.824
 6710SOL     OW21028   2.128   2.020   1.472
 6710SOL    HW121029   2.191   1.963   1.524
 6710SOL    HW221030   2.056   2.053   1.532
 6711SOL     OW21031   3.861   3.651   0.447
 6711SOL    HW121032   3.890   3.558   0.470
 6711SOL    HW221033   3.762   3.658   0.450
 6712SOL     OW21034   3.444   6.321   1.142
 6712SOL    HW121035   3.400   6.387   1.081
 6712SOL    HW221036   3.442   6.230   1.100
 6713SOL     OW21037   1.807   1.471   2.195
 6713SOL    HW121038   1.801   1.375   2.221
 6713SOL    HW221039   1.797   1.528   2.277
 6714SOL     OW21040   6.599   0.324   3.367
 6714SOL    HW121041   6.658   0.252   3.329
 6714SOL    HW221042   6.647   0.411   3.366
 6715SOL     OW21043   7.012   1.918   0.934
 6715SOL    HW121044   7.006   2.002   0.881
 6715SOL    HW221045   0.029   1.937   1.024
 6716SOL     OW21046   2.659   5.580   0.281
 6716SOL    HW121047   2.680   5.482   0.273
 6716SOL    HW221048   2.588   5.593   0.349
 6717SOL     OW21049   3.672   1.634   6.603
 6717SOL    HW121050   3.696   1.629   6.506
 6717SOL    HW221051   3.747   1.678   6.653
 6718SOL     OW21052   3.407   6.855   6.841
 6718SOL    HW121053   3.427   6.838   6.937
 6718SOL    HW221054   3.390   6.769   6.794
 6719SOL     OW21055   0.275   0.532   5.258
 6719SOL    HW121056   0.232   0.442   5.253
 6719SOL    HW221057   0.370   0.525   5.226
 6720SOL     OW21058   1.657   4.836   1.742
 6720SOL    HW121059   1.557   4.835   1.733
 6720SOL    HW221060   1.699   4.863   1.656
 6721SOL     OW21061   6.180   6.169   3.373
 6721SOL    HW121062   6.228   6.113   3.441
 6721SOL    HW221063   6.246   6.227   3.326
 6722SOL     OW21064   4.813   4.314   6.629
 6722SOL    HW121065   4.823   4.301   6.530
 6722SOL    HW221066   4.858   4.238   6.676
 6723SOL     OW21067   4.420   0.177   2.823
 6723SOL    HW121068   4.348   0.222   2.769
 6723SOL    HW221069   4.401   0.079   2.827
 6724SOL     OW21070   3.318   4.860   5.500
 6724SOL    HW121071   3.267   4.906   5.572
 6724SOL    HW221072   3.259   4.849   5.420
 6725SOL     OW21073   0.235   4.863   2.102
 6725SOL    HW121074   0.146   4.899   2.075
 6725SOL    HW221075   0.223   4.775   2.149
 6726SOL     OW21076   2.540   2.456   1.911
 6726SOL    HW121077   2.496   2.442   1.822
 6726SOL    HW221078   2.487   2.522   1.964
 6727SOL     OW21079   3.942   3.822   0.119
 6727SOL    HW121080   4.039   3.803   0.102
 6727SOL    HW221081   3.904   3.872   0.041
 6728SOL     OW21082   4.475   1.565   4.074
 6728SOL    HW121083   4.534   1.510   4.134
 6728SOL    HW221084   4.528   1.602   3.999
 6729SOL     OW21085   5.599   6.316   2.634
 6729SOL    HW121086   5.541   6.278   2.705
 6729SOL    HW221087   5.605   6.252   2.557
 6730SOL     OW21088   1.079   0.198   1.470
 6730SOL    HW121089   1.164   0.205   1.522
 6730SOL    HW221090   1.025   0.121   1.503
 6731SOL     OW21091   2.268   4.395   1.968
 6731SOL    HW121092   2.286   4.302   2.002
 6731SOL    HW221093   2.272   4.459   2.045
 6732SOL     OW21094   1.627   4.845   0.959
 6732SOL    HW121095   1.645   4.849   1.058
 6732SOL    HW221096   1.659   4.929   0.916
 6733SOL     OW21097   5.568   5.575   5.030
 6733SOL    HW121098   5.560   5.591   4.931
 6733SOL    HW221099   5.563   5.661   5.079
 6734SOL     OW21100   2.758   3.580   5.605
 6734SOL    HW121101   2.719   3.666   5.572
 6734SOL    HW221102   2.688   3.509   5.607
 6735SOL     OW21103   6.818   5.308   6.401
 6735SOL    HW121104   6.841   5.406   6.395
 6735SOL    HW221105   6.813   5.270   6.308
 6736SOL     OW21106   2.095   3.552   2.799
 6736SOL    HW121107   2.109   3.591   2.890
 6736SOL    HW221108   2.129   3.458   2.797
 6737SOL     OW21109   2.121   0.207   1.348
 6737SOL    HW121110   2.173   0.286   1.318
 6737SOL    HW221111   2.087   0.222   1.441
 6738SOL     OW21112   3.975   1.601   2.031
 6738SOL    HW121113   4.033   1.682   2.045
 6738SOL    HW221114   3.935   1.606   1.939
 6739SOL     OW21115   4.661   0.580   5.107
 6739SOL    HW121116   4.754   0.617   5.098
 6739SOL    HW221117   4.663   0.481   5.096
 6740SOL     OW21118   6.134   3.183   4.704
 6740SOL    HW121119   6.068   3.191   4.778
 6740SOL    HW221120   6.128   3.264   4.645
 6741SOL     OW21121   6.893   6.872   5.493
 6741SOL    HW121122   6.916   6.789   5.544
 6741SOL    HW221123   6.823   6.923   5.544
 6742SOL     OW21124   6.232   5.916   5.184
 6742SOL    HW121125   6.239   5.827   5.228
 6742SOL    HW221126   6.168   5.974   5.235
 6743SOL     OW21127   5.252   2.627   0.855
 6743SOL    HW121128   5.168   2.576   0.874
 6743SOL    HW221129   5.299   2.645   0.942
 6744SOL     OW21130   5.321   5.356   5.332
 6744SOL    HW121131   5.323   5.375   5.234
 6744SOL    HW221132   5.415   5.340   5.364
 6745SOL     OW21133   0.550   3.736   3.449
 6745SOL    HW121134   0.506   3.735   3.539
 6745SOL    HW221135   0.480   3.738   3.378
 6746SOL     OW21136   0.129   0.852   1.141
 6746SOL    HW121137   0.202   0.909   1.104
 6746SOL    HW221138   0.087   0.898   1.219
 6747SOL     OW21139   5.207   6.504   6.475
 6747SOL    HW121140   5.260   6.501   6.560
 6747SOL    HW221141   5.158   6.591   6.469
 6748SOL     OW21142   0.202   6.606   1.827
 6748SOL    HW121143   0.158   6.522   1.797
 6748SOL    HW221144   0.288   6.585   1.875
 6749SOL     OW21145   3.706   6.062   1.051
 6749SOL    HW121146   3.611   6.084   1.074
 6749SOL    HW221147   3.712   6.042   0.953
 6750SOL     OW21148   2.447   3.108   5.420
 6750SOL    HW121149   2.467   3.205   5.432
 6750SOL    HW221150   2.471   3.080   5.327
 6751SOL     OW21151   3.072   1.894   5.650
 6751SOL    HW121152   3.043   1.906   5.555
 6751SOL    HW221153   3.103   1.981   5.687
 6752SOL     OW21154   6.084   1.650   0.479
 6752SOL    HW121155   6.165   1.601   0.511
 6752SOL    HW221156   6.007   1.587   0.472
 6753SOL     OW21157   5.735   1.392   6.014
 6753SOL    HW121158   5.790   1.309   6.013
 6753SOL    HW221159   5.638   1.368   6.027
 6754SOL     OW21160   4.792   1.499   0.146
 6754SOL    HW121161   4.765   1.594   0.129
 6754SOL    HW221162   4.716   1.438   0.123
 6755SOL     OW21163   5.126   1.448   3.672
 6755SOL    HW121164   5.085   1.416   3.587
 6755SOL    HW221165   5.061   1.435   3.748
 6756SOL     OW21166   4.842   4.687   3.408
 6756SOL    HW121167   4.793   4.748   3.469
 6756SOL    HW221168   4.891   4.740   3.339
 6757SOL     OW21169   5.887   4.663   1.881
 6757SOL    HW121170   5.821   4.607   1.832
 6757SOL    HW221171   5.950   4.706   1.816
 6758SOL     OW21172   6.123   1.618   2.931
 6758SOL    HW121173   6.123   1.540   2.868
 6758SOL    HW221174   6.032   1.629   2.970
 6759SOL     OW21175   1.315   4.313   3.471
 6759SOL    HW121176   1.414   4.330   3.480
 6759SOL    HW221177   1.299   4.241   3.404
 6760SOL     OW21178   0.499   4.506   5.367
 6760SOL    HW121179   0.408   4.548   5.372
 6760SOL    HW221180   0.523   4.491   5.271
 6761SOL     OW21181   6.094   3.495   6.550
 6761SOL    HW121182   6.064   3.400   6.543
 6761SOL    HW221183   6.132   3.512   6.641
 6762SOL     OW21184   5.929   4.298   3.178
 6762SOL    HW121185   5.899   4.226   3.241
 6762SOL    HW221186   5.860   4.311   3.106
 6763SOL     OW21187   6.330   6.461   5.045
 6763SOL    HW121188   6.342   6.436   4.948
 6763SOL    HW221189   6.235   6.449   5.071
 6764SOL     OW21190   1.852   3.236   0.042
 6764SOL    HW121191   1.818   3.327   0.019
 6764SOL    HW221192   1.815   3.208   0.131
 6765SOL     OW21193   5.019   5.037   2.408
 6765SOL    HW121194   4.977   5.119   2.368
 6765SOL    HW221195   5.077   5.063   2.485
 6766SOL     OW21196   1.394   1.674   5.513
 6766SOL    HW121197   1.458   1.750   5.519
 6766SOL    HW221198   1.442   1.592   5.482
 6767SOL     OW21199   0.749   2.858   5.505
 6767SOL    HW121200   0.796   2.935   5.462
 6767SOL    HW221201   0.737   2.785   5.439
 6768SOL     OW21202   7.000   0.568   5.802
 6768SOL    HW121203   7.001   0.495   5.734
 6768SOL    HW221204   6.941   0.542   5.878
 6769SOL     OW21205   0.822   2.270   6.866
 6769SOL    HW121206   0.864   2.361   6.863
 6769SOL    HW221207   0.893   2.201   6.878
 6770SOL     OW21208   6.647   1.240   4.530
 6770SOL    HW121209   6.730   1.290   4.557
 6770SOL    HW221210   6.673   1.159   4.477
 6771SOL     OW21211   4.946   1.890   2.331
 6771SOL    HW121212   4.993   1.837   2.401
 6771SOL    HW221213   4.848   1.874   2.337
 6772SOL     OW21214   1.316   0.925   1.563
 6772SOL    HW121215   1.275   1.013   1.587
 6772SOL    HW221216   1.409   0.920   1.601
 6773SOL     OW21217   1.278   0.022   2.103
 6773SOL    HW121218   1.303   0.019   2.200
 6773SOL    HW221219   1.196   0.078   2.091
 6774SOL     OW21220   3.213   1.085   5.901
 6774SOL    HW121221   3.248   1.174   5.930
 6774SOL    HW221222   3.122   1.096   5.861
 6775SOL     OW21223   1.557   3.318   4.819
 6775SOL    HW121224   1.583   3.322   4.915
 6775SOL    HW221225   1.458   3.329   4.811
 6776SOL     OW21226   3.007   3.824   3.533
 6776SOL    HW121227   2.966   3.748   3.483
 6776SOL    HW221228   2.977   3.911   3.493
 6777SOL     OW21229   0.749   6.942   6.267
 6777SOL    HW121230   0.838   6.898   6.278
 6777SOL    HW221231   0.692   6.922   6.346
 6778SOL     OW21232   6.430   6.196   2.277
 6778SOL    HW121233   6.512   6.175   2.223
 6778SOL    HW221234   6.368   6.118   2.276
 6779SOL     OW21235   4.330   4.500   6.661
 6779SOL    HW121236   4.384   4.422   6.630
 6779SOL    HW221237   4.252   4.513   6.601
 6780SOL     OW21238   3.941   0.624   2.790
 6780SOL    HW121239   3.972   0.549   2.848
 6780SOL    HW221240   4.006   0.639   2.716
 6781SOL     OW21241   6.637   3.184   3.264
 6781SOL    HW121242   6.690   3.267   3.283
 6781SOL    HW221243   6.623   3.134   3.350
 6782SOL     OW21244   0.455   1.656   3.533
 6782SOL    HW121245   0.416   1.680   3.444
 6782SOL    HW221246   0.395   1.590   3.578
 6783SOL     OW21247   0.644   6.263   6.030
 6783SOL    HW121248   0.621   6.335   6.094
 6783SOL    HW221249   0.712   6.296   5.964
 6784SOL     OW21250   1.669   4.599   0.878
 6784SOL    HW121251   1.743   4.556   0.930
 6784SOL    HW221252   1.655   4.692   0.912
 6785SOL     OW21253   5.537   4.928   2.753
 6785SOL    HW121254   5.589   4.887   2.678
 6785SOL    HW221255   5.588   4.917   2.838
 6786SOL     OW21256   6.331   2.049   5.467
 6786SOL    HW121257   6.293   1.964   5.502
 6786SOL    HW221258   6.420   2.031   5.424
 6787SOL     OW21259   3.019   1.259   0.706
 6787SOL    HW121260   2.946   1.278   0.773
 6787SOL    HW221261   3.037   1.342   0.653
 6788SOL     OW21262   0.802   4.403   1.281
 6788SOL    HW121263   0.752   4.361   1.357
 6788SOL    HW221264   0.889   4.357   1.269
 6789SOL     OW21265   5.688   4.481   2.534
 6789SOL    HW121266   5.608   4.538   2.550
 6789SOL    HW221267   5.680   4.435   2.445
 6790SOL     OW21268   0.869   6.158   0.722
 6790SOL    HW121269   0.878   6.223   0.647
 6790SOL    HW221270   0.960   6.128   0.752
 6791SOL     OW21271   2.941   6.087   4.101
 6791SOL    HW121272   2.951   5.988   4.093
 6791SOL    HW221273   2.859   6.108   4.155
 6792SOL     OW21274   3.359   6.089   6.641
 6792SOL    HW121275   3.451   6.128   6.643
 6792SOL    HW221276   3.364   5.990   6.650
 6793SOL     OW21277   2.520   3.840   6.378
 6793SOL    HW121278   2.572   3.851   6.463
 6793SOL    HW221279   2.429   3.879   6.389
 6794SOL     OW21280   5.250   2.613   4.598
 6794SOL    HW121281   5.269   2.530   4.650
 6794SOL    HW221282   5.286   2.692   4.647
 6795SOL     OW21283   0.476   0.150   1.390
 6795SOL    HW121284   0.528   0.177   1.310
 6795SOL    HW221285   0.477   0.225   1.457
 6796SOL     OW21286   6.796   2.420   2.667
 6796SOL    HW121287   6.822   2.416   2.763
 6796SOL    HW221288   6.839   2.500   2.624
 6797SOL     OW21289   2.022   3.265   1.133
 6797SOL    HW121290   2.031   3.365   1.129
 6797SOL    HW221291   1.957   3.240   1.204
 6798SOL     OW21292   5.030   1.096   1.792
 6798SOL    HW121293   4.946   1.149   1.794
 6798SOL    HW221294   5.090   1.131   1.720
 6799SOL     OW21295   6.248   6.901   2.856
 6799SOL    HW121296   6.240   6.855   2.768
 6799SOL    HW221297   6.341   6.938   2.866
 6800SOL     OW21298   0.148   3.163   2.173
 6800SOL    HW121299   0.124   3.089   2.110
 6800SOL    HW221300   0.076   3.232   2.173
 6801SOL     OW21301   1.294   5.303   5.828
 6801SOL    HW121302   1.260   5.302   5.922
 6801SOL    HW221303   1.218   5.291   5.765
 6802SOL     OW21304   2.935   4.837   1.882
 6802SOL    HW121305   2.897   4.824   1.790
 6802SOL    HW221306   2.912   4.758   1.939
 6803SOL     OW21307   5.375   5.403   6.905
 6803SOL    HW121308   5.349   5.329   6.967
 6803SOL    HW221309   5.466   5.437   6.930
 6804SOL     OW21310   3.061   5.346   1.891
 6804SOL    HW121311   3.144   5.383   1.848
 6804SOL    HW221312   3.046   5.392   1.978
 6805SOL     OW21313   0.821   4.375   3.630
 6805SOL    HW121314   0.805   4.280   3.658
 6805SOL    HW221315   0.807   4.435   3.709
 6806SOL     OW21316   5.694   3.632   2.822
 6806SOL    HW121317   5.674   3.549   2.769
 6806SOL    HW221318   5.792   3.651   2.817
 6807SOL     OW21319   3.082   3.990   2.458
 6807SOL    HW121320   3.071   3.918   2.389
 6807SOL    HW221321   3.012   4.060   2.445
 6808SOL     OW21322   3.349   0.129   3.243
 6808SOL    HW121323   3.262   0.115   3.194
 6808SOL    HW221324   3.381   0.041   3.279
 6809SOL     OW21325   5.779   2.132   0.888
 6809SOL    HW121326   5.738   2.071   0.819
 6809SOL    HW221327   5.803   2.219   0.845
 6810SOL     OW21328   2.884   0.772   4.620
 6810SOL    HW121329   2.796   0.811   4.647
 6810SOL    HW221330   2.884   0.674   4.640
 6811SOL     OW21331   6.913   1.131   1.153
 6811SOL    HW121332   6.949   1.073   1.226
 6811SOL    HW221333   6.921   1.084   1.065
 6812SOL     OW21334   3.418   4.550   5.308
 6812SOL    HW121335   3.320   4.569   5.306
 6812SOL    HW221336   3.460   4.596   5.386
 6813SOL     OW21337   0.242   4.223   1.870
 6813SOL    HW121338   0.304   4.210   1.792
 6813SOL    HW221339   0.249   4.317   1.903
 6814SOL     OW21340   5.025   1.467   1.827
 6814SOL    HW121341   5.104   1.436   1.774
 6814SOL    HW221342   5.055   1.500   1.916
 6815SOL     OW21343   0.588   6.193   6.411
 6815SOL    HW121344   0.495   6.156   6.404
 6815SOL    HW221345   0.633   6.152   6.490
 6816SOL     OW21346   6.481   0.230   3.710
 6816SOL    HW121347   6.576   0.256   3.698
 6816SOL    HW221348   6.426   0.273   3.638
 6817SOL     OW21349   5.421   1.330   1.950
 6817SOL    HW121350   5.349   1.318   2.018
 6817SOL    HW221351   5.507   1.353   1.995
 6818SOL     OW21352   1.063   0.572   5.112
 6818SOL    HW121353   1.011   0.491   5.084
 6818SOL    HW221354   1.018   0.615   5.190
 6819SOL     OW21355   4.954   4.278   1.204
 6819SOL    HW121356   4.915   4.286   1.296
 6819SOL    HW221357   5.040   4.226   1.209
 6820SOL     OW21358   2.614   4.443   1.336
 6820SOL    HW121359   2.713   4.437   1.325
 6820SOL    HW221360   2.592   4.514   1.403
 6821SOL     OW21361   3.266   2.923   6.048
 6821SOL    HW121362   3.211   2.941   6.130
 6821SOL    HW221363   3.206   2.899   5.972
 6822SOL     OW21364   6.092   3.502   5.260
 6822SOL    HW121365   6.133   3.466   5.344
 6822SOL    HW221366   6.163   3.514   5.190
 6823SOL     OW21367   0.436   2.948   6.084
 6823SOL    HW121368   0.521   2.940   6.031
 6823SOL    HW221369   0.380   3.022   6.047
 6824SOL     OW21370   1.486   0.694   4.338
 6824SOL    HW121371   1.514   0.789   4.328
 6824SOL    HW221372   1.566   0.634   4.324
 6825SOL     OW21373   4.471   4.448   1.470
 6825SOL    HW121374   4.510   4.410   1.554
 6825SOL    HW221375   4.521   4.413   1.391
 6826SOL     OW21376   5.298   0.781   3.418
 6826SOL    HW121377   5.377   0.788   3.479
 6826SOL    HW221378   5.285   0.869   3.372
 6827SOL     OW21379   4.836   5.509   5.642
 6827SOL    HW121380   4.816   5.421   5.599
 6827SOL    HW221381   4.782   5.581   5.598
 6828SOL     OW21382   2.872   2.026   2.616
 6828SOL    HW121383   2.791   2.047   2.671
 6828SOL    HW221384   2.848   2.030   2.519
 6829SOL     OW21385   5.197   5.975   4.267
 6829SOL    HW121386   5.261   6.036   4.221
 6829SOL    HW221387   5.248   5.911   4.325
 6830SOL     OW21388   3.513   5.865   2.204
 6830SOL    HW121389   3.508   5.925   2.284
 6830SOL    HW221390   3.589   5.893   2.146
 6831SOL     OW21391   1.333   1.029   6.923
 6831SOL    HW121392   1.252   1.084   6.940
 6831SOL    HW221393   1.404   1.051   6.990
 6832SOL     OW21394   2.925   2.977   0.212
 6832SOL    HW121395   2.867   2.909   0.167
 6832SOL    HW221396   2.988   3.016   0.145
 6833SOL     OW21397   4.445   4.657   6.950
 6833SOL    HW121398   4.384   4.725   6.911
 6833SOL    HW221399   4.399   4.568   6.952
 6834SOL     OW21400   5.819   5.798   5.097
 6834SOL    HW121401   5.857   5.707   5.113
 6834SOL    HW221402   5.729   5.806   5.140
 6835SOL     OW21403   3.581   0.429   3.492
 6835SOL    HW121404   3.567   0.464   3.399
 6835SOL    HW221405   3.514   0.357   3.511
 6836SOL     OW21406   0.701   4.310   6.717
 6836SOL    HW121407   0.671   4.384   6.777
 6836SOL    HW221408   0.799   4.319   6.699
 6837SOL     OW21409   6.388   0.807   2.335
 6837SOL    HW121410   6.368   0.869   2.259
 6837SOL    HW221411   6.393   0.713   2.301
 6838SOL     OW21412   2.975   4.116   5.957
 6838SOL    HW121413   2.967   4.214   5.977
 6838SOL    HW221414   3.043   4.103   5.884
 6839SOL     OW21415   6.244   3.009   5.648
 6839SOL    HW121416   6.312   3.023   5.576
 6839SOL    HW221417   6.153   3.030   5.612
 6840SOL     OW21418   3.230   6.507   4.317
 6840SOL    HW121419   3.206   6.412   4.297
 6840SOL    HW221420   3.317   6.529   4.273
 6841SOL     OW21421   5.029   0.064   0.691
 6841SOL    HW121422   4.939   0.105   0.675
 6841SOL    HW221423   5.100   0.133   0.676
 6842SOL     OW21424   0.205   3.668   3.825
 6842SOL    HW121425   0.134   3.620   3.774
 6842SOL    HW221426   0.259   3.724   3.762
 6843SOL     OW21427   4.723   2.766   1.855
 6843SOL    HW121428   4.695   2.860   1.877
 6843SOL    HW221429   4.820   2.765   1.831
 6844SOL     OW21430   3.603   0.077   4.686
 6844SOL    HW121431   3.527   0.081   4.752
 6844SOL    HW221432   3.672   0.012   4.720
 6845SOL     OW21433   4.473   3.888   0.204
 6845SOL    HW121434   4.544   3.848   0.261
 6845SOL    HW221435   4.390   3.902   0.259
 6846SOL     OW21436   4.145   3.503   3.122
 6846SOL    HW121437   4.116   3.430   3.185
 6846SOL    HW221438   4.132   3.592   3.165
 6847SOL     OW21439   6.566   3.222   2.048
 6847SOL    HW121440   6.515   3.292   1.999
 6847SOL    HW221441   6.663   3.227   2.023
 6848SOL     OW21442   0.439   5.853   4.420
 6848SOL    HW121443   0.494   5.850   4.336
 6848SOL    HW221444   0.478   5.921   4.482
 6849SOL     OW21445   3.190   7.001   5.123
 6849SOL    HW121446   3.120   0.051   5.113
 6849SOL    HW221447   3.243   7.018   5.206
 6850SOL     OW21448   5.753   3.699   1.762
 6850SOL    HW121449   5.756   3.759   1.682
 6850SOL    HW221450   5.689   3.624   1.745
 6851SOL     OW21451   1.280   5.596   5.525
 6851SOL    HW121452   1.370   5.614   5.566
 6851SOL    HW221453   1.209   5.607   5.595
 6852SOL     OW21454   6.369   5.013   2.247
 6852SOL    HW121455   6.449   4.983   2.196
 6852SOL    HW221456   6.307   4.935   2.259
 6853SOL     OW21457   6.690   4.197   4.928
 6853SOL    HW121458   6.777   4.156   4.954
 6853SOL    HW221459   6.615   4.144   4.967
 6854SOL     OW21460   6.461   1.788   6.265
 6854SOL    HW121461   6.372   1.823   6.237
 6854SOL    HW221462   6.518   1.864   6.298
 6855SOL     OW21463   3.098   6.587   2.044
 6855SOL    HW121464   3.185   6.545   2.015
 6855SOL    HW221465   3.105   6.686   2.034
 6856SOL     OW21466   0.171   4.701   5.819
 6856SOL    HW121467   0.223   4.693   5.735
 6856SOL    HW221468   0.142   4.609   5.848
 6857SOL     OW21469   4.224   1.465   6.582
 6857SOL    HW121470   4.176   1.529   6.642
 6857SOL    HW221471   4.178   1.462   6.493
 6858SOL     OW21472   3.757   2.996   6.452
 6858SOL    HW121473   3.711   3.037   6.531
 6858SOL    HW221474   3.853   2.981   6.474
 6859SOL     OW21475   3.232   0.754   0.483
 6859SOL    HW121476   3.239   0.702   0.398
 6859SOL    HW221477   3.143   0.736   0.526
 6860SOL     OW21478   4.006   4.099   6.665
 6860SOL    HW121479   4.033   4.003   6.657
 6860SOL    HW221480   4.080   4.151   6.708
 6861SOL     OW21481   5.136   3.930   0.562
 6861SOL    HW121482   5.046   3.971   0.571
 6861SOL    HW221483   5.205   4.002   0.555
 6862SOL     OW21484   2.507   5.416   4.353
 6862SOL    HW121485   2.565   5.341   4.386
 6862SOL    HW221486   2.525   5.433   4.256
 6863SOL     OW21487   0.952   2.688   3.892
 6863SOL    HW121488   0.952   2.781   3.856
 6863SOL    HW221489   1.046   2.654   3.897
 6864SOL     OW21490   4.687   5.210   6.611
 6864SOL    HW121491   4.678   5.157   6.696
 6864SOL    HW221492   4.765   5.271   6.618
 6865SOL     OW21493   0.242   3.575   4.673
 6865SOL    HW121494   0.241   3.542   4.579
 6865SOL    HW221495   0.319   3.535   4.722
 6866SOL     OW21496   0.662   3.478   2.293
 6866SOL    HW121497   0.563   3.471   2.309
 6866SOL    HW221498   0.689   3.411   2.224
 6867SOL     OW21499   2.127   5.566   3.102
 6867SOL    HW121500   2.223   5.548   3.080
 6867SOL    HW221501   2.118   5.585   3.200
 6868SOL     OW21502   1.902   5.439   4.660
 6868SOL    HW121503   1.922   5.361   4.720
 6868SOL    HW221504   1.840   5.409   4.587
 6869SOL     OW21505   6.786   3.376   5.100
 6869SOL    HW121506   6.815   3.436   5.175
 6869SOL    HW221507   6.796   3.281   5.129
 6870SOL     OW21508   5.679   3.451   2.579
 6870SOL    HW121509   5.749   3.433   2.510
 6870SOL    HW221510   5.591   3.463   2.534
 6871SOL     OW21511   5.077   6.466   1.980
 6871SOL    HW121512   5.058   6.368   1.983
 6871SOL    HW221513   5.062   6.505   2.071
 6872SOL     OW21514   3.330   4.037   0.716
 6872SOL    HW121515   3.231   4.039   0.698
 6872SOL    HW221516   3.379   4.042   0.629
 6873SOL     OW21517   5.807   4.394   5.236
 6873SOL    HW121518   5.728   4.422   5.292
 6873SOL    HW221519   5.891   4.414   5.287
 6874SOL     OW21520   1.224   2.155   5.526
 6874SOL    HW121521   1.296   2.199   5.473
 6874SOL    HW221522   1.141   2.210   5.523
 6875SOL     OW21523   3.896   1.745   3.838
 6875SOL    HW121524   3.886   1.646   3.831
 6875SOL    HW221525   3.870   1.774   3.930
 6876SOL     OW21526   3.770   6.264   4.200
 6876SOL    HW121527   3.839   6.278   4.271
 6876SOL    HW221528   3.814   6.229   4.118
 6877SOL     OW21529   1.516   3.851   6.210
 6877SOL    HW121530   1.540   3.862   6.113
 6877SOL    HW221531   1.585   3.795   6.255
 6878SOL     OW21532   1.522   2.213   4.334
 6878SOL    HW121533   1.496   2.134   4.390
 6878SOL    HW221534   1.604   2.255   4.373
 6879SOL     OW21535   0.671   1.122   5.733
 6879SOL    HW121536   0.631   1.136   5.823
 6879SOL    HW221537   0.749   1.184   5.721
 6880SOL     OW21538   2.177   3.813   4.230
 6880SOL    HW121539   2.188   3.898   4.283
 6880SOL    HW221540   2.247   3.747   4.258
 6881SOL     OW21541   5.809   5.956   1.825
 6881SOL    HW121542   5.878   5.932   1.757
 6881SOL    HW221543   5.729   5.897   1.814
 6882SOL     OW21544   2.611   6.099   5.142
 6882SOL    HW121545   2.677   6.024   5.134
 6882SOL    HW221546   2.535   6.084   5.079
 6883SOL     OW21547   3.224   6.156   1.627
 6883SOL    HW121548   3.261   6.164   1.534
 6883SOL    HW221549   3.298   6.163   1.693
 6884SOL     OW21550   2.251   5.118   3.092
 6884SOL    HW121551   2.191   5.151   3.165
 6884SOL    HW221552   2.237   5.173   3.010
 6885SOL     OW21553   4.179   5.311   5.105
 6885SOL    HW121554   4.263   5.333   5.054
 6885SOL    HW221555   4.179   5.360   5.192
 6886SOL     OW21556   5.446   1.544   2.441
 6886SOL    HW121557   5.360   1.506   2.476
 6886SOL    HW221558   5.509   1.558   2.517
 6887SOL     OW21559   4.816   0.683   5.408
 6887SOL    HW121560   4.891   0.745   5.384
 6887SOL    HW221561   4.797   0.623   5.331
 6888SOL     OW21562   6.300   7.017   4.819
 6888SOL    HW121563   6.241   0.071   4.788
 6888SOL    HW221564   6.327   0.011   4.914
 6889SOL     OW21565   1.710   4.332   5.939
 6889SOL    HW121566   1.614   4.357   5.927
 6889SOL    HW221567   1.752   4.395   6.004
 6890SOL     OW21568   1.993   0.382   0.887
 6890SOL    HW121569   1.992   0.285   0.910
 6890SOL    HW221570   2.018   0.436   0.968
 6891SOL     OW21571   3.645   5.470   5.398
 6891SOL    HW121572   3.718   5.413   5.362
 6891SOL    HW221573   3.556   5.432   5.372
 6892SOL     OW21574   3.171   1.582   4.703
 6892SOL    HW121575   3.211   1.540   4.784
 6892SOL    HW221576   3.232   1.569   4.624
 6893SOL     OW21577   5.832   0.468   1.773
 6893SOL    HW121578   5.931   0.479   1.763
 6893SOL    HW221579   5.789   0.558   1.769
 6894SOL     OW21580   6.009   4.813   6.466
 6894SOL    HW121581   6.011   4.903   6.510
 6894SOL    HW221582   6.082   4.756   6.503
 6895SOL     OW21583   4.450   5.463   6.630
 6895SOL    HW121584   4.444   5.374   6.675
 6895SOL    HW221585   4.359   5.503   6.624
 6896SOL     OW21586   4.410   0.521   3.090
 6896SOL    HW121587   4.324   0.528   3.039
 6896SOL    HW221588   4.395   0.471   3.175
 6897SOL     OW21589   3.626   1.374   0.702
 6897SOL    HW121590   3.557   1.444   0.685
 6897SOL    HW221591   3.631   1.313   0.623
 6898SOL     OW21592   3.617   1.622   2.748
 6898SOL    HW121593   3.566   1.608   2.664
 6898SOL    HW221594   3.667   1.538   2.771
 6899SOL     OW21595   5.840   6.301   6.332
 6899SOL    HW121596   5.741   6.290   6.345
 6899SOL    HW221597   5.868   6.252   6.249
 6900SOL     OW21598   4.107   1.493   5.847
 6900SOL    HW121599   4.205   1.506   5.862
 6900SOL    HW221600   4.093   1.415   5.786
 6901SOL     OW21601   1.312   0.940   0.433
 6901SOL    HW121602   1.227   0.896   0.463
 6901SOL    HW221603   1.380   0.935   0.506
 6902SOL     OW21604   6.524   5.365   2.103
 6902SOL    HW121605   6.609   5.386   2.056
 6902SOL    HW221606   6.539   5.367   2.202
 6903SOL     OW21607   3.951   4.735   0.682
 6903SOL    HW121608   4.023   4.778   0.738
 6903SOL    HW221609   3.897   4.673   0.740
 6904SOL     OW21610   1.130   1.713   3.011
 6904SOL    HW121611   1.143   1.615   2.999
 6904SOL    HW221612   1.039   1.731   3.046
 6905SOL     OW21613   4.098   5.469   1.299
 6905SOL    HW121614   4.133   5.378   1.276
 6905SOL    HW221615   4.164   5.539   1.272
 6906SOL     OW21616   5.427   5.940   3.861
 6906SOL    HW121617   5.467   6.025   3.894
 6906SOL    HW221618   5.356   5.959   3.794
 6907SOL     OW21619   3.532   0.695   1.204
 6907SOL    HW121620   3.451   0.741   1.240
 6907SOL    HW221621   3.539   0.604   1.246
 6908SOL     OW21622   6.286   0.575   0.006
 6908SOL    HW121623   6.233   0.643   6.975
 6908SOL    HW221624   6.248   0.568   0.098
 6909SOL     OW21625   3.207   3.139   6.731
 6909SOL    HW121626   3.205   3.055   6.677
 6909SOL    HW221627   3.120   3.188   6.720
 6910SOL     OW21628   6.122   0.265   1.411
 6910SOL    HW121629   6.195   0.299   1.471
 6910SOL    HW221630   6.086   0.341   1.357
 6911SOL     OW21631   4.407   0.715   4.800
 6911SOL    HW121632   4.493   0.756   4.830
 6911SOL    HW221633   4.351   0.692   4.879
 6912SOL     OW21634   4.423   4.552   1.935
 6912SOL    HW121635   4.431   4.453   1.951
 6912SOL    HW221636   4.503   4.584   1.885
 6913SOL     OW21637   4.598   5.704   5.900
 6913SOL    HW121638   4.503   5.676   5.895
 6913SOL    HW221639   4.617   5.742   5.991
 6914SOL     OW21640   6.425   5.164   6.958
 6914SOL    HW121641   6.377   5.211   0.011
 6914SOL    HW221642   6.520   5.148   6.984
 6915SOL     OW21643   1.120   5.439   0.511
 6915SOL    HW121644   1.037   5.384   0.523
 6915SOL    HW221645   1.162   5.457   0.600
 6916SOL     OW21646   6.432   0.391   5.561
 6916SOL    HW121647   6.391   0.397   5.470
 6916SOL    HW221648   6.396   0.311   5.609
 6917SOL     OW21649   4.112   0.259   6.729
 6917SOL    HW121650   4.205   0.229   6.750
 6917SOL    HW221651   4.104   0.357   6.746
 6918SOL     OW21652   2.303   2.861   3.621
 6918SOL    HW121653   2.366   2.791   3.589
 6918SOL    HW221654   2.299   2.936   3.555
 6919SOL     OW21655   1.028   6.389   3.315
 6919SOL    HW121656   1.087   6.461   3.353
 6919SOL    HW221657   1.068   6.354   3.230
 6920SOL     OW21658   5.253   6.238   4.768
 6920SOL    HW121659   5.182   6.303   4.741
 6920SOL    HW221660   5.335   6.255   4.714
 6921SOL     OW21661   1.269   6.385   3.090
 6921SOL    HW121662   1.327   6.467   3.087
 6921SOL    HW221663   1.327   6.304   3.098
 6922SOL     OW21664   1.851   6.225   0.271
 6922SOL    HW121665   1.891   6.144   0.228
 6922SOL    HW221666   1.917   6.266   0.334
 6923SOL     OW21667   4.590   6.541   4.181
 6923SOL    HW121668   4.615   6.545   4.278
 6923SOL    HW221669   4.536   6.621   4.157
 6924SOL     OW21670   6.801   5.849   1.728
 6924SOL    HW121671   6.812   5.835   1.630
 6924SOL    HW221672   6.711   5.889   1.746
 6925SOL     OW21673   5.798   5.732   2.804
 6925SOL    HW121674   5.700   5.752   2.810
 6925SOL    HW221675   5.839   5.738   2.895
 6926SOL     OW21676   2.929   4.029   5.329
 6926SOL    HW121677   2.957   3.962   5.398
 6926SOL    HW221678   2.863   3.987   5.267
 6927SOL     OW21679   3.847   2.834   0.546
 6927SOL    HW121680   3.912   2.897   0.589
 6927SOL    HW221681   3.885   2.742   0.546
 6928SOL     OW21682   6.713   0.467   6.513
 6928SOL    HW121683   6.637   0.532   6.510
 6928SOL    HW221684   6.699   0.403   6.589
 6929SOL     OW21685   3.041   5.001   1.119
 6929SOL    HW121686   3.057   5.045   1.207
 6929SOL    HW221687   2.979   4.923   1.132
 6930SOL     OW21688   1.088   0.715   3.152
 6930SOL    HW121689   1.144   0.746   3.229
 6930SOL    HW221690   1.055   0.623   3.169
 6931SOL     OW21691   2.060   0.112   0.926
 6931SOL    HW121692   2.150   0.132   0.888
 6931SOL    HW221693   2.056   0.016   0.955
 6932SOL     OW21694   2.787   2.798   0.067
 6932SOL    HW121695   2.708   2.785   0.007
 6932SOL    HW221696   2.847   2.718   0.062
 6933SOL     OW21697   2.808   6.286   6.076
 6933SOL    HW121698   2.895   6.252   6.040
 6933SOL    HW221699   2.755   6.327   6.001
 6934SOL     OW21700   5.434   4.454   6.302
 6934SOL    HW121701   5.481   4.529   6.256
 6934SOL    HW221702   5.403   4.484   6.393
 6935SOL     OW21703   4.374   6.255   2.607
 6935SOL    HW121704   4.317   6.239   2.687
 6935SOL    HW221705   4.427   6.172   2.587
 6936SOL     OW21706   0.186   4.695   0.764
 6936SOL    HW121707   0.090   4.665   0.767
 6936SOL    HW221708   0.199   4.774   0.824
 6937SOL     OW21709   4.333   6.691   5.796
 6937SOL    HW121710   4.314   6.709   5.892
 6937SOL    HW221711   4.264   6.629   5.759
 6938SOL     OW21712   5.960   2.473   5.049
 6938SOL    HW121713   5.891   2.401   5.058
 6938SOL    HW221714   6.020   2.471   5.129
 6939SOL     OW21715   6.902   4.709   2.198
 6939SOL    HW121716   6.869   4.768   2.123
 6939SOL    HW221717   6.824   4.682   2.255
 6940SOL     OW21718   4.287   1.141   4.997
 6940SOL    HW121719   4.221   1.118   5.069
 6940SOL    HW221720   4.305   1.239   4.998
 6941SOL     OW21721   3.862   3.138   4.329
 6941SOL    HW121722   3.829   3.092   4.246
 6941SOL    HW221723   3.785   3.171   4.382
 6942SOL     OW21724   6.780   1.539   6.668
 6942SOL    HW121725   6.681   1.544   6.655
 6942SOL    HW221726   6.800   1.482   6.748
 6943SOL     OW21727   6.533   6.160   0.096
 6943SOL    HW121728   6.468   6.087   0.118
 6943SOL    HW221729   6.623   6.121   0.079
 6944SOL     OW21730   1.068   6.064   6.207
 6944SOL    HW121731   1.066   6.025   6.299
 6944SOL    HW221732   1.019   6.003   6.145
 6945SOL     OW21733   4.464   2.049   5.444
 6945SOL    HW121734   4.550   1.999   5.434
 6945SOL    HW221735   4.405   2.030   5.365
 6946SOL     OW21736   6.037   3.478   3.470
 6946SOL    HW121737   6.070   3.572   3.456
 6946SOL    HW221738   5.946   3.482   3.513
 6947SOL     OW21739   3.400   0.060   2.598
 6947SOL    HW121740   3.445   6.998   2.566
 6947SOL    HW221741   3.330   0.037   2.665
 6948SOL     OW21742   3.780   1.996   4.829
 6948SOL    HW121743   3.721   1.920   4.800
 6948SOL    HW221744   3.868   1.990   4.782
 6949SOL     OW21745   4.662   1.034   2.640
 6949SOL    HW121746   4.737   0.978   2.674
 6949SOL    HW221747   4.604   1.063   2.716
 6950SOL     OW21748   2.554   1.424   3.830
 6950SOL    HW121749   2.480   1.460   3.888
 6950SOL    HW221750   2.566   1.483   3.750
 6951SOL     OW21751   4.976   5.213   5.170
 6951SOL    HW121752   5.072   5.187   5.170
 6951SOL    HW221753   4.967   5.311   5.154
 6952SOL     OW21754   6.813   5.010   5.257
 6952SOL    HW121755   6.863   4.999   5.343
 6952SOL    HW221756   6.740   4.942   5.252
 6953SOL     OW21757   5.769   2.308   5.139
 6953SOL    HW121758   5.769   2.248   5.219
 6953SOL    HW221759   5.693   2.373   5.147
 6954SOL     OW21760   0.897   4.669   2.473
 6954SOL    HW121761   0.800   4.646   2.467
 6954SOL    HW221762   0.907   4.769   2.475
 6955SOL     OW21763   6.582   6.129   3.038
 6955SOL    HW121764   6.564   6.130   2.940
 6955SOL    HW221765   6.680   6.117   3.054
 6956SOL     OW21766   3.215   4.890   0.638
 6956SOL    HW121767   3.299   4.840   0.655
 6956SOL    HW221768   3.202   4.960   0.709
 6957SOL     OW21769   0.935   3.814   0.295
 6957SOL    HW121770   0.995   3.748   0.340
 6957SOL    HW221771   0.947   3.904   0.337
 6958SOL     OW21772   1.941   4.212   6.692
 6958SOL    HW121773   1.860   4.235   6.638
 6958SOL    HW221774   1.916   4.145   6.762
 6959SOL     OW21775   3.686   1.168   3.836
 6959SOL    HW121776   3.614   1.233   3.861
 6959SOL    HW221777   3.652   1.075   3.846
 6960SOL     OW21778   0.412   4.705   0.281
 6960SOL    HW121779   0.409   4.802   0.258
 6960SOL    HW221780   0.318   4.672   0.295
 6961SOL     OW21781   0.141   1.593   3.092
 6961SOL    HW121782   0.053   1.636   3.110
 6961SOL    HW221783   0.136   1.540   3.008
 6962SOL     OW21784   3.220   3.584   0.629
 6962SOL    HW121785   3.253   3.632   0.548
 6962SOL    HW221786   3.193   3.491   0.604
 6963SOL     OW21787   6.379   5.921   2.314
 6963SOL    HW121788   6.434   5.891   2.236
 6963SOL    HW221789   6.283   5.921   2.289
 6964SOL     OW21790   3.706   6.492   5.081
 6964SOL    HW121791   3.675   6.458   4.992
 6964SOL    HW221792   3.805   6.510   5.076
 6965SOL     OW21793   6.429   1.818   5.911
 6965SOL    HW121794   6.502   1.766   5.955
 6965SOL    HW221795   6.377   1.757   5.850
 6966SOL     OW21796   4.737   2.710   4.079
 6966SOL    HW121797   4.812   2.663   4.126
 6966SOL    HW221798   4.772   2.796   4.041
 6967SOL     OW21799   2.163   2.516   6.237
 6967SOL    HW121800   2.152   2.538   6.140
 6967SOL    HW221801   2.261   2.508   6.258
 6968SOL     OW21802   3.747   0.271   2.836
 6968SOL    HW121803   3.700   0.298   2.920
 6968SOL    HW221804   3.844   0.295   2.844
 6969SOL     OW21805   2.713   2.416   1.043
 6969SOL    HW121806   2.618   2.387   1.057
 6969SOL    HW221807   2.742   2.394   0.950
 6970SOL     OW21808   4.418   3.789   0.789
 6970SOL    HW121809   4.460   3.814   0.877
 6970SOL    HW221810   4.430   3.864   0.724
 6971SOL     OW21811   6.266   0.689   2.110
 6971SOL    HW121812   6.279   0.738   2.024
 6971SOL    HW221813   6.193   0.732   2.163
 6972SOL     OW21814   5.343   4.991   4.780
 6972SOL    HW121815   5.379   4.954   4.866
 6972SOL    HW221816   5.267   4.934   4.749
 6973SOL     OW21817   1.561   4.431   2.872
 6973SOL    HW121818   1.516   4.367   2.810
 6973SOL    HW221819   1.562   4.393   2.965
 6974SOL     OW21820   3.062   4.054   4.898
 6974SOL    HW121821   3.045   3.956   4.912
 6974SOL    HW221822   2.984   4.106   4.931
 6975SOL     OW21823   3.005   0.805   5.886
 6975SOL    HW121824   3.013   0.707   5.874
 6975SOL    HW221825   3.073   0.837   5.953
 6976SOL     OW21826   1.813   5.939   0.636
 6976SOL    HW121827   1.745   5.878   0.676
 6976SOL    HW221828   1.881   5.963   0.705
 6977SOL     OW21829   4.726   2.597   2.934
 6977SOL    HW121830   4.660   2.523   2.951
 6977SOL    HW221831   4.731   2.657   3.014
 6978SOL     OW21832   5.454   1.418   3.053
 6978SOL    HW121833   5.440   1.436   3.150
 6978SOL    HW221834   5.374   1.370   3.016
 6979SOL     OW21835   0.721   4.732   3.461
 6979SOL    HW121836   0.727   4.790   3.380
 6979SOL    HW221837   0.662   4.776   3.529
 6980SOL     OW21838   3.814   1.780   4.110
 6980SOL    HW121839   3.730   1.800   4.161
 6980SOL    HW221840   3.835   1.683   4.118
 6981SOL     OW21841   3.551   4.681   6.739
 6981SOL    HW121842   3.459   4.705   6.769
 6981SOL    HW221843   3.601   4.638   6.814
 6982SOL     OW21844   0.425   6.969   4.295
 6982SOL    HW121845   0.380   6.920   4.369
 6982SOL    HW221846   0.495   0.008   4.332
 6983SOL     OW21847   6.342   0.375   3.495
 6983SOL    HW121848   6.288   0.457   3.478
 6983SOL    HW221849   6.421   0.373   3.434
 6984SOL     OW21850   2.382   0.980   5.494
 6984SOL    HW121851   2.408   0.912   5.425
 6984SOL    HW221852   2.439   0.970   5.575
 6985SOL     OW21853   5.361   6.595   2.861
 6985SOL    HW121854   5.391   6.585   2.766
 6985SOL    HW221855   5.362   6.692   2.886
 6986SOL     OW21856   1.929   0.104   5.009
 6986SOL    HW121857   1.871   0.171   5.055
 6986SOL    HW221858   1.873   0.042   4.955
 6987SOL     OW21859   6.777   3.494   6.574
 6987SOL    HW121860   6.741   3.403   6.591
 6987SOL    HW221861   6.725   3.561   6.627
 6988SOL     OW21862   5.191   1.002   5.659
 6988SOL    HW121863   5.238   0.937   5.599
 6988SOL    HW221864   5.196   1.093   5.619
 6989SOL     OW21865   1.582   2.935   3.716
 6989SOL    HW121866   1.640   2.937   3.797
 6989SOL    HW221867   1.625   2.880   3.645
 6990SOL     OW21868   3.919   3.213   0.737
 6990SOL    HW121869   3.906   3.228   0.835
 6990SOL    HW221870   3.945   3.118   0.722
 6991SOL     OW21871   4.361   4.498   5.505
 6991SOL    HW121872   4.458   4.481   5.524
 6991SOL    HW221873   4.306   4.463   5.580
 6992SOL     OW21874   5.714   6.429   5.170
 6992SOL    HW121875   5.735   6.375   5.251
 6992SOL    HW221876   5.727   6.373   5.088
 6993SOL     OW21877   0.510   6.278   3.480
 6993SOL    HW121878   0.607   6.253   3.481
 6993SOL    HW221879   0.469   6.250   3.393
 6994SOL     OW21880   1.433   3.131   0.093
 6994SOL    HW121881   1.464   3.214   0.140
 6994SOL    HW221882   1.492   3.114   0.014
 6995SOL     OW21883   1.106   4.426   3.592
 6995SOL    HW121884   1.176   4.366   3.554
 6995SOL    HW221885   1.016   4.385   3.580
 6996SOL     OW21886   2.054   0.056   6.137
 6996SOL    HW121887   2.081   7.012   6.066
 6996SOL    HW221888   2.065   0.014   6.227
 6997SOL     OW21889   4.940   0.095   4.289
 6997SOL    HW121890   4.999   0.015   4.297
 6997SOL    HW221891   4.985   0.174   4.331
 6998SOL     OW21892   1.825   2.455   3.080
 6998SOL    HW121893   1.836   2.541   3.031
 6998SOL    HW221894   1.743   2.459   3.138
 6999SOL     OW21895   4.972   1.916   0.253
 6999SOL    HW121896   4.917   1.961   0.182
 6999SOL    HW221897   4.911   1.866   0.315
 7000SOL     OW21898   6.389   6.508   0.962
 7000SOL    HW121899   6.327   6.472   1.031
 7000SOL    HW221900   6.459   6.440   0.941
 7001SOL     OW21901   2.572   1.862   5.371
 7001SOL    HW121902   2.647   1.844   5.307
 7001SOL    HW221903   2.578   1.797   5.447
 7002SOL     OW21904   1.570   4.793   2.518
 7002SOL    HW121905   1.509   4.714   2.530
 7002SOL    HW221906   1.658   4.762   2.482
 7003SOL     OW21907   1.491   6.272   6.039
 7003SOL    HW121908   1.588   6.273   6.062
 7003SOL    HW221909   1.467   6.357   5.992
 7004SOL     OW21910   1.332   4.130   0.498
 7004SOL    HW121911   1.254   4.084   0.540
 7004SOL    HW221912   1.372   4.070   0.428
 7005SOL     OW21913   5.812   6.501   6.131
 7005SOL    HW121914   5.843   6.447   6.054
 7005SOL    HW221915   5.805   6.443   6.212
 7006SOL     OW21916   4.507   5.388   4.743
 7006SOL    HW121917   4.603   5.410   4.727
 7006SOL    HW221918   4.498   5.293   4.772
 7007SOL     OW21919   4.634   5.234   2.223
 7007SOL    HW121920   4.565   5.302   2.247
 7007SOL    HW221921   4.592   5.143   2.220
 7008SOL     OW21922   1.428   4.528   4.142
 7008SOL    HW121923   1.478   4.561   4.222
 7008SOL    HW221924   1.334   4.507   4.168
 7009SOL     OW21925   0.426   4.409   2.522
 7009SOL    HW121926   0.446   4.366   2.434
 7009SOL    HW221927   0.495   4.381   2.589
 7010SOL     OW21928   4.063   4.661   6.457
 7010SOL    HW121929   4.034   4.694   6.547
 7010SOL    HW221930   3.994   4.598   6.420
 7011SOL     OW21931   1.530   1.449   5.406
 7011SOL    HW121932   1.617   1.450   5.359
 7011SOL    HW221933   1.483   1.363   5.390
 7012SOL     OW21934   1.618   1.691   1.487
 7012SOL    HW121935   1.538   1.750   1.487
 7012SOL    HW221936   1.656   1.685   1.395
 7013SOL     OW21937   6.894   1.415   1.712
 7013SOL    HW121938   6.881   1.372   1.623
 7013SOL    HW221939   6.982   1.462   1.714
 7014SOL     OW21940   2.124   5.045   0.649
 7014SOL    HW121941   2.102   5.140   0.670
 7014SOL    HW221942   2.113   4.989   0.730
 7015SOL     OW21943   5.522   1.894   2.487
 7015SOL    HW121944   5.610   1.874   2.530
 7015SOL    HW221945   5.533   1.972   2.425
 7016SOL     OW21946   3.997   4.600   1.302
 7016SOL    HW121947   4.082   4.593   1.356
 7016SOL    HW221948   3.968   4.696   1.298
 7017SOL     OW21949   4.426   1.969   4.556
 7017SOL    HW121950   4.365   2.027   4.502
 7017SOL    HW221951   4.520   1.979   4.523
 7018SOL     OW21952   0.124   4.033   3.367
 7018SOL    HW121953   0.042   4.085   3.341
 7018SOL    HW221954   0.120   4.012   3.465
 7019SOL     OW21955   1.570   5.831   1.114
 7019SOL    HW121956   1.485   5.877   1.138
 7019SOL    HW221957   1.550   5.743   1.071
 7020SOL     OW21958   7.018   6.197   5.983
 7020SOL    HW121959   0.003   6.269   6.052
 7020SOL    HW221960   0.076   6.204   5.921
 7021SOL     OW21961   3.754   6.702   5.692
 7021SOL    HW121962   3.813   6.625   5.666
 7021SOL    HW221963   3.673   6.667   5.740
 7022SOL     OW21964   4.902   5.387   6.643
 7022SOL    HW121965   4.951   5.429   6.719
 7022SOL    HW221966   4.965   5.377   6.565
 7023SOL     OW21967   5.704   4.011   3.188
 7023SOL    HW121968   5.632   3.948   3.216
 7023SOL    HW221969   5.725   3.997   3.091
 7024SOL     OW21970   0.383   5.798   1.440
 7024SOL    HW121971   0.433   5.720   1.477
 7024SOL    HW221972   0.295   5.806   1.486
 7025SOL     OW21973   2.422   0.187   6.774
 7025SOL    HW121974   2.479   0.208   6.694
 7025SOL    HW221975   2.418   0.268   6.834
 7026SOL     OW21976   3.319   1.473   0.955
 7026SOL    HW121977   3.339   1.564   0.992
 7026SOL    HW221978   3.343   1.471   0.858
 7027SOL     OW21979   4.625   6.621   4.436
 7027SOL    HW121980   4.529   6.649   4.441
 7027SOL    HW221981   4.681   6.681   4.493
 7028SOL     OW21982   2.991   0.363   4.500
 7028SOL    HW121983   3.053   0.295   4.538
 7028SOL    HW221984   3.043   0.436   4.456
 7029SOL     OW21985   3.986   0.966   5.035
 7029SOL    HW121986   3.907   0.930   5.085
 7029SOL    HW221987   4.069   0.917   5.062
 7030SOL     OW21988   2.092   3.543   3.559
 7030SOL    HW121989   2.013   3.486   3.534
 7030SOL    HW221990   2.116   3.602   3.482
 7031SOL     OW21991   1.389   0.509   4.663
 7031SOL    HW121992   1.352   0.498   4.755
 7031SOL    HW221993   1.317   0.492   4.596
 7032SOL     OW21994   6.132   2.120   3.626
 7032SOL    HW121995   6.072   2.176   3.568
 7032SOL    HW221996   6.086   2.033   3.647
 7033SOL     OW21997   0.149   0.028   4.598
 7033SOL    HW121998   0.146   0.029   4.698
 7033SOL    HW221999   0.139   0.121   4.563
 7034SOL     OW22000   0.248   5.692   2.837
 7034SOL    HW122001   0.171   5.663   2.781
 7034SOL    HW222002   0.322   5.624   2.830
 7035SOL     OW22003   6.658   5.020   2.177
 7035SOL    HW122004   6.733   5.050   2.119
 7035SOL    HW222005   6.620   5.099   2.225
 7036SOL     OW22006   6.749   4.974   0.445
 7036SOL    HW122007   6.845   4.968   0.474
 7036SOL    HW222008   6.707   4.883   0.450
 7037SOL     OW22009   0.838   0.281   6.723
 7037SOL    HW122010   0.894   0.238   6.794
 7037SOL    HW222011   0.760   0.222   6.703
 7038SOL     OW22012   2.252   3.074   4.059
 7038SOL    HW122013   2.286   2.988   4.097
 7038SOL    HW222014   2.228   3.136   4.134
 7039SOL     OW22015   3.581   2.216   6.062
 7039SOL    HW122016   3.655   2.283   6.054
 7039SOL    HW222017   3.505   2.243   6.004
 7040SOL     OW22018   5.868   2.837   6.557
 7040SOL    HW122019   5.964   2.812   6.552
 7040SOL    HW222020   5.831   2.846   6.465
 7041SOL     OW22021   3.071   1.562   2.810
 7041SOL    HW122022   3.125   1.522   2.736
 7041SOL    HW222023   2.985   1.513   2.819
 7042SOL     OW22024   1.510   0.321   6.528
 7042SOL    HW122025   1.590   0.292   6.579
 7042SOL    HW222026   1.485   0.414   6.555
 7043SOL     OW22027   1.078   2.761   2.457
 7043SOL    HW122028   1.160   2.793   2.505
 7043SOL    HW222029   1.085   2.662   2.442
 7044SOL     OW22030   5.239   5.972   2.023
 7044SOL    HW122031   5.196   5.994   1.936
 7044SOL    HW222032   5.175   5.991   2.098
 7045SOL     OW22033   6.484   4.752   0.882
 7045SOL    HW122034   6.387   4.733   0.868
 7045SOL    HW222035   6.505   4.745   0.979
 7046SOL     OW22036   2.651   1.148   3.713
 7046SOL    HW122037   2.571   1.125   3.657
 7046SOL    HW222038   2.644   1.243   3.744
 7047SOL     OW22039   1.557   1.272   2.740
 7047SOL    HW122040   1.566   1.336   2.664
 7047SOL    HW222041   1.500   1.194   2.712
 7048SOL     OW22042   6.803   5.819   0.748
 7048SOL    HW122043   6.788   5.885   0.675
 7048SOL    HW222044   6.759   5.852   0.832
 7049SOL     OW22045   1.681   0.775   0.010
 7049SOL    HW122046   1.690   0.816   6.941
 7049SOL    HW222047   1.761   0.719   0.030
 7050SOL     OW22048   3.778   4.069   4.674
 7050SOL    HW122049   3.717   4.095   4.599
 7050SOL    HW222050   3.839   3.995   4.644
 7051SOL     OW22051   0.067   6.669   2.824
 7051SOL    HW122052   7.013   6.725   2.790
 7051SOL    HW222053   0.129   6.726   2.879
 7052SOL     OW22054   0.227   0.897   3.918
 7052SOL    HW122055   0.239   0.944   4.005
 7052SOL    HW222056   0.130   0.899   3.893
 7053SOL     OW22057   6.664   4.351   5.691
 7053SOL    HW122058   6.624   4.356   5.600
 7053SOL    HW222059   6.723   4.430   5.706
 7054SOL     OW22060   6.637   0.464   1.577
 7054SOL    HW122061   6.649   0.367   1.598
 7054SOL    HW222062   6.726   0.510   1.578
 7055SOL     OW22063   4.005   0.599   4.704
 7055SOL    HW122064   3.980   0.684   4.659
 7055SOL    HW222065   3.932   0.572   4.767
 7056SOL     OW22066   4.492   5.480   3.649
 7056SOL    HW122067   4.557   5.406   3.664
 7056SOL    HW222068   4.514   5.527   3.563
 7057SOL     OW22069   0.780   6.266   3.347
 7057SOL    HW122070   0.711   6.297   3.282
 7057SOL    HW222071   0.864   6.318   3.333
 7058SOL     OW22072   0.529   4.314   5.047
 7058SOL    HW122073   0.556   4.248   5.117
 7058SOL    HW222074   0.437   4.294   5.015
 7059SOL     OW22075   2.344   0.123   2.884
 7059SOL    HW122076   2.376   0.212   2.917
 7059SOL    HW222077   2.413   0.054   2.904
 7060SOL     OW22078   3.413   0.070   1.367
 7060SOL    HW122079   3.368   0.146   1.320
 7060SOL    HW222080   3.503   0.054   1.327
 7061SOL     OW22081   0.159   1.094   3.523
 7061SOL    HW122082   0.228   1.097   3.596
 7061SOL    HW222083   0.205   1.086   3.435
 7062SOL     OW22084   6.730   1.043   5.565
 7062SOL    HW122085   6.664   1.090   5.506
 7062SOL    HW222086   6.686   0.963   5.606
 7063SOL     OW22087   2.729   0.218   2.107
 7063SOL    HW122088   2.690   0.127   2.095
 7063SOL    HW222089   2.801   0.233   2.039
 7064SOL     OW22090   4.326   2.314   0.776
 7064SOL    HW122091   4.310   2.325   0.678
 7064SOL    HW222092   4.281   2.230   0.808
 7065SOL     OW22093   3.530   3.434   2.060
 7065SOL    HW122094   3.601   3.487   2.013
 7065SOL    HW222095   3.534   3.452   2.158
 7066SOL     OW22096   2.932   5.800   1.111
 7066SOL    HW122097   2.915   5.796   1.210
 7066SOL    HW222098   2.848   5.776   1.062
 7067SOL     OW22099   6.916   3.900   4.538
 7067SOL    HW122100   6.983   3.877   4.468
 7067SOL    HW222101   6.824   3.885   4.502
 7068SOL     OW22102   1.315   0.802   2.704
 7068SOL    HW122103   1.333   0.809   2.802
 7068SOL    HW222104   1.264   0.718   2.685
 7069SOL     OW22105   1.686   4.433   5.314
 7069SOL    HW122106   1.767   4.374   5.316
 7069SOL    HW222107   1.689   4.491   5.232
 7070SOL     OW22108   5.113   5.679   4.383
 7070SOL    HW122109   5.065   5.594   4.404
 7070SOL    HW222110   5.060   5.733   4.318
 7071SOL     OW22111   1.376   6.890   5.089
 7071SOL    HW122112   1.328   6.920   5.171
 7071SOL    HW222113   1.437   6.963   5.057
 7072SOL     OW22114   0.051   6.289   6.549
 7072SOL    HW122115   0.132   6.348   6.552
 7072SOL    HW222116   7.015   6.308   6.628
 7073SOL     OW22117   1.366   2.010   6.659
 7073SOL    HW122118   1.335   1.935   6.601
 7073SOL    HW222119   1.463   1.997   6.681
 7074SOL     OW22120   2.742   1.454   0.800
 7074SOL    HW122121   2.740   1.459   0.700
 7074SOL    HW222122   2.784   1.536   0.837
 7075SOL     OW22123   1.203   5.421   2.706
 7075SOL    HW122124   1.241   5.380   2.623
 7075SOL    HW222125   1.188   5.350   2.774
 7076SOL     OW22126   3.337   2.115   6.611
 7076SOL    HW122127   3.291   2.083   6.529
 7076SOL    HW222128   3.270   2.131   6.684
 7077SOL     OW22129   1.673   4.956   5.994
 7077SOL    HW122130   1.624   5.029   6.041
 7077SOL    HW222131   1.768   4.984   5.980
 7078SOL     OW22132   6.839   0.937   2.452
 7078SOL    HW122133   6.798   0.901   2.537
 7078SOL    HW222134   6.805   0.884   2.374
 7079SOL     OW22135   5.089   5.600   5.684
 7079SOL    HW122136   5.100   5.683   5.739
 7079SOL    HW222137   4.995   5.567   5.691
 7080SOL     OW22138   5.477   7.009   3.851
 7080SOL    HW122139   5.468   0.012   3.947
 7080SOL    HW222140   5.475   0.071   3.795
 7081SOL     OW22141   3.482   1.319   5.470
 7081SOL    HW122142   3.494   1.368   5.383
 7081SOL    HW222143   3.558   1.341   5.531
 7082SOL     OW22144   5.024   2.136   6.265
 7082SOL    HW122145   4.935   2.119   6.223
 7082SOL    HW222146   5.018   2.121   6.364
 7083SOL     OW22147   3.215   0.082   6.001
 7083SOL    HW122148   3.274   0.057   5.924
 7083SOL    HW222149   3.199   0.180   6.000
 7084SOL     OW22150   6.876   6.277   0.141
 7084SOL    HW122151   6.939   6.218   0.092
 7084SOL    HW222152   6.925   6.359   0.173
 7085SOL     OW22153   3.413   2.565   0.700
 7085SOL    HW122154   3.413   2.656   0.743
 7085SOL    HW222155   3.384   2.497   0.766
 7086SOL     OW22156   0.121   1.125   6.420
 7086SOL    HW122157   0.128   1.038   6.468
 7086SOL    HW222158   0.088   1.195   6.483
 7087SOL     OW22159   2.222   2.617   5.155
 7087SOL    HW122160   2.217   2.712   5.187
 7087SOL    HW222161   2.135   2.571   5.174
 7088SOL     OW22162   0.656   1.931   5.769
 7088SOL    HW122163   0.713   1.899   5.694
 7088SOL    HW222164   0.714   1.973   5.840
 7089SOL     OW22165   2.511   1.401   0.931
 7089SOL    HW122166   2.485   1.484   0.979
 7089SOL    HW222167   2.596   1.416   0.882
 7090SOL     OW22168   2.452   2.527   4.882
 7090SOL    HW122169   2.529   2.531   4.946
 7090SOL    HW222170   2.395   2.609   4.893
 7091SOL     OW22171   0.174   6.129   0.715
 7091SOL    HW122172   0.102   6.199   0.710
 7091SOL    HW222173   0.169   6.071   0.634
 7092SOL     OW22174   2.904   3.217   6.757
 7092SOL    HW122175   2.819   3.228   6.706
 7092SOL    HW222176   2.893   3.146   6.826
 7093SOL     OW22177   4.267   3.309   5.948
 7093SOL    HW122178   4.311   3.381   6.002
 7093SOL    HW222179   4.203   3.258   6.006
 7094SOL     OW22180   6.958   0.430   6.406
 7094SOL    HW122181   6.990   0.513   6.360
 7094SOL    HW222182   6.864   0.443   6.436
 7095SOL     OW22183   0.487   4.230   6.541
 7095SOL    HW122184   0.406   4.220   6.599
 7095SOL    HW222185   0.561   4.273   6.594
 7096SOL     OW22186   4.910   0.895   2.702
 7096SOL    HW122187   4.934   0.940   2.788
 7096SOL    HW222188   4.981   0.911   2.634
 7097SOL     OW22189   1.334   0.644   1.866
 7097SOL    HW122190   1.396   0.643   1.788
 7097SOL    HW222191   1.356   0.568   1.927
 7098SOL     OW22192   1.782   0.033   5.828
 7098SOL    HW122193   1.749   0.074   5.914
 7098SOL    HW222194   1.778   0.102   5.756
 7099SOL     OW22195   0.608   0.885   6.073
 7099SOL    HW122196   0.597   0.981   6.050
 7099SOL    HW222197   0.524   0.850   6.114
 7100SOL     OW22198   5.500   2.134   0.979
 7100SOL    HW122199   5.461   2.216   1.022
 7100SOL    HW222200   5.599   2.146   0.967
 7101SOL     OW22201   1.698   0.499   4.327
 7101SOL    HW122202   1.727   0.538   4.240
 7101SOL    HW222203   1.737   0.408   4.337
 7102SOL     OW22204   4.736   2.820   0.924
 7102SOL    HW122205   4.807   2.842   0.991
 7102SOL    HW222206   4.775   2.821   0.832
 7103SOL     OW22207   2.625   6.692   6.482
 7103SOL    HW122208   2.647   6.651   6.394
 7103SOL    HW222209   2.701   6.749   6.512
 7104SOL     OW22210   0.319   2.050   1.853
 7104SOL    HW122211   0.359   2.141   1.863
 7104SOL    HW222212   0.308   2.009   1.944
 7105SOL     OW22213   2.541   4.142   5.364
 7105SOL    HW122214   2.464   4.161   5.425
 7105SOL    HW222215   2.518   4.064   5.305
 7106SOL     OW22216   3.160   2.468   5.424
 7106SOL    HW122217   3.159   2.567   5.409
 7106SOL    HW222218   3.192   2.421   5.341
 7107SOL     OW22219   2.460   0.452   6.967
 7107SOL    HW122220   2.520   0.527   6.995
 7107SOL    HW222221   2.369   0.464   7.008
 7108SOL     OW22222   4.506   6.892   2.580
 7108SOL    HW122223   4.467   6.807   2.544
 7108SOL    HW222224   4.597   6.874   2.617
 7109SOL     OW22225   3.858   6.198   6.217
 7109SOL    HW122226   3.815   6.239   6.136
 7109SOL    HW222227   3.793   6.200   6.293
 7110SOL     OW22228   3.400   5.271   3.231
 7110SOL    HW122229   3.363   5.216   3.156
 7110SOL    HW222230   3.335   5.270   3.308
 7111SOL     OW22231   1.309   2.440   3.666
 7111SOL    HW122232   1.334   2.368   3.602
 7111SOL    HW222233   1.387   2.462   3.724
 7112SOL     OW22234   1.556   6.583   2.398
 7112SOL    HW122235   1.616   6.653   2.436
 7112SOL    HW222236   1.611   6.514   2.352
 7113SOL     OW22237   3.140   3.640   4.765
 7113SOL    HW122238   3.159   3.654   4.862
 7113SOL    HW222239   3.042   3.653   4.748
 7114SOL     OW22240   4.064   0.023   1.113
 7114SOL    HW122241   4.055   0.015   1.014
 7114SOL    HW222242   4.122   0.101   1.136
 7115SOL     OW22243   4.104   1.743   1.558
 7115SOL    HW122244   4.190   1.789   1.536
 7115SOL    HW222245   4.028   1.806   1.541
 7116SOL     OW22246   6.355   3.713   3.006
 7116SOL    HW122247   6.319   3.692   2.915
 7116SOL    HW222248   6.422   3.644   3.033
 7117SOL     OW22249   6.704   6.627   2.143
 7117SOL    HW122250   6.761   6.706   2.120
 7117SOL    HW222251   6.646   6.603   2.065
 7118SOL     OW22252   6.778   2.783   2.096
 7118SOL    HW122253   6.809   2.859   2.153
 7118SOL    HW222254   6.815   2.697   2.133
 7119SOL     OW22255   0.214   1.912   2.784
 7119SOL    HW122256   0.314   1.916   2.787
 7119SOL    HW222257   0.186   1.825   2.745
 7120SOL     OW22258   4.794   6.811   3.323
 7120SOL    HW122259   4.813   6.759   3.406
 7120SOL    HW222260   4.730   6.760   3.265
 7121SOL     OW22261   3.584   6.825   2.059
 7121SOL    HW122262   3.675   6.828   2.018
 7121SOL    HW222263   3.556   6.730   2.073
 7122SOL     OW22264   6.820   6.979   6.974
 7122SOL    HW122265   6.724   7.000   6.956
 7122SOL    HW222266   6.879   0.016   6.918
 7123SOL     OW22267   2.695   5.387   0.561
 7123SOL    HW122268   2.631   5.464   0.569
 7123SOL    HW222269   2.692   5.352   0.467
 7124SOL     OW22270   0.600   5.615   1.514
 7124SOL    HW122271   0.642   5.638   1.426
 7124SOL    HW222272   0.671   5.607   1.583
 7125SOL     OW22273   0.019   6.419   2.685
 7125SOL    HW122274   6.959   6.428   2.627
 7125SOL    HW222275   0.025   6.498   2.746
 7126SOL     OW22276   1.230   4.703   0.394
 7126SOL    HW122277   1.165   4.723   0.468
 7126SOL    HW222278   1.270   4.613   0.409
 7127SOL     OW22279   3.383   0.239   4.265
 7127SOL    HW122280   3.469   0.212   4.223
 7127SOL    HW222281   3.401   0.298   4.343
 7128SOL     OW22282   3.130   4.546   1.643
 7128SOL    HW122283   3.042   4.594   1.646
 7128SOL    HW222284   3.114   4.449   1.628
 7129SOL     OW22285   2.715   1.760   1.685
 7129SOL    HW122286   2.653   1.776   1.763
 7129SOL    HW222287   2.810   1.766   1.716
 7130SOL     OW22288   2.546   6.541   2.073
 7130SOL    HW122289   2.492   6.464   2.041
 7130SOL    HW222290   2.598   6.514   2.154
 7131SOL     OW22291   2.987   1.232   3.835
 7131SOL    HW122292   2.990   1.192   3.926
 7131SOL    HW222293   2.947   1.166   3.771
 7132SOL     OW22294   3.366   4.099   3.287
 7132SOL    HW122295   3.430   4.025   3.269
 7132SOL    HW222296   3.317   4.122   3.203
 7133SOL     OW22297   5.402   4.647   2.097
 7133SOL    HW122298   5.375   4.551   2.092
 7133SOL    HW222299   5.373   4.685   2.185
 7134SOL     OW22300   5.245   4.543   3.554
 7134SOL    HW122301   5.253   4.489   3.470
 7134SOL    HW222302   5.151   4.536   3.589
 7135SOL     OW22303   1.181   2.015   5.044
 7135SOL    HW122304   1.169   2.009   4.945
 7135SOL    HW222305   1.166   2.109   5.074
 7136SOL     OW22306   2.369   2.108   6.606
 7136SOL    HW122307   2.435   2.055   6.554
 7136SOL    HW222308   2.412   2.140   6.691
 7137SOL     OW22309   3.549   1.395   4.903
 7137SOL    HW122310   3.528   1.298   4.910
 7137SOL    HW222311   3.645   1.408   4.877
 7138SOL     OW22312   2.108   3.768   0.043
 7138SOL    HW122313   2.110   3.861   0.080
 7138SOL    HW222314   2.035   3.762   6.995
 7139SOL     OW22315   3.004   2.006   0.299
 7139SOL    HW122316   3.096   1.967   0.296
 7139SOL    HW222317   3.007   2.096   0.342
 7140SOL     OW22318   6.404   3.291   5.260
 7140SOL    HW122319   6.453   3.357   5.204
 7140SOL    HW222320   6.423   3.308   5.356
 7141SOL     OW22321   2.048   6.867   0.959
 7141SOL    HW122322   2.124   6.832   1.014
 7141SOL    HW222323   1.963   6.826   0.991
 7142SOL     OW22324   4.141   6.898   4.239
 7142SOL    HW122325   4.102   6.808   4.259
 7142SOL    HW222326   4.155   6.908   4.140
 7143SOL     OW22327   1.720   2.881   3.987
 7143SOL    HW122328   1.748   2.840   4.074
 7143SOL    HW222329   1.801   2.901   3.932
 7144SOL     OW22330   0.935   2.964   3.736
 7144SOL    HW122331   0.945   3.062   3.755
 7144SOL    HW222332   1.023   2.926   3.707
 7145SOL     OW22333   4.082   6.429   6.055
 7145SOL    HW122334   4.137   6.421   5.972
 7145SOL    HW222335   4.141   6.453   6.132
 7146SOL     OW22336   3.200   4.756   1.015
 7146SOL    HW122337   3.170   4.715   0.929
 7146SOL    HW222338   3.141   4.833   1.038
 7147SOL     OW22339   0.421   1.016   4.322
 7147SOL    HW122340   0.460   1.101   4.359
 7147SOL    HW222341   0.467   0.992   4.237
 7148SOL     OW22342   0.562   1.780   0.436
 7148SOL    HW122343   0.535   1.707   0.500
 7148SOL    HW222344   0.592   1.739   0.350
 7149SOL     OW22345   6.551   0.709   3.736
 7149SOL    HW122346   6.562   0.736   3.640
 7149SOL    HW222347   6.459   0.733   3.767
 7150SOL     OW22348   5.582   4.109   0.003
 7150SOL    HW122349   5.654   4.046   0.034
 7150SOL    HW222350   5.612   4.203   0.019
 7151SOL     OW22351   1.761   5.955   1.472
 7151SOL    HW122352   1.773   5.983   1.377
 7151SOL    HW222353   1.686   6.007   1.513
 7152SOL     OW22354   1.567   2.304   4.068
 7152SOL    HW122355   1.488   2.253   4.036
 7152SOL    HW222356   1.574   2.296   4.168
 7153SOL     OW22357   3.678   1.738   3.335
 7153SOL    HW122358   3.745   1.726   3.261
 7153SOL    HW222359   3.590   1.765   3.296
 7154SOL     OW22360   4.794   6.184   4.516
 7154SOL    HW122361   4.869   6.178   4.450
 7154SOL    HW222362   4.708   6.204   4.468
 7155SOL     OW22363   2.247   0.326   2.545
 7155SOL    HW122364   2.151   0.350   2.530
 7155SOL    HW222365   2.297   0.333   2.459
 7156SOL     OW22366   1.045   5.672   4.811
 7156SOL    HW122367   1.038   5.699   4.715
 7156SOL    HW222368   1.053   5.753   4.868
 7157SOL     OW22369   5.285   4.433   1.097
 7157SOL    HW122370   5.220   4.505   1.122
 7157SOL    HW222371   5.244   4.343   1.114
 7158SOL     OW22372   5.137   6.929   4.370
 7158SOL    HW122373   5.083   6.845   4.385
 7158SOL    HW222374   5.196   6.944   4.449
 7159SOL     OW22375   0.983   5.293   0.159
 7159SOL    HW122376   0.943   5.213   0.113
 7159SOL    HW222377   0.921   5.324   0.231
 7160SOL     OW22378   6.255   0.505   2.553
 7160SOL    HW122379   6.327   0.464   2.610
 7160SOL    HW222380   6.294   0.532   2.465
 7161SOL     OW22381   3.427   4.130   4.133
 7161SOL    HW122382   3.373   4.142   4.216
 7161SOL    HW222383   3.508   4.076   4.153
 7162SOL     OW22384   2.811   4.769   3.449
 7162SOL    HW122385   2.721   4.727   3.449
 7162SOL    HW222386   2.864   4.736   3.528
 7163SOL     OW22387   2.652   6.609   3.454
 7163SOL    HW122388   2.562   6.576   3.425
 7163SOL    HW222389   2.656   6.612   3.554
 7164SOL     OW22390   2.891   1.849   3.460
 7164SOL    HW122391   2.900   1.944   3.427
 7164SOL    HW222392   2.799   1.815   3.439
 7165SOL     OW22393   4.821   0.217   2.098
 7165SOL    HW122394   4.881   0.137   2.094
 7165SOL    HW222395   4.727   0.188   2.081
 7166SOL     OW22396   5.018   5.063   1.626
 7166SOL    HW122397   4.940   5.115   1.661
 7166SOL    HW222398   5.060   5.113   1.550
 7167SOL     OW22399   5.440   3.080   5.365
 7167SOL    HW122400   5.501   3.076   5.444
 7167SOL    HW222401   5.345   3.080   5.396
 7168SOL     OW22402   0.832   1.809   4.825
 7168SOL    HW122403   0.816   1.878   4.754
 7168SOL    HW222404   0.883   1.733   4.787
 7169SOL     OW22405   1.416   2.767   6.906
 7169SOL    HW122406   1.484   2.839   6.891
 7169SOL    HW222407   1.381   2.735   6.818
 7170SOL     OW22408   6.386   5.083   3.941
 7170SOL    HW122409   6.359   5.110   3.848
 7170SOL    HW222410   6.314   5.109   4.005
 7171SOL     OW22411   4.253   2.814   5.809
 7171SOL    HW122412   4.296   2.850   5.891
 7171SOL    HW222413   4.187   2.881   5.774
 7172SOL     OW22414   1.129   6.881   1.087
 7172SOL    HW122415   1.224   6.851   1.085
 7172SOL    HW222416   1.074   6.820   1.030
 7173SOL     OW22417   6.099   6.279   5.381
 7173SOL    HW122418   6.154   6.211   5.429
 7173SOL    HW222419   6.116   6.369   5.420
 7174SOL     OW22420   0.433   5.545   6.862
 7174SOL    HW122421   0.514   5.604   6.857
 7174SOL    HW222422   0.391   5.554   6.952
 7175SOL     OW22423   6.367   2.876   5.256
 7175SOL    HW122424   6.361   2.806   5.327
 7175SOL    HW222425   6.308   2.850   5.180
 7176SOL     OW22426   6.444   3.488   1.533
 7176SOL    HW122427   6.437   3.415   1.601
 7176SOL    HW222428   6.423   3.576   1.576
 7177SOL     OW22429   0.915   5.882   2.371
 7177SOL    HW122430   0.990   5.925   2.322
 7177SOL    HW222431   0.855   5.952   2.410
 7178SOL     OW22432   6.989   2.202   6.219
 7178SOL    HW122433   0.027   2.130   6.182
 7178SOL    HW222434   0.022   2.262   6.278
 7179SOL     OW22435   2.233   4.403   6.414
 7179SOL    HW122436   2.240   4.388   6.315
 7179SOL    HW222437   2.321   4.437   6.449
 7180SOL     OW22438   1.087   6.687   3.103
 7180SOL    HW122439   1.128   6.641   3.024
 7180SOL    HW222440   1.159   6.733   3.155
 7181SOL     OW22441   5.664   6.710   2.615
 7181SOL    HW122442   5.626   6.779   2.676
 7181SOL    HW222443   5.713   6.640   2.669
 7182SOL     OW22444   3.489   3.572   5.741
 7182SOL    HW122445   3.443   3.492   5.780
 7182SOL    HW222446   3.448   3.594   5.652
 7183SOL     OW22447   1.305   4.834   3.054
 7183SOL    HW122448   1.208   4.854   3.069
 7183SOL    HW222449   1.331   4.753   3.106
 7184SOL     OW22450   2.384   6.080   2.782
 7184SOL    HW122451   2.478   6.048   2.796
 7184SOL    HW222452   2.364   6.080   2.684
 7185SOL     OW22453   4.226   2.222   6.803
 7185SOL    HW122454   4.276   2.273   6.874
 7185SOL    HW222455   4.265   2.242   6.714
 7186SOL     OW22456   0.274   0.033   4.077
 7186SOL    HW122457   0.362   0.038   4.124
 7186SOL    HW222458   0.206   0.087   4.127
 7187SOL     OW22459   2.283   5.639   1.481
 7187SOL    HW122460   2.300   5.707   1.552
 7187SOL    HW222461   2.190   5.652   1.444
 7188SOL     OW22462   5.098   0.392   1.547
 7188SOL    HW122463   5.194   0.374   1.568
 7188SOL    HW222464   5.089   0.419   1.451
 7189SOL     OW22465   6.748   0.171   4.827
 7189SOL    HW122466   6.726   0.236   4.755
 7189SOL    HW222467   6.687   0.092   4.821
 7190SOL     OW22468   4.683   5.160   3.171
 7190SOL    HW122469   4.748   5.213   3.115
 7190SOL    HW222470   4.693   5.063   3.150
 7191SOL     OW22471   0.778   2.873   1.730
 7191SOL    HW122472   0.752   2.902   1.822
 7191SOL    HW222473   0.868   2.828   1.734
 7192SOL     OW22474   4.249   5.654   6.223
 7192SOL    HW122475   4.287   5.743   6.196
 7192SOL    HW222476   4.170   5.669   6.283
 7193SOL     OW22477   5.333   1.716   3.912
 7193SOL    HW122478   5.246   1.755   3.880
 7193SOL    HW222479   5.405   1.784   3.903
 7194SOL     OW22480   3.291   1.413   1.285
 7194SOL    HW122481   3.234   1.495   1.275
 7194SOL    HW222482   3.300   1.368   1.196
 7195SOL     OW22483   0.263   6.302   1.932
 7195SOL    HW122484   0.196   6.335   1.865
 7195SOL    HW222485   0.249   6.348   2.019
 7196SOL     OW22486   3.479   2.915   2.221
 7196SOL    HW122487   3.476   3.008   2.186
 7196SOL    HW222488   3.422   2.855   2.165
 7197SOL     OW22489   1.350   1.696   4.582
 7197SOL    HW122490   1.328   1.601   4.601
 7197SOL    HW222491   1.449   1.707   4.575
 7198SOL     OW22492   0.494   6.415   6.251
 7198SOL    HW122493   0.491   6.329   6.302
 7198SOL    HW222494   0.552   6.481   6.299
 7199SOL     OW22495   5.779   6.499   2.737
 7199SOL    HW122496   5.794   6.492   2.835
 7199SOL    HW222497   5.715   6.428   2.708
 7200SOL     OW22498   1.993   2.097   1.928
 7200SOL    HW122499   1.917   2.035   1.950
 7200SOL    HW222500   1.993   2.173   1.993
 7201SOL     OW22501   2.533   5.044   3.133
 7201SOL    HW122502   2.564   4.952   3.156
 7201SOL    HW222503   2.433   5.043   3.124
 7202SOL     OW22504   3.563   0.335   5.776
 7202SOL    HW122505   3.564   0.349   5.875
 7202SOL    HW222506   3.571   0.423   5.730
 7203SOL     OW22507   6.032   0.338   6.841
 7203SOL    HW122508   6.116   0.391   6.830
 7203SOL    HW222509   6.054   0.240   6.848
 7204SOL     OW22510   6.211   1.635   2.524
 7204SOL    HW122511   6.200   1.564   2.455
 7204SOL    HW222512   6.172   1.721   2.491
 7205SOL     OW22513   1.772   5.097   1.897
 7205SOL    HW122514   1.764   5.025   1.966
 7205SOL    HW222515   1.791   5.056   1.808
 7206SOL     OW22516   5.672   1.330   1.776
 7206SOL    HW122517   5.601   1.317   1.707
 7206SOL    HW222518   5.684   1.428   1.793
 7207SOL     OW22519   4.056   6.727   2.050
 7207SOL    HW122520   4.093   6.637   2.028
 7207SOL    HW222521   4.029   6.729   2.146
 7208SOL     OW22522   3.008   0.152   5.040
 7208SOL    HW122523   3.034   0.232   5.095
 7208SOL    HW222524   2.924   0.112   5.076
 7209SOL     OW22525   4.101   3.379   4.512
 7209SOL    HW122526   4.070   3.466   4.472
 7209SOL    HW222527   4.102   3.387   4.611
 7210SOL     OW22528   4.739   0.646   3.984
 7210SOL    HW122529   4.806   0.720   3.975
 7210SOL    HW222530   4.678   0.647   3.906
 7211SOL     OW22531   1.429   4.987   2.626
 7211SOL    HW122532   1.478   4.908   2.588
 7211SOL    HW222533   1.357   4.955   2.688
 7212SOL     OW22534   5.005   6.966   3.760
 7212SOL    HW122535   4.998   6.948   3.858
 7212SOL    HW222536   5.040   0.037   3.745
 7213SOL     OW22537   5.906   6.963   5.764
 7213SOL    HW122538   6.001   6.932   5.760
 7213SOL    HW222539   5.845   6.884   5.772
 7214SOL     OW22540   0.438   4.973   5.336
 7214SOL    HW122541   0.523   5.016   5.305
 7214SOL    HW222542   0.369   5.044   5.352
 7215SOL     OW22543   0.831   3.249   2.975
 7215SOL    HW122544   0.825   3.184   3.051
 7215SOL    HW222545   0.850   3.340   3.012
 7216SOL     OW22546   2.421   1.651   1.771
 7216SOL    HW122547   2.343   1.621   1.826
 7216SOL    HW222548   2.389   1.712   1.699
 7217SOL     OW22549   1.287   3.347   1.886
 7217SOL    HW122550   1.334   3.304   1.809
 7217SOL    HW222551   1.285   3.283   1.963
 7218SOL     OW22552   6.547   2.055   5.845
 7218SOL    HW122553   6.624   2.060   5.908
 7218SOL    HW222554   6.505   1.964   5.849
 7219SOL     OW22555   3.712   0.504   1.335
 7219SOL    HW122556   3.794   0.447   1.336
 7219SOL    HW222557   3.633   0.448   1.310
 7220SOL     OW22558   0.166   1.084   3.225
 7220SOL    HW122559   0.116   1.140   3.159
 7220SOL    HW222560   0.154   0.987   3.202
 7221SOL     OW22561   5.801   5.139   5.600
 7221SOL    HW122562   5.895   5.107   5.594
 7221SOL    HW222563   5.794   5.207   5.673
 7222SOL     OW22564   5.800   6.320   3.212
 7222SOL    HW122565   5.895   6.336   3.238
 7222SOL    HW222566   5.795   6.293   3.116
 7223SOL     OW22567   4.065   1.338   5.288
 7223SOL    HW122568   4.097   1.244   5.273
 7223SOL    HW222569   4.029   1.375   5.202
 7224SOL     OW22570   4.989   0.892   4.412
 7224SOL    HW122571   4.893   0.910   4.432
 7224SOL    HW222572   4.996   0.818   4.344
 7225SOL     OW22573   2.142   0.399   0.557
 7225SOL    HW122574   2.128   0.306   0.523
 7225SOL    HW222575   2.104   0.465   0.491
 7226SOL     OW22576   5.787   6.666   6.528
 7226SOL    HW122577   5.823   6.745   6.577
 7226SOL    HW222578   5.863   6.607   6.501
 7227SOL     OW22579   6.770   2.384   6.172
 7227SOL    HW122580   6.767   2.448   6.249
 7227SOL    HW222581   6.844   2.318   6.187
 7228SOL     OW22582   2.221   0.584   2.936
 7228SOL    HW122583   2.183   0.567   2.845
 7228SOL    HW222584   2.224   0.683   2.953
 7229SOL     OW22585   0.345   0.324   3.868
 7229SOL    HW122586   0.299   0.333   3.956
 7229SOL    HW222587   0.348   0.228   3.841
 7230SOL     OW22588   6.076   5.352   1.894
 7230SOL    HW122589   6.016   5.426   1.860
 7230SOL    HW222590   6.161   5.352   1.841
 7231SOL     OW22591   5.618   1.021   6.539
 7231SOL    HW122592   5.577   1.112   6.549
 7231SOL    HW222593   5.686   1.006   6.611
 7232SOL     OW22594   3.877   3.963   0.919
 7232SOL    HW122595   3.889   3.911   0.834
 7232SOL    HW222596   3.942   4.038   0.921
 7233SOL     OW22597   0.623   2.234   5.976
 7233SOL    HW122598   0.709   2.211   5.930
 7233SOL    HW222599   0.640   2.303   6.046
 7234SOL     OW22600   5.517   1.762   2.828
 7234SOL    HW122601   5.418   1.772   2.818
 7234SOL    HW222602   5.548   1.683   2.775
 7235SOL     OW22603   5.989   2.973   4.510
 7235SOL    HW122604   5.971   3.047   4.574
 7235SOL    HW222605   5.903   2.944   4.467
 7236SOL     OW22606   2.538   1.222   3.274
 7236SOL    HW122607   2.608   1.291   3.258
 7236SOL    HW222608   2.553   1.144   3.213
 7237SOL     OW22609   6.055   5.045   5.193
 7237SOL    HW122610   5.980   5.015   5.253
 7237SOL    HW222611   6.066   4.980   5.118
 7238SOL     OW22612   0.796   0.864   1.825
 7238SOL    HW122613   0.717   0.834   1.772
 7238SOL    HW222614   0.873   0.882   1.764
 7239SOL     OW22615   4.412   0.954   2.363
 7239SOL    HW122616   4.385   0.997   2.277
 7239SOL    HW222617   4.499   0.992   2.394
 7240SOL     OW22618   2.830   3.141   1.203
 7240SOL    HW122619   2.743   3.134   1.252
 7240SOL    HW222620   2.898   3.187   1.261
 7241SOL     OW22621   5.215   6.849   4.877
 7241SOL    HW122622   5.159   6.767   4.892
 7241SOL    HW222623   5.211   6.908   4.957
 7242SOL     OW22624   5.687   4.863   0.680
 7242SOL    HW122625   5.688   4.770   0.644
 7242SOL    HW222626   5.651   4.925   0.610
 7243SOL     OW22627   0.571   5.946   0.241
 7243SOL    HW122628   0.489   5.894   0.265
 7243SOL    HW222629   0.648   5.915   0.295
 7244SOL     OW22630   5.792   1.802   0.760
 7244SOL    HW122631   5.829   1.875   0.702
 7244SOL    HW222632   5.841   1.802   0.847
 7245SOL     OW22633   6.783   1.830   4.395
 7245SOL    HW122634   6.745   1.921   4.383
 7245SOL    HW222635   6.729   1.764   4.344
 7246SOL     OW22636   1.545   5.315   5.182
 7246SOL    HW122637   1.599   5.234   5.204
 7246SOL    HW222638   1.464   5.319   5.241
 7247SOL     OW22639   3.848   5.444   3.107
 7247SOL    HW122640   3.750   5.460   3.121
 7247SOL    HW222641   3.864   5.347   3.091
 7248SOL     OW22642   3.064   0.908   4.750
 7248SOL    HW122643   3.004   0.829   4.748
 7248SOL    HW222644   3.009   0.992   4.757
 7249SOL     OW22645   5.583   3.988   6.042
 7249SOL    HW122646   5.629   4.024   5.961
 7249SOL    HW222647   5.625   3.901   6.069
 7250SOL     OW22648   3.288   3.616   0.344
 7250SOL    HW122649   3.334   3.648   0.261
 7250SOL    HW222650   3.225   3.543   0.320
 7251SOL     OW22651   5.249   0.824   4.575
 7251SOL    HW122652   5.179   0.866   4.516
 7251SOL    HW222653   5.206   0.765   4.642
 7252SOL     OW22654   4.318   3.550   5.241
 7252SOL    HW122655   4.396   3.602   5.275
 7252SOL    HW222656   4.339   3.453   5.242
 7253SOL     OW22657   5.342   4.622   0.910
 7253SOL    HW122658   5.284   4.698   0.940
 7253SOL    HW222659   5.325   4.542   0.967
 7254SOL     OW22660   5.353   6.844   5.649
 7254SOL    HW122661   5.425   6.791   5.603
 7254SOL    HW222662   5.264   6.816   5.614
 7255SOL     OW22663   4.020   3.474   1.979
 7255SOL    HW122664   4.070   3.457   2.064
 7255SOL    HW222665   3.922   3.470   1.996
 7256SOL     OW22666   3.935   5.155   3.642
 7256SOL    HW122667   3.871   5.139   3.567
 7256SOL    HW222668   3.886   5.151   3.729
 7257SOL     OW22669   6.180   3.748   3.226
 7257SOL    HW122670   6.148   3.654   3.220
 7257SOL    HW222671   6.261   3.760   3.168
 7258SOL     OW22672   2.101   0.247   5.816
 7258SOL    HW122673   2.176   0.182   5.821
 7258SOL    HW222674   2.078   0.278   5.908
 7259SOL     OW22675   2.312   5.672   6.237
 7259SOL    HW122676   2.355   5.755   6.200
 7259SOL    HW222677   2.358   5.646   6.322
 7260SOL     OW22678   4.721   1.615   2.640
 7260SOL    HW122679   4.635   1.633   2.592
 7260SOL    HW222680   4.732   1.680   2.715
 7261SOL     OW22681   1.713   4.664   1.352
 7261SOL    HW122682   1.689   4.755   1.318
 7261SOL    HW222683   1.635   4.602   1.336
 7262SOL     OW22684   5.977   1.274   5.572
 7262SOL    HW122685   5.983   1.357   5.517
 7262SOL    HW222686   5.893   1.225   5.550
 7263SOL     OW22687   5.379   6.205   1.714
 7263SOL    HW122688   5.379   6.298   1.751
 7263SOL    HW222689   5.313   6.150   1.765
 7264SOL     OW22690   1.681   6.936   4.586
 7264SOL    HW122691   1.621   6.868   4.629
 7264SOL    HW222692   1.630   7.019   4.568
 7265SOL     OW22693   4.288   3.493   6.141
 7265SOL    HW122694   4.328   3.537   6.222
 7265SOL    HW222695   4.244   3.562   6.084
 7266SOL     OW22696   3.781   1.537   1.840
 7266SOL    HW122697   3.712   1.517   1.771
 7266SOL    HW222698   3.866   1.490   1.816
 7267SOL     OW22699   6.847   3.094   4.380
 7267SOL    HW122700   6.927   3.138   4.420
 7267SOL    HW222701   6.807   3.031   4.447
 7268SOL     OW22702   3.799   0.351   0.131
 7268SOL    HW122703   3.878   0.305   0.090
 7268SOL    HW222704   3.778   0.310   0.220
 7269SOL     OW22705   1.063   6.723   1.960
 7269SOL    HW122706   1.101   6.647   2.012
 7269SOL    HW222707   1.000   6.775   2.018
 7270SOL     OW22708   3.164   1.716   2.299
 7270SOL    HW122709   3.253   1.752   2.269
 7270SOL    HW222710   3.095   1.788   2.290
 7271SOL     OW22711   6.325   4.904   3.598
 7271SOL    HW122712   6.259   4.875   3.668
 7271SOL    HW222713   6.418   4.884   3.629
 7272SOL     OW22714   6.446   2.054   1.047
 7272SOL    HW122715   6.545   2.063   1.034
 7272SOL    HW222716   6.427   1.972   1.100
 7273SOL     OW22717   5.329   5.941   5.125
 7273SOL    HW122718   5.372   5.989   5.201
 7273SOL    HW222719   5.284   5.858   5.160
 7274SOL     OW22720   6.386   4.800   3.942
 7274SOL    HW122721   6.386   4.899   3.956
 7274SOL    HW222722   6.349   4.754   4.022
 7275SOL     OW22723   5.357   6.420   1.047
 7275SOL    HW122724   5.396   6.509   1.026
 7275SOL    HW222725   5.282   6.431   1.113
 7276SOL     OW22726   3.012   2.225   3.873
 7276SOL    HW122727   3.004   2.267   3.782
 7276SOL    HW222728   2.924   2.187   3.900
 7277SOL     OW22729   5.963   1.240   3.906
 7277SOL    HW122730   6.046   1.272   3.952
 7277SOL    HW222731   5.888   1.303   3.926
 7278SOL     OW22732   2.748   1.983   3.783
 7278SOL    HW122733   2.842   1.949   3.792
 7278SOL    HW222734   2.697   1.961   3.867
 7279SOL     OW22735   4.201   3.944   1.084
 7279SOL    HW122736   4.143   3.862   1.091
 7279SOL    HW222737   4.293   3.922   1.115
 7280SOL     OW22738   6.600   1.872   5.419
 7280SOL    HW122739   6.571   1.824   5.337
 7280SOL    HW222740   6.667   1.942   5.395
 7281SOL     OW22741   3.680   6.082   2.071
 7281SOL    HW122742   3.705   6.053   1.979
 7281SOL    HW222743   3.762   6.094   2.126
 7282SOL     OW22744   6.856   3.697   1.507
 7282SOL    HW122745   6.923   3.726   1.576
 7282SOL    HW222746   6.886   3.728   1.417
 7283SOL     OW22747   3.613   6.183   2.923
 7283SOL    HW122748   3.611   6.180   3.022
 7283SOL    HW222749   3.652   6.097   2.887
 7284SOL     OW22750   0.650   0.855   2.887
 7284SOL    HW122751   0.735   0.835   2.937
 7284SOL    HW222752   0.672   0.892   2.797
 7285SOL     OW22753   5.215   2.915   2.156
 7285SOL    HW122754   5.224   3.011   2.128
 7285SOL    HW222755   5.235   2.907   2.254
 7286SOL     OW22756   6.186   1.168   3.776
 7286SOL    HW122757   6.202   1.193   3.681
 7286SOL    HW222758   6.089   1.145   3.788
 7287SOL     OW22759   3.440   0.778   3.853
 7287SOL    HW122760   3.509   0.829   3.803
 7287SOL    HW222761   3.424   0.822   3.942
 7288SOL     OW22762   3.683   1.613   2.103
 7288SOL    HW122763   3.698   1.712   2.113
 7288SOL    HW222764   3.729   1.581   2.020
 7289SOL     OW22765   6.013   2.827   2.260
 7289SOL    HW122766   6.079   2.902   2.264
 7289SOL    HW222767   5.924   2.863   2.231
 7290SOL     OW22768   3.928   1.783   4.947
 7290SOL    HW122769   3.985   1.751   4.871
 7290SOL    HW222770   3.884   1.869   4.922
 7291SOL     OW22771   1.585   1.253   0.673
 7291SOL    HW122772   1.558   1.335   0.723
 7291SOL    HW222773   1.679   1.229   0.697
 7292SOL     OW22774   3.042   0.706   2.890
 7292SOL    HW122775   3.084   0.797   2.886
 7292SOL    HW222776   3.052   0.669   2.982
 7293SOL     OW22777   6.410   1.079   3.959
 7293SOL    HW122778   6.323   1.099   3.915
 7293SOL    HW222779   6.401   0.993   4.011
 7294SOL     OW22780   3.842   6.999   2.808
 7294SOL    HW122781   3.781   0.032   2.750
 7294SOL    HW222782   3.926   6.977   2.757
 7295SOL     OW22783   5.238   3.975   1.365
 7295SOL    HW122784   5.251   3.877   1.379
 7295SOL    HW222785   5.201   4.017   1.448
 7296SOL     OW22786   3.423   6.184   1.810
 7296SOL    HW122787   3.472   6.260   1.767
 7296SOL    HW222788   3.485   6.107   1.822
 7297SOL     OW22789   4.125   6.550   0.224
 7297SOL    HW122790   4.031   6.527   0.203
 7297SOL    HW222791   4.180   6.467   0.229
 7298SOL     OW22792   4.254   5.707   1.202
 7298SOL    HW122793   4.348   5.681   1.177
 7298SOL    HW222794   4.239   5.803   1.178
 7299SOL     OW22795   0.346   3.567   5.431
 7299SOL    HW122796   0.390   3.654   5.451
 7299SOL    HW222797   0.348   3.509   5.513
 7300SOL     OW22798   0.646   4.606   2.415
 7300SOL    HW122799   0.643   4.517   2.371
 7300SOL    HW222800   0.554   4.632   2.446
 7301SOL     OW22801   4.345   2.048   6.505
 7301SOL    HW122802   4.296   2.134   6.494
 7301SOL    HW222803   4.433   2.065   6.549
 7302SOL     OW22804   5.234   2.231   6.954
 7302SOL    HW122805   5.266   2.323   6.930
 7302SOL    HW222806   5.313   2.170   6.963
 7303SOL     OW22807   3.003   2.008   1.393
 7303SOL    HW122808   3.064   2.085   1.409
 7303SOL    HW222809   3.022   1.935   1.459
 7304SOL     OW22810   2.271   6.255   0.577
 7304SOL    HW122811   2.334   6.308   0.520
 7304SOL    HW222812   2.289   6.275   0.674
 7305SOL     OW22813   6.265   0.251   6.546
 7305SOL    HW122814   6.305   0.340   6.570
 7305SOL    HW222815   6.199   0.264   6.472
 7306SOL     OW22816   0.953   3.221   1.285
 7306SOL    HW122817   0.982   3.313   1.257
 7306SOL    HW222818   0.949   3.217   1.385
 7307SOL     OW22819   2.338   0.641   2.194
 7307SOL    HW122820   2.391   0.652   2.278
 7307SOL    HW222821   2.399   0.651   2.115
 7308SOL     OW22822   3.366   1.015   3.429
 7308SOL    HW122823   3.405   0.942   3.372
 7308SOL    HW222824   3.323   0.975   3.509
 7309SOL     OW22825   2.095   5.733   3.629
 7309SOL    HW122826   2.088   5.662   3.699
 7309SOL    HW222827   2.066   5.820   3.667
 7310SOL     OW22828   2.528   3.089   6.896
 7310SOL    HW122829   2.544   2.991   6.889
 7310SOL    HW222830   2.470   3.108   6.976
 7311SOL     OW22831   0.170   6.184   5.774
 7311SOL    HW122832   0.225   6.267   5.769
 7311SOL    HW222833   0.157   6.146   5.683
 7312SOL     OW22834   6.326   2.120   4.470
 7312SOL    HW122835   6.253   2.148   4.532
 7312SOL    HW222836   6.341   2.021   4.478
 7313SOL     OW22837   3.148   1.152   2.707
 7313SOL    HW122838   3.209   1.134   2.784
 7313SOL    HW222839   3.200   1.189   2.630
 7314SOL     OW22840   2.105   5.100   5.698
 7314SOL    HW122841   2.033   5.045   5.740
 7314SOL    HW222842   2.164   5.042   5.643
 7315SOL     OW22843   3.375   4.901   2.428
 7315SOL    HW122844   3.306   4.891   2.357
 7315SOL    HW222845   3.329   4.923   2.515
 7316SOL     OW22846   3.689   1.477   1.529
 7316SOL    HW122847   3.689   1.409   1.456
 7316SOL    HW222848   3.603   1.471   1.580
 7317SOL     OW22849   4.604   1.928   0.990
 7317SOL    HW122850   4.589   1.938   0.892
 7317SOL    HW222851   4.645   1.838   1.009
 7318SOL     OW22852   5.240   0.249   0.710
 7318SOL    HW122853   5.296   0.282   0.786
 7318SOL    HW222854   5.285   0.270   0.623
 7319SOL     OW22855   5.160   6.225   6.520
 7319SOL    HW122856   5.099   6.212   6.442
 7319SOL    HW222857   5.179   6.323   6.531
 7320SOL     OW22858   0.297   2.849   0.328
 7320SOL    HW122859   0.255   2.872   0.240
 7320SOL    HW222860   0.309   2.932   0.382
 7321SOL     OW22861   2.263   2.166   6.002
 7321SOL    HW122862   2.174   2.203   6.030
 7321SOL    HW222863   2.310   2.129   6.082
 7322SOL     OW22864   1.116   2.371   3.875
 7322SOL    HW122865   1.082   2.278   3.883
 7322SOL    HW222866   1.182   2.377   3.800
 7323SOL     OW22867   1.243   2.169   0.870
 7323SOL    HW122868   1.226   2.264   0.895
 7323SOL    HW222869   1.309   2.129   0.934
 7324SOL     OW22870   4.919   4.017   4.235
 7324SOL    HW122871   4.994   4.066   4.189
 7324SOL    HW222872   4.832   4.049   4.200
 7325SOL     OW22873   3.585   1.625   6.057
 7325SOL    HW122874   3.497   1.645   6.013
 7325SOL    HW222875   3.651   1.696   6.031
 7326SOL     OW22876   3.961   6.852   0.434
 7326SOL    HW122877   3.953   6.952   0.431
 7326SOL    HW222878   3.980   6.817   0.342
 7327SOL     OW22879   1.858   4.245   3.270
 7327SOL    HW122880   1.762   4.230   3.295
 7327SOL    HW222881   1.915   4.236   3.352
 7328SOL     OW22882   4.791   4.915   6.088
 7328SOL    HW122883   4.720   4.975   6.050
 7328SOL    HW222884   4.879   4.936   6.043
 7329SOL     OW22885   2.689   4.130   0.875
 7329SOL    HW122886   2.596   4.129   0.910
 7329SOL    HW222887   2.717   4.225   0.857
 7330SOL     OW22888   2.682   3.057   0.737
 7330SOL    HW122889   2.757   3.022   0.680
 7330SOL    HW222890   2.721   3.108   0.814
 7331SOL     OW22891   5.149   2.191   2.597
 7331SOL    HW122892   5.218   2.130   2.558
 7331SOL    HW222893   5.154   2.280   2.551
 7332SOL     OW22894   2.681   6.543   5.461
 7332SOL    HW122895   2.720   6.619   5.512
 7332SOL    HW222896   2.724   6.458   5.490
 7333SOL     OW22897   6.757   0.646   1.165
 7333SOL    HW122898   6.715   0.558   1.188
 7333SOL    HW222899   6.851   0.648   1.199
 7334SOL     OW22900   1.713   4.632   4.694
 7334SOL    HW122901   1.696   4.564   4.765
 7334SOL    HW222902   1.781   4.597   4.630
 7335SOL     OW22903   0.831   3.676   2.337
 7335SOL    HW122904   0.772   3.596   2.353
 7335SOL    HW222905   0.818   3.742   2.410
 7336SOL     OW22906   2.716   6.940   1.102
 7336SOL    HW122907   2.650   6.972   1.170
 7336SOL    HW222908   2.724   6.841   1.107
 7337SOL     OW22909   3.245   1.445   3.833
 7337SOL    HW122910   3.270   1.527   3.782
 7337SOL    HW222911   3.245   1.366   3.772
 7338SOL     OW22912   5.205   3.900   0.949
 7338SOL    HW122913   5.279   3.851   0.902
 7338SOL    HW222914   5.177   3.979   0.893
 7339SOL     OW22915   0.556   6.025   4.610
 7339SOL    HW122916   0.540   5.965   4.688
 7339SOL    HW222917   0.654   6.029   4.590
 7340SOL     OW22918   2.875   5.981   0.046
 7340SOL    HW122919   2.874   5.976   6.967
 7340SOL    HW222920   2.807   6.047   0.077
 7341SOL     OW22921   6.508   5.363   4.248
 7341SOL    HW122922   6.473   5.442   4.298
 7341SOL    HW222923   6.559   5.304   4.310
 7342SOL     OW22924   0.791   5.050   0.914
 7342SOL    HW122925   0.741   5.018   0.995
 7342SOL    HW222926   0.855   4.979   0.885
 7343SOL     OW22927   6.189   2.491   3.136
 7343SOL    HW122928   6.258   2.493   3.064
 7343SOL    HW222929   6.210   2.417   3.200
 7344SOL     OW22930   2.272   1.021   6.748
 7344SOL    HW122931   2.321   0.962   6.683
 7344SOL    HW222932   2.242   1.104   6.700
 7345SOL     OW22933   2.367   6.455   0.060
 7345SOL    HW122934   2.336   6.549   0.040
 7345SOL    HW222935   2.288   6.396   0.072
 7346SOL     OW22936   3.867   4.857   2.240
 7346SOL    HW122937   3.930   4.831   2.313
 7346SOL    HW222938   3.773   4.839   2.269
 7347SOL     OW22939   6.577   2.741   2.767
 7347SOL    HW122940   6.651   2.807   2.773
 7347SOL    HW222941   6.572   2.704   2.675
 7348SOL     OW22942   6.795   1.283   5.405
 7348SOL    HW122943   6.812   1.200   5.352
 7348SOL    HW222944   6.806   1.262   5.503
 7349SOL     OW22945   3.867   1.609   1.056
 7349SOL    HW122946   3.784   1.665   1.054
 7349SOL    HW222947   3.841   1.512   1.055
 7350SOL     OW22948   2.239   1.036   3.274
 7350SOL    HW122949   2.283   0.961   3.226
 7350SOL    HW222950   2.210   1.006   3.364
 7351SOL     OW22951   4.171   4.792   0.871
 7351SOL    HW122952   4.252   4.848   0.853
 7351SOL    HW222953   4.173   4.759   0.965
 7352SOL     OW22954   6.537   0.550   3.167
 7352SOL    HW122955   6.461   0.487   3.154
 7352SOL    HW222956   6.624   0.502   3.152
 7353SOL     OW22957   5.347   1.497   4.765
 7353SOL    HW122958   5.435   1.504   4.811
 7353SOL    HW222959   5.292   1.426   4.809
 7354SOL     OW22960   6.218   4.301   4.558
 7354SOL    HW122961   6.302   4.275   4.510
 7354SOL    HW222962   6.180   4.222   4.605
 7355SOL     OW22963   0.966   5.559   0.854
 7355SOL    HW122964   1.033   5.600   0.792
 7355SOL    HW222965   0.874   5.582   0.824
 7356SOL     OW22966   6.934   1.962   5.887
 7356SOL    HW122967   6.926   2.013   5.801
 7356SOL    HW222968   0.009   1.943   5.907
 7357SOL     OW22969   0.649   1.516   6.938
 7357SOL    HW122970   0.634   1.426   6.979
 7357SOL    HW222971   0.746   1.541   6.948
 7358SOL     OW22972   3.405   0.927   4.073
 7358SOL    HW122973   3.395   0.872   4.156
 7358SOL    HW222974   3.361   1.016   4.086
 7359SOL     OW22975   3.607   2.907   3.416
 7359SOL    HW122976   3.635   2.868   3.328
 7359SOL    HW222977   3.507   2.906   3.422
 7360SOL     OW22978   0.134   4.085   5.915
 7360SOL    HW122979   0.082   4.165   5.885
 7360SOL    HW222980   0.217   4.115   5.961
 7361SOL     OW22981   4.718   6.462   1.638
 7361SOL    HW122982   4.798   6.436   1.584
 7361SOL    HW222983   4.705   6.396   1.712
 7362SOL     OW22984   1.787   6.322   6.014
 7362SOL    HW122985   1.784   6.410   5.967
 7362SOL    HW222986   1.822   6.252   5.952
 7363SOL     OW22987   4.748   3.016   6.693
 7363SOL    HW122988   4.686   3.094   6.692
 7363SOL    HW222989   4.768   2.987   6.599
 7364SOL     OW22990   4.613   0.778   1.253
 7364SOL    HW122991   4.517   0.775   1.277
 7364SOL    HW222992   4.626   0.738   1.162
 7365SOL     OW22993   3.689   0.709   1.776
 7365SOL    HW122994   3.649   0.735   1.864
 7365SOL    HW222995   3.664   0.614   1.756
 7366SOL     OW22996   0.949   6.975   0.067
 7366SOL    HW122997   0.932   6.912   7.012
 7366SOL    HW222998   0.866   6.984   0.122
 7367SOL     OW22999   4.678   2.795   0.016
 7367SOL    HW123000   4.772   2.825   0.034
 7367SOL    HW223001   4.615   2.871   0.032
 7368SOL     OW23002   3.340   3.006   3.798
 7368SOL    HW123003   3.347   3.047   3.707
 7368SOL    HW223004   3.251   3.029   3.838
 7369SOL     OW23005   5.027   1.629   6.289
 7369SOL    HW123006   4.985   1.704   6.340
 7369SOL    HW223007   5.049   1.659   6.197
 7370SOL     OW23008   1.200   5.596   0.991
 7370SOL    HW123009   1.207   5.696   0.992
 7370SOL    HW223010   1.110   5.569   0.956
 7371SOL     OW23011   1.848   4.866   4.565
 7371SOL    HW123012   1.807   4.791   4.618
 7371SOL    HW223013   1.946   4.870   4.584
 7372SOL     OW23014   3.079   6.716   5.295
 7372SOL    HW123015   3.171   6.678   5.295
 7372SOL    HW223016   3.016   6.649   5.256
 7373SOL     OW23017   3.420   0.107   0.644
 7373SOL    HW123018   3.350   0.043   0.676
 7373SOL    HW223019   3.430   0.182   0.711
 7374SOL     OW23020   2.376   3.397   6.513
 7374SOL    HW123021   2.318   3.477   6.529
 7374SOL    HW223022   2.342   3.319   6.564
 7375SOL     OW23023   2.658   6.385   3.034
 7375SOL    HW123024   2.717   6.453   3.078
 7375SOL    HW223025   2.702   6.296   3.035
 7376SOL     OW23026   3.281   4.176   6.548
 7376SOL    HW123027   3.290   4.162   6.450
 7376SOL    HW223028   3.285   4.088   6.595
 7377SOL     OW23029   6.029   5.856   1.981
 7377SOL    HW123030   5.946   5.907   1.955
 7377SOL    HW223031   6.003   5.778   2.037
 7378SOL     OW23032   0.258   2.673   5.849
 7378SOL    HW123033   0.245   2.586   5.898
 7378SOL    HW223034   0.356   2.690   5.837
 7379SOL     OW23035   3.932   1.283   1.361
 7379SOL    HW123036   4.022   1.255   1.331
 7379SOL    HW223037   3.937   1.375   1.401
 7380SOL     OW23038   6.680   2.615   5.481
 7380SOL    HW123039   6.757   2.620   5.418
 7380SOL    HW223040   6.711   2.579   5.569
 7381SOL     OW23041   4.645   2.374   0.439
 7381SOL    HW123042   4.638   2.354   0.537
 7381SOL    HW223043   4.553   2.391   0.402
 7382SOL     OW23044   1.220   5.520   3.638
 7382SOL    HW123045   1.283   5.451   3.603
 7382SOL    HW223046   1.213   5.513   3.737
 7383SOL     OW23047   0.713   5.066   3.074
 7383SOL    HW123048   0.641   5.130   3.049
 7383SOL    HW223049   0.684   5.013   3.154
 7384SOL     OW23050   6.443   1.754   1.572
 7384SOL    HW123051   6.455   1.764   1.671
 7384SOL    HW223052   6.420   1.659   1.551
 7385SOL     OW23053   5.241   0.814   1.488
 7385SOL    HW123054   5.164   0.771   1.537
 7385SOL    HW223055   5.205   0.880   1.422
 7386SOL     OW23056   0.121   2.467   5.959
 7386SOL    HW123057   0.160   2.382   5.923
 7386SOL    HW223058   0.027   2.477   5.924
 7387SOL     OW23059   5.476   6.437   4.223
 7387SOL    HW123060   5.467   6.462   4.126
 7387SOL    HW223061   5.473   6.520   4.278
 7388SOL     OW23062   5.496   4.263   5.033
 7388SOL    HW123063   5.458   4.206   4.960
 7388SOL    HW223064   5.552   4.206   5.093
 7389SOL     OW23065   0.260   3.958   4.360
 7389SOL    HW123066   0.356   3.933   4.341
 7389SOL    HW223067   0.202   3.879   4.342
 7390SOL     OW23068   3.216   0.168   6.536
 7390SOL    HW123069   3.211   0.086   6.593
 7390SOL    HW223070   3.294   0.225   6.565
 7391SOL     OW23071   6.679   4.949   0.160
 7391SOL    HW123072   6.685   4.994   0.249
 7391SOL    HW223073   6.750   4.878   0.154
 7392SOL     OW23074   2.143   4.597   2.794
 7392SOL    HW123075   2.218   4.663   2.805
 7392SOL    HW223076   2.064   4.630   2.845
 7393SOL     OW23077   0.627   3.895   6.976
 7393SOL    HW123078   0.649   3.861   0.046
 7393SOL    HW223079   0.665   3.987   6.965
 7394SOL     OW23080   2.643   2.629   6.126
 7394SOL    HW123081   2.614   2.533   6.130
 7394SOL    HW223082   2.684   2.647   6.036
 7395SOL     OW23083   1.875   7.008   6.888
 7395SOL    HW123084   1.903   6.936   6.951
 7395SOL    HW223085   1.937   7.010   6.809
 7396SOL     OW23086   6.831   0.028   1.756
 7396SOL    HW123087   6.877   7.012   1.676
 7396SOL    HW223088   6.763   0.095   1.728
 7397SOL     OW23089   6.462   4.384   4.476
 7397SOL    HW123090   6.513   4.329   4.541
 7397SOL    HW223091   6.430   4.467   4.521
 7398SOL     OW23092   4.748   6.977   2.699
 7398SOL    HW123093   4.847   6.990   2.699
 7398SOL    HW223094   4.703   0.045   2.694
 7399SOL     OW23095   5.419   4.662   4.676
 7399SOL    HW123096   5.430   4.637   4.772
 7399SOL    HW223097   5.330   4.706   4.663
 7400SOL     OW23098   2.805   3.731   0.381
 7400SOL    HW123099   2.708   3.722   0.357
 7400SOL    HW223100   2.860   3.732   0.298
 7401SOL     OW23101   5.949   2.028   4.838
 7401SOL    HW123102   5.869   2.086   4.851
 7401SOL    HW223103   5.960   1.969   4.918
 7402SOL     OW23104   2.869   6.157   4.455
 7402SOL    HW123105   2.797   6.122   4.394
 7402SOL    HW223106   2.869   6.106   4.541
 7403SOL     OW23107   2.836   2.665   1.059
 7403SOL    HW123108   2.762   2.700   1.002
 7403SOL    HW223109   2.808   2.577   1.099
 7404SOL     OW23110   1.462   2.185   2.579
 7404SOL    HW123111   1.537   2.236   2.537
 7404SOL    HW223112   1.418   2.128   2.510
 7405SOL     OW23113   4.152   5.135   6.278
 7405SOL    HW123114   4.078   5.111   6.341
 7405SOL    HW223115   4.240   5.131   6.327
 7406SOL     OW23116   0.448   6.545   1.943
 7406SOL    HW123117   0.474   6.459   1.987
 7406SOL    HW223118   0.527   6.585   1.898
 7407SOL     OW23119   2.702   0.574   6.091
 7407SOL    HW123120   2.623   0.515   6.075
 7407SOL    HW223121   2.684   0.632   6.171
 7408SOL     OW23122   0.933   3.767   5.005
 7408SOL    HW123123   0.918   3.806   5.096
 7408SOL    HW223124   0.971   3.675   5.014
 7409SOL     OW23125   2.641   6.650   5.185
 7409SOL    HW123126   2.635   6.621   5.280
 7409SOL    HW223127   2.574   6.599   5.130
 7410SOL     OW23128   5.034   5.096   6.710
 7410SOL    HW123129   5.120   5.047   6.719
 7410SOL    HW223130   5.028   5.137   6.619
 7411SOL     OW23131   5.025   4.742   6.013
 7411SOL    HW123132   5.003   4.673   6.082
 7411SOL    HW223133   4.986   4.715   5.925
 7412SOL     OW23134   1.445   0.981   6.680
 7412SOL    HW123135   1.386   0.961   6.602
 7412SOL    HW223136   1.393   0.973   6.765
 7413SOL     OW23137   6.950   3.716   4.107
 7413SOL    HW123138   6.978   3.787   4.041
 7413SOL    HW223139   6.929   3.631   4.058
 7414SOL     OW23140   0.420   5.188   2.502
 7414SOL    HW123141   0.442   5.097   2.465
 7414SOL    HW223142   0.337   5.222   2.458
 7415SOL     OW23143   2.991   1.845   3.718
 7415SOL    HW123144   3.089   1.827   3.725
 7415SOL    HW223145   2.963   1.844   3.622
 7416SOL     OW23146   6.121   0.125   3.255
 7416SOL    HW123147   6.041   0.068   3.275
 7416SOL    HW223148   6.153   0.169   3.339
 7417SOL     OW23149   1.115   5.704   0.650
 7417SOL    HW123150   1.089   5.673   0.559
 7417SOL    HW223151   1.142   5.800   0.647
 7418SOL     OW23152   0.674   3.739   0.625
 7418SOL    HW123153   0.742   3.666   0.628
 7418SOL    HW223154   0.587   3.701   0.593
 7419SOL     OW23155   5.629   1.667   5.609
 7419SOL    HW123156   5.563   1.601   5.572
 7419SOL    HW223157   5.676   1.714   5.534
 7420SOL     OW23158   6.747   5.833   2.582
 7420SOL    HW123159   6.758   5.928   2.551
 7420SOL    HW223160   6.653   5.819   2.613
 7421SOL     OW23161   4.112   2.148   1.243
 7421SOL    HW123162   4.078   2.183   1.330
 7421SOL    HW223163   4.160   2.062   1.258
 7422SOL     OW23164   0.733   1.940   0.950
 7422SOL    HW123165   0.705   1.903   0.861
 7422SOL    HW223166   0.689   1.887   1.022
 7423SOL     OW23167   2.455   4.702   6.653
 7423SOL    HW123168   2.467   4.796   6.687
 7423SOL    HW223169   2.372   4.663   6.691
 7424SOL     OW23170   5.331   0.530   4.846
 7424SOL    HW123171   5.347   0.539   4.747
 7424SOL    HW223172   5.380   0.449   4.879
 7425SOL     OW23173   3.814   0.332   4.948
 7425SOL    HW123174   3.777   0.394   5.018
 7425SOL    HW223175   3.755   0.335   4.867
 7426SOL     OW23176   0.444   1.660   6.974
 7426SOL    HW123177   0.420   1.677   0.048
 7426SOL    HW223178   0.527   1.605   6.970
 7427SOL     OW23179   4.917   5.903   5.016
 7427SOL    HW123180   4.920   5.831   4.946
 7427SOL    HW223181   4.989   5.970   4.998
 7428SOL     OW23182   3.064   1.352   5.710
 7428SOL    HW123183   3.156   1.315   5.723
 7428SOL    HW223184   3.054   1.382   5.615
 7429SOL     OW23185   6.444   6.489   3.980
 7429SOL    HW123186   6.525   6.532   3.942
 7429SOL    HW223187   6.390   6.557   4.029
 7430SOL     OW23188   0.192   4.507   4.609
 7430SOL    HW123189   0.268   4.445   4.625
 7430SOL    HW223190   0.108   4.468   4.648
 7431SOL     OW23191   0.512   4.095   2.253
 7431SOL    HW123192   0.569   4.074   2.333
 7431SOL    HW223193   0.478   4.188   2.260
 7432SOL     OW23194   1.653   6.539   4.815
 7432SOL    HW123195   1.700   6.468   4.869
 7432SOL    HW223196   1.560   6.551   4.850
 7433SOL     OW23197   0.067   6.356   1.080
 7433SOL    HW123198   0.155   6.401   1.085
 7433SOL    HW223199   0.080   6.257   1.085
 7434SOL     OW23200   4.113   6.948   6.867
 7434SOL    HW123201   4.017   6.976   6.867
 7434SOL    HW223202   4.157   6.982   6.784
 7435SOL     OW23203   1.487   6.061   6.975
 7435SOL    HW123204   1.577   6.065   6.932
 7435SOL    HW223205   1.420   6.108   6.917
 7436SOL     OW23206   4.332   3.477   7.006
 7436SOL    HW123207   4.364   3.408   0.050
 7436SOL    HW223208   4.406   3.499   6.941
 7437SOL     OW23209   0.008   5.923   5.839
 7437SOL    HW123210   0.074   5.995   5.863
 7437SOL    HW223211   0.019   5.846   5.903
 7438SOL     OW23212   5.636   3.715   1.492
 7438SOL    HW123213   5.577   3.659   1.549
 7438SOL    HW223214   5.584   3.794   1.458
 7439SOL     OW23215   1.018   6.193   3.775
 7439SOL    HW123216   0.988   6.137   3.698
 7439SOL    HW223217   0.972   6.282   3.772
 7440SOL     OW23218   0.812   1.831   3.454
 7440SOL    HW123219   0.890   1.880   3.495
 7440SOL    HW223220   0.846   1.758   3.395
 7441SOL     OW23221   6.159   6.834   3.624
 7441SOL    HW123222   6.210   6.832   3.709
 7441SOL    HW223223   6.221   6.849   3.547
 7442SOL     OW23224   1.542   0.653   5.945
 7442SOL    HW123225   1.586   0.641   6.034
 7442SOL    HW223226   1.604   0.622   5.873
 7443SOL     OW23227   6.761   1.810   1.564
 7443SOL    HW123228   6.809   1.775   1.644
 7443SOL    HW223229   6.664   1.788   1.571
 7444SOL     OW23230   0.555   1.925   5.411
 7444SOL    HW123231   0.536   1.839   5.458
 7444SOL    HW223232   0.521   2.002   5.465
 7445SOL     OW23233   6.040   2.598   2.108
 7445SOL    HW123234   6.095   2.621   2.028
 7445SOL    HW223235   6.043   2.674   2.173
 7446SOL     OW23236   6.414   3.249   2.433
 7446SOL    HW123237   6.482   3.218   2.367
 7446SOL    HW223238   6.460   3.298   2.508
 7447SOL     OW23239   0.056   4.052   6.389
 7447SOL    HW123240   0.048   4.113   6.311
 7447SOL    HW223241   0.001   3.969   6.372
 7448SOL     OW23242   0.132   6.565   5.952
 7448SOL    HW123243   0.101   6.552   5.857
 7448SOL    HW223244   0.226   6.532   5.961
 7449SOL     OW23245   4.540   0.491   1.076
 7449SOL    HW123246   4.488   0.529   1.001
 7449SOL    HW223247   4.632   0.468   1.045
 7450SOL     OW23248   3.512   0.413   1.895
 7450SOL    HW123249   3.477   0.323   1.870
 7450SOL    HW223250   3.582   0.403   1.966
 7451SOL     OW23251   1.397   0.679   2.193
 7451SOL    HW123252   1.472   0.671   2.128
 7451SOL    HW223253   1.333   0.603   2.180
 7452SOL     OW23254   1.987   6.507   3.404
 7452SOL    HW123255   1.976   6.592   3.353
 7452SOL    HW223256   1.898   6.477   3.439
 7453SOL     OW23257   6.025   5.317   5.328
 7453SOL    HW123258   6.058   5.295   5.419
 7453SOL    HW223259   6.018   5.232   5.274
 7454SOL     OW23260   0.769   3.048   6.772
 7454SOL    HW123261   0.671   3.060   6.790
 7454SOL    HW223262   0.814   3.014   6.854
 7455SOL     OW23263   5.037   1.033   0.432
 7455SOL    HW123264   5.086   1.056   0.348
 7455SOL    HW223265   5.022   1.116   0.486
 7456SOL     OW23266   1.107   3.360   5.463
 7456SOL    HW123267   1.176   3.384   5.395
 7456SOL    HW223268   1.016   3.382   5.427
 7457SOL     OW23269   6.532   6.664   6.168
 7457SOL    HW123270   6.555   6.677   6.071
 7457SOL    HW223271   6.472   6.584   6.178
 7458SOL     OW23272   2.556   0.200   1.165
 7458SOL    HW123273   2.620   0.242   1.229
 7458SOL    HW223274   2.537   0.106   1.193
 7459SOL     OW23275   4.732   0.112   4.919
 7459SOL    HW123276   4.748   0.022   4.960
 7459SOL    HW223277   4.691   0.101   4.828
 7460SOL     OW23278   0.999   5.645   6.624
 7460SOL    HW123279   0.966   5.650   6.530
 7460SOL    HW223280   1.098   5.626   6.623
 7461SOL     OW23281   4.378   1.035   4.338
 7461SOL    HW123282   4.363   0.938   4.320
 7461SOL    HW223283   4.298   1.087   4.307
 7462SOL     OW23284   2.014   0.835   2.656
 7462SOL    HW123285   1.922   0.813   2.624
 7462SOL    HW223286   2.032   0.933   2.642
 7463SOL     OW23287   3.598   3.998   1.951
 7463SOL    HW123288   3.648   3.953   1.877
 7463SOL    HW223289   3.605   3.943   2.034
 7464SOL     OW23290   4.954   0.039   0.133
 7464SOL    HW123291   4.937   0.013   0.228
 7464SOL    HW223292   4.870   0.074   0.092
 7465SOL     OW23293   3.350   1.192   2.506
 7465SOL    HW123294   3.338   1.262   2.436
 7465SOL    HW223295   3.446   1.189   2.534
 7466SOL     OW23296   6.173   0.796   6.792
 7466SOL    HW123297   6.077   0.817   6.775
 7466SOL    HW223298   6.214   0.754   6.711
 7467SOL     OW23299   4.922   1.431   0.980
 7467SOL    HW123300   4.862   1.356   0.952
 7467SOL    HW223301   4.979   1.459   0.903
 7468SOL     OW23302   5.872   3.707   4.581
 7468SOL    HW123303   5.946   3.654   4.622
 7468SOL    HW223304   5.908   3.795   4.549
 7469SOL     OW23305   5.902   1.207   2.357
 7469SOL    HW123306   5.958   1.201   2.440
 7469SOL    HW223307   5.823   1.266   2.375
 7470SOL     OW23308   0.455   3.522   2.660
 7470SOL    HW123309   0.447   3.621   2.664
 7470SOL    HW223310   0.548   3.495   2.683
 7471SOL     OW23311   5.952   4.568   5.725
 7471SOL    HW123312   5.966   4.593   5.821
 7471SOL    HW223313   5.920   4.473   5.720
 7472SOL     OW23314   3.922   4.837   3.006
 7472SOL    HW123315   3.841   4.896   3.010
 7472SOL    HW223316   3.932   4.800   2.913
 7473SOL     OW23317   0.855   3.418   5.393
 7473SOL    HW123318   0.796   3.416   5.313
 7473SOL    HW223319   0.803   3.452   5.472
 7474SOL     OW23320   3.239   2.205   3.299
 7474SOL    HW123321   3.316   2.200   3.361
 7474SOL    HW223322   3.266   2.171   3.208
 7475SOL     OW23323   4.200   1.339   6.888
 7475SOL    HW123324   4.234   1.327   6.795
 7475SOL    HW223325   4.136   1.266   6.910
 7476SOL     OW23326   3.116   0.262   5.322
 7476SOL    HW123327   3.039   0.324   5.304
 7476SOL    HW223328   3.194   0.289   5.266
 7477SOL     OW23329   4.807   3.931   3.900
 7477SOL    HW123330   4.752   3.979   3.969
 7477SOL    HW223331   4.813   3.987   3.817
 7478SOL     OW23332   1.482   4.534   1.304
 7478SOL    HW123333   1.435   4.551   1.217
 7478SOL    HW223334   1.469   4.438   1.330
 7479SOL     OW23335   4.057   0.820   5.717
 7479SOL    HW123336   4.086   0.894   5.778
 7479SOL    HW223337   4.078   0.732   5.760
 7480SOL     OW23338   6.538   5.613   0.877
 7480SOL    HW123339   6.513   5.585   0.970
 7480SOL    HW223340   6.456   5.612   0.820
 7481SOL     OW23341   6.356   6.249   0.647
 7481SOL    HW123342   6.331   6.241   0.550
 7481SOL    HW223343   6.303   6.323   0.689
 7482SOL     OW23344   5.149   0.134   4.001
 7482SOL    HW123345   5.111   0.043   4.013
 7482SOL    HW223346   5.178   0.146   3.906
 7483SOL     OW23347   3.368   0.059   6.299
 7483SOL    HW123348   3.345   7.008   6.233
 7483SOL    HW223349   3.285   0.090   6.345
 7484SOL     OW23350   3.486   0.500   2.337
 7484SOL    HW123351   3.527   0.571   2.280
 7484SOL    HW223352   3.446   0.542   2.419
 7485SOL     OW23353   1.053   6.615   5.202
 7485SOL    HW123354   1.009   6.698   5.237
 7485SOL    HW223355   0.983   6.557   5.159
 7486SOL     OW23356   1.440   1.071   4.912
 7486SOL    HW123357   1.356   1.061   4.858
 7486SOL    HW223358   1.515   1.095   4.851
 7487SOL     OW23359   4.084   5.556   3.061
 7487SOL    HW123360   4.085   5.577   2.964
 7487SOL    HW223361   3.994   5.519   3.087
 7488SOL     OW23362   3.382   1.000   5.715
 7488SOL    HW123363   3.342   1.011   5.624
 7488SOL    HW223364   3.313   1.019   5.785
 7489SOL     OW23365   6.632   3.933   2.994
 7489SOL    HW123366   6.542   3.954   2.955
 7489SOL    HW223367   6.633   3.840   3.029
 7490SOL     OW23368   5.820   1.393   3.196
 7490SOL    HW123369   5.855   1.467   3.138
 7490SOL    HW223370   5.799   1.314   3.139
 7491SOL     OW23371   0.190   6.581   0.027
 7491SOL    HW123372   0.127   6.652   7.017
 7491SOL    HW223373   0.235   6.610   0.111
 7492SOL     OW23374   2.095   2.522   3.708
 7492SOL    HW123375   2.075   2.577   3.628
 7492SOL    HW223376   2.068   2.572   3.791
 7493SOL     OW23377   5.222   4.655   6.755
 7493SOL    HW123378   5.141   4.596   6.755
 7493SOL    HW223379   5.270   4.646   6.842
 7494SOL     OW23380   5.398   1.417   1.246
 7494SOL    HW123381   5.466   1.461   1.306
 7494SOL    HW223382   5.384   1.473   1.165
 7495SOL     OW23383   0.633   1.639   2.505
 7495SOL    HW123384   0.684   1.554   2.496
 7495SOL    HW223385   0.659   1.684   2.591
 7496SOL     OW23386   0.344   5.027   6.187
 7496SOL    HW123387   0.341   5.041   6.286
 7496SOL    HW223388   0.436   5.046   6.153
 7497SOL     OW23389   1.657   4.996   2.370
 7497SOL    HW123390   1.751   5.029   2.382
 7497SOL    HW223391   1.637   4.929   2.442
 7498SOL     OW23392   4.985   1.644   4.513
 7498SOL    HW123393   4.927   1.651   4.432
 7498SOL    HW223394   5.071   1.601   4.488
 7499SOL     OW23395   4.184   4.919   3.629
 7499SOL    HW123396   4.192   4.907   3.530
 7499SOL    HW223397   4.150   5.010   3.650
 7500SOL     OW23398   4.807   3.987   1.773
 7500SOL    HW123399   4.871   3.926   1.818
 7500SOL    HW223400   4.757   3.938   1.702
 7501SOL     OW23401   0.377   4.628   3.703
 7501SOL    HW123402   0.408   4.570   3.778
 7501SOL    HW223403   0.451   4.690   3.677
 7502SOL     OW23404   1.802   2.248   4.481
 7502SOL    HW123405   1.816   2.261   4.579
 7502SOL    HW223406   1.774   2.335   4.440
 7503SOL     OW23407   1.765   2.681   6.880
 7503SOL    HW123408   1.723   2.593   6.904
 7503SOL    HW223409   1.694   2.746   6.855
 7504SOL     OW23410   4.128   5.750   3.402
 7504SOL    HW123411   4.059   5.687   3.367
 7504SOL    HW223412   4.212   5.740   3.350
 7505SOL     OW23413   1.734   1.970   4.140
 7505SOL    HW123414   1.635   1.970   4.129
 7505SOL    HW223415   1.777   2.008   4.058
 7506SOL     OW23416   3.503   1.373   3.933
 7506SOL    HW123417   3.512   1.394   3.835
 7506SOL    HW223418   3.406   1.375   3.958
 7507SOL     OW23419   1.749   6.105   5.730
 7507SOL    HW123420   1.702   6.193   5.724
 7507SOL    HW223421   1.823   6.111   5.797
 7508SOL     OW23422   4.995   5.476   4.539
 7508SOL    HW123423   4.911   5.423   4.544
 7508SOL    HW223424   5.059   5.444   4.608
 7509SOL     OW23425   4.136   3.708   6.313
 7509SOL    HW123426   4.223   3.750   6.339
 7509SOL    HW223427   4.125   3.713   6.214
 7510SOL     OW23428   2.878   3.705   4.747
 7510SOL    HW123429   2.901   3.761   4.826
 7510SOL    HW223430   2.849   3.614   4.777
 7511SOL     OW23431   1.199   0.327   2.646
 7511SOL    HW123432   1.146   0.298   2.567
 7511SOL    HW223433   1.252   0.250   2.682
 7512SOL     OW23434   2.398   3.042   1.715
 7512SOL    HW123435   2.454   2.995   1.647
 7512SOL    HW223436   2.432   3.135   1.729
 7513SOL     OW23437   1.090   3.277   6.609
 7513SOL    HW123438   1.186   3.254   6.623
 7513SOL    HW223439   1.056   3.328   6.688
 7514SOL     OW23440   2.974   5.881   3.135
 7514SOL    HW123441   3.048   5.924   3.187
 7514SOL    HW223442   2.886   5.903   3.177
 7515SOL     OW23443   0.086   5.061   2.733
 7515SOL    HW123444   0.115   4.966   2.721
 7515SOL    HW223445   0.049   5.096   2.647
 7516SOL     OW23446   1.220   1.611   2.299
 7516SOL    HW123447   1.174   1.686   2.346
 7516SOL    HW223448   1.156   1.568   2.235
 7517SOL     OW23449   0.123   5.160   1.270
 7517SOL    HW123450   0.122   5.192   1.175
 7517SOL    HW223451   0.183   5.219   1.324
 7518SOL     OW23452   5.278   5.076   3.449
 7518SOL    HW123453   5.341   5.085   3.526
 7518SOL    HW223454   5.224   4.993   3.459
 7519SOL     OW23455   0.981   6.830   4.039
 7519SOL    HW123456   0.969   6.890   3.960
 7519SOL    HW223457   0.989   6.735   4.008
 7520SOL     OW23458   2.470   7.004   4.044
 7520SOL    HW123459   2.521   0.053   4.092
 7520SOL    HW223460   2.480   7.017   3.945
 7521SOL     OW23461   4.859   3.564   5.653
 7521SOL    HW123462   4.939   3.582   5.711
 7521SOL    HW223463   4.814   3.480   5.682
 7522SOL     OW23464   2.141   0.597   2.658
 7522SOL    HW123465   2.094   0.522   2.611
 7522SOL    HW223466   2.091   0.682   2.644
 7523SOL     OW23467   6.224   0.297   0.373
 7523SOL    HW123468   6.268   0.214   0.407
 7523SOL    HW223469   6.146   0.271   0.316
 7524SOL     OW23470   5.945   0.725   4.566
 7524SOL    HW123471   6.004   0.684   4.496
 7524SOL    HW223472   5.987   0.810   4.598
 7525SOL     OW23473   1.049   6.287   0.351
 7525SOL    HW123474   1.065   6.221   0.278
 7525SOL    HW223475   0.957   6.274   0.388
 7526SOL     OW23476   3.669   2.955   5.028
 7526SOL    HW123477   3.671   2.946   4.928
 7526SOL    HW223478   3.679   3.051   5.053
 7527SOL     OW23479   4.891   5.858   1.855
 7527SOL    HW123480   4.864   5.783   1.796
 7527SOL    HW223481   4.956   5.824   1.924
 7528SOL     OW23482   5.963   3.225   6.301
 7528SOL    HW123483   5.973   3.321   6.274
 7528SOL    HW223484   5.887   3.216   6.365
 7529SOL     OW23485   3.184   0.202   4.830
 7529SOL    HW123486   3.121   0.169   4.900
 7529SOL    HW223487   3.183   0.302   4.828
 7530SOL     OW23488   6.909   2.935   3.471
 7530SOL    HW123489   6.865   2.867   3.530
 7530SOL    HW223490   6.882   3.026   3.501
 7531SOL     OW23491   2.534   1.911   4.240
 7531SOL    HW123492   2.554   1.821   4.202
 7531SOL    HW223493   2.595   1.979   4.199
 7532SOL     OW23494   5.024   4.683   2.089
 7532SOL    HW123495   5.098   4.749   2.074
 7532SOL    HW223496   5.055   4.613   2.154
 7533SOL     OW23497   3.439   0.496   4.858
 7533SOL    HW123498   3.392   0.511   4.770
 7533SOL    HW223499   3.430   0.577   4.915
 7534SOL     OW23500   5.641   6.743   4.131
 7534SOL    HW123501   5.682   6.689   4.057
 7534SOL    HW223502   5.549   6.771   4.105
 7535SOL     OW23503   3.934   4.522   0.286
 7535SOL    HW123504   4.025   4.546   0.253
 7535SOL    HW223505   3.942   4.465   0.367
 7536SOL     OW23506   3.982   6.260   4.445
 7536SOL    HW123507   3.894   6.297   4.475
 7536SOL    HW223508   3.992   6.167   4.480
 7537SOL     OW23509   2.439   4.607   5.729
 7537SOL    HW123510   2.509   4.548   5.690
 7537SOL    HW223511   2.349   4.571   5.706
 7538SOL     OW23512   3.346   2.993   3.332
 7538SOL    HW123513   3.366   3.051   3.411
 7538SOL    HW223514   3.270   2.932   3.354
 7539SOL     OW23515   1.687   2.634   4.697
 7539SOL    HW123516   1.784   2.631   4.722
 7539SOL    HW223517   1.639   2.697   4.759
 7540SOL     OW23518   2.120   1.048   0.134
 7540SOL    HW123519   2.217   1.029   0.147
 7540SOL    HW223520   2.093   1.021   0.042
 7541SOL     OW23521   6.702   2.112   5.254
 7541SOL    HW123522   6.762   2.177   5.300
 7541SOL    HW223523   6.623   2.161   5.216
 7542SOL     OW23524   1.808   0.395   6.020
 7542SOL    HW123525   1.714   0.361   6.019
 7542SOL    HW223526   1.820   0.464   5.949
 7543SOL     OW23527   3.461   3.244   6.760
 7543SOL    HW123528   3.372   3.200   6.777
 7543SOL    HW223529   3.454   3.342   6.775
 7544SOL     OW23530   1.110   2.489   2.393
 7544SOL    HW123531   1.122   2.429   2.472
 7544SOL    HW223532   1.048   2.447   2.327
 7545SOL     OW23533   5.033   0.510   3.243
 7545SOL    HW123534   5.040   0.472   3.150
 7545SOL    HW223535   5.124   0.538   3.274
 7546SOL     OW23536   4.786   6.580   6.159
 7546SOL    HW123537   4.874   6.549   6.122
 7546SOL    HW223538   4.801   6.633   6.242
 7547SOL     OW23539   3.072   6.979   0.199
 7547SOL    HW123540   3.037   6.886   0.188
 7547SOL    HW223541   3.112   6.988   0.291
 7548SOL     OW23542   1.185   3.060   1.166
 7548SOL    HW123543   1.135   3.070   1.252
 7548SOL    HW223544   1.228   3.147   1.141
 7549SOL     OW23545   5.973   2.112   2.081
 7549SOL    HW123546   6.028   2.029   2.091
 7549SOL    HW223547   6.008   2.166   2.004
 7550SOL     OW23548   1.072   5.090   1.563
 7550SOL    HW123549   1.005   5.016   1.567
 7550SOL    HW223550   1.131   5.077   1.484
 7551SOL     OW23551   4.702   3.750   6.289
 7551SOL    HW123552   4.687   3.652   6.276
 7551SOL    HW223553   4.747   3.766   6.376
 7552SOL     OW23554   3.382   5.225   4.130
 7552SOL    HW123555   3.365   5.139   4.083
 7552SOL    HW223556   3.311   5.241   4.199
 7553SOL     OW23557   4.612   4.022   5.693
 7553SOL    HW123558   4.567   4.071   5.618
 7553SOL    HW223559   4.583   4.061   5.780
 7554SOL     OW23560   6.427   1.065   1.263
 7554SOL    HW123561   6.485   1.001   1.313
 7554SOL    HW223562   6.476   1.100   1.183
 7555SOL     OW23563   1.523   5.656   5.690
 7555SOL    HW123564   1.600   5.664   5.627
 7555SOL    HW223565   1.535   5.721   5.765
 7556SOL     OW23566   0.062   3.392   3.799
 7556SOL    HW123567   7.020   3.409   3.874
 7556SOL    HW223568   0.098   3.299   3.805
 7557SOL     OW23569   3.947   3.406   0.556
 7557SOL    HW123570   3.935   3.347   0.636
 7557SOL    HW223571   4.019   3.369   0.498
 7558SOL     OW23572   1.559   2.502   3.200
 7558SOL    HW123573   1.505   2.494   3.117
 7558SOL    HW223574   1.508   2.467   3.278
 7559SOL     OW23575   1.302   4.407   0.427
 7559SOL    HW123576   1.289   4.313   0.458
 7559SOL    HW223577   1.307   4.410   0.327
 7560SOL     OW23578   4.550   0.076   5.241
 7560SOL    HW123579   4.556   0.159   5.186
 7560SOL    HW223580   4.454   0.047   5.247
 7561SOL     OW23581   0.343   3.607   0.011
 7561SOL    HW123582   0.418   3.628   0.074
 7561SOL    HW223583   0.372   3.534   6.970
 7562SOL     OW23584   4.832   6.496   5.326
 7562SOL    HW123585   4.771   6.530   5.397
 7562SOL    HW223586   4.850   6.399   5.341
 7563SOL     OW23587   2.977   1.183   2.951
 7563SOL    HW123588   3.060   1.145   2.909
 7563SOL    HW223589   2.939   1.253   2.891
 7564SOL     OW23590   4.842   6.663   4.161
 7564SOL    HW123591   4.758   6.610   4.151
 7564SOL    HW223592   4.819   6.757   4.186
 7565SOL     OW23593   4.664   4.518   6.901
 7565SOL    HW123594   4.618   4.430   6.891
 7565SOL    HW223595   4.596   4.592   6.899
 7566SOL     OW23596   2.289   5.591   5.164
 7566SOL    HW123597   2.284   5.681   5.120
 7566SOL    HW223598   2.353   5.594   5.240
 7567SOL     OW23599   2.525   2.845   0.476
 7567SOL    HW123600   2.522   2.942   0.502
 7567SOL    HW223601   2.585   2.795   0.537
 7568SOL     OW23602   4.433   4.840   2.876
 7568SOL    HW123603   4.415   4.893   2.958
 7568SOL    HW223604   4.532   4.821   2.869
 7569SOL     OW23605   4.011   0.491   0.893
 7569SOL    HW123606   3.959   0.562   0.846
 7569SOL    HW223607   3.948   0.428   0.939
 7570SOL     OW23608   5.637   5.194   4.636
 7570SOL    HW123609   5.658   5.229   4.545
 7570SOL    HW223610   5.607   5.098   4.628
 7571SOL     OW23611   5.339   4.016   1.682
 7571SOL    HW123612   5.289   3.930   1.691
 7571SOL    HW223613   5.275   4.090   1.661
 7572SOL     OW23614   0.896   1.139   3.890
 7572SOL    HW123615   0.843   1.208   3.941
 7572SOL    HW223616   0.837   1.063   3.866
 7573SOL     OW23617   3.237   5.592   5.198
 7573SOL    HW123618   3.202   5.521   5.136
 7573SOL    HW223619   3.337   5.594   5.192
 7574SOL     OW23620   5.012   6.136   2.304
 7574SOL    HW123621   4.938   6.177   2.250
 7574SOL    HW223622   5.048   6.205   2.367
 7575SOL     OW23623   4.968   2.690   4.758
 7575SOL    HW123624   5.003   2.628   4.827
 7575SOL    HW223625   4.975   2.648   4.668
 7576SOL     OW23626   6.715   3.293   1.717
 7576SOL    HW123627   6.621   3.328   1.716
 7576SOL    HW223628   6.760   3.315   1.631
 7577SOL     OW23629   4.477   0.759   5.250
 7577SOL    HW123630   4.538   0.696   5.204
 7577SOL    HW223631   4.531   0.824   5.304
 7578SOL     OW23632   2.643   5.222   4.483
 7578SOL    HW123633   2.611   5.235   4.577
 7578SOL    HW223634   2.718   5.156   4.482
 7579SOL     OW23635   4.661   2.446   3.936
 7579SOL    HW123636   4.703   2.495   4.013
 7579SOL    HW223637   4.644   2.510   3.861
 7580SOL     OW23638   2.116   3.650   2.533
 7580SOL    HW123639   2.114   3.623   2.630
 7580SOL    HW223640   2.120   3.568   2.476
 7581SOL     OW23641   5.478   0.722   1.424
 7581SOL    HW123642   5.382   0.747   1.434
 7581SOL    HW223643   5.505   0.661   1.499
 7582SOL     OW23644   3.370   1.886   0.895
 7582SOL    HW123645   3.285   1.871   0.846
 7582SOL    HW223646   3.441   1.916   0.831
 7583SOL     OW23647   6.833   3.890   2.772
 7583SOL    HW123648   6.768   3.937   2.832
 7583SOL    HW223649   6.889   3.957   2.724
 7584SOL     OW23650   1.943   1.867   1.283
 7584SOL    HW123651   2.012   1.869   1.210
 7584SOL    HW223652   1.886   1.786   1.271
 7585SOL     OW23653   2.038   5.365   6.643
 7585SOL    HW123654   2.113   5.315   6.599
 7585SOL    HW223655   1.998   5.308   6.714
 7586SOL     OW23656   2.060   1.274   1.658
 7586SOL    HW123657   1.994   1.205   1.688
 7586SOL    HW223658   2.144   1.266   1.712
 7587SOL     OW23659   1.699   0.850   5.728
 7587SOL    HW123660   1.636   0.829   5.804
 7587SOL    HW223661   1.684   0.944   5.698
 7588SOL     OW23662   1.130   4.080   1.586
 7588SOL    HW123663   1.163   4.158   1.640
 7588SOL    HW223664   1.042   4.048   1.623
 7589SOL     OW23665   5.640   6.228   6.718
 7589SOL    HW123666   5.690   6.163   6.661
 7589SOL    HW223667   5.680   6.319   6.709
 7590SOL     OW23668   1.576   0.505   6.802
 7590SOL    HW123669   1.675   0.506   6.785
 7590SOL    HW223670   1.559   0.481   6.897
 7591SOL     OW23671   6.701   5.153   7.001
 7591SOL    HW123672   6.681   5.082   0.048
 7591SOL    HW223673   6.800   5.153   6.981
 7592SOL     OW23674   4.997   5.468   6.384
 7592SOL    HW123675   4.938   5.458   6.304
 7592SOL    HW223676   5.053   5.386   6.395
 7593SOL     OW23677   6.019   3.661   0.626
 7593SOL    HW123678   6.026   3.597   0.702
 7593SOL    HW223679   6.051   3.617   0.542
 7594SOL     OW23680   0.979   6.099   3.520
 7594SOL    HW123681   1.071   6.107   3.481
 7594SOL    HW223682   0.913   6.142   3.459
 7595SOL     OW23683   6.375   2.032   6.872
 7595SOL    HW123684   6.412   2.055   6.782
 7595SOL    HW223685   6.377   1.933   6.884
 7596SOL     OW23686   4.864   4.441   1.927
 7596SOL    HW123687   4.964   4.448   1.926
 7596SOL    HW223688   4.837   4.348   1.954
 7597SOL     OW23689   2.742   5.955   1.780
 7597SOL    HW123690   2.686   5.958   1.698
 7597SOL    HW223691   2.752   5.860   1.810
 7598SOL     OW23692   6.829   0.572   2.761
 7598SOL    HW123693   6.821   0.519   2.676
 7598SOL    HW223694   6.820   0.511   2.839
 7599SOL     OW23695   6.624   2.511   2.225
 7599SOL    HW123696   6.591   2.421   2.255
 7599SOL    HW223697   6.567   2.543   2.149
 7600SOL     OW23698   2.075   1.769   2.155
 7600SOL    HW123699   2.035   1.707   2.088
 7600SOL    HW223700   2.106   1.717   2.235
 7601SOL     OW23701   1.504   0.337   5.023
 7601SOL    HW123702   1.482   0.292   5.109
 7601SOL    HW223703   1.420   0.362   4.975
 7602SOL     OW23704   2.138   3.199   5.051
 7602SOL    HW123705   2.224   3.152   5.033
 7602SOL    HW223706   2.083   3.146   5.115
 7603SOL     OW23707   0.661   0.915   2.197
 7603SOL    HW123708   0.563   0.901   2.210
 7603SOL    HW223709   0.706   0.916   2.286
 7604SOL     OW23710   5.067   6.084   6.738
 7604SOL    HW123711   5.101   6.143   6.665
 7604SOL    HW223712   5.079   5.988   6.711
 7605SOL     OW23713   5.572   3.947   5.608
 7605SOL    HW123714   5.551   4.032   5.657
 7605SOL    HW223715   5.525   3.871   5.652
 7606SOL     OW23716   6.583   1.649   3.043
 7606SOL    HW123717   6.619   1.741   3.033
 7606SOL    HW223718   6.532   1.623   2.961
 7607SOL     OW23719   5.337   6.915   6.357
 7607SOL    HW123720   5.416   6.861   6.387
 7607SOL    HW223721   5.333   6.915   6.257
 7608SOL     OW23722   3.831   2.964   3.585
 7608SOL    HW123723   3.897   2.960   3.510
 7608SOL    HW223724   3.740   2.942   3.551
 7609SOL     OW23725   1.531   2.964   4.532
 7609SOL    HW123726   1.468   3.011   4.470
 7609SOL    HW223727   1.606   3.026   4.556
 7610SOL     OW23728   5.552   0.879   1.684
 7610SOL    HW123729   5.523   0.972   1.708
 7610SOL    HW223730   5.487   0.839   1.620
 7611SOL     OW23731   2.104   1.566   1.265
 7611SOL    HW123732   2.048   1.534   1.189
 7611SOL    HW223733   2.122   1.491   1.328
 7612SOL     OW23734   4.215   1.656   2.553
 7612SOL    HW123735   4.220   1.572   2.608
 7612SOL    HW223736   4.221   1.736   2.613
 7613SOL     OW23737   5.226   1.293   2.974
 7613SOL    HW123738   5.182   1.325   2.890
 7613SOL    HW223739   5.293   1.222   2.951
 7614SOL     OW23740   3.989   1.044   0.280
 7614SOL    HW123741   3.985   1.063   0.182
 7614SOL    HW223742   4.034   0.956   0.295
 7615SOL     OW23743   4.063   4.607   5.856
 7615SOL    HW123744   4.093   4.516   5.884
 7615SOL    HW223745   4.134   4.650   5.801
 7616SOL     OW23746   6.763   4.729   3.514
 7616SOL    HW123747   6.764   4.634   3.544
 7616SOL    HW223748   6.678   4.773   3.543
 7617SOL     OW23749   3.247   5.866   2.152
 7617SOL    HW123750   3.213   5.918   2.231
 7617SOL    HW223751   3.342   5.840   2.167
 7618SOL     OW23752   1.509   2.446   0.880
 7618SOL    HW123753   1.595   2.467   0.926
 7618SOL    HW223754   1.443   2.410   0.946
 7619SOL     OW23755   5.932   3.550   5.772
 7619SOL    HW123756   5.879   3.480   5.820
 7619SOL    HW223757   5.875   3.592   5.701
 7620SOL     OW23758   2.725   6.357   1.493
 7620SOL    HW123759   2.817   6.323   1.506
 7620SOL    HW223760   2.674   6.351   1.578
 7621SOL     OW23761   2.482   2.287   1.201
 7621SOL    HW123762   2.534   2.207   1.171
 7621SOL    HW223763   2.412   2.258   1.267
 7622SOL     OW23764   5.183   1.715   1.275
 7622SOL    HW123765   5.130   1.630   1.277
 7622SOL    HW223766   5.157   1.768   1.194
 7623SOL     OW23767   5.534   0.045   5.688
 7623SOL    HW123768   5.459   7.009   5.722
 7623SOL    HW223769   5.558   0.017   5.595
 7624SOL     OW23770   6.690   0.650   4.103
 7624SOL    HW123771   6.653   0.570   4.056
 7624SOL    HW223772   6.657   0.733   4.058
 7625SOL     OW23773   4.073   6.406   0.578
 7625SOL    HW123774   4.160   6.444   0.608
 7625SOL    HW223775   4.016   6.478   0.538
 7626SOL     OW23776   2.477   4.529   4.697
 7626SOL    HW123777   2.490   4.591   4.620
 7626SOL    HW223778   2.467   4.435   4.664
 7627SOL     OW23779   6.940   1.840   0.405
 7627SOL    HW123780   0.004   1.854   0.457
 7627SOL    HW223781   6.891   1.926   0.396
 7628SOL     OW23782   3.930   2.024   0.840
 7628SOL    HW123783   3.831   2.021   0.832
 7628SOL    HW223784   3.966   1.931   0.845
 7629SOL     OW23785   6.198   5.243   3.178
 7629SOL    HW123786   6.205   5.342   3.183
 7629SOL    HW223787   6.204   5.204   3.269
 7630SOL     OW23788   0.026   1.139   2.316
 7630SOL    HW123789   6.948   1.152   2.308
 7630SOL    HW223790   0.071   1.228   2.321
 7631SOL     OW23791   1.485   1.915   3.312
 7631SOL    HW123792   1.535   1.844   3.362
 7631SOL    HW223793   1.528   2.004   3.327
 7632SOL     OW23794   4.593   1.412   6.233
 7632SOL    HW123795   4.501   1.450   6.243
 7632SOL    HW223796   4.652   1.448   6.305
 7633SOL     OW23797   5.632   4.629   6.462
 7633SOL    HW123798   5.636   4.727   6.444
 7633SOL    HW223799   5.545   4.606   6.506
 7634SOL     OW23800   1.356   1.899   1.996
 7634SOL    HW123801   1.359   1.989   2.037
 7634SOL    HW223802   1.261   1.870   1.984
 7635SOL     OW23803   3.146   5.091   5.907
 7635SOL    HW123804   3.188   5.002   5.892
 7635SOL    HW223805   3.161   5.149   5.826
 7636SOL     OW23806   1.744   0.827   3.333
 7636SOL    HW123807   1.722   0.763   3.407
 7636SOL    HW223808   1.701   0.915   3.351
 7637SOL     OW23809   2.339   6.409   3.707
 7637SOL    HW123810   2.305   6.502   3.719
 7637SOL    HW223811   2.422   6.411   3.651
 7638SOL     OW23812   4.214   4.349   1.686
 7638SOL    HW123813   4.284   4.298   1.736
 7638SOL    HW223814   4.229   4.447   1.697
 7639SOL     OW23815   6.864   2.525   4.493
 7639SOL    HW123816   6.932   2.599   4.489
 7639SOL    HW223817   6.904   2.445   4.538
 7640SOL     OW23818   2.160   3.131   6.015
 7640SOL    HW123819   2.109   3.212   5.988
 7640SOL    HW223820   2.252   3.158   6.044
 7641SOL     OW23821   6.602   2.972   3.447
 7641SOL    HW123822   6.567   2.903   3.383
 7641SOL    HW223823   6.645   2.926   3.525
 7642SOL     OW23824   2.475   1.444   2.960
 7642SOL    HW123825   2.406   1.391   3.009
 7642SOL    HW223826   2.537   1.381   2.912
 7643SOL     OW23827   5.522   3.561   3.334
 7643SOL    HW123828   5.566   3.510   3.409
 7643SOL    HW223829   5.569   3.542   3.248
 7644SOL     OW23830   6.581   3.949   3.859
 7644SOL    HW123831   6.530   3.912   3.781
 7644SOL    HW223832   6.558   4.045   3.871
 7645SOL     OW23833   4.468   2.962   0.128
 7645SOL    HW123834   4.464   3.012   0.214
 7645SOL    HW223835   4.381   2.915   0.112
 7646SOL     OW23836   1.107   1.458   1.534
 7646SOL    HW123837   1.152   1.436   1.621
 7646SOL    HW223838   1.152   1.536   1.491
 7647SOL     OW23839   2.120   5.107   1.196
 7647SOL    HW123840   2.101   5.195   1.153
 7647SOL    HW223841   2.174   5.121   1.279
 7648SOL     OW23842   3.880   0.272   3.674
 7648SOL    HW123843   3.846   0.250   3.583
 7648SOL    HW223844   3.871   0.370   3.690
 7649SOL     OW23845   3.112   1.447   2.151
 7649SOL    HW123846   3.177   1.510   2.191
 7649SOL    HW223847   3.023   1.492   2.140
 7650SOL     OW23848   5.829   4.352   1.524
 7650SOL    HW123849   5.786   4.441   1.533
 7650SOL    HW223850   5.928   4.363   1.509
 7651SOL     OW23851   3.874   2.081   6.315
 7651SOL    HW123852   3.852   1.997   6.265
 7651SOL    HW223853   3.791   2.134   6.328
 7652SOL     OW23854   1.270   3.105   3.107
 7652SOL    HW123855   1.198   3.063   3.051
 7652SOL    HW223856   1.340   3.144   3.047
 7653SOL     OW23857   3.855   2.228   1.455
 7653SOL    HW123858   3.942   2.270   1.430
 7653SOL    HW223859   3.794   2.298   1.494
 7654SOL     OW23860   4.866   3.635   4.227
 7654SOL    HW123861   4.867   3.695   4.306
 7654SOL    HW223862   4.857   3.690   4.143
 7655SOL     OW23863   4.585   6.121   5.418
 7655SOL    HW123864   4.574   6.128   5.318
 7655SOL    HW223865   4.536   6.040   5.451
 7656SOL     OW23866   1.133   6.278   4.428
 7656SOL    HW123867   1.136   6.184   4.394
 7656SOL    HW223868   1.221   6.301   4.470
 7657SOL     OW23869   4.554   1.584   4.586
 7657SOL    HW123870   4.459   1.608   4.607
 7657SOL    HW223871   4.613   1.613   4.661
 7658SOL     OW23872   3.876   0.557   6.630
 7658SOL    HW123873   3.879   0.590   6.535
 7658SOL    HW223874   3.816   0.477   6.635
 7659SOL     OW23875   5.534   6.979   0.065
 7659SOL    HW123876   5.585   6.982   0.151
 7659SOL    HW223877   5.594   6.946   7.013
 7660SOL     OW23878   6.316   4.650   4.190
 7660SOL    HW123879   6.248   4.587   4.152
 7660SOL    HW223880   6.320   4.639   4.289
 7661SOL     OW23881   5.162   2.958   3.926
 7661SOL    HW123882   5.191   2.868   3.893
 7661SOL    HW223883   5.175   3.025   3.853
 7662SOL     OW23884   6.919   5.757   2.362
 7662SOL    HW123885   6.843   5.773   2.424
 7662SOL    HW223886   6.885   5.745   2.268
 7663SOL     OW23887   6.688   5.607   6.818
 7663SOL    HW123888   6.702   5.576   6.912
 7663SOL    HW223889   6.690   5.707   6.816
 7664SOL     OW23890   2.695   5.677   4.850
 7664SOL    HW123891   2.788   5.655   4.879
 7664SOL    HW223892   2.636   5.597   4.862
 7665SOL     OW23893   2.285   6.085   4.241
 7665SOL    HW123894   2.341   6.161   4.208
 7665SOL    HW223895   2.330   6.042   4.319
 7666SOL     OW23896   1.827   1.269   0.807
 7666SOL    HW123897   1.819   1.246   0.904
 7666SOL    HW223898   1.918   1.305   0.788
 7667SOL     OW23899   4.910   5.782   6.726
 7667SOL    HW123900   4.818   5.780   6.687
 7667SOL    HW223901   4.905   5.803   6.823
 7668SOL     OW23902   2.620   4.139   1.718
 7668SOL    HW123903   2.584   4.214   1.774
 7668SOL    HW223904   2.720   4.145   1.716
 7669SOL     OW23905   4.494   6.419   5.077
 7669SOL    HW123906   4.488   6.396   5.174
 7669SOL    HW223907   4.589   6.425   5.049
 7670SOL     OW23908   1.831   4.990   0.847
 7670SOL    HW123909   1.800   4.945   0.763
 7670SOL    HW223910   1.883   5.072   0.823
 7671SOL     OW23911   5.557   2.459   4.699
 7671SOL    HW123912   5.645   2.431   4.662
 7671SOL    HW223913   5.561   2.555   4.726
 7672SOL     OW23914   5.706   0.174   2.439
 7672SOL    HW123915   5.619   0.152   2.394
 7672SOL    HW223916   5.748   0.253   2.394
 7673SOL     OW23917   0.291   4.162   6.722
 7673SOL    HW123918   0.196   4.158   6.694
 7673SOL    HW223919   0.319   4.072   6.757
 7674SOL     OW23920   6.556   1.349   5.267
 7674SOL    HW123921   6.508   1.266   5.296
 7674SOL    HW223922   6.654   1.339   5.286
 7675SOL     OW23923   4.763   0.003   3.143
 7675SOL    HW123924   4.779   6.948   3.205
 7675SOL    HW223925   4.844   0.061   3.140
 7676SOL     OW23926   1.494   0.122   0.900
 7676SOL    HW123927   1.417   0.058   0.896
 7676SOL    HW223928   1.490   0.173   0.986
 7677SOL     OW23929   1.897   2.307   2.801
 7677SOL    HW123930   1.883   2.209   2.790
 7677SOL    HW223931   1.838   2.341   2.875
 7678SOL     OW23932   5.463   6.402   6.116
 7678SOL    HW123933   5.363   6.400   6.113
 7678SOL    HW223934   5.499   6.417   6.024
 7679SOL     OW23935   1.500   4.956   5.342
 7679SOL    HW123936   1.460   4.931   5.430
 7679SOL    HW223937   1.564   5.032   5.354
 7680SOL     OW23938   4.584   1.887   6.810
 7680SOL    HW123939   4.564   1.931   6.723
 7680SOL    HW223940   4.641   1.948   6.866
 7681SOL     OW23941   2.340   2.118   6.273
 7681SOL    HW123942   2.280   2.086   6.347
 7681SOL    HW223943   2.394   2.196   6.306
 7682SOL     OW23944   2.752   0.291   1.334
 7682SOL    HW123945   2.806   0.363   1.379
 7682SOL    HW223946   2.740   0.214   1.397
 7683SOL     OW23947   6.278   1.790   3.093
 7683SOL    HW123948   6.246   1.703   3.053
 7683SOL    HW223949   6.256   1.792   3.190
 7684SOL     OW23950   4.337   1.890   6.142
 7684SOL    HW123951   4.275   1.961   6.174
 7684SOL    HW223952   4.344   1.818   6.210
 7685SOL     OW23953   3.948   3.547   0.925
 7685SOL    HW123954   3.856   3.574   0.897
 7685SOL    HW223955   3.948   3.453   0.957
 7686SOL     OW23956   3.043   0.921   3.858
 7686SOL    HW123957   2.968   0.860   3.829
 7686SOL    HW223958   3.007   0.989   3.921
 7687SOL     OW23959   4.414   4.612   5.884
 7687SOL    HW123960   4.347   4.539   5.897
 7687SOL    HW223961   4.420   4.635   5.787
 7688SOL     OW23962   6.779   0.095   3.865
 7688SOL    HW123963   6.756   0.084   3.769
 7688SOL    HW223964   6.851   0.164   3.875
 7689SOL     OW23965   4.069   0.335   5.069
 7689SOL    HW123966   3.988   0.358   5.016
 7689SOL    HW223967   4.093   0.239   5.054
 7690SOL     OW23968   0.203   5.491   3.268
 7690SOL    HW123969   0.259   5.467   3.347
 7690SOL    HW223970   0.256   5.550   3.207
 7691SOL     OW23971   5.848   4.042   5.519
 7691SOL    HW123972   5.877   4.036   5.423
 7691SOL    HW223973   5.754   4.008   5.527
 7692SOL     OW23974   2.109   6.073   1.586
 7692SOL    HW123975   2.025   6.029   1.619
 7692SOL    HW223976   2.099   6.096   1.489
 7693SOL     OW23977   5.283   0.811   0.485
 7693SOL    HW123978   5.202   0.867   0.499
 7693SOL    HW223979   5.319   0.782   0.574
 7694SOL     OW23980   6.502   4.476   3.882
 7694SOL    HW123981   6.525   4.495   3.978
 7694SOL    HW223982   6.559   4.533   3.822
 7695SOL     OW23983   3.876   0.202   6.195
 7695SOL    HW123984   3.790   0.175   6.237
 7695SOL    HW223985   3.883   0.161   6.104
 7696SOL     OW23986   0.773   3.978   5.535
 7696SOL    HW123987   0.815   4.016   5.618
 7696SOL    HW223988   0.677   4.004   5.532
 7697SOL     OW23989   3.893   2.012   1.853
 7697SOL    HW123990   3.925   2.086   1.912
 7697SOL    HW223991   3.811   2.041   1.804
 7698SOL     OW23992   0.642   3.239   5.982
 7698SOL    HW123993   0.666   3.144   6.004
 7698SOL    HW223994   0.672   3.260   5.889
 7699SOL     OW23995   2.563   4.298   0.279
 7699SOL    HW123996   2.587   4.319   0.184
 7699SOL    HW223997   2.553   4.383   0.330
 7700SOL     OW23998   5.807   6.896   5.463
 7700SOL    HW123999   5.794   6.994   5.448
 7700SOL    HW224000   5.856   6.881   5.548
 7701SOL     OW24001   6.232   2.026   4.940
 7701SOL    HW124002   6.147   2.050   4.893
 7701SOL    HW224003   6.292   2.106   4.946
 7702SOL     OW24004   2.496   6.148   5.684
 7702SOL    HW124005   2.470   6.058   5.649
 7702SOL    HW224006   2.594   6.163   5.667
 7703SOL     OW24007   0.871   1.920   5.980
 7703SOL    HW124008   0.969   1.925   5.994
 7703SOL    HW224009   0.825   1.906   6.067
 7704SOL     OW24010   3.771   4.361   0.664
 7704SOL    HW124011   3.825   4.302   0.604
 7704SOL    HW224012   3.682   4.317   0.682
 7705SOL     OW24013   3.769   4.989   5.606
 7705SOL    HW124014   3.725   4.934   5.676
 7705SOL    HW224015   3.700   5.020   5.540
 7706SOL     OW24016   6.105   0.800   4.888
 7706SOL    HW124017   6.039   0.746   4.939
 7706SOL    HW224018   6.188   0.813   4.943
 7707SOL     OW24019   6.983   5.287   6.006
 7707SOL    HW124020   7.001   5.346   6.085
 7707SOL    HW224021   0.049   5.249   5.973
 7708SOL     OW24022   5.142   0.537   4.508
 7708SOL    HW124023   5.126   0.439   4.499
 7708SOL    HW224024   5.092   0.586   4.437
 7709SOL     OW24025   3.630   2.069   1.781
 7709SOL    HW124026   3.572   2.014   1.841
 7709SOL    HW224027   3.661   2.150   1.831
 7710SOL     OW24028   2.551   2.379   6.173
 7710SOL    HW124029   2.640   2.334   6.167
 7710SOL    HW224030   2.520   2.380   6.268
 7711SOL     OW24031   4.957   6.800   5.914
 7711SOL    HW124032   5.016   6.733   5.959
 7711SOL    HW224033   4.881   6.754   5.869
 7712SOL     OW24034   5.273   4.874   1.046
 7712SOL    HW124035   5.231   4.942   1.108
 7712SOL    HW224036   5.288   4.916   0.957
 7713SOL     OW24037   1.226   4.922   6.715
 7713SOL    HW124038   1.146   4.955   6.764
 7713SOL    HW224039   1.282   4.866   6.776
 7714SOL     OW24040   5.540   4.194   4.334
 7714SOL    HW124041   5.473   4.244   4.388
 7714SOL    HW224042   5.591   4.257   4.276
 7715SOL     OW24043   4.586   2.277   1.282
 7715SOL    HW124044   4.558   2.246   1.191
 7715SOL    HW224045   4.519   2.247   1.350
 7716SOL     OW24046   4.768   2.831   3.711
 7716SOL    HW124047   4.771   2.915   3.658
 7716SOL    HW224048   4.762   2.853   3.809
 7717SOL     OW24049   3.266   0.613   6.534
 7717SOL    HW124050   3.326   0.542   6.570
 7717SOL    HW224051   3.206   0.574   6.464
 7718SOL     OW24052   3.197   6.175   3.688
 7718SOL    HW124053   3.100   6.153   3.672
 7718SOL    HW224054   3.211   6.198   3.784
 7719SOL     OW24055   6.144   2.720   5.467
 7719SOL    HW124056   6.128   2.623   5.488
 7719SOL    HW224057   6.091   2.746   5.387
 7720SOL     OW24058   5.503   6.333   1.499
 7720SOL    HW124059   5.473   6.271   1.427
 7720SOL    HW224060   5.488   6.290   1.588
 7721SOL     OW24061   1.095   4.601   2.915
 7721SOL    HW124062   1.082   4.655   2.998
 7721SOL    HW224063   1.159   4.527   2.933
 7722SOL     OW24064   1.034   6.355   4.186
 7722SOL    HW124065   1.079   6.369   4.274
 7722SOL    HW224066   0.943   6.316   4.201
 7723SOL     OW24067   6.586   2.993   0.380
 7723SOL    HW124068   6.604   3.072   0.439
 7723SOL    HW224069   6.659   2.926   0.392
 7724SOL     OW24070   1.727   5.290   0.241
 7724SOL    HW124071   1.643   5.343   0.228
 7724SOL    HW224072   1.725   5.247   0.331
 7725SOL     OW24073   5.267   3.971   4.524
 7725SOL    HW124074   5.264   3.906   4.600
 7725SOL    HW224075   5.212   4.052   4.548
 7726SOL     OW24076   5.743   4.130   3.579
 7726SOL    HW124077   5.662   4.073   3.566
 7726SOL    HW224078   5.787   4.105   3.665
 7727SOL     OW24079   6.606   2.892   1.920
 7727SOL    HW124080   6.624   2.990   1.926
 7727SOL    HW224081   6.680   2.842   1.966
 7728SOL     OW24082   2.357   2.129   2.781
 7728SOL    HW124083   2.319   2.207   2.832
 7728SOL    HW224084   2.282   2.076   2.741
 7729SOL     OW24085   5.490   2.498   1.107
 7729SOL    HW124086   5.580   2.466   1.077
 7729SOL    HW224087   5.489   2.598   1.110
 7730SOL     OW24088   5.040   0.120   1.614
 7730SOL    HW124089   4.991   0.057   1.554
 7730SOL    HW224090   5.049   0.209   1.569
 7731SOL     OW24091   6.955   0.805   4.982
 7731SOL    HW124092   0.023   0.778   5.021
 7731SOL    HW224093   6.909   0.866   5.046
 7732SOL     OW24094   4.636   4.746   0.446
 7732SOL    HW124095   4.662   4.665   0.499
 7732SOL    HW224096   4.645   4.725   0.348
 7733SOL     OW24097   3.167   6.686   0.650
 7733SOL    HW124098   3.264   6.671   0.635
 7733SOL    HW224099   3.129   6.609   0.701
 7734SOL     OW24100   1.702   2.064   2.986
 7734SOL    HW124101   1.796   2.047   2.956
 7734SOL    HW224102   1.643   1.989   2.955
 7735SOL     OW24103   5.078   3.655   0.459
 7735SOL    HW124104   5.084   3.744   0.504
 7735SOL    HW224105   4.982   3.631   0.446
 7736SOL     OW24106   5.772   4.342   6.362
 7736SOL    HW124107   5.759   4.441   6.357
 7736SOL    HW224108   5.683   4.297   6.363
 7737SOL     OW24109   4.851   1.919   1.144
 7737SOL    HW124110   4.896   1.855   1.083
 7737SOL    HW224111   4.806   1.991   1.090
 7738SOL     OW24112   2.413   4.745   7.021
 7738SOL    HW124113   2.419   4.811   0.075
 7738SOL    HW224114   2.494   4.686   7.021
 7739SOL     OW24115   6.196   3.350   2.044
 7739SOL    HW124116   6.099   3.327   2.039
 7739SOL    HW224117   6.241   3.288   2.108
 7740SOL     OW24118   0.570   6.612   3.775
 7740SOL    HW124119   0.577   6.666   3.690
 7740SOL    HW224120   0.548   6.517   3.752
 7741SOL     OW24121   3.249   5.820   4.534
 7741SOL    HW124122   3.153   5.813   4.561
 7741SOL    HW224123   3.271   5.916   4.514
 7742SOL     OW24124   6.436   0.783   4.382
 7742SOL    HW124125   6.457   0.880   4.394
 7742SOL    HW224126   6.516   0.728   4.408
 7743SOL     OW24127   4.816   3.026   2.946
 7743SOL    HW124128   4.802   3.033   2.847
 7743SOL    HW224129   4.853   3.112   2.980
 7744SOL     OW24130   0.323   7.006   4.923
 7744SOL    HW124131   0.387   6.961   4.861
 7744SOL    HW224132   0.232   6.966   4.911
 7745SOL     OW24133   4.859   3.413   5.390
 7745SOL    HW124134   4.883   3.419   5.486
 7745SOL    HW224135   4.760   3.409   5.380
 7746SOL     OW24136   1.537   0.839   0.217
 7746SOL    HW124137   1.567   0.929   0.248
 7746SOL    HW224138   1.563   0.826   0.122
 7747SOL     OW24139   5.626   5.382   1.387
 7747SOL    HW124140   5.693   5.308   1.382
 7747SOL    HW224141   5.551   5.356   1.447
 7748SOL     OW24142   2.605   3.606   6.799
 7748SOL    HW124143   2.600   3.705   6.814
 7748SOL    HW224144   2.621   3.588   6.702
 7749SOL     OW24145   5.416   3.719   6.794
 7749SOL    HW124146   5.453   3.799   6.747
 7749SOL    HW224147   5.324   3.740   6.827
 7750SOL     OW24148   5.941   4.943   2.860
 7750SOL    HW124149   5.905   4.851   2.869
 7750SOL    HW224150   5.866   5.009   2.861
 7751SOL     OW24151   0.385   2.418   1.529
 7751SOL    HW124152   0.372   2.337   1.472
 7751SOL    HW224153   0.477   2.417   1.569
 7752SOL     OW24154   4.095   1.226   3.464
 7752SOL    HW124155   4.138   1.195   3.548
 7752SOL    HW224156   4.100   1.154   3.395
 7753SOL     OW24157   3.363   1.815   5.067
 7753SOL    HW124158   3.335   1.907   5.095
 7753SOL    HW224159   3.368   1.810   4.968
 7754SOL     OW24160   5.698   5.589   1.998
 7754SOL    HW124161   5.645   5.672   1.977
 7754SOL    HW224162   5.774   5.613   2.059
 7755SOL     OW24163   0.557   5.062   4.570
 7755SOL    HW124164   0.652   5.092   4.569
 7755SOL    HW224165   0.553   4.962   4.572
 7756SOL     OW24166   2.389   4.789   2.507
 7756SOL    HW124167   2.358   4.852   2.436
 7756SOL    HW224168   2.409   4.700   2.467
 7757SOL     OW24169   0.034   4.698   1.581
 7757SOL    HW124170   6.984   4.760   1.548
 7757SOL    HW224171   0.003   4.653   1.665
 7758SOL     OW24172   1.293   2.366   4.354
 7758SOL    HW124173   1.230   2.301   4.394
 7758SOL    HW224174   1.368   2.316   4.309
 7759SOL     OW24175   3.546   1.288   1.375
 7759SOL    HW124176   3.516   1.196   1.397
 7759SOL    HW224177   3.469   1.341   1.340
 7760SOL     OW24178   5.076   3.183   0.453
 7760SOL    HW124179   5.078   3.149   0.358
 7760SOL    HW224180   4.987   3.161   0.493
 7761SOL     OW24181   4.799   5.247   2.808
 7761SOL    HW124182   4.873   5.302   2.769
 7761SOL    HW224183   4.783   5.168   2.749
 7762SOL     OW24184   5.545   1.600   1.381
 7762SOL    HW124185   5.523   1.561   1.470
 7762SOL    HW224186   5.491   1.683   1.366
 7763SOL     OW24187   2.545   0.199   4.247
 7763SOL    HW124188   2.633   0.245   4.265
 7763SOL    HW224189   2.491   0.198   4.331
 7764SOL     OW24190   3.122   4.049   5.754
 7764SOL    HW124191   3.059   4.014   5.684
 7764SOL    HW224192   3.210   4.071   5.711
 7765SOL     OW24193   5.515   3.940   4.562
 7765SOL    HW124194   5.505   3.893   4.649
 7765SOL    HW224195   5.424   3.965   4.527
 7766SOL     OW24196   0.015   3.512   6.689
 7766SOL    HW124197   6.962   3.490   6.624
 7766SOL    HW224198   0.054   3.600   6.665
 7767SOL     OW24199   4.308   0.295   3.815
 7767SOL    HW124200   4.289   0.281   3.718
 7767SOL    HW224201   4.305   0.393   3.836
 7768SOL     OW24202   4.142   5.698   4.052
 7768SOL    HW124203   4.150   5.728   3.957
 7768SOL    HW224204   4.166   5.601   4.059
 7769SOL     OW24205   3.725   2.920   6.161
 7769SOL    HW124206   3.667   2.841   6.142
 7769SOL    HW224207   3.701   2.959   6.249
 7770SOL     OW24208   1.302   3.552   4.263
 7770SOL    HW124209   1.291   3.469   4.208
 7770SOL    HW224210   1.355   3.530   4.345
 7771SOL     OW24211   1.496   4.039   6.404
 7771SOL    HW124212   1.448   3.967   6.354
 7771SOL    HW224213   1.478   4.127   6.360
 7772SOL     OW24214   5.797   6.448   1.929
 7772SOL    HW124215   5.813   6.495   2.016
 7772SOL    HW224216   5.758   6.513   1.863
 7773SOL     OW24217   1.953   6.516   6.662
 7773SOL    HW124218   1.901   6.493   6.579
 7773SOL    HW224219   1.942   6.443   6.729
 7774SOL     OW24220   5.161   1.566   2.629
 7774SOL    HW124221   5.082   1.610   2.588
 7774SOL    HW224222   5.215   1.634   2.679
 7775SOL     OW24223   3.073   1.805   1.564
 7775SOL    HW124224   3.033   1.807   1.656
 7775SOL    HW224225   3.024   1.738   1.508
 7776SOL     OW24226   2.569   1.034   4.624
 7776SOL    HW124227   2.610   0.972   4.690
 7776SOL    HW224228   2.611   1.124   4.633
 7777SOL     OW24229   6.089   5.870   3.353
 7777SOL    HW124230   6.103   5.926   3.272
 7777SOL    HW224231   5.991   5.859   3.370
 7778SOL     OW24232   0.643   4.779   2.982
 7778SOL    HW124233   0.618   4.837   3.060
 7778SOL    HW224234   0.624   4.828   2.897
 7779SOL     OW24235   3.841   6.540   2.027
 7779SOL    HW124236   3.755   6.539   2.078
 7779SOL    HW224237   3.850   6.627   1.978
 7780SOL     OW24238   6.224   5.730   4.512
 7780SOL    HW124239   6.265   5.820   4.496
 7780SOL    HW224240   6.139   5.741   4.563
 7781SOL     OW24241   2.058   3.066   0.926
 7781SOL    HW124242   2.066   3.149   0.982
 7781SOL    HW224243   2.023   3.090   0.836
 7782SOL     OW24244   5.789   3.336   4.477
 7782SOL    HW124245   5.835   3.312   4.392
 7782SOL    HW224246   5.704   3.384   4.456
 7783SOL     OW24247   2.396   6.625   4.134
 7783SOL    HW124248   2.344   6.549   4.097
 7783SOL    HW224249   2.416   6.609   4.231
 7784SOL     OW24250   1.763   1.955   1.966
 7784SOL    HW124251   1.705   1.920   1.892
 7784SOL    HW224252   1.709   1.966   2.049
 7785SOL     OW24253   0.108   6.138   3.144
 7785SOL    HW124254   0.148   6.154   3.054
 7785SOL    HW224255   0.008   6.138   3.136
 7786SOL     OW24256   4.300   1.520   6.212
 7786SOL    HW124257   4.223   1.563   6.258
 7786SOL    HW224258   4.311   1.559   6.121
 7787SOL     OW24259   2.213   2.525   1.592
 7787SOL    HW124260   2.178   2.508   1.500
 7787SOL    HW224261   2.150   2.586   1.641
 7788SOL     OW24262   0.653   3.885   1.701
 7788SOL    HW124263   0.674   3.790   1.722
 7788SOL    HW224264   0.560   3.906   1.731
 7789SOL     OW24265   3.496   1.248   6.408
 7789SOL    HW124266   3.526   1.253   6.313
 7789SOL    HW224267   3.420   1.311   6.422
 7790SOL     OW24268   4.298   5.475   3.238
 7790SOL    HW124269   4.226   5.482   3.168
 7790SOL    HW224270   4.369   5.412   3.206
 7791SOL     OW24271   2.734   5.683   2.552
 7791SOL    HW124272   2.644   5.641   2.537
 7791SOL    HW224273   2.739   5.717   2.645
 7792SOL     OW24274   1.411   1.434   2.947
 7792SOL    HW124275   1.412   1.514   2.886
 7792SOL    HW224276   1.436   1.352   2.895
 7793SOL     OW24277   4.974   1.297   0.531
 7793SOL    HW124278   5.051   1.300   0.595
 7793SOL    HW224279   4.965   1.385   0.485
 7794SOL     OW24280   1.083   0.192   3.360
 7794SOL    HW124281   1.052   0.097   3.351
 7794SOL    HW224282   1.058   0.227   3.450
 7795SOL     OW24283   3.772   4.308   0.967
 7795SOL    HW124284   3.775   4.307   0.867
 7795SOL    HW224285   3.826   4.384   1.001
 7796SOL     OW24286   3.038   1.312   0.274
 7796SOL    HW124287   3.023   1.333   0.177
 7796SOL    HW224288   3.042   1.213   0.287
 7797SOL     OW24289   1.142   5.486   3.015
 7797SOL    HW124290   1.059   5.446   3.055
 7797SOL    HW224291   1.222   5.446   3.059
 7798SOL     OW24292   2.103   3.519   1.066
 7798SOL    HW124293   2.022   3.577   1.062
 7798SOL    HW224294   2.152   3.522   0.979
 7799SOL     OW24295   3.509   5.927   3.601
 7799SOL    HW124296   3.589   5.964   3.553
 7799SOL    HW224297   3.426   5.956   3.553
 7800SOL     OW24298   1.724   0.674   2.314
 7800SOL    HW124299   1.669   0.710   2.239
 7800SOL    HW224300   1.718   0.736   2.392
 7801SOL     OW24301   1.094   2.343   1.047
 7801SOL    HW124302   1.024   2.291   1.097
 7801SOL    HW224303   1.057   2.433   1.022
 7802SOL     OW24304   6.450   4.185   3.908
 7802SOL    HW124305   6.456   4.283   3.928
 7802SOL    HW224306   6.361   4.151   3.938
 7803SOL     OW24307   2.911   2.731   5.548
 7803SOL    HW124308   2.814   2.715   5.528
 7803SOL    HW224309   2.932   2.828   5.533
 7804SOL     OW24310   2.860   1.568   5.719
 7804SOL    HW124311   2.902   1.479   5.702
 7804SOL    HW224312   2.778   1.555   5.775
 7805SOL     OW24313   5.701   2.973   6.837
 7805SOL    HW124314   5.749   2.949   6.753
 7805SOL    HW224315   5.750   2.935   6.915
 7806SOL     OW24316   6.352   1.485   5.471
 7806SOL    HW124317   6.451   1.481   5.457
 7806SOL    HW224318   6.327   1.421   5.543
 7807SOL     OW24319   2.406   5.574   5.412
 7807SOL    HW124320   2.329   5.588   5.475
 7807SOL    HW224321   2.481   5.635   5.437
 7808SOL     OW24322   6.019   3.928   3.918
 7808SOL    HW124323   5.995   3.877   4.000
 7808SOL    HW224324   6.036   3.864   3.843
 7809SOL     OW24325   4.817   6.341   2.240
 7809SOL    HW124326   4.890   6.405   2.262
 7809SOL    HW224327   4.783   6.359   2.147
 7810SOL     OW24328   2.221   6.598   5.439
 7810SOL    HW124329   2.171   6.620   5.356
 7810SOL    HW224330   2.283   6.521   5.422
 7811SOL     OW24331   0.792   6.125   2.521
 7811SOL    HW124332   0.873   6.128   2.580
 7811SOL    HW224333   0.715   6.089   2.573
 7812SOL     OW24334   2.717   1.078   5.594
 7812SOL    HW124335   2.689   1.161   5.641
 7812SOL    HW224336   2.797   1.096   5.537
 7813SOL     OW24337   5.543   0.670   1.154
 7813SOL    HW124338   5.464   0.709   1.107
 7813SOL    HW224339   5.531   0.680   1.253
 7814SOL     OW24340   6.168   2.468   2.571
 7814SOL    HW124341   6.150   2.473   2.670
 7814SOL    HW224342   6.103   2.525   2.522
 7815SOL     OW24343   4.608   5.644   3.853
 7815SOL    HW124344   4.706   5.652   3.835
 7815SOL    HW224345   4.561   5.609   3.772
 7816SOL     OW24346   0.764   1.172   5.272
 7816SOL    HW124347   0.842   1.189   5.212
 7816SOL    HW224348   0.782   1.092   5.328
 7817SOL     OW24349   4.344   1.809   6.934
 7817SOL    HW124350   4.270   1.799   6.867
 7817SOL    HW224351   4.428   1.835   6.886
 7818SOL     OW24352   5.878   1.189   3.035
 7818SOL    HW124353   5.888   1.114   3.100
 7818SOL    HW224354   5.967   1.211   2.995
 7819SOL     OW24355   1.546   3.495   5.230
 7819SOL    HW124356   1.484   3.508   5.307
 7819SOL    HW224357   1.636   3.467   5.264
 7820SOL     OW24358   1.198   1.153   5.186
 7820SOL    HW124359   1.259   1.199   5.251
 7820SOL    HW224360   1.212   1.054   5.192
 7821SOL     OW24361   3.907   6.049   6.621
 7821SOL    HW124362   3.836   5.983   6.594
 7821SOL    HW224363   3.985   6.041   6.559
 7822SOL     OW24364   0.257   1.332   4.899
 7822SOL    HW124365   0.300   1.404   4.843
 7822SOL    HW224366   0.290   1.340   4.993
 7823SOL     OW24367   2.602   3.174   5.667
 7823SOL    HW124368   2.588   3.096   5.606
 7823SOL    HW224369   2.540   3.166   5.745
 7824SOL     OW24370   5.505   3.816   3.211
 7824SOL    HW124371   5.449   3.766   3.145
 7824SOL    HW224372   5.535   3.753   3.283
 7825SOL     OW24373   3.498   3.520   2.805
 7825SOL    HW124374   3.477   3.592   2.739
 7825SOL    HW224375   3.589   3.537   2.845
 7826SOL     OW24376   6.739   6.967   0.210
 7826SOL    HW124377   6.748   0.043   0.230
 7826SOL    HW224378   6.756   6.951   0.113
 7827SOL     OW24379   4.217   3.354   0.396
 7827SOL    HW124380   4.167   3.377   0.312
 7827SOL    HW224381   4.267   3.435   0.427
 7828SOL     OW24382   1.022   5.922   1.314
 7828SOL    HW124383   0.960   5.979   1.260
 7828SOL    HW224384   1.048   5.971   1.397
 7829SOL     OW24385   3.478   3.969   3.748
 7829SOL    HW124386   3.395   3.927   3.785
 7829SOL    HW224387   3.453   4.054   3.700
 7830SOL     OW24388   6.232   4.055   6.817
 7830SOL    HW124389   6.142   4.025   6.846
 7830SOL    HW224390   6.225   4.106   6.732
 7831SOL     OW24391   1.501   2.759   0.430
 7831SOL    HW124392   1.533   2.713   0.513
 7831SOL    HW224393   1.551   2.845   0.418
 7832SOL     OW24394   3.371   2.884   5.612
 7832SOL    HW124395   3.371   2.785   5.605
 7832SOL    HW224396   3.301   2.922   5.551
 7833SOL     OW24397   6.896   6.236   1.410
 7833SOL    HW124398   6.818   6.202   1.463
 7833SOL    HW224399   6.865   6.308   1.348
 7834SOL     OW24400   6.286   0.555   1.317
 7834SOL    HW124401   6.218   0.613   1.363
 7834SOL    HW224402   6.330   0.496   1.384
 7835SOL     OW24403   2.383   2.267   4.458
 7835SOL    HW124404   2.422   2.177   4.478
 7835SOL    HW224405   2.292   2.255   4.417
 7836SOL     OW24406   1.876   0.706   0.501
 7836SOL    HW124407   1.799   0.660   0.457
 7836SOL    HW224408   1.931   0.753   0.432
 7837SOL     OW24409   5.031   6.528   2.280
 7837SOL    HW124410   5.124   6.492   2.275
 7837SOL    HW224411   5.024   6.592   2.357
 7838SOL     OW24412   4.229   6.602   4.100
 7838SOL    HW124413   4.290   6.673   4.137
 7838SOL    HW224414   4.282   6.518   4.086
 7839SOL     OW24415   0.042   4.440   3.388
 7839SOL    HW124416   0.114   4.456   3.456
 7839SOL    HW224417   7.006   4.522   3.381
 7840SOL     OW24418   5.095   3.327   6.087
 7840SOL    HW124419   5.001   3.325   6.053
 7840SOL    HW224420   5.115   3.241   6.135
 7841SOL     OW24421   0.987   1.809   6.559
 7841SOL    HW124422   0.977   1.730   6.620
 7841SOL    HW224423   0.983   1.777   6.464
 7842SOL     OW24424   3.038   0.027   2.096
 7842SOL    HW124425   3.089   7.010   2.173
 7842SOL    HW224426   3.016   0.123   2.115
 7843SOL     OW24427   0.553   2.928   2.119
 7843SOL    HW124428   0.470   2.875   2.103
 7843SOL    HW224429   0.541   3.020   2.081
 7844SOL     OW24430   3.631   1.505   4.145
 7844SOL    HW124431   3.583   1.481   4.060
 7844SOL    HW224432   3.727   1.479   4.136
 7845SOL     OW24433   1.177   1.144   3.918
 7845SOL    HW124434   1.220   1.229   3.889
 7845SOL    HW224435   1.078   1.149   3.904
 7846SOL     OW24436   4.035   6.787   2.334
 7846SOL    HW124437   4.115   6.794   2.394
 7846SOL    HW224438   3.962   6.737   2.381
 7847SOL     OW24439   0.316   0.313   6.708
 7847SOL    HW124440   0.324   0.213   6.700
 7847SOL    HW224441   0.374   0.344   6.784
 7848SOL     OW24442   4.020   4.330   1.203
 7848SOL    HW124443   4.029   4.258   1.272
 7848SOL    HW224444   3.970   4.408   1.243
 7849SOL     OW24445   5.207   4.223   4.623
 7849SOL    HW124446   5.111   4.238   4.597
 7849SOL    HW224447   5.226   4.274   4.707
 7850SOL     OW24448   0.817   1.985   4.616
 7850SOL    HW124449   0.847   2.078   4.636
 7850SOL    HW224450   0.843   1.961   4.522
 7851SOL     OW24451   4.579   6.600   0.901
 7851SOL    HW124452   4.663   6.561   0.938
 7851SOL    HW224453   4.533   6.532   0.843
 7852SOL     OW24454   2.430   6.714   0.375
 7852SOL    HW124455   2.495   6.638   0.373
 7852SOL    HW224456   2.421   6.748   0.469
 7853SOL     OW24457   2.100   2.556   0.191
 7853SOL    HW124458   2.026   2.490   0.202
 7853SOL    HW224459   2.171   2.517   0.131
 7854SOL     OW24460   3.392   4.169   3.574
 7854SOL    HW124461   3.404   4.171   3.474
 7854SOL    HW224462   3.313   4.225   3.599
 7855SOL     OW24463   3.931   0.121   5.373
 7855SOL    HW124464   3.842   0.163   5.395
 7855SOL    HW224465   3.991   0.191   5.333
 7856SOL     OW24466   2.992   3.732   6.759
 7856SOL    HW124467   2.961   3.672   6.685
 7856SOL    HW224468   3.061   3.685   6.813
 7857SOL     OW24469   0.698   3.107   5.221
 7857SOL    HW124470   0.694   3.041   5.146
 7857SOL    HW224471   0.684   3.199   5.185
 7858SOL     OW24472   5.931   3.584   2.927
 7858SOL    HW124473   5.977   3.576   3.016
 7858SOL    HW224474   5.946   3.500   2.874
 7859SOL     OW24475   0.665   6.309   0.013
 7859SOL    HW124476   0.758   6.272   0.013
 7859SOL    HW224477   0.667   6.405   0.041
 7860SOL     OW24478   4.378   6.700   1.842
 7860SOL    HW124479   4.442   6.717   1.917
 7860SOL    HW224480   4.313   6.775   1.836
 7861SOL     OW24481   5.370   3.276   0.731
 7861SOL    HW124482   5.433   3.341   0.689
 7861SOL    HW224483   5.276   3.303   0.713
 7862SOL     OW24484   2.831   4.693   1.667
 7862SOL    HW124485   2.864   4.633   1.740
 7862SOL    HW224486   2.748   4.655   1.627
 7863SOL     OW24487   5.380   5.752   2.092
 7863SOL    HW124488   5.355   5.844   2.060
 7863SOL    HW224489   5.389   5.752   2.191
 7864SOL     OW24490   1.100   6.058   4.302
 7864SOL    HW124491   1.151   5.973   4.315
 7864SOL    HW224492   1.017   6.039   4.250
 7865SOL     OW24493   3.723   0.760   3.112
 7865SOL    HW124494   3.809   0.778   3.063
 7865SOL    HW224495   3.664   0.840   3.104
 7866SOL     OW24496   1.979   2.405   4.904
 7866SOL    HW124497   1.981   2.402   5.004
 7866SOL    HW224498   2.063   2.365   4.868
 7867SOL     OW24499   5.649   3.938   2.123
 7867SOL    HW124500   5.742   3.902   2.112
 7867SOL    HW224501   5.625   3.991   2.043
 7868SOL     OW24502   5.281   0.005   0.912
 7868SOL    HW124503   5.197   7.020   0.965
 7868SOL    HW224504   5.296   0.099   0.884
 7869SOL     OW24505   6.558   1.453   4.105
 7869SOL    HW124506   6.626   1.521   4.131
 7869SOL    HW224507   6.471   1.475   4.147
 7870SOL     OW24508   6.496   6.510   3.338
 7870SOL    HW124509   6.451   6.548   3.258
 7870SOL    HW224510   6.587   6.550   3.348
 7871SOL     OW24511   5.520   3.221   3.863
 7871SOL    HW124512   5.431   3.223   3.910
 7871SOL    HW224513   5.573   3.301   3.891
 7872SOL     OW24514   6.645   3.849   4.474
 7872SOL    HW124515   6.624   3.838   4.377
 7872SOL    HW224516   6.585   3.919   4.514
 7873SOL     OW24517   0.313   5.911   4.746
 7873SOL    HW124518   0.327   5.812   4.752
 7873SOL    HW224519   0.252   5.932   4.670
 7874SOL     OW24520   6.216   1.115   0.907
 7874SOL    HW124521   6.296   1.135   0.963
 7874SOL    HW224522   6.138   1.094   0.967
 7875SOL     OW24523   5.177   3.212   0.982
 7875SOL    HW124524   5.119   3.240   0.906
 7875SOL    HW224525   5.249   3.152   0.948
 7876SOL     OW24526   0.217   0.767   5.091
 7876SOL    HW124527   0.308   0.774   5.049
 7876SOL    HW224528   0.210   0.680   5.140
 7877SOL     OW24529   6.338   2.796   2.880
 7877SOL    HW124530   6.435   2.800   2.859
 7877SOL    HW224531   6.319   2.850   2.962
 7878SOL     OW24532   4.563   4.043   1.482
 7878SOL    HW124533   4.511   4.070   1.563
 7878SOL    HW224534   4.503   4.044   1.402
 7879SOL     OW24535   6.052   0.962   4.670
 7879SOL    HW124536   6.056   0.917   4.760
 7879SOL    HW224537   5.997   1.045   4.677
 7880SOL     OW24538   1.821   6.596   5.930
 7880SOL    HW124539   1.916   6.593   5.897
 7880SOL    HW224540   1.818   6.646   6.017
 7881SOL     OW24541   0.572   4.995   3.895
 7881SOL    HW124542   0.520   4.957   3.972
 7881SOL    HW224543   0.669   4.976   3.908
 7882SOL     OW24544   1.901   4.586   1.697
 7882SOL    HW124545   1.876   4.650   1.770
 7882SOL    HW224546   1.986   4.540   1.720
 7883SOL     OW24547   3.619   2.071   3.154
 7883SOL    HW124548   3.702   2.015   3.152
 7883SOL    HW224549   3.643   2.166   3.173
 7884SOL     OW24550   0.512   3.464   4.433
 7884SOL    HW124551   0.544   3.533   4.499
 7884SOL    HW224552   0.562   3.474   4.347
 7885SOL     OW24553   5.833   5.158   2.668
 7885SOL    HW124554   5.756   5.169   2.606
 7885SOL    HW224555   5.845   5.243   2.721
 7886SOL     OW24556   4.857   3.948   2.501
 7886SOL    HW124557   4.894   4.041   2.508
 7886SOL    HW224558   4.830   3.931   2.406
 7887SOL     OW24559   1.098   3.106   1.813
 7887SOL    HW124560   1.120   3.012   1.786
 7887SOL    HW224561   1.157   3.134   1.889
 7888SOL     OW24562   6.320   0.800   5.043
 7888SOL    HW124563   6.330   0.750   5.129
 7888SOL    HW224564   6.392   0.869   5.037
 7889SOL     OW24565   5.630   5.319   0.712
 7889SOL    HW124566   5.718   5.313   0.664
 7889SOL    HW224567   5.640   5.379   0.792
 7890SOL     OW24568   2.311   2.745   3.860
 7890SOL    HW124569   2.290   2.798   3.778
 7890SOL    HW224570   2.405   2.712   3.855
 7891SOL     OW24571   6.588   1.657   4.320
 7891SOL    HW124572   6.506   1.661   4.264
 7891SOL    HW224573   6.569   1.609   4.405
 7892SOL     OW24574   1.086   1.788   5.132
 7892SOL    HW124575   1.120   1.875   5.097
 7892SOL    HW224576   1.146   1.755   5.204
 7893SOL     OW24577   6.290   0.057   0.463
 7893SOL    HW124578   6.371   0.002   0.483
 7893SOL    HW224579   6.221   0.041   0.533
 7894SOL     OW24580   2.856   0.987   0.152
 7894SOL    HW124581   2.874   0.965   0.248
 7894SOL    HW224582   2.902   0.920   0.093
 7895SOL     OW24583   6.546   5.832   2.969
 7895SOL    HW124584   6.523   5.902   3.035
 7895SOL    HW224585   6.645   5.817   2.969
 7896SOL     OW24586   2.507   1.785   0.747
 7896SOL    HW124587   2.505   1.867   0.804
 7896SOL    HW224588   2.529   1.810   0.653
 7897SOL     OW24589   3.557   2.698   0.478
 7897SOL    HW124590   3.640   2.729   0.525
 7897SOL    HW224591   3.497   2.652   0.544
 7898SOL     OW24592   5.056   6.860   3.231
 7898SOL    HW124593   5.093   6.776   3.271
 7898SOL    HW224594   4.968   6.881   3.274
 7899SOL     OW24595   5.998   4.345   3.937
 7899SOL    HW124596   6.039   4.431   3.905
 7899SOL    HW224597   5.973   4.354   4.033
 7900SOL     OW24598   0.489   3.634   0.245
 7900SOL    HW124599   0.549   3.706   0.211
 7900SOL    HW224600   0.427   3.673   0.314
 7901SOL     OW24601   6.878   2.120   0.162
 7901SOL    HW124602   6.976   2.120   0.178
 7901SOL    HW224603   6.855   2.191   0.095
 7902SOL     OW24604   2.050   6.760   1.959
 7902SOL    HW124605   2.036   6.859   1.950
 7902SOL    HW224606   2.145   6.738   1.937
 7903SOL     OW24607   2.608   1.777   5.054
 7903SOL    HW124608   2.564   1.768   4.964
 7903SOL    HW224609   2.588   1.695   5.108
 7904SOL     OW24610   4.506   2.418   3.050
 7904SOL    HW124611   4.453   2.353   2.995
 7904SOL    HW224612   4.469   2.420   3.143
 7905SOL     OW24613   5.545   1.969   1.233
 7905SOL    HW124614   5.492   2.035   1.180
 7905SOL    HW224615   5.626   2.014   1.271
 7906SOL     OW24616   1.291   4.771   6.931
 7906SOL    HW124617   1.207   4.722   6.955
 7906SOL    HW224618   1.356   4.765   7.007
 7907SOL     OW24619   5.894   6.230   2.788
 7907SOL    HW124620   5.840   6.189   2.715
 7907SOL    HW224621   5.948   6.306   2.752
 7908SOL     OW24622   1.793   6.750   6.178
 7908SOL    HW124623   1.744   6.830   6.141
 7908SOL    HW224624   1.892   6.767   6.174
 7909SOL     OW24625   6.345   4.097   1.676
 7909SOL    HW124626   6.438   4.063   1.663
 7909SOL    HW224627   6.329   4.117   1.773
 7910SOL     OW24628   0.997   4.104   5.979
 7910SOL    HW124629   1.081   4.059   6.010
 7910SOL    HW224630   0.934   4.113   6.056
 7911SOL     OW24631   6.287   4.248   5.970
 7911SOL    HW124632   6.232   4.182   6.021
 7911SOL    HW224633   6.332   4.202   5.893
 7912SOL     OW24634   5.857   5.628   0.800
 7912SOL    HW124635   5.926   5.557   0.819
 7912SOL    HW224636   5.902   5.707   0.758
 7913SOL     OW24637   1.260   5.095   6.993
 7913SOL    HW124638   1.173   5.093   6.945
 7913SOL    HW224639   1.301   5.004   6.993
 7914SOL     OW24640   0.806   0.001   4.906
 7914SOL    HW124641   0.743   0.053   4.963
 7914SOL    HW224642   0.811   6.928   4.940
 7915SOL     OW24643   3.085   4.832   2.641
 7915SOL    HW124644   3.061   4.824   2.738
 7915SOL    HW224645   3.183   4.848   2.633
 7916SOL     OW24646   1.218   0.431   4.116
 7916SOL    HW124647   1.296   0.390   4.164
 7916SOL    HW224648   1.139   0.369   4.122
 7917SOL     OW24649   4.935   1.754   1.827
 7917SOL    HW124650   5.033   1.774   1.831
 7917SOL    HW224651   4.888   1.827   1.777
 7918SOL     OW24652   2.482   2.636   3.463
 7918SOL    HW124653   2.496   2.599   3.371
 7918SOL    HW224654   2.456   2.562   3.525
 7919SOL     OW24655   1.331   6.469   5.078
 7919SOL    HW124656   1.252   6.506   5.029
 7919SOL    HW224657   1.314   6.474   5.177
 7920SOL     OW24658   5.144   0.305   1.098
 7920SOL    HW124659   5.097   0.351   1.173
 7920SOL    HW224660   5.149   0.207   1.118
 7921SOL     OW24661   5.293   2.354   0.970
 7921SOL    HW124662   5.348   2.423   1.017
 7921SOL    HW224663   5.196   2.380   0.976
 7922SOL     OW24664   3.014   0.265   2.238
 7922SOL    HW124665   3.110   0.286   2.253
 7922SOL    HW224666   2.967   0.347   2.206
 7923SOL     OW24667   4.249   1.542   0.015
 7923SOL    HW124668   4.240   1.482   6.957
 7923SOL    HW224669   4.292   1.628   7.007
 7924SOL     OW24670   6.104   6.093   6.907
 7924SOL    HW124671   6.170   6.053   6.844
 7924SOL    HW224672   6.065   6.176   6.867
 7925SOL     OW24673   1.941   5.171   6.827
 7925SOL    HW124674   1.902   5.114   6.755
 7925SOL    HW224675   1.893   5.155   6.913
 7926SOL     OW24676   5.155   5.809   6.596
 7926SOL    HW124677   5.089   5.772   6.661
 7926SOL    HW224678   5.246   5.814   6.638
 7927SOL     OW24679   4.334   0.398   3.311
 7927SOL    HW124680   4.333   0.491   3.347
 7927SOL    HW224681   4.242   0.358   3.321
 7928SOL     OW24682   6.229   2.127   2.990
 7928SOL    HW124683   6.273   2.052   2.940
 7928SOL    HW224684   6.290   2.160   3.062
 7929SOL     OW24685   4.207   4.038   5.711
 7929SOL    HW124686   4.260   4.086   5.781
 7929SOL    HW224687   4.179   3.949   5.746
 7930SOL     OW24688   4.250   6.628   6.492
 7930SOL    HW124689   4.153   6.614   6.476
 7930SOL    HW224690   4.279   6.712   6.446
 7931SOL     OW24691   3.902   1.972   1.540
 7931SOL    HW124692   3.899   2.063   1.499
 7931SOL    HW224693   3.825   1.961   1.603
 7932SOL     OW24694   1.133   3.896   1.342
 7932SOL    HW124695   1.211   3.934   1.292
 7932SOL    HW224696   1.133   3.930   1.436
 7933SOL     OW24697   0.926   1.551   0.363
 7933SOL    HW124698   0.925   1.514   0.455
 7933SOL    HW224699   0.992   1.500   0.307
 7934SOL     OW24700   0.950   5.280   0.868
 7934SOL    HW124701   0.931   5.376   0.887
 7934SOL    HW224702   0.866   5.226   0.878
 7935SOL     OW24703   6.196   2.732   3.279
 7935SOL    HW124704   6.224   2.719   3.375
 7935SOL    HW224705   6.220   2.650   3.227
 7936SOL     OW24706   3.097   5.465   3.838
 7936SOL    HW124707   3.173   5.477   3.902
 7936SOL    HW224708   3.132   5.430   3.751
 7937SOL     OW24709   4.038   1.159   0.990
 7937SOL    HW124710   4.004   1.242   0.946
 7937SOL    HW224711   3.964   1.117   1.044
 7938SOL     OW24712   3.031   6.909   3.346
 7938SOL    HW124713   3.089   6.829   3.330
 7938SOL    HW224714   3.029   6.930   3.444
 7939SOL     OW24715   0.898   0.818   2.964
 7939SOL    HW124716   0.940   0.768   3.040
 7939SOL    HW224717   0.946   0.904   2.950
 7940SOL     OW24718   5.894   1.309   4.225
 7940SOL    HW124719   5.794   1.304   4.221
 7940SOL    HW224720   5.923   1.404   4.214
 7941SOL     OW24721   3.630   0.072   1.122
 7941SOL    HW124722   3.639   6.994   1.115
 7941SOL    HW224723   3.656   0.102   1.213
 7942SOL     OW24724   1.508   4.681   0.527
 7942SOL    HW124725   1.474   4.592   0.496
 7942SOL    HW224726   1.538   4.674   0.622
 7943SOL     OW24727   1.557   5.906   5.795
 7943SOL    HW124728   1.486   5.925   5.728
 7943SOL    HW224729   1.642   5.951   5.767
 7944SOL     OW24730   0.818   2.205   1.350
 7944SOL    HW124731   0.767   2.131   1.392
 7944SOL    HW224732   0.851   2.176   1.260
 7945SOL     OW24733   6.352   3.983   2.923
 7945SOL    HW124734   6.264   4.028   2.937
 7945SOL    HW224735   6.349   3.891   2.964
 7946SOL     OW24736   3.958   1.400   6.418
 7946SOL    HW124737   3.922   1.360   6.333
 7946SOL    HW224738   3.944   1.336   6.493
 7947SOL     OW24739   6.730   3.460   6.217
 7947SOL    HW124740   6.698   3.506   6.134
 7947SOL    HW224741   6.824   3.487   6.236
 7948SOL     OW24742   2.095   5.675   2.203
 7948SOL    HW124743   2.160   5.600   2.192
 7948SOL    HW224744   2.020   5.663   2.138
 7949SOL     OW24745   2.726   5.959   5.804
 7949SOL    HW124746   2.708   5.873   5.755
 7949SOL    HW224747   2.812   5.951   5.854
 7950SOL     OW24748   6.228   4.601   5.399
 7950SOL    HW124749   6.157   4.531   5.396
 7950SOL    HW224750   6.295   4.582   5.327
 7951SOL     OW24751   4.277   6.738   2.493
 7951SOL    HW124752   4.271   6.670   2.565
 7951SOL    HW224753   4.330   6.701   2.416
 7952SOL     OW24754   6.415   3.869   5.273
 7952SOL    HW124755   6.328   3.862   5.223
 7952SOL    HW224756   6.442   3.779   5.307
 7953SOL     OW24757   1.718   6.486   0.511
 7953SOL    HW124758   1.798   6.427   0.507
 7953SOL    HW224759   1.716   6.546   0.431
 7954SOL     OW24760   3.582   3.902   6.873
 7954SOL    HW124761   3.527   3.920   6.792
 7954SOL    HW224762   3.677   3.927   6.855
 7955SOL     OW24763   1.218   0.971   6.502
 7955SOL    HW124764   1.155   0.934   6.570
 7955SOL    HW224765   1.201   0.928   6.413
 7956SOL     OW24766   0.199   6.549   0.426
 7956SOL    HW124767   0.232   6.495   0.503
 7956SOL    HW224768   0.227   6.645   0.438
 7957SOL     OW24769   5.149   1.868   5.891
 7957SOL    HW124770   5.196   1.780   5.879
 7957SOL    HW224771   5.190   1.917   5.967
 7958SOL     OW24772   4.779   2.416   6.961
 7958SOL    HW124773   4.770   2.512   6.935
 7958SOL    HW224774   4.763   2.407   0.038
 7959SOL     OW24775   5.455   2.327   0.263
 7959SOL    HW124776   5.475   2.354   0.357
 7959SOL    HW224777   5.496   2.394   0.200
 7960SOL     OW24778   1.062   1.371   5.485
 7960SOL    HW124779   0.972   1.376   5.443
 7960SOL    HW224780   1.085   1.460   5.524
 7961SOL     OW24781   6.177   6.394   0.071
 7961SOL    HW124782   6.167   6.295   0.070
 7961SOL    HW224783   6.087   6.437   0.070
 7962SOL     OW24784   6.176   6.928   5.368
 7962SOL    HW124785   6.102   6.994   5.378
 7962SOL    HW224786   6.261   6.977   5.348
 7963SOL     OW24787   6.685   6.187   3.419
 7963SOL    HW124788   6.739   6.269   3.437
 7963SOL    HW224789   6.604   6.212   3.367
 7964SOL     OW24790   6.356   4.081   1.378
 7964SOL    HW124791   6.378   4.109   1.472
 7964SOL    HW224792   6.280   4.015   1.380
 7965SOL     OW24793   4.679   2.343   6.480
 7965SOL    HW124794   4.687   2.429   6.530
 7965SOL    HW224795   4.740   2.344   6.401
 7966SOL     OW24796   5.387   4.104   4.837
 7966SOL    HW124797   5.303   4.099   4.783
 7966SOL    HW224798   5.427   4.012   4.846
 7967SOL     OW24799   1.410   4.765   0.168
 7967SOL    HW124800   1.509   4.782   0.175
 7967SOL    HW224801   1.368   4.776   0.259
 7968SOL     OW24802   1.082   3.155   4.371
 7968SOL    HW124803   1.066   3.099   4.289
 7968SOL    HW224804   1.114   3.096   4.445
 7969SOL     OW24805   3.509   5.064   6.911
 7969SOL    HW124806   3.428   5.123   6.903
 7969SOL    HW224807   3.561   5.068   6.826
 7970SOL     OW24808   5.980   3.056   4.088
 7970SOL    HW124809   6.005   2.966   4.125
 7970SOL    HW224810   5.899   3.046   4.029
 7971SOL     OW24811   2.782   1.374   6.501
 7971SOL    HW124812   2.795   1.309   6.575
 7971SOL    HW224813   2.687   1.406   6.500
 7972SOL     OW24814   3.298   3.782   4.419
 7972SOL    HW124815   3.387   3.754   4.382
 7972SOL    HW224816   3.303   3.786   4.519
 7973SOL     OW24817   5.947   4.801   2.131
 7973SOL    HW124818   5.914   4.890   2.161
 7973SOL    HW224819   5.912   4.781   2.040
 7974SOL     OW24820   0.166   2.534   4.876
 7974SOL    HW124821   0.209   2.624   4.870
 7974SOL    HW224822   0.218   2.468   4.822
 7975SOL     OW24823   5.400   0.291   0.925
 7975SOL    HW124824   5.461   0.243   0.987
 7975SOL    HW224825   5.322   0.327   0.976
 7976SOL     OW24826   0.286   0.589   0.821
 7976SOL    HW124827   0.302   0.680   0.783
 7976SOL    HW224828   0.313   0.520   0.753
 7977SOL     OW24829   5.591   5.681   3.408
 7977SOL    HW124830   5.618   5.623   3.485
 7977SOL    HW224831   5.514   5.739   3.434
 7978SOL     OW24832   0.420   4.555   1.357
 7978SOL    HW124833   0.438   4.568   1.259
 7978SOL    HW224834   0.324   4.574   1.375
 7979SOL     OW24835   2.252   2.104   4.980
 7979SOL    HW124836   2.227   2.023   4.926
 7979SOL    HW224837   2.341   2.089   5.023
 7980SOL     OW24838   4.065   5.599   1.025
 7980SOL    HW124839   4.147   5.605   1.081
 7980SOL    HW224840   3.987   5.634   1.077
 7981SOL     OW24841   1.652   3.688   3.803
 7981SOL    HW124842   1.668   3.613   3.868
 7981SOL    HW224843   1.699   3.770   3.836
 7982SOL     OW24844   6.882   1.063   5.896
 7982SOL    HW124845   6.903   1.069   5.993
 7982SOL    HW224846   6.901   0.971   5.862
 7983SOL     OW24847   4.313   0.907   1.674
 7983SOL    HW124848   4.409   0.883   1.685
 7983SOL    HW224849   4.297   0.998   1.713
 7984SOL     OW24850   6.965   2.582   3.064
 7984SOL    HW124851   6.902   2.646   3.108
 7984SOL    HW224852   0.037   2.618   3.071
 7985SOL     OW24853   3.148   2.715   5.325
 7985SOL    HW124854   3.075   2.783   5.319
 7985SOL    HW224855   3.234   2.755   5.291
 7986SOL     OW24856   3.956   1.114   4.394
 7986SOL    HW124857   3.860   1.096   4.416
 7986SOL    HW224858   4.012   1.038   4.426
 7987SOL     OW24859   0.836   3.387   6.817
 7987SOL    HW124860   0.795   3.296   6.823
 7987SOL    HW224861   0.773   3.449   6.771
 7988SOL     OW24862   7.011   1.013   1.357
 7988SOL    HW124863   7.018   0.933   1.417
 7988SOL    HW224864   7.014   1.096   1.411
 7989SOL     OW24865   0.162   4.214   0.954
 7989SOL    HW124866   0.254   4.251   0.963
 7989SOL    HW224867   0.100   4.285   0.922
 7990SOL     OW24868   5.007   5.504   5.173
 7990SOL    HW124869   5.030   5.481   5.267
 7990SOL    HW224870   4.913   5.538   5.169
 7991SOL     OW24871   5.643   0.618   4.840
 7991SOL    HW124872   5.637   0.557   4.761
 7991SOL    HW224873   5.632   0.565   4.924
 7992SOL     OW24874   2.259   6.847   0.174
 7992SOL    HW124875   2.285   6.803   0.260
 7992SOL    HW224876   2.194   6.790   0.125
 7993SOL     OW24877   6.247   5.866   0.467
 7993SOL    HW124878   6.277   5.904   0.379
 7993SOL    HW224879   6.152   5.894   0.483
 7994SOL     OW24880   6.351   0.289   3.950
 7994SOL    HW124881   6.378   0.374   3.997
 7994SOL    HW224882   6.425   0.261   3.888
 7995SOL     OW24883   0.874   5.632   1.272
 7995SOL    HW124884   0.951   5.645   1.334
 7995SOL    HW224885   0.873   5.538   1.239
 7996SOL     OW24886   2.527   0.209   3.232
 7996SOL    HW124887   2.556   0.217   3.136
 7996SOL    HW224888   2.546   0.294   3.280
 7997SOL     OW24889   2.049   2.035   5.653
 7997SOL    HW124890   2.058   1.994   5.563
 7997SOL    HW224891   2.120   2.105   5.665
 7998SOL     OW24892   2.453   1.264   0.596
 7998SOL    HW124893   2.509   1.201   0.649
 7998SOL    HW224894   2.461   1.356   0.635
 7999SOL     OW24895   0.859   0.063   3.637
 7999SOL    HW124896   0.883   0.153   3.602
 7999SOL    HW224897   0.847   7.021   3.561
 8000SOL     OW24898   4.155   5.690   0.784
 8000SOL    HW124899   4.123   5.654   0.872
 8000SOL    HW224900   4.250   5.721   0.794
 8001SOL     OW24901   4.691   4.736   1.164
 8001SOL    HW124902   4.638   4.668   1.114
 8001SOL    HW224903   4.699   4.709   1.260
 8002SOL     OW24904   1.051   6.728   4.307
 8002SOL    HW124905   1.070   6.748   4.211
 8002SOL    HW224906   1.095   6.796   4.365
 8003SOL     OW24907   3.166   5.158   2.460
 8003SOL    HW124908   3.137   5.099   2.385
 8003SOL    HW224909   3.218   5.235   2.423
 8004SOL     OW24910   1.264   3.435   3.836
 8004SOL    HW124911   1.197   3.510   3.841
 8004SOL    HW224912   1.260   3.381   3.920
 8005SOL     OW24913   1.975   1.036   3.169
 8005SOL    HW124914   1.924   1.121   3.181
 8005SOL    HW224915   2.069   1.049   3.197
 8006SOL     OW24916   3.995   5.023   5.488
 8006SOL    HW124917   3.908   5.013   5.536
 8006SOL    HW224918   4.068   5.037   5.554
 8007SOL     OW24919   6.965   0.344   0.928
 8007SOL    HW124920   0.021   0.296   0.887
 8007SOL    HW224921   6.993   0.437   0.952
 8008SOL     OW24922   4.851   4.884   6.989
 8008SOL    HW124923   4.870   4.797   0.014
 8008SOL    HW224924   4.843   4.868   6.890
 8009SOL     OW24925   6.072   1.373   0.764
 8009SOL    HW124926   5.981   1.337   0.745
 8009SOL    HW224927   6.127   1.302   0.809
 8010SOL     OW24928   2.840   0.217   5.637
 8010SOL    HW124929   2.938   0.236   5.639
 8010SOL    HW224930   2.818   0.145   5.703
 8011SOL     OW24931   3.940   2.143   2.963
 8011SOL    HW124932   3.884   2.124   2.882
 8011SOL    HW224933   3.999   2.065   2.982
 8012SOL     OW24934   6.144   0.966   4.416
 8012SOL    HW124935   6.100   0.978   4.505
 8012SOL    HW224936   6.238   0.935   4.430
 8013SOL     OW24937   3.554   0.974   3.056
 8013SOL    HW124938   3.568   0.968   2.957
 8013SOL    HW224939   3.573   1.067   3.087
 8014SOL     OW24940   2.474   2.314   2.978
 8014SOL    HW124941   2.430   2.225   2.985
 8014SOL    HW224942   2.486   2.338   2.881
 8015SOL     OW24943   3.691   0.546   4.738
 8015SOL    HW124944   3.620   0.521   4.804
 8015SOL    HW224945   3.712   0.466   4.681
 8016SOL     OW24946   3.552   2.547   5.404
 8016SOL    HW124947   3.594   2.610   5.339
 8016SOL    HW224948   3.524   2.463   5.358
 8017SOL     OW24949   6.178   6.044   1.301
 8017SOL    HW124950   6.219   5.967   1.349
 8017SOL    HW224951   6.194   6.128   1.353
 8018SOL     OW24952   3.690   3.110   6.954
 8018SOL    HW124953   3.664   3.024   6.997
 8018SOL    HW224954   3.608   3.162   6.929
 8019SOL     OW24955   2.734   3.135   0.320
 8019SOL    HW124956   2.790   3.073   0.265
 8019SOL    HW224957   2.793   3.195   0.374
 8020SOL     OW24958   0.576   0.570   5.507
 8020SOL    HW124959   0.490   0.616   5.483
 8020SOL    HW224960   0.642   0.637   5.541
 8021SOL     OW24961   0.812   3.101   0.584
 8021SOL    HW124962   0.845   3.008   0.566
 8021SOL    HW224963   0.721   3.097   0.626
 8022SOL     OW24964   4.427   0.344   1.837
 8022SOL    HW124965   4.344   0.302   1.874
 8022SOL    HW224966   4.413   0.442   1.826
 8023SOL     OW24967   4.506   5.990   1.212
 8023SOL    HW124968   4.492   6.063   1.279
 8023SOL    HW224969   4.438   5.998   1.139
 8024SOL     OW24970   2.392   1.015   0.182
 8024SOL    HW124971   2.473   0.964   0.210
 8024SOL    HW224972   2.357   1.068   0.260
 8025SOL     OW24973   1.121   6.023   1.557
 8025SOL    HW124974   1.077   6.106   1.525
 8025SOL    HW224975   1.198   6.047   1.616
 8026SOL     OW24976   0.720   6.042   6.211
 8026SOL    HW124977   0.677   6.069   6.296
 8026SOL    HW224978   0.725   6.120   6.149
 8027SOL     OW24979   3.537   6.906   6.500
 8027SOL    HW124980   3.519   6.973   6.571
 8027SOL    HW224981   3.471   6.916   6.425
 8028SOL     OW24982   4.030   5.588   5.416
 8028SOL    HW124983   4.032   5.587   5.516
 8028SOL    HW224984   3.969   5.516   5.383
 8029SOL     OW24985   0.778   0.313   1.417
 8029SOL    HW124986   0.860   0.291   1.470
 8029SOL    HW224987   0.723   0.230   1.406
 8030SOL     OW24988   0.707   4.611   1.140
 8030SOL    HW124989   0.701   4.686   1.206
 8030SOL    HW224990   0.722   4.525   1.189
 8031SOL     OW24991   6.821   0.274   2.693
 8031SOL    HW124992   6.777   0.214   2.760
 8031SOL    HW224993   6.918   0.251   2.686
 8032SOL     OW24994   7.009   2.530   0.712
 8032SOL    HW124995   6.996   2.592   0.635
 8032SOL    HW224996   0.080   2.540   0.749
 8033SOL     OW24997   4.323   4.187   1.471
 8033SOL    HW124998   4.341   4.282   1.496
 8033SOL    HW224999   4.300   4.134   1.553
 8034SOL     OW25000   7.010   6.992   5.846
 8034SOL    HW125001   6.941   6.980   5.775
 8034SOL    HW225002   7.011   6.912   5.906
 8035SOL     OW25003   5.951   0.492   3.643
 8035SOL    HW125004   5.973   0.552   3.566
 8035SOL    HW225005   6.028   0.433   3.664
 8036SOL     OW25006   4.822   2.964   4.268
 8036SOL    HW125007   4.773   2.930   4.188
 8036SOL    HW225008   4.911   3.000   4.240
 8037SOL     OW25009   2.313   0.986   6.261
 8037SOL    HW125010   2.273   0.910   6.310
 8037SOL    HW225011   2.347   0.954   6.172
 8038SOL     OW25012   6.818   5.694   2.096
 8038SOL    HW125013   6.855   5.663   2.009
 8038SOL    HW225014   6.718   5.688   2.094
 8039SOL     OW25015   1.413   2.938   5.286
 8039SOL    HW125016   1.511   2.931   5.267
 8039SOL    HW225017   1.395   2.905   5.379
 8040SOL     OW25018   0.879   6.198   5.617
 8040SOL    HW125019   0.932   6.149   5.686
 8040SOL    HW225020   0.794   6.150   5.599
 8041SOL     OW25021   3.384   1.489   3.227
 8041SOL    HW125022   3.286   1.491   3.207
 8041SOL    HW225023   3.427   1.573   3.193
 8042SOL     OW25024   3.956   4.277   5.823
 8042SOL    HW125025   4.033   4.219   5.848
 8042SOL    HW225026   3.934   4.338   5.898
 8043SOL     OW25027   5.094   5.413   6.838
 8043SOL    HW125028   5.178   5.428   6.890
 8043SOL    HW225029   5.038   5.344   6.885
 8044SOL     OW25030   2.177   3.061   1.287
 8044SOL    HW125031   2.101   3.106   1.239
 8044SOL    HW225032   2.140   3.004   1.360
 8045SOL     OW25033   6.535   3.282   4.427
 8045SOL    HW125034   6.590   3.211   4.471
 8045SOL    HW225035   6.442   3.248   4.413
 8046SOL     OW25036   6.663   4.820   1.383
 8046SOL    HW125037   6.721   4.894   1.419
 8046SOL    HW225038   6.646   4.754   1.456
 8047SOL     OW25039   2.506   6.168   6.850
 8047SOL    HW125040   2.560   6.208   6.925
 8047SOL    HW225041   2.437   6.107   6.888
 8048SOL     OW25042   3.676   2.185   5.639
 8048SOL    HW125043   3.722   2.153   5.557
 8048SOL    HW225044   3.578   2.195   5.620
 8049SOL     OW25045   1.638   1.791   0.115
 8049SOL    HW125046   1.639   1.767   0.212
 8049SOL    HW225047   1.571   1.735   0.067
 8050SOL     OW25048   0.647   4.957   6.099
 8050SOL    HW125049   0.671   4.946   6.195
 8050SOL    HW225050   0.597   4.876   6.068
 8051SOL     OW25051   4.474   7.003   3.601
 8051SOL    HW125052   4.449   0.078   3.611
 8051SOL    HW225053   4.558   6.985   3.652
 8052SOL     OW25054   3.219   1.852   2.708
 8052SOL    HW125055   3.304   1.839   2.759
 8052SOL    HW225056   3.189   1.947   2.718
 8053SOL     OW25057   1.830   2.372   6.721
 8053SOL    HW125058   1.753   2.326   6.765
 8053SOL    HW225059   1.796   2.448   6.665
 8054SOL     OW25060   4.955   3.339   4.850
 8054SOL    HW125061   4.897   3.407   4.894
 8054SOL    HW225062   4.933   3.335   4.752
 8055SOL     OW25063   6.410   0.461   6.618
 8055SOL    HW125064   6.465   0.466   6.701
 8055SOL    HW225065   6.395   0.553   6.582
 8056SOL     OW25066   2.279   1.062   3.838
 8056SOL    HW125067   2.337   1.066   3.757
 8056SOL    HW225068   2.220   0.981   3.833
 8057SOL     OW25069   3.150   2.104   2.167
 8057SOL    HW125070   3.095   2.185   2.147
 8057SOL    HW225071   3.219   2.093   2.096
 8058SOL     OW25072   3.634   6.294   1.459
 8058SOL    HW125073   3.709   6.228   1.454
 8058SOL    HW225074   3.668   6.386   1.439
 8059SOL     OW25075   2.787   2.805   5.911
 8059SOL    HW125076   2.741   2.793   5.823
 8059SOL    HW225077   2.781   2.900   5.940
 8060SOL     OW25078   6.319   0.960   5.724
 8060SOL    HW125079   6.272   0.978   5.637
 8060SOL    HW225080   6.407   0.915   5.705
 8061SOL     OW25081   6.937   0.546   2.481
 8061SOL    HW125082   0.002   0.598   2.479
 8061SOL    HW225083   6.914   0.516   2.388
 8062SOL     OW25084   4.883   5.071   5.686
 8062SOL    HW125085   4.822   4.996   5.661
 8062SOL    HW225086   4.854   5.155   5.640
 8063SOL     OW25087   2.751   5.138   3.028
 8063SOL    HW125088   2.658   5.115   3.058
 8063SOL    HW225089   2.770   5.092   2.941
 8064SOL     OW25090   6.579   1.680   0.928
 8064SOL    HW125091   6.548   1.645   0.840
 8064SOL    HW225092   6.646   1.754   0.914
 8065SOL     OW25093   4.344   6.375   6.552
 8065SOL    HW125094   4.291   6.343   6.631
 8065SOL    HW225095   4.319   6.470   6.531
 8066SOL     OW25096   0.426   6.866   6.181
 8066SOL    HW125097   0.448   6.936   6.250
 8066SOL    HW225098   0.509   6.816   6.158
 8067SOL     OW25099   5.709   1.097   3.944
 8067SOL    HW125100   5.791   1.130   3.897
 8067SOL    HW225101   5.653   1.176   3.972
 8068SOL     OW25102   6.438   3.251   1.663
 8068SOL    HW125103   6.371   3.219   1.731
 8068SOL    HW225104   6.480   3.172   1.619
 8069SOL     OW25105   1.747   3.453   2.490
 8069SOL    HW125106   1.694   3.376   2.524
 8069SOL    HW225107   1.769   3.515   2.565
 8070SOL     OW25108   4.953   4.574   0.890
 8070SOL    HW125109   4.981   4.659   0.847
 8070SOL    HW225110   4.961   4.499   0.824
 8071SOL     OW25111   2.816   6.793   6.297
 8071SOL    HW125112   2.782   6.739   6.220
 8071SOL    HW225113   2.833   6.887   6.266
 8072SOL     OW25114   2.036   1.950   4.782
 8072SOL    HW125115   2.069   2.017   4.716
 8072SOL    HW225116   1.951   1.982   4.824
 8073SOL     OW25117   4.345   0.140   6.789
 8073SOL    HW125118   4.402   0.200   6.844
 8073SOL    HW225119   4.329   0.054   6.838
 8074SOL     OW25120   0.087   0.431   6.801
 8074SOL    HW125121   0.051   0.503   6.742
 8074SOL    HW225122   0.166   0.388   6.757
 8075SOL     OW25123   0.101   6.798   0.709
 8075SOL    HW125124   0.112   6.749   0.795
 8075SOL    HW225125   0.032   6.753   0.653
 8076SOL     OW25126   0.122   5.965   0.516
 8076SOL    HW125127   0.103   5.872   0.485
 8076SOL    HW225128   0.143   6.023   0.437
 8077SOL     OW25129   5.414   4.681   0.657
 8077SOL    HW125130   5.403   4.642   0.749
 8077SOL    HW225131   5.505   4.658   0.623
 8078SOL     OW25132   0.021   0.596   1.236
 8078SOL    HW125133   0.076   0.642   1.306
 8078SOL    HW225134   0.005   0.501   1.263
 8079SOL     OW25135   0.708   1.001   6.389
 8079SOL    HW125136   0.633   0.952   6.433
 8079SOL    HW225137   0.776   0.936   6.356
 8080SOL     OW25138   1.194   3.345   3.318
 8080SOL    HW125139   1.239   3.301   3.240
 8080SOL    HW225140   1.246   3.325   3.402
 8081SOL     OW25141   6.395   6.735   5.085
 8081SOL    HW125142   6.457   6.797   5.037
 8081SOL    HW225143   6.378   6.655   5.028
 8082SOL     OW25144   3.809   2.147   3.789
 8082SOL    HW125145   3.716   2.164   3.822
 8082SOL    HW225146   3.869   2.126   3.866
 8083SOL     OW25147   6.627   1.895   4.728
 8083SOL    HW125148   6.630   1.970   4.661
 8083SOL    HW225149   6.719   1.861   4.745
 8084SOL     OW25150   3.894   1.575   5.611
 8084SOL    HW125151   3.959   1.558   5.537
 8084SOL    HW225152   3.942   1.569   5.699
 8085SOL     OW25153   2.054   6.261   4.220
 8085SOL    HW125154   1.968   6.224   4.256
 8085SOL    HW225155   2.128   6.197   4.238
 8086SOL     OW25156   6.899   1.424   2.561
 8086SOL    HW125157   6.914   1.334   2.602
 8086SOL    HW225158   6.857   1.485   2.629
 8087SOL     OW25159   6.808   0.747   6.458
 8087SOL    HW125160   6.725   0.692   6.471
 8087SOL    HW225161   6.798   0.803   6.376
 8088SOL     OW25162   6.617   0.089   5.268
 8088SOL    HW125163   6.647   7.017   5.246
 8088SOL    HW225164   6.670   0.154   5.213
 8089SOL     OW25165   6.041   2.010   6.688
 8089SOL    HW125166   6.014   1.914   6.685
 8089SOL    HW225167   6.004   2.052   6.771
 8090SOL     OW25168   4.257   2.426   5.519
 8090SOL    HW125169   4.262   2.478   5.605
 8090SOL    HW225170   4.330   2.358   5.518
 8091SOL     OW25171   1.220   4.172   4.224
 8091SOL    HW125172   1.279   4.106   4.270
 8091SOL    HW225173   1.237   4.264   4.260
 8092SOL     OW25174   4.887   1.186   5.747
 8092SOL    HW125175   4.892   1.092   5.779
 8092SOL    HW225176   4.818   1.194   5.676
 8093SOL     OW25177   3.334   6.066   3.026
 8093SOL    HW125178   3.365   6.161   3.038
 8093SOL    HW225179   3.409   6.004   3.049
 8094SOL     OW25180   1.805   3.862   3.993
 8094SOL    HW125181   1.865   3.939   4.014
 8094SOL    HW225182   1.838   3.780   4.040
 8095SOL     OW25183   1.501   4.785   5.128
 8095SOL    HW125184   1.483   4.840   5.210
 8095SOL    HW225185   1.415   4.764   5.082
 8096SOL     OW25186   0.748   5.194   0.504
 8096SOL    HW125187   0.721   5.098   0.492
 8096SOL    HW225188   0.838   5.197   0.548
 8097SOL     OW25189   4.674   6.358   0.310
 8097SOL    HW125190   4.725   6.277   0.282
 8097SOL    HW225191   4.682   6.428   0.239
 8098SOL     OW25192   2.560   5.377   5.022
 8098SOL    HW125193   2.495   5.327   5.078
 8098SOL    HW225194   2.511   5.435   4.956
 8099SOL     OW25195   1.887   3.882   2.461
 8099SOL    HW125196   1.986   3.876   2.467
 8099SOL    HW225197   1.856   3.968   2.502
 8100SOL     OW25198   6.711   0.248   6.680
 8100SOL    HW125199   6.623   0.204   6.664
 8100SOL    HW225200   6.764   0.194   6.746
 8101SOL     OW25201   3.053   5.401   1.027
 8101SOL    HW125202   2.965   5.358   1.045
 8101SOL    HW225203   3.039   5.488   0.980
 8102SOL     OW25204   0.756   4.054   4.346
 8102SOL    HW125205   0.818   3.988   4.388
 8102SOL    HW225206   0.786   4.073   4.252
 8103SOL     OW25207   3.385   0.754   1.554
 8103SOL    HW125208   3.478   0.781   1.530
 8103SOL    HW225209   3.387   0.669   1.607
 8104SOL     OW25210   2.391   5.318   0.334
 8104SOL    HW125211   2.378   5.219   0.325
 8104SOL    HW225212   2.391   5.361   0.244
 8105SOL     OW25213   6.890   6.894   3.496
 8105SOL    HW125214   6.897   6.884   3.595
 8105SOL    HW225215   6.979   6.920   3.459
 8106SOL     OW25216   2.364   6.981   6.312
 8106SOL    HW125217   2.407   6.973   6.402
 8106SOL    HW225218   2.266   6.966   6.320
 8107SOL     OW25219   1.687   6.168   6.817
 8107SOL    HW125220   1.646   6.253   6.783
 8107SOL    HW225221   1.674   6.095   6.750
 8108SOL     OW25222   1.043   1.101   6.924
 8108SOL    HW125223   0.972   1.060   6.867
 8108SOL    HW225224   1.004   1.177   6.977
 8109SOL     OW25225   6.507   2.624   1.790
 8109SOL    HW125226   6.467   2.590   1.875
 8109SOL    HW225227   6.556   2.709   1.809
 8110SOL     OW25228   4.010   5.052   0.985
 8110SOL    HW125229   4.027   5.016   1.076
 8110SOL    HW225230   3.975   4.979   0.926
 8111SOL     OW25231   6.622   1.123   2.710
 8111SOL    HW125232   6.581   1.082   2.791
 8111SOL    HW225233   6.581   1.084   2.628
 8112SOL     OW25234   1.901   4.715   6.662
 8112SOL    HW125235   1.954   4.795   6.690
 8112SOL    HW225236   1.962   4.650   6.615
 8113SOL     OW25237   5.539   4.212   5.652
 8113SOL    HW125238   5.508   4.305   5.672
 8113SOL    HW225239   5.538   4.197   5.554
 8114SOL     OW25240   1.625   3.713   2.871
 8114SOL    HW125241   1.624   3.625   2.920
 8114SOL    HW225242   1.679   3.703   2.787
 8115SOL     OW25243   2.740   1.624   6.130
 8115SOL    HW125244   2.689   1.663   6.206
 8115SOL    HW225245   2.836   1.611   6.158
 8116SOL     OW25246   3.894   3.111   1.645
 8116SOL    HW125247   3.946   3.174   1.703
 8116SOL    HW225248   3.916   3.017   1.672
 8117SOL     OW25249   2.881   6.554   4.281
 8117SOL    HW125250   2.935   6.471   4.267
 8117SOL    HW225251   2.816   6.564   4.206
 8118SOL     OW25252   6.864   3.210   0.311
 8118SOL    HW125253   6.832   3.222   0.217
 8118SOL    HW225254   6.850   3.295   0.362
 8119SOL     OW25255   5.627   6.395   0.126
 8119SOL    HW125256   5.624   6.310   0.073
 8119SOL    HW225257   5.709   6.395   0.183
 8120SOL     OW25258   1.677   6.803   2.142
 8120SOL    HW125259   1.748   6.735   2.123
 8120SOL    HW225260   1.638   6.834   2.055
 8121SOL     OW25261   1.003   2.974   2.162
 8121SOL    HW125262   0.982   2.963   2.259
 8121SOL    HW225263   0.941   2.917   2.108
 8122SOL     OW25264   0.306   5.260   1.509
 8122SOL    HW125265   0.371   5.214   1.449
 8122SOL    HW225266   0.357   5.309   1.580
 8123SOL     OW25267   6.644   1.701   6.852
 8123SOL    HW125268   6.619   1.626   6.914
 8123SOL    HW225269   6.735   1.684   6.814
 8124SOL     OW25270   5.796   5.434   4.769
 8124SOL    HW125271   5.811   5.436   4.868
 8124SOL    HW225272   5.699   5.417   4.750
 8125SOL     OW25273   2.084   5.575   2.457
 8125SOL    HW125274   2.085   5.616   2.366
 8125SOL    HW225275   2.038   5.486   2.453
 8126SOL     OW25276   3.816   5.554   4.486
 8126SOL    HW125277   3.891   5.608   4.526
 8126SOL    HW225278   3.747   5.536   4.557
 8127SOL     OW25279   3.622   2.152   6.596
 8127SOL    HW125280   3.529   2.117   6.588
 8127SOL    HW225281   3.658   2.172   6.504
 8128SOL     OW25282   3.334   2.839   1.437
 8128SOL    HW125283   3.429   2.846   1.468
 8128SOL    HW225284   3.305   2.743   1.441
 8129SOL     OW25285   1.154   2.315   2.603
 8129SOL    HW125286   1.104   2.297   2.688
 8129SOL    HW225287   1.220   2.241   2.588
 8130SOL     OW25288   0.610   5.772   6.789
 8130SOL    HW125289   0.548   5.769   6.711
 8130SOL    HW225290   0.575   5.837   6.856
 8131SOL     OW25291   1.889   3.111   6.827
 8131SOL    HW125292   1.926   3.173   6.757
 8131SOL    HW225293   1.876   3.161   6.912
 8132SOL     OW25294   0.472   0.876   4.879
 8132SOL    HW125295   0.399   0.882   4.812
 8132SOL    HW225296   0.498   0.781   4.894
 8133SOL     OW25297   3.663   4.933   0.579
 8133SOL    HW125298   3.581   4.884   0.608
 8133SOL    HW225299   3.702   4.889   0.499
 8134SOL     OW25300   5.643   1.798   5.985
 8134SOL    HW125301   5.626   1.720   6.045
 8134SOL    HW225302   5.741   1.804   5.965
 8135SOL     OW25303   2.729   6.744   2.035
 8135SOL    HW125304   2.647   6.687   2.037
 8135SOL    HW225305   2.793   6.706   1.968
 8136SOL     OW25306   5.344   4.388   2.065
 8136SOL    HW125307   5.404   4.397   1.985
 8136SOL    HW225308   5.261   4.339   2.039
 8137SOL     OW25309   4.316   1.882   5.840
 8137SOL    HW125310   4.350   1.863   5.932
 8137SOL    HW225311   4.335   1.977   5.816
 8138SOL     OW25312   5.149   0.956   2.518
 8138SOL    HW125313   5.110   1.003   2.439
 8138SOL    HW225314   5.239   0.919   2.493
 8139SOL     OW25315   0.222   2.226   3.294
 8139SOL    HW125316   0.269   2.170   3.363
 8139SOL    HW225317   0.210   2.319   3.329
 8140SOL     OW25318   4.461   1.997   3.629
 8140SOL    HW125319   4.465   2.049   3.544
 8140SOL    HW225320   4.374   2.015   3.675
 8141SOL     OW25321   5.332   4.622   4.314
 8141SOL    HW125322   5.285   4.654   4.231
 8141SOL    HW225323   5.271   4.632   4.392
 8142SOL     OW25324   0.326   6.125   6.367
 8142SOL    HW125325   0.313   6.032   6.333
 8142SOL    HW225326   0.248   6.151   6.424
 8143SOL     OW25327   6.679   3.135   5.958
 8143SOL    HW125328   6.643   3.173   5.872
 8143SOL    HW225329   6.632   3.049   5.978
 8144SOL     OW25330   4.943   0.401   6.968
 8144SOL    HW125331   5.014   0.344   7.009
 8144SOL    HW225332   4.967   0.419   6.873
 8145SOL     OW25333   5.208   6.187   2.734
 8145SOL    HW125334   5.300   6.205   2.769
 8145SOL    HW225335   5.141   6.200   2.808
 8146SOL     OW25336   3.609   1.334   4.547
 8146SOL    HW125337   3.529   1.307   4.601
 8146SOL    HW225338   3.676   1.260   4.547
 8147SOL     OW25339   4.698   0.748   3.339
 8147SOL    HW125340   4.789   0.780   3.313
 8147SOL    HW225341   4.699   0.649   3.349
 8148SOL     OW25342   5.357   4.321   3.328
 8148SOL    HW125343   5.319   4.239   3.370
 8148SOL    HW225344   5.288   4.366   3.272
 8149SOL     OW25345   3.879   4.857   3.486
 8149SOL    HW125346   3.910   4.873   3.580
 8149SOL    HW225347   3.953   4.816   3.433
 8150SOL     OW25348   0.671   5.472   0.926
 8150SOL    HW125349   0.669   5.550   0.863
 8150SOL    HW225350   0.646   5.388   0.876
 8151SOL     OW25351   0.638   1.570   4.941
 8151SOL    HW125352   0.647   1.670   4.933
 8151SOL    HW225353   0.653   1.528   4.851
 8152SOL     OW25354   1.592   0.631   2.740
 8152SOL    HW125355   1.556   0.643   2.832
 8152SOL    HW225356   1.517   0.616   2.676
 8153SOL     OW25357   1.668   6.660   0.296
 8153SOL    HW125358   1.631   6.753   0.301
 8153SOL    HW225359   1.760   6.663   0.258
 8154SOL     OW25360   2.491   6.985   3.716
 8154SOL    HW125361   2.457   6.895   3.743
 8154SOL    HW225362   2.466   7.003   3.620
 8155SOL     OW25363   3.544   3.545   4.016
 8155SOL    HW125364   3.491   3.620   4.056
 8155SOL    HW225365   3.500   3.514   3.932
 8156SOL     OW25366   6.631   0.557   5.632
 8156SOL    HW125367   6.633   0.565   5.732
 8156SOL    HW225368   6.581   0.474   5.607
 8157SOL     OW25369   6.352   2.593   6.573
 8157SOL    HW125370   6.379   2.518   6.634
 8157SOL    HW225371   6.321   2.556   6.486
 8158SOL     OW25372   2.179   5.274   2.617
 8158SOL    HW125373   2.096   5.269   2.563
 8158SOL    HW225374   2.194   5.368   2.648
 8159SOL     OW25375   0.893   4.888   1.651
 8159SOL    HW125376   0.824   4.956   1.675
 8159SOL    HW225377   0.905   4.824   1.726
 8160SOL     OW25378   4.790   2.103   2.171
 8160SOL    HW125379   4.832   2.176   2.116
 8160SOL    HW225380   4.808   2.015   2.128
 8161SOL     OW25381   4.308   1.931   1.500
 8161SOL    HW125382   4.363   1.851   1.476
 8161SOL    HW225383   4.368   2.001   1.539
 8162SOL     OW25384   6.097   0.544   1.756
 8162SOL    HW125385   6.171   0.514   1.696
 8162SOL    HW225386   6.101   0.644   1.767
 8163SOL     OW25387   1.759   3.527   4.808
 8163SOL    HW125388   1.832   3.485   4.862
 8163SOL    HW225389   1.693   3.457   4.780
 8164SOL     OW25390   4.920   2.489   2.797
 8164SOL    HW125391   4.856   2.556   2.835
 8164SOL    HW225392   4.882   2.453   2.711
 8165SOL     OW25393   2.263   4.746   1.328
 8165SOL    HW125394   2.189   4.781   1.385
 8165SOL    HW225395   2.264   4.647   1.332
 8166SOL     OW25396   3.471   6.626   1.277
 8166SOL    HW125397   3.373   6.641   1.292
 8166SOL    HW225398   3.493   6.530   1.295
 8167SOL     OW25399   5.364   3.250   4.222
 8167SOL    HW125400   5.305   3.303   4.282
 8167SOL    HW225401   5.323   3.244   4.131
 8168SOL     OW25402   3.364   2.116   2.777
 8168SOL    HW125403   3.275   2.141   2.738
 8168SOL    HW225404   3.425   2.089   2.703
 8169SOL     OW25405   5.334   4.294   5.310
 8169SOL    HW125406   5.396   4.216   5.315
 8169SOL    HW225407   5.350   4.343   5.224
 8170SOL     OW25408   1.484   4.939   4.224
 8170SOL    HW125409   1.401   4.883   4.221
 8170SOL    HW225410   1.531   4.932   4.136
 8171SOL     OW25411   1.675   1.464   5.886
 8171SOL    HW125412   1.674   1.552   5.933
 8171SOL    HW225413   1.753   1.410   5.919
 8172SOL     OW25414   0.191   5.952   1.700
 8172SOL    HW125415   0.177   6.038   1.651
 8172SOL    HW225416   0.136   5.880   1.657
 8173SOL     OW25417   5.735   2.567   6.607
 8173SOL    HW125418   5.828   2.540   6.632
 8173SOL    HW225419   5.732   2.666   6.592
 8174SOL     OW25420   5.456   6.891   2.025
 8174SOL    HW125421   5.517   6.962   1.990
 8174SOL    HW225422   5.381   6.933   2.077
 8175SOL     OW25423   1.632   3.023   5.043
 8175SOL    HW125424   1.628   3.024   5.143
 8175SOL    HW225425   1.725   3.043   5.013
 8176SOL     OW25426   4.149   5.025   2.980
 8176SOL    HW125427   4.077   4.969   3.019
 8176SOL    HW225428   4.114   5.078   2.903
 8177SOL     OW25429   0.993   0.113   5.669
 8177SOL    HW125430   0.903   0.152   5.684
 8177SOL    HW225431   1.033   0.085   5.756
 8178SOL     OW25432   2.063   6.771   6.116
 8178SOL    HW125433   2.105   6.680   6.111
 8178SOL    HW225434   2.063   6.813   6.025
 8179SOL     OW25435   3.540   0.540   0.055
 8179SOL    HW125436   3.518   0.525   0.151
 8179SOL    HW225437   3.556   0.637   0.039
 8180SOL     OW25438   4.653   4.871   5.400
 8180SOL    HW125439   4.633   4.906   5.309
 8180SOL    HW225440   4.735   4.814   5.396
 8181SOL     OW25441   2.622   2.134   2.704
 8181SOL    HW125442   2.621   2.192   2.622
 8181SOL    HW225443   2.529   2.123   2.738
 8182SOL     OW25444   5.450   2.564   6.026
 8182SOL    HW125445   5.433   2.475   5.983
 8182SOL    HW225446   5.528   2.557   6.088
 8183SOL     OW25447   2.038   2.715   3.921
 8183SOL    HW125448   2.004   2.805   3.893
 8183SOL    HW225449   2.135   2.708   3.898
 8184SOL     OW25450   5.763   6.243   4.965
 8184SOL    HW125451   5.812   6.186   5.031
 8184SOL    HW225452   5.822   6.259   4.886
 8185SOL     OW25453   1.897   2.036   2.776
 8185SOL    HW125454   1.824   2.015   2.711
 8185SOL    HW225455   1.975   1.977   2.758
 8186SOL     OW25456   4.046   4.245   6.201
 8186SOL    HW125457   3.972   4.179   6.215
 8186SOL    HW225458   4.011   4.338   6.213
 8187SOL     OW25459   1.961   1.054   6.048
 8187SOL    HW125460   1.893   0.983   6.067
 8187SOL    HW225461   1.963   1.073   5.950
 8188SOL     OW25462   5.596   3.069   2.856
 8188SOL    HW125463   5.603   3.094   2.759
 8188SOL    HW225464   5.654   2.990   2.875
 8189SOL     OW25465   6.884   4.983   3.018
 8189SOL    HW125466   6.902   4.895   2.973
 8189SOL    HW225467   6.788   5.008   3.004
 8190SOL     OW25468   5.486   3.515   2.364
 8190SOL    HW125469   5.452   3.440   2.308
 8190SOL    HW225470   5.562   3.560   2.318
 8191SOL     OW25471   0.358   5.228   1.863
 8191SOL    HW125472   0.384   5.305   1.804
 8191SOL    HW225473   0.314   5.157   1.808
 8192SOL     OW25474   1.672   3.185   0.642
 8192SOL    HW125475   1.649   3.267   0.695
 8192SOL    HW225476   1.593   3.123   0.642
 8193SOL     OW25477   3.482   0.262   5.502
 8193SOL    HW125478   3.411   0.330   5.517
 8193SOL    HW225479   3.539   0.254   5.585
 8194SOL     OW25480   2.042   0.269   1.650
 8194SOL    HW125481   2.035   0.189   1.709
 8194SOL    HW225482   1.950   0.303   1.628
 8195SOL     OW25483   5.313   0.798   1.041
 8195SOL    HW125484   5.252   0.744   1.099
 8195SOL    HW225485   5.277   0.890   1.030
 8196SOL     OW25486   1.840   0.446   6.763
 8196SOL    HW125487   1.875   0.376   6.826
 8196SOL    HW225488   1.913   0.511   6.741
 8197SOL     OW25489   0.644   6.715   0.750
 8197SOL    HW125490   0.652   6.759   0.839
 8197SOL    HW225491   0.554   6.672   0.742
 8198SOL     OW25492   3.395   0.473   2.742
 8198SOL    HW125493   3.398   0.551   2.805
 8198SOL    HW225494   3.477   0.473   2.686
 8199SOL     OW25495   5.684   4.371   0.074
 8199SOL    HW125496   5.607   4.424   0.108
 8199SOL    HW225497   5.756   4.370   0.142
 8200SOL     OW25498   4.346   3.329   1.748
 8200SOL    HW125499   4.405   3.279   1.811
 8200SOL    HW225500   4.368   3.302   1.654
 8201SOL     OW25501   6.269   0.759   4.671
 8201SOL    HW125502   6.193   0.760   4.736
 8201SOL    HW225503   6.323   0.843   4.682
 8202SOL     OW25504   1.946   4.103   4.041
 8202SOL    HW125505   1.903   4.173   3.984
 8202SOL    HW225506   1.940   4.129   4.137
 8203SOL     OW25507   5.782   4.134   0.420
 8203SOL    HW125508   5.860   4.075   0.397
 8203SOL    HW225509   5.815   4.227   0.434
 8204SOL     OW25510   3.349   0.358   0.776
 8204SOL    HW125511   3.279   0.429   0.788
 8204SOL    HW225512   3.438   0.395   0.802
 8205SOL     OW25513   5.547   5.847   2.874
 8205SOL    HW125514   5.457   5.804   2.876
 8205SOL    HW225515   5.566   5.881   2.782
 8206SOL     OW25516   4.326   1.851   4.245
 8206SOL    HW125517   4.423   1.846   4.220
 8206SOL    HW225518   4.292   1.759   4.262
 8207SOL     OW25519   3.110   5.727   6.802
 8207SOL    HW125520   3.111   5.825   6.782
 8207SOL    HW225521   3.126   5.713   6.900
 8208SOL     OW25522   1.538   5.787   0.022
 8208SOL    HW125523   1.547   5.752   6.950
 8208SOL    HW225524   1.502   5.881   0.018
 8209SOL     OW25525   1.488   5.859   5.137
 8209SOL    HW125526   1.452   5.944   5.173
 8209SOL    HW225527   1.568   5.878   5.080
 8210SOL     OW25528   2.191   2.074   0.158
 8210SOL    HW125529   2.147   2.037   0.076
 8210SOL    HW225530   2.123   2.121   0.214
 8211SOL     OW25531   3.910   3.899   4.151
 8211SOL    HW125532   3.896   3.976   4.214
 8211SOL    HW225533   3.891   3.813   4.199
 8212SOL     OW25534   4.008   5.616   0.246
 8212SOL    HW125535   3.970   5.657   0.329
 8212SOL    HW225536   3.995   5.517   0.248
 8213SOL     OW25537   4.606   4.361   1.694
 8213SOL    HW125538   4.529   4.318   1.740
 8213SOL    HW225539   4.621   4.453   1.731
 8214SOL     OW25540   4.037   5.711   2.809
 8214SOL    HW125541   4.045   5.809   2.829
 8214SOL    HW225542   3.942   5.682   2.824
 8215SOL     OW25543   2.393   6.272   6.320
 8215SOL    HW125544   2.442   6.188   6.297
 8215SOL    HW225545   2.411   6.297   6.415
 8216SOL     OW25546   5.406   5.914   1.673
 8216SOL    HW125547   5.424   5.875   1.582
 8216SOL    HW225548   5.401   6.013   1.667
 8217SOL     OW25549   3.381   6.557   3.773
 8217SOL    HW125550   3.475   6.525   3.781
 8217SOL    HW225551   3.377   6.654   3.794
 8218SOL     OW25552   2.097   6.093   5.051
 8218SOL    HW125553   2.033   6.034   5.002
 8218SOL    HW225554   2.084   6.188   5.021
 8219SOL     OW25555   3.850   3.037   2.507
 8219SOL    HW125556   3.932   3.091   2.525
 8219SOL    HW225557   3.840   3.023   2.408
 8220SOL     OW25558   3.589   4.215   5.279
 8220SOL    HW125559   3.583   4.200   5.180
 8220SOL    HW225560   3.497   4.228   5.316
 8221SOL     OW25561   6.037   3.818   4.175
 8221SOL    HW125562   6.040   3.888   4.246
 8221SOL    HW225563   6.130   3.788   4.154
 8222SOL     OW25564   6.158   2.382   0.123
 8222SOL    HW125565   6.096   2.313   0.085
 8222SOL    HW225566   6.215   2.420   0.050
 8223SOL     OW25567   2.082   6.072   5.616
 8223SOL    HW125568   2.007   6.007   5.606
 8223SOL    HW225569   2.134   6.076   5.531
 8224SOL     OW25570   5.103   1.426   6.601
 8224SOL    HW125571   5.159   1.354   6.640
 8224SOL    HW225572   5.074   1.400   6.508
 8225SOL     OW25573   5.584   3.190   0.174
 8225SOL    HW125574   5.508   3.132   0.205
 8225SOL    HW225575   5.628   3.232   0.253
 8226SOL     OW25576   4.062   0.851   6.667
 8226SOL    HW125577   4.107   0.770   6.631
 8226SOL    HW225578   4.014   0.828   6.752
 8227SOL     OW25579   4.613   2.648   3.325
 8227SOL    HW125580   4.598   2.691   3.236
 8227SOL    HW225581   4.694   2.687   3.368
 8228SOL     OW25582   3.039   6.967   5.400
 8228SOL    HW125583   3.052   6.881   5.350
 8228SOL    HW225584   3.076   0.022   5.346
 8229SOL     OW25585   4.466   4.659   0.945
 8229SOL    HW125586   4.501   4.714   0.869
 8229SOL    HW225587   4.455   4.564   0.916
 8230SOL     OW25588   6.182   1.041   5.479
 8230SOL    HW125589   6.144   1.027   5.388
 8230SOL    HW225590   6.112   1.084   5.538
 8231SOL     OW25591   3.000   1.236   2.274
 8231SOL    HW125592   3.059   1.300   2.224
 8231SOL    HW225593   3.033   1.143   2.259
 8232SOL     OW25594   3.678   6.403   3.144
 8232SOL    HW125595   3.732   6.347   3.081
 8232SOL    HW225596   3.722   6.405   3.233
 8233SOL     OW25597   1.918   1.147   6.659
 8233SOL    HW125598   1.906   1.164   6.562
 8233SOL    HW225599   2.007   1.183   6.689
 8234SOL     OW25600   0.826   2.866   0.481
 8234SOL    HW125601   0.730   2.840   0.466
 8234SOL    HW225602   0.864   2.903   0.397
 8235SOL     OW25603   1.010   0.905   1.662
 8235SOL    HW125604   1.087   0.970   1.660
 8235SOL    HW225605   1.044   0.814   1.682
 8236SOL     OW25606   0.433   0.264   1.983
 8236SOL    HW125607   0.510   0.321   2.013
 8236SOL    HW225608   0.454   0.226   1.892
 8237SOL     OW25609   3.874   4.867   5.279
 8237SOL    HW125610   3.883   4.922   5.361
 8237SOL    HW225611   3.828   4.781   5.300
 8238SOL     OW25612   0.426   5.436   0.589
 8238SOL    HW125613   0.436   5.349   0.638
 8238SOL    HW225614   0.353   5.490   0.631
 8239SOL     OW25615   3.145   1.651   5.814
 8239SOL    HW125616   3.115   1.727   5.756
 8239SOL    HW225617   3.110   1.565   5.777
 8240SOL     OW25618   3.703   3.255   5.015
 8240SOL    HW125619   3.721   3.296   4.926
 8240SOL    HW225620   3.658   3.323   5.074
 8241SOL     OW25621   1.417   3.413   5.789
 8241SOL    HW125622   1.450   3.355   5.715
 8241SOL    HW225623   1.317   3.420   5.784
 8242SOL     OW25624   0.500   2.783   2.388
 8242SOL    HW125625   0.516   2.820   2.480
 8242SOL    HW225626   0.557   2.833   2.322
 8243SOL     OW25627   1.179   6.576   3.615
 8243SOL    HW125628   1.124   6.659   3.618
 8243SOL    HW225629   1.227   6.563   3.702
 8244SOL     OW25630   6.624   1.059   3.357
 8244SOL    HW125631   6.690   1.126   3.390
 8244SOL    HW225632   6.586   1.090   3.270
 8245SOL     OW25633   5.065   2.918   2.952
 8245SOL    HW125634   5.098   2.923   2.857
 8245SOL    HW225635   4.969   2.945   2.954
 8246SOL     OW25636   1.754   4.408   6.934
 8246SOL    HW125637   1.689   4.408   7.010
 8246SOL    HW225638   1.722   4.344   6.864
 8247SOL     OW25639   2.978   5.031   3.684
 8247SOL    HW125640   3.069   5.039   3.644
 8247SOL    HW225641   2.983   5.048   3.783
 8248SOL     OW25642   6.905   5.125   3.336
 8248SOL    HW125643   6.879   5.180   3.415
 8248SOL    HW225644   6.865   5.163   3.253
 8249SOL     OW25645   3.212   1.478   6.631
 8249SOL    HW125646   3.270   1.422   6.690
 8249SOL    HW225647   3.259   1.497   6.545
 8250SOL     OW25648   1.242   1.910   7.005
 8250SOL    HW125649   1.183   1.966   6.946
 8250SOL    HW225650   1.264   1.825   6.958
 8251SOL     OW25651   1.108   2.177   5.848
 8251SOL    HW125652   1.162   2.103   5.808
 8251SOL    HW225653   1.136   2.264   5.807
 8252SOL     OW25654   0.972   2.071   6.612
 8252SOL    HW125655   1.003   1.977   6.601
 8252SOL    HW225656   0.952   2.110   6.522
 8253SOL     OW25657   5.669   4.907   6.251
 8253SOL    HW125658   5.675   4.948   6.342
 8253SOL    HW225659   5.760   4.901   6.210
 8254SOL     OW25660   6.421   5.778   0.014
 8254SOL    HW125661   6.490   5.813   6.972
 8254SOL    HW225662   6.351   5.729   6.984
 8255SOL     OW25663   1.102   0.337   5.931
 8255SOL    HW125664   1.045   0.255   5.934
 8255SOL    HW225665   1.094   0.380   5.841
 8256SOL     OW25666   1.448   6.007   4.362
 8256SOL    HW125667   1.421   6.064   4.285
 8256SOL    HW225668   1.510   6.059   4.421
 8257SOL     OW25669   4.880   4.042   3.312
 8257SOL    HW125670   4.963   4.092   3.286
 8257SOL    HW225671   4.831   4.094   3.381
 8258SOL     OW25672   0.541   2.789   3.732
 8258SOL    HW125673   0.526   2.875   3.683
 8258SOL    HW225674   0.453   2.752   3.761
 8259SOL     OW25675   5.840   2.091   4.436
 8259SOL    HW125676   5.744   2.062   4.442
 8259SOL    HW225677   5.876   2.067   4.345
 8260SOL     OW25678   5.069   2.572   0.175
 8260SOL    HW125679   5.140   2.619   0.123
 8260SOL    HW225680   5.098   2.479   0.196
 8261SOL     OW25681   6.152   1.449   2.715
 8261SOL    HW125682   6.178   1.527   2.658
 8261SOL    HW225683   6.196   1.366   2.679
 8262SOL     OW25684   5.211   3.569   2.192
 8262SOL    HW125685   5.297   3.604   2.155
 8262SOL    HW225686   5.226   3.479   2.233
 8263SOL     OW25687   6.736   2.088   6.066
 8263SOL    HW125688   6.775   2.180   6.075
 8263SOL    HW225689   6.809   2.024   6.044
 8264SOL     OW25690   2.729   1.247   2.242
 8264SOL    HW125691   2.712   1.294   2.156
 8264SOL    HW225692   2.827   1.247   2.261
 8265SOL     OW25693   4.545   5.275   0.776
 8265SOL    HW125694   4.639   5.270   0.811
 8265SOL    HW225695   4.525   5.368   0.748
 8266SOL     OW25696   3.509   1.455   3.639
 8266SOL    HW125697   3.508   1.384   3.569
 8266SOL    HW225698   3.459   1.535   3.605
 8267SOL     OW25699   1.784   2.399   3.675
 8267SOL    HW125700   1.880   2.377   3.662
 8267SOL    HW225701   1.758   2.379   3.770
 8268SOL     OW25702   3.515   4.559   0.136
 8268SOL    HW125703   3.519   4.658   0.131
 8268SOL    HW225704   3.422   4.527   0.117
 8269SOL     OW25705   6.331   1.916   5.174
 8269SOL    HW125706   6.312   1.944   5.080
 8269SOL    HW225707   6.361   1.995   5.227
 8270SOL     OW25708   4.306   4.960   0.550
 8270SOL    HW125709   4.268   5.034   0.606
 8270SOL    HW225710   4.262   4.874   0.574
 8271SOL     OW25711   3.177   6.702   6.003
 8271SOL    HW125712   3.199   6.718   5.907
 8271SOL    HW225713   3.227   6.768   6.060
 8272SOL     OW25714   0.237   0.419   2.129
 8272SOL    HW125715   0.305   0.459   2.191
 8272SOL    HW225716   0.282   0.351   2.071
 8273SOL     OW25717   3.629   0.165   6.362
 8273SOL    HW125718   3.547   0.116   6.334
 8273SOL    HW225719   3.677   0.112   6.432
 8274SOL     OW25720   5.407   6.359   5.426
 8274SOL    HW125721   5.312   6.354   5.396
 8274SOL    HW225722   5.452   6.437   5.382
 8275SOL     OW25723   4.914   1.128   5.141
 8275SOL    HW125724   4.870   1.131   5.230
 8275SOL    HW225725   4.986   1.197   5.136
 8276SOL     OW25726   5.834   2.640   0.143
 8276SOL    HW125727   5.895   2.629   0.064
 8276SOL    HW225728   5.863   2.577   0.216
 8277SOL     OW25729   1.347   6.334   1.044
 8277SOL    HW125730   1.368   6.252   0.991
 8277SOL    HW225731   1.393   6.413   1.003
 8278SOL     OW25732   1.882   0.149   1.151
 8278SOL    HW125733   1.954   0.176   1.214
 8278SOL    HW225734   1.917   0.149   1.057
 8279SOL     OW25735   4.811   5.798   5.650
 8279SOL    HW125736   4.893   5.833   5.605
 8279SOL    HW225737   4.765   5.872   5.698
 8280SOL     OW25738   5.216   4.285   6.642
 8280SOL    HW125739   5.291   4.256   6.700
 8280SOL    HW225740   5.130   4.282   6.693
 8281SOL     OW25741   2.651   5.768   6.118
 8281SOL    HW125742   2.564   5.812   6.096
 8281SOL    HW225743   2.653   5.676   6.078
 8282SOL     OW25744   3.497   2.786   1.657
 8282SOL    HW125745   3.489   2.867   1.715
 8282SOL    HW225746   3.543   2.713   1.708
 8283SOL     OW25747   0.436   0.227   3.255
 8283SOL    HW125748   0.525   0.258   3.289
 8283SOL    HW225749   0.366   0.296   3.277
 8284SOL     OW25750   5.112   1.929   2.089
 8284SOL    HW125751   5.193   1.983   2.115
 8284SOL    HW225752   5.043   1.936   2.161
 8285SOL     OW25753   0.794   4.439   0.374
 8285SOL    HW125754   0.808   4.382   0.293
 8285SOL    HW225755   0.784   4.381   0.455
 8286SOL     OW25756   6.533   2.181   0.046
 8286SOL    HW125757   6.470   2.145   6.998
 8286SOL    HW225758   6.481   2.227   0.118
 8287SOL     OW25759   1.628   1.376   3.183
 8287SOL    HW125760   1.548   1.379   3.122
 8287SOL    HW225761   1.598   1.392   3.277
 8288SOL     OW25762   1.988   0.632   2.293
 8288SOL    HW125763   1.894   0.665   2.285
 8288SOL    HW225764   2.012   0.577   2.214
 8289SOL     OW25765   5.687   6.963   6.811
 8289SOL    HW125766   5.782   6.938   6.792
 8289SOL    HW225767   5.660   0.018   6.752
 8290SOL     OW25768   4.702   2.758   2.236
 8290SOL    HW125769   4.787   2.801   2.204
 8290SOL    HW225770   4.629   2.775   2.169
 8291SOL     OW25771   4.884   5.915   6.461
 8291SOL    HW125772   4.948   5.909   6.538
 8291SOL    HW225773   4.889   5.833   6.405
 8292SOL     OW25774   0.103   2.756   5.451
 8292SOL    HW125775   0.140   2.783   5.540
 8292SOL    HW225776   0.152   2.676   5.418
 8293SOL     OW25777   2.892   5.284   4.224
 8293SOL    HW125778   2.822   5.348   4.192
 8293SOL    HW225779   2.862   5.241   4.309
 8294SOL     OW25780   6.045   3.724   5.559
 8294SOL    HW125781   6.094   3.702   5.475
 8294SOL    HW225782   5.948   3.740   5.539
 8295SOL     OW25783   4.602   4.947   2.519
 8295SOL    HW125784   4.541   4.916   2.446
 8295SOL    HW225785   4.693   4.906   2.507
 8296SOL     OW25786   4.254   0.402   2.593
 8296SOL    HW125787   4.201   0.487   2.596
 8296SOL    HW225788   4.344   0.420   2.553
 8297SOL     OW25789   5.473   4.368   1.819
 8297SOL    HW125790   5.498   4.301   1.749
 8297SOL    HW225791   5.460   4.458   1.776
 8298SOL     OW25792   6.638   6.622   0.609
 8298SOL    HW125793   6.622   6.611   0.707
 8298SOL    HW225794   6.631   6.533   0.564
 8299SOL     OW25795   1.298   3.297   6.879
 8299SOL    HW125796   1.212   3.344   6.861
 8299SOL    HW225797   1.299   3.265   6.974
 8300SOL     OW25798   5.870   5.014   4.558
 8300SOL    HW125799   5.805   4.974   4.623
 8300SOL    HW225800   5.854   4.975   4.468
 8301SOL     OW25801   6.616   5.912   0.306
 8301SOL    HW125802   6.519   5.925   0.325
 8301SOL    HW225803   6.633   5.816   0.284
 8302SOL     OW25804   4.132   6.576   5.512
 8302SOL    HW125805   4.227   6.601   5.491
 8302SOL    HW225806   4.073   6.655   5.494
 8303SOL     OW25807   1.230   4.854   4.179
 8303SOL    HW125808   1.223   4.895   4.088
 8303SOL    HW225809   1.186   4.764   4.178
 8304SOL     OW25810   6.209   2.886   3.769
 8304SOL    HW125811   6.183   2.933   3.684
 8304SOL    HW225812   6.134   2.893   3.835
 8305SOL     OW25813   4.456   0.493   5.830
 8305SOL    HW125814   4.474   0.582   5.870
 8305SOL    HW225815   4.449   0.502   5.731
 8306SOL     OW25816   6.044   0.571   3.953
 8306SOL    HW125817   5.953   0.556   3.914
 8306SOL    HW225818   6.114   0.555   3.884
 8307SOL     OW25819   1.222   3.881   3.398
 8307SOL    HW125820   1.175   3.796   3.423
 8307SOL    HW225821   1.278   3.912   3.475
 8308SOL     OW25822   1.228   5.242   0.252
 8308SOL    HW125823   1.140   5.237   0.204
 8308SOL    HW225824   1.301   5.220   0.187
 8309SOL     OW25825   6.555   5.341   3.346
 8309SOL    HW125826   6.523   5.435   3.337
 8309SOL    HW225827   6.509   5.298   3.424
 8310SOL     OW25828   2.614   6.443   2.690
 8310SOL    HW125829   2.651   6.528   2.726
 8310SOL    HW225830   2.672   6.366   2.717
 8311SOL     OW25831   4.595   6.411   2.368
 8311SOL    HW125832   4.676   6.365   2.330
 8311SOL    HW225833   4.515   6.352   2.359
 8312SOL     OW25834   6.306   1.375   1.087
 8312SOL    HW125835   6.267   1.447   1.029
 8312SOL    HW225836   6.405   1.389   1.094
 8313SOL     OW25837   5.475   2.778   6.346
 8313SOL    HW125838   5.502   2.682   6.359
 8313SOL    HW225839   5.411   2.784   6.270
 8314SOL     OW25840   4.366   6.043   4.056
 8314SOL    HW125841   4.320   6.017   3.971
 8314SOL    HW225842   4.459   6.005   4.056
 8315SOL     OW25843   3.478   2.756   6.185
 8315SOL    HW125844   3.483   2.690   6.111
 8315SOL    HW225845   3.401   2.819   6.168
 8316SOL     OW25846   1.621   1.778   5.596
 8316SOL    HW125847   1.704   1.729   5.625
 8316SOL    HW225848   1.634   1.814   5.504
 8317SOL     OW25849   1.141   2.029   4.281
 8317SOL    HW125850   1.213   1.960   4.275
 8317SOL    HW225851   1.145   2.073   4.371
 8318SOL     OW25852   4.173   7.007   5.760
 8318SOL    HW125853   4.134   6.925   5.803
 8318SOL    HW225854   4.100   0.051   5.742
 8319SOL     OW25855   2.255   5.732   6.713
 8319SOL    HW125856   2.181   5.698   6.771
 8319SOL    HW225857   2.219   5.804   6.653
 8320SOL     OW25858   3.859   3.893   5.203
 8320SOL    HW125859   3.837   3.848   5.289
 8320SOL    HW225860   3.924   3.837   5.151
 8321SOL     OW25861   0.518   0.150   0.864
 8321SOL    HW125862   0.463   0.069   0.881
 8321SOL    HW225863   0.615   0.124   0.856
 8322SOL     OW25864   0.950   0.391   0.534
 8322SOL    HW125865   0.916   0.480   0.505
 8322SOL    HW225866   1.027   0.364   0.476
 8323SOL     OW25867   5.381   4.494   6.565
 8323SOL    HW125868   5.315   4.421   6.583
 8323SOL    HW225869   5.339   4.583   6.582
 8324SOL     OW25870   5.392   6.466   6.742
 8324SOL    HW125871   5.430   6.553   6.774
 8324SOL    HW225872   5.466   6.404   6.718
 8325SOL     OW25873   1.580   6.226   4.872
 8325SOL    HW125874   1.585   6.265   4.964
 8325SOL    HW225875   1.533   6.289   4.811
 8326SOL     OW25876   2.199   2.814   0.002
 8326SOL    HW125877   2.110   2.825   6.977
 8326SOL    HW225878   2.187   2.759   0.084
 8327SOL     OW25879   0.826   6.345   5.197
 8327SOL    HW125880   0.784   6.272   5.143
 8327SOL    HW225881   0.918   6.316   5.224
 8328SOL     OW25882   1.402   6.152   0.855
 8328SOL    HW125883   1.474   6.204   0.809
 8328SOL    HW225884   1.404   6.057   0.824
 8329SOL     OW25885   1.450   2.281   5.408
 8329SOL    HW125886   1.492   2.300   5.319
 8329SOL    HW225887   1.521   2.253   5.473
 8330SOL     OW25888   2.811   6.799   0.449
 8330SOL    HW125889   2.846   6.880   0.496
 8330SOL    HW225890   2.779   6.825   0.357
 8331SOL     OW25891   2.441   2.439   5.929
 8331SOL    HW125892   2.464   2.394   6.015
 8331SOL    HW225893   2.447   2.373   5.854
 8332SOL     OW25894   5.867   4.092   1.484
 8332SOL    HW125895   5.861   4.192   1.492
 8332SOL    HW225896   5.796   4.051   1.541
 8333SOL     OW25897   2.386   4.085   6.772
 8333SOL    HW125898   2.359   3.997   6.813
 8333SOL    HW225899   2.309   4.122   6.721
 8334SOL     OW25900   3.443   2.347   5.306
 8334SOL    HW125901   3.357   2.365   5.259
 8334SOL    HW225902   3.502   2.292   5.246
 8335SOL     OW25903   5.191   4.582   5.720
 8335SOL    HW125904   5.192   4.560   5.623
 8335SOL    HW225905   5.161   4.503   5.773
 8336SOL     OW25906   1.498   3.132   3.537
 8336SOL    HW125907   1.553   3.214   3.518
 8336SOL    HW225908   1.539   3.081   3.612
 8337SOL     OW25909   6.765   0.958   4.469
 8337SOL    HW125910   6.752   0.928   4.564
 8337SOL    HW225911   6.678   0.953   4.420
 8338SOL     OW25912   2.706   5.696   0.964
 8338SOL    HW125913   2.660   5.615   0.928
 8338SOL    HW225914   2.640   5.770   0.974
 8339SOL     OW25915   6.106   0.355   1.955
 8339SOL    HW125916   6.195   0.311   1.941
 8339SOL    HW225917   6.095   0.429   1.888
 8340SOL     OW25918   5.988   2.509   6.695
 8340SOL    HW125919   6.044   2.426   6.687
 8340SOL    HW225920   6.036   2.585   6.652
 8341SOL     OW25921   3.858   0.920   0.903
 8341SOL    HW125922   3.805   0.929   0.987
 8341SOL    HW225923   3.826   0.987   0.836
 8342SOL     OW25924   3.720   0.578   0.300
 8342SOL    HW125925   3.661   0.538   0.370
 8342SOL    HW225926   3.765   0.506   0.248
 8343SOL     OW25927   5.702   5.084   2.986
 8343SOL    HW125928   5.690   5.002   3.042
 8343SOL    HW225929   5.745   5.156   3.041
 8344SOL     OW25930   2.258   4.917   5.550
 8344SOL    HW125931   2.302   4.831   5.576
 8344SOL    HW225932   2.320   4.970   5.492
 8345SOL     OW25933   5.706   0.731   4.033
 8345SOL    HW125934   5.674   0.664   4.101
 8345SOL    HW225935   5.799   0.707   4.004
 8346SOL     OW25936   5.399   4.020   4.184
 8346SOL    HW125937   5.458   4.065   4.251
 8346SOL    HW225938   5.399   4.073   4.099
 8347SOL     OW25939   1.412   1.342   6.019
 8347SOL    HW125940   1.484   1.393   5.972
 8347SOL    HW225941   1.425   1.349   6.117
 8348SOL     OW25942   3.010   5.422   2.180
 8348SOL    HW125943   2.996   5.520   2.190
 8348SOL    HW225944   2.976   5.375   2.262
 8349SOL     OW25945   4.843   5.863   1.450
 8349SOL    HW125946   4.855   5.945   1.507
 8349SOL    HW225947   4.829   5.891   1.355
 8350SOL     OW25948   1.191   6.992   0.394
 8350SOL    HW125949   1.184   6.976   0.296
 8350SOL    HW225950   1.224   0.063   0.412
 8351SOL     OW25951   0.335   2.618   2.873
 8351SOL    HW125952   0.261   2.555   2.897
 8351SOL    HW225953   0.397   2.627   2.950
 8352SOL     OW25954   2.543   6.695   6.988
 8352SOL    HW125955   2.598   6.625   6.942
 8352SOL    HW225956   2.508   6.659   0.053
 8353SOL     OW25957   0.617   6.305   2.099
 8353SOL    HW125958   0.678   6.226   2.100
 8353SOL    HW225959   0.660   6.381   2.148
 8354SOL     OW25960   4.121   1.628   3.161
 8354SOL    HW125961   4.156   1.555   3.102
 8354SOL    HW225962   4.196   1.690   3.184
 8355SOL     OW25963   3.283   5.232   6.100
 8355SOL    HW125964   3.216   5.299   6.133
 8355SOL    HW225965   3.246   5.185   6.020
 8356SOL     OW25966   3.228   4.392   1.109
 8356SOL    HW125967   3.152   4.337   1.074
 8356SOL    HW225968   3.191   4.470   1.161
 8357SOL     OW25969   4.093   0.019   5.048
 8357SOL    HW125970   4.131   0.077   4.977
 8357SOL    HW225971   4.163   6.976   5.080
 8358SOL     OW25972   0.679   0.795   5.243
 8358SOL    HW125973   0.632   0.826   5.326
 8358SOL    HW225974   0.685   0.871   5.178
 8359SOL     OW25975   4.298   2.532   5.801
 8359SOL    HW125976   4.198   2.543   5.805
 8359SOL    HW225977   4.341   2.623   5.807
 8360SOL     OW25978   3.974   0.084   1.371
 8360SOL    HW125979   4.051   0.058   1.429
 8360SOL    HW225980   3.969   0.021   1.293
 8361SOL     OW25981   4.502   1.516   0.153
 8361SOL    HW125982   4.412   1.487   0.121
 8361SOL    HW225983   4.554   1.554   0.076
 8362SOL     OW25984   6.764   3.465   1.201
 8362SOL    HW125985   6.683   3.419   1.236
 8362SOL    HW225986   6.745   3.563   1.193
 8363SOL     OW25987   1.644   2.731   1.315
 8363SOL    HW125988   1.634   2.675   1.397
 8363SOL    HW225989   1.566   2.716   1.254
 8364SOL     OW25990   0.302   2.248   4.351
 8364SOL    HW125991   0.237   2.324   4.341
 8364SOL    HW225992   0.314   2.203   4.262
 8365SOL     OW25993   1.432   2.249   1.369
 8365SOL    HW125994   1.440   2.316   1.296
 8365SOL    HW225995   1.404   2.161   1.331
 8366SOL     OW25996   5.462   5.479   2.140
 8366SOL    HW125997   5.551   5.503   2.101
 8366SOL    HW225998   5.402   5.558   2.140
 8367SOL     OW25999   1.935   4.615   3.696
 8367SOL    HW126000   2.028   4.606   3.661
 8367SOL    HW226001   1.871   4.619   3.620
 8368SOL     OW26002   6.112   5.285   5.656
 8368SOL    HW126003   6.127   5.307   5.752
 8368SOL    HW226004   6.119   5.186   5.643
 8369SOL     OW26005   1.621   6.846   0.004
 8369SOL    HW126006   1.697   6.788   6.996
 8369SOL    HW226007   1.537   6.791   0.008
 8370SOL     OW26008   3.044   2.941   0.905
 8370SOL    HW126009   2.974   2.941   0.977
 8370SOL    HW226010   3.134   2.929   0.947
 8371SOL     OW26011   2.673   3.954   6.602
 8371SOL    HW126012   2.685   3.915   6.693
 8371SOL    HW226013   2.652   4.052   6.611
 8372SOL     OW26014   1.265   6.279   1.313
 8372SOL    HW126015   1.281   6.359   1.371
 8372SOL    HW226016   1.266   6.306   1.217
 8373SOL     OW26017   7.002   0.921   3.844
 8373SOL    HW126018   6.970   0.983   3.916
 8373SOL    HW226019   6.948   0.935   3.762
 8374SOL     OW26020   0.737   1.268   4.058
 8374SOL    HW126021   0.683   1.186   4.079
 8374SOL    HW226022   0.677   1.348   4.055
 8375SOL     OW26023   1.556   2.356   5.160
 8375SOL    HW126024   1.552   2.276   5.100
 8375SOL    HW226025   1.482   2.419   5.137
 8376SOL     OW26026   1.319   1.803   3.627
 8376SOL    HW126027   1.392   1.754   3.579
 8376SOL    HW226028   1.307   1.765   3.718
 8377SOL     OW26029   3.985   5.601   6.813
 8377SOL    HW126030   4.039   5.670   6.765
 8377SOL    HW226031   3.898   5.589   6.765
 8378SOL     OW26032   4.413   5.705   4.653
 8378SOL    HW126033   4.468   5.629   4.618
 8378SOL    HW226034   4.422   5.784   4.592
 8379SOL     OW26035   6.151   2.270   1.839
 8379SOL    HW126036   6.141   2.329   1.758
 8379SOL    HW226037   6.158   2.175   1.809
 8380SOL     OW26038   0.685   6.204   1.379
 8380SOL    HW126039   0.690   6.132   1.448
 8380SOL    HW226040   0.633   6.172   1.300
 8381SOL     OW26041   1.131   1.803   2.490
 8381SOL    HW126042   1.208   1.866   2.486
 8381SOL    HW226043   1.067   1.832   2.561
 8382SOL     OW26044   0.875   0.149   1.894
 8382SOL    HW126045   0.868   0.070   1.834
 8382SOL    HW226046   0.899   0.230   1.840
 8383SOL     OW26047   3.077   6.933   6.205
 8383SOL    HW126048   3.093   6.862   6.273
 8383SOL    HW226049   3.151   6.932   6.138
 8384SOL     OW26050   0.421   3.784   2.553
 8384SOL    HW126051   0.381   3.762   2.464
 8384SOL    HW226052   0.352   3.828   2.610
 8385SOL     OW26053   4.113   2.150   2.039
 8385SOL    HW126054   4.206   2.112   2.040
 8385SOL    HW226055   4.109   2.227   1.976
 8386SOL     OW26056   2.180   5.651   1.821
 8386SOL    HW126057   2.091   5.686   1.853
 8386SOL    HW226058   2.175   5.552   1.810
 8387SOL     OW26059   1.046   1.529   3.763
 8387SOL    HW126060   0.975   1.589   3.798
 8387SOL    HW226061   1.068   1.460   3.832
 8388SOL     OW26062   3.868   5.264   1.145
 8388SOL    HW126063   3.918   5.177   1.152
 8388SOL    HW226064   3.894   5.323   1.221
 8389SOL     OW26065   0.853   3.183   4.049
 8389SOL    HW126066   0.890   3.257   3.992
 8389SOL    HW226067   0.917   3.162   4.123
 8390SOL     OW26068   2.815   0.309   6.351
 8390SOL    HW126069   2.861   0.221   6.364
 8390SOL    HW226070   2.750   0.302   6.275
 8391SOL     OW26071   5.458   5.972   0.388
 8391SOL    HW126072   5.401   6.016   0.319
 8391SOL    HW226073   5.407   5.965   0.473
 8392SOL     OW26074   4.839   6.148   6.867
 8392SOL    HW126075   4.931   6.126   6.832
 8392SOL    HW226076   4.773   6.142   6.792
 8393SOL     OW26077   0.498   4.786   2.602
 8393SOL    HW126078   0.405   4.786   2.640
 8393SOL    HW226079   0.546   4.868   2.634
 8394SOL     OW26080   1.397   1.614   2.743
 8394SOL    HW126081   1.344   1.568   2.672
 8394SOL    HW226082   1.356   1.703   2.763
 8395SOL     OW26083   1.284   6.484   5.681
 8395SOL    HW126084   1.206   6.476   5.619
 8395SOL    HW226085   1.254   6.523   5.768
 8396SOL     OW26086   4.418   2.484   1.897
 8396SOL    HW126087   4.401   2.555   1.828
 8396SOL    HW226088   4.350   2.411   1.887
 8397SOL     OW26089   2.094   5.496   3.842
 8397SOL    HW126090   2.139   5.496   3.931
 8397SOL    HW226091   1.994   5.498   3.854
 8398SOL     OW26092   5.696   1.360   0.345
 8398SOL    HW126093   5.756   1.380   0.268
 8398SOL    HW226094   5.601   1.382   0.319
 8399SOL     OW26095   5.600   5.829   6.660
 8399SOL    HW126096   5.526   5.878   6.705
 8399SOL    HW226097   5.605   5.857   6.564
 8400SOL     OW26098   6.328   6.698   4.101
 8400SOL    HW126099   6.410   6.735   4.144
 8400SOL    HW226100   6.248   6.717   4.158
 8401SOL     OW26101   2.899   3.924   5.627
 8401SOL    HW126102   2.803   3.909   5.603
 8401SOL    HW226103   2.918   3.884   5.716
 8402SOL     OW26104   4.440   0.796   5.579
 8402SOL    HW126105   4.508   0.852   5.533
 8402SOL    HW226106   4.464   0.786   5.675
 8403SOL     OW26107   1.017   2.617   5.016
 8403SOL    HW126108   0.918   2.628   5.012
 8403SOL    HW226109   1.047   2.560   4.939
 8404SOL     OW26110   4.511   5.008   5.172
 8404SOL    HW126111   4.422   5.054   5.178
 8404SOL    HW226112   4.496   4.910   5.164
 8405SOL     OW26113   1.698   2.757   4.957
 8405SOL    HW126114   1.680   2.697   5.035
 8405SOL    HW226115   1.628   2.829   4.954
 8406SOL     OW26116   5.499   3.482   1.263
 8406SOL    HW126117   5.485   3.484   1.164
 8406SOL    HW226118   5.432   3.421   1.305
 8407SOL     OW26119   4.862   3.737   2.866
 8407SOL    HW126120   4.887   3.723   2.770
 8407SOL    HW226121   4.879   3.832   2.891
 8408SOL     OW26122   4.498   4.490   4.238
 8408SOL    HW126123   4.466   4.545   4.161
 8408SOL    HW226124   4.460   4.397   4.231
 8409SOL     OW26125   0.471   1.889   3.722
 8409SOL    HW126126   0.542   1.840   3.773
 8409SOL    HW226127   0.458   1.845   3.633
 8410SOL     OW26128   2.460   6.194   2.303
 8410SOL    HW126129   2.442   6.292   2.307
 8410SOL    HW226130   2.546   6.178   2.255
 8411SOL     OW26131   1.919   3.290   3.228
 8411SOL    HW126132   1.967   3.207   3.258
 8411SOL    HW226133   1.844   3.265   3.167
 8412SOL     OW26134   6.030   2.522   2.909
 8412SOL    HW126135   6.124   2.493   2.921
 8412SOL    HW226136   5.979   2.506   2.994
 8413SOL     OW26137   2.581   4.647   1.581
 8413SOL    HW126138   2.555   4.740   1.606
 8413SOL    HW226139   2.499   4.590   1.575
 8414SOL     OW26140   5.797   6.886   3.232
 8414SOL    HW126141   5.756   6.879   3.141
 8414SOL    HW226142   5.886   6.839   3.233
 8415SOL     OW26143   6.555   3.935   1.976
 8415SOL    HW126144   6.500   4.004   1.930
 8415SOL    HW226145   6.630   3.980   2.025
 8416SOL     OW26146   4.840   4.335   2.332
 8416SOL    HW126147   4.918   4.393   2.308
 8416SOL    HW226148   4.763   4.356   2.271
 8417SOL     OW26149   2.220   5.950   6.532
 8417SOL    HW126150   2.311   5.981   6.559
 8417SOL    HW226151   2.210   5.958   6.433
 8418SOL     OW26152   6.172   5.508   2.593
 8418SOL    HW126153   6.134   5.452   2.519
 8418SOL    HW226154   6.259   5.469   2.623
 8419SOL     OW26155   4.918   0.281   4.033
 8419SOL    HW126156   4.971   0.358   3.996
 8419SOL    HW226157   4.981   0.208   4.059
 8420SOL     OW26158   4.048   1.965   5.560
 8420SOL    HW126159   3.958   1.923   5.563
 8420SOL    HW226160   4.066   2.012   5.646
 8421SOL     OW26161   0.188   0.213   0.885
 8421SOL    HW126162   0.279   0.251   0.865
 8421SOL    HW226163   0.179   0.199   0.983
 8422SOL     OW26164   4.257   0.190   1.576
 8422SOL    HW126165   4.287   0.285   1.562
 8422SOL    HW226166   4.331   0.128   1.551
 8423SOL     OW26167   2.011   3.524   1.619
 8423SOL    HW126168   1.912   3.538   1.629
 8423SOL    HW226169   2.050   3.602   1.570
 8424SOL     OW26170   2.656   2.249   2.077
 8424SOL    HW126171   2.752   2.274   2.063
 8424SOL    HW226172   2.599   2.302   2.014
 8425SOL     OW26173   6.208   4.626   6.508
 8425SOL    HW126174   6.303   4.657   6.498
 8425SOL    HW226175   6.190   4.604   6.604
 8426SOL     OW26176   3.799   3.573   2.637
 8426SOL    HW126177   3.749   3.486   2.633
 8426SOL    HW226178   3.774   3.622   2.720
 8427SOL     OW26179   2.152   2.618   6.713
 8427SOL    HW126180   2.126   2.533   6.760
 8427SOL    HW226181   2.088   2.691   6.737
 8428SOL     OW26182   6.134   4.367   1.434
 8428SOL    HW126183   6.223   4.392   1.472
 8428SOL    HW226184   6.145   4.334   1.340
 8429SOL     OW26185   2.107   6.911   3.158
 8429SOL    HW126186   2.095   6.970   3.078
 8429SOL    HW226187   2.183   6.945   3.212
 8430SOL     OW26188   5.125   4.075   2.906
 8430SOL    HW126189   5.203   4.133   2.929
 8430SOL    HW226190   5.121   4.063   2.807
 8431SOL     OW26191   2.786   3.554   1.859
 8431SOL    HW126192   2.853   3.515   1.797
 8431SOL    HW226193   2.700   3.570   1.810
 8432SOL     OW26194   4.952   6.526   6.979
 8432SOL    HW126195   5.025   6.496   0.020
 8432SOL    HW226196   4.864   6.523   0.006
 8433SOL     OW26197   0.683   1.968   4.150
 8433SOL    HW126198   0.622   1.897   4.114
 8433SOL    HW226199   0.655   2.057   4.114
 8434SOL     OW26200   5.514   6.017   6.226
 8434SOL    HW126201   5.540   6.058   6.138
 8434SOL    HW226202   5.442   5.949   6.211
 8435SOL     OW26203   4.847   2.367   2.062
 8435SOL    HW126204   4.910   2.393   2.135
 8435SOL    HW226205   4.771   2.433   2.059
 8436SOL     OW26206   2.910   4.343   1.657
 8436SOL    HW126207   2.914   4.255   1.704
 8436SOL    HW226208   2.896   4.416   1.724
 8437SOL     OW26209   6.891   1.680   1.076
 8437SOL    HW126210   6.904   1.640   0.985
 8437SOL    HW226211   6.896   1.779   1.069
 8438SOL     OW26212   2.258   5.949   1.018
 8438SOL    HW126213   2.260   5.860   0.971
 8438SOL    HW226214   2.173   5.957   1.070
 8439SOL     OW26215   6.163   0.207   2.313
 8439SOL    HW126216   6.255   0.218   2.275
 8439SOL    HW226217   6.139   0.289   2.366
 8440SOL     OW26218   0.132   2.652   4.441
 8440SOL    HW126219   0.128   2.697   4.530
 8440SOL    HW226220   0.128   2.721   4.368
 8441SOL     OW26221   4.200   5.677   2.172
 8441SOL    HW126222   4.288   5.632   2.154
 8441SOL    HW226223   4.203   5.770   2.136
 8442SOL     OW26224   2.095   2.697   0.434
 8442SOL    HW126225   2.006   2.665   0.466
 8442SOL    HW226226   2.112   2.662   0.342
 8443SOL     OW26227   0.843   1.988   1.801
 8443SOL    HW126228   0.906   1.978   1.878
 8443SOL    HW226229   0.810   1.898   1.773
 8444SOL     OW26230   4.542   1.573   2.897
 8444SOL    HW126231   4.454   1.612   2.873
 8444SOL    HW226232   4.613   1.643   2.891
 8445SOL     OW26233   4.719   5.435   1.897
 8445SOL    HW126234   4.695   5.510   1.960
 8445SOL    HW226235   4.784   5.469   1.829
 8446SOL     OW26236   6.605   4.169   3.107
 8446SOL    HW126237   6.626   4.075   3.080
 8446SOL    HW226238   6.558   4.169   3.195
 8447SOL     OW26239   4.453   3.055   1.416
 8447SOL    HW126240   4.522   3.030   1.348
 8447SOL    HW226241   4.381   2.985   1.416
 8448SOL     OW26242   1.784   3.318   5.841
 8448SOL    HW126243   1.764   3.245   5.776
 8448SOL    HW226244   1.767   3.286   5.934
 8449SOL     OW26245   1.088   1.361   4.531
 8449SOL    HW126246   1.164   1.352   4.595
 8449SOL    HW226247   1.121   1.394   4.443
 8450SOL     OW26248   1.950   5.290   1.424
 8450SOL    HW126249   1.889   5.365   1.451
 8450SOL    HW226250   2.043   5.310   1.455
 8451SOL     OW26251   4.235   2.759   0.128
 8451SOL    HW126252   4.235   2.796   0.221
 8451SOL    HW226253   4.197   2.667   0.129
 8452SOL     OW26254   0.447   5.568   1.907
 8452SOL    HW126255   0.505   5.519   1.973
 8452SOL    HW226256   0.373   5.614   1.957
 8453SOL     OW26257   6.391   5.442   5.267
 8453SOL    HW126258   6.354   5.390   5.344
 8453SOL    HW226259   6.385   5.387   5.184
 8454SOL     OW26260   2.204   6.550   4.476
 8454SOL    HW126261   2.166   6.639   4.501
 8454SOL    HW226262   2.131   6.489   4.446
 8455SOL     OW26263   5.770   2.490   0.576
 8455SOL    HW126264   5.700   2.513   0.508
 8455SOL    HW226265   5.805   2.398   0.559
 8456SOL     OW26266   5.213   5.541   3.401
 8456SOL    HW126267   5.263   5.518   3.485
 8456SOL    HW226268   5.115   5.529   3.416
 8457SOL     OW26269   6.599   5.951   6.094
 8457SOL    HW126270   6.610   5.982   6.000
 8457SOL    HW226271   6.688   5.921   6.130
 8458SOL     OW26272   1.585   1.928   1.173
 8458SOL    HW126273   1.580   1.903   1.076
 8458SOL    HW226274   1.640   2.011   1.183
 8459SOL     OW26275   2.500   5.808   3.031
 8459SOL    HW126276   2.429   5.824   3.100
 8459SOL    HW226277   2.541   5.895   3.005
 8460SOL     OW26278   3.798   1.335   0.896
 8460SOL    HW126279   3.745   1.377   0.822
 8460SOL    HW226280   3.748   1.343   0.982
 8461SOL     OW26281   4.965   4.306   3.133
 8461SOL    HW126282   5.030   4.240   3.171
 8461SOL    HW226283   4.913   4.262   3.059
 8462SOL     OW26284   2.433   4.263   0.673
 8462SOL    HW126285   2.402   4.197   0.741
 8462SOL    HW226286   2.355   4.298   0.622
 8463SOL     OW26287   6.446   0.623   0.373
 8463SOL    HW126288   6.417   0.716   0.396
 8463SOL    HW226289   6.545   0.622   0.357
 8464SOL     OW26290   6.491   3.828   6.499
 8464SOL    HW126291   6.531   3.806   6.587
 8464SOL    HW226292   6.548   3.789   6.426
 8465SOL     OW26293   4.866   3.453   0.770
 8465SOL    HW126294   4.789   3.451   0.707
 8465SOL    HW226295   4.842   3.402   0.853
 8466SOL     OW26296   0.822   1.025   5.496
 8466SOL    HW126297   0.754   1.063   5.560
 8466SOL    HW226298   0.868   0.947   5.539
 8467SOL     OW26299   3.239   1.513   0.437
 8467SOL    HW126300   3.235   1.567   0.353
 8467SOL    HW226301   3.147   1.502   0.475
 8468SOL     OW26302   5.987   3.941   6.881
 8468SOL    HW126303   5.931   3.991   6.947
 8468SOL    HW226304   5.929   3.908   6.807
 8469SOL     OW26305   3.905   3.424   5.326
 8469SOL    HW126306   3.972   3.444   5.397
 8469SOL    HW226307   3.853   3.342   5.352
 8470SOL     OW26308   1.566   5.111   1.613
 8470SOL    HW126309   1.525   5.145   1.697
 8470SOL    HW226310   1.666   5.118   1.619
 8471SOL     OW26311   4.193   1.611   4.296
 8471SOL    HW126312   4.214   1.575   4.205
 8471SOL    HW226313   4.114   1.563   4.333
 8472SOL     OW26314   5.990   1.733   6.727
 8472SOL    HW126315   5.899   1.702   6.753
 8472SOL    HW226316   6.053   1.655   6.727
 8473SOL     OW26317   5.258   4.855   6.129
 8473SOL    HW126318   5.171   4.841   6.081
 8473SOL    HW226319   5.286   4.950   6.122
 8474SOL     OW26320   3.155   4.014   4.631
 8474SOL    HW126321   3.114   4.052   4.715
 8474SOL    HW226322   3.089   3.954   4.586
 8475SOL     OW26323   6.693   1.894   3.096
 8475SOL    HW126324   6.696   1.979   3.043
 8475SOL    HW226325   6.618   1.898   3.162
 8476SOL     OW26326   5.844   1.081   1.700
 8476SOL    HW126327   5.842   1.060   1.602
 8476SOL    HW226328   5.796   1.167   1.717
 8477SOL     OW26329   5.521   0.432   1.997
 8477SOL    HW126330   5.517   0.527   1.965
 8477SOL    HW226331   5.540   0.430   2.095
 8478SOL     OW26332   0.303   6.802   5.255
 8478SOL    HW126333   0.267   6.846   5.337
 8478SOL    HW226334   0.378   6.855   5.218
 8479SOL     OW26335   0.438   3.136   0.385
 8479SOL    HW126336   0.418   3.151   0.482
 8479SOL    HW226337   0.414   3.218   0.333
 8480SOL     OW26338   4.063   4.134   0.689
 8480SOL    HW126339   4.057   4.148   0.788
 8480SOL    HW226340   3.978   4.094   0.656
 8481SOL     OW26341   4.086   2.290   3.165
 8481SOL    HW126342   4.045   2.242   3.243
 8481SOL    HW226343   4.022   2.290   3.088
 8482SOL     OW26344   4.259   1.085   6.695
 8482SOL    HW126345   4.291   0.996   6.665
 8482SOL    HW226346   4.190   1.119   6.631
 8483SOL     OW26347   3.955   5.066   3.306
 8483SOL    HW126348   3.920   4.989   3.361
 8483SOL    HW226349   4.050   5.084   3.332
 8484SOL     OW26350   5.977   5.971   5.302
 8484SOL    HW126351   5.907   5.948   5.235
 8484SOL    HW226352   5.939   5.965   5.394
 8485SOL     OW26353   3.864   1.131   6.808
 8485SOL    HW126354   3.786   1.194   6.808
 8485SOL    HW226355   3.895   1.118   6.714
 8486SOL     OW26356   5.972   2.647   4.512
 8486SOL    HW126357   5.977   2.720   4.443
 8486SOL    HW226358   6.055   2.592   4.508
 8487SOL     OW26359   6.499   2.335   6.028
 8487SOL    HW126360   6.584   2.388   6.034
 8487SOL    HW226361   6.513   2.245   6.068
 8488SOL     OW26362   4.514   4.776   2.310
 8488SOL    HW126363   4.612   4.761   2.295
 8488SOL    HW226364   4.467   4.688   2.312
 8489SOL     OW26365   6.231   2.365   2.078
 8489SOL    HW126366   6.203   2.329   1.990
 8489SOL    HW226367   6.176   2.445   2.101
 8490SOL     OW26368   3.053   6.703   6.961
 8490SOL    HW126369   2.999   6.746   0.013
 8490SOL    HW226370   3.106   6.627   6.999
 8491SOL     OW26371   2.848   5.711   1.773
 8491SOL    HW126372   2.822   5.637   1.835
 8491SOL    HW226373   2.914   5.678   1.706
 8492SOL     OW26374   6.387   6.110   4.355
 8492SOL    HW126375   6.415   6.029   4.303
 8492SOL    HW226376   6.412   6.192   4.304
 8493SOL     OW26377   4.991   1.427   5.877
 8493SOL    HW126378   4.940   1.344   5.854
 8493SOL    HW226379   5.085   1.418   5.842
 8494SOL     OW26380   0.021   3.553   2.286
 8494SOL    HW126381   6.996   3.469   2.260
 8494SOL    HW226382   0.119   3.546   2.265
 8495SOL     OW26383   5.789   5.394   6.332
 8495SOL    HW126384   5.706   5.338   6.334
 8495SOL    HW226385   5.766   5.488   6.358
 8496SOL     OW26386   5.411   2.311   2.785
 8496SOL    HW126387   5.320   2.312   2.827
 8496SOL    HW226388   5.463   2.234   2.819
 8497SOL     OW26389   6.551   0.430   2.865
 8497SOL    HW126390   6.536   0.524   2.896
 8497SOL    HW226391   6.605   0.381   2.933
 8498SOL     OW26392   4.779   6.917   4.201
 8498SOL    HW126393   4.701   6.938   4.143
 8498SOL    HW226394   4.817   7.001   4.239
 8499SOL     OW26395   6.142   6.852   5.696
 8499SOL    HW126396   6.130   6.915   5.618
 8499SOL    HW226397   6.223   6.795   5.680
 8500SOL     OW26398   1.094   0.844   6.712
 8500SOL    HW126399   1.179   0.795   6.732
 8500SOL    HW226400   1.077   0.912   6.783
 8501SOL     OW26401   2.334   1.175   6.490
 8501SOL    HW126402   2.325   1.251   6.426
 8501SOL    HW226403   2.299   1.091   6.448
 8502SOL     OW26404   6.360   3.839   6.876
 8502SOL    HW126405   6.417   3.864   6.954
 8502SOL    HW226406   6.317   3.922   6.839
 8503SOL     OW26407   5.231   2.309   5.369
 8503SOL    HW126408   5.141   2.269   5.355
 8503SOL    HW226409   5.238   2.394   5.316
 8504SOL     OW26410   1.116   7.020   2.619
 8504SOL    HW126411   1.051   0.067   2.653
 8504SOL    HW226412   1.113   7.018   2.519
 8505SOL     OW26413   5.455   2.655   2.313
 8505SOL    HW126414   5.512   2.625   2.390
 8505SOL    HW226415   5.424   2.575   2.261
 8506SOL     OW26416   1.005   6.818   6.335
 8506SOL    HW126417   1.082   6.829   6.271
 8506SOL    HW226418   1.016   6.880   6.412
 8507SOL     OW26419   3.588   5.727   5.483
 8507SOL    HW126420   3.547   5.707   5.571
 8507SOL    HW226421   3.598   5.642   5.430
 8508SOL     OW26422   2.439   0.853   6.577
 8508SOL    HW126423   2.499   0.856   6.658
 8508SOL    HW226424   2.484   0.900   6.501
 8509SOL     OW26425   5.255   1.822   2.723
 8509SOL    HW126426   5.261   1.858   2.630
 8509SOL    HW226427   5.233   1.897   2.786
 8510SOL     OW26428   0.600   1.828   4.501
 8510SOL    HW126429   0.537   1.906   4.501
 8510SOL    HW226430   0.660   1.834   4.581
 8511SOL     OW26431   6.186   1.710   3.340
 8511SOL    HW126432   6.241   1.690   3.421
 8511SOL    HW226433   6.121   1.635   3.325
 8512SOL     OW26434   2.452   6.429   5.448
 8512SOL    HW126435   2.542   6.471   5.459
 8512SOL    HW226436   2.415   6.405   5.538
 8513SOL     OW26437   5.376   5.999   6.686
 8513SOL    HW126438   5.414   6.085   6.718
 8513SOL    HW226439   5.312   6.016   6.611
 8514SOL     OW26440   3.920   5.782   3.628
 8514SOL    HW126441   3.902   5.688   3.655
 8514SOL    HW226442   3.957   5.784   3.536
 8515SOL     OW26443   5.932   2.529   1.214
 8515SOL    HW126444   5.908   2.437   1.244
 8515SOL    HW226445   5.981   2.577   1.287
 8516SOL     OW26446   6.946   1.983   2.300
 8516SOL    HW126447   6.938   1.953   2.205
 8516SOL    HW226448   6.952   2.083   2.302
 8517SOL     OW26449   1.509   3.841   0.005
 8517SOL    HW126450   1.442   3.910   0.031
 8517SOL    HW226451   1.476   3.790   6.947
 8518SOL     OW26452   2.761   5.758   0.622
 8518SOL    HW126453   2.801   5.681   0.573
 8518SOL    HW226454   2.833   5.816   0.661
 8519SOL     OW26455   2.449   6.156   3.551
 8519SOL    HW126456   2.522   6.160   3.482
 8519SOL    HW226457   2.363   6.133   3.506
 8520SOL     OW26458   3.414   6.553   0.210
 8520SOL    HW126459   3.358   6.527   0.289
 8520SOL    HW226460   3.370   6.520   0.126
 8521SOL     OW26461   1.780   0.488   1.529
 8521SOL    HW126462   1.792   0.537   1.443
 8521SOL    HW226463   1.792   0.390   1.514
 8522SOL     OW26464   2.730   0.022   4.564
 8522SOL    HW126465   2.637   0.051   4.540
 8522SOL    HW226466   2.761   6.972   4.502
 8523SOL     OW26467   1.535   6.362   6.652
 8523SOL    HW126468   1.480   6.434   6.695
 8523SOL    HW226469   1.620   6.402   6.617
 8524SOL     OW26470   1.369   1.385   6.687
 8524SOL    HW126471   1.468   1.373   6.679
 8524SOL    HW226472   1.323   1.338   6.612
 8525SOL     OW26473   5.438   3.862   3.843
 8525SOL    HW126474   5.416   3.822   3.932
 8525SOL    HW226475   5.393   3.809   3.771
 8526SOL     OW26476   2.121   3.669   2.210
 8526SOL    HW126477   2.151   3.598   2.145
 8526SOL    HW226478   2.153   3.645   2.302
 8527SOL     OW26479   4.564   0.829   4.126
 8527SOL    HW126480   4.602   0.751   4.077
 8527SOL    HW226481   4.638   0.884   4.165
 8528SOL     OW26482   5.716   1.725   6.802
 8528SOL    HW126483   5.682   1.772   6.720
 8528SOL    HW226484   5.653   1.741   6.878
 8529SOL     OW26485   6.679   5.594   6.051
 8529SOL    HW126486   6.688   5.502   6.089
 8529SOL    HW226487   6.738   5.657   6.101
 8530SOL     OW26488   2.235   4.791   6.282
 8530SOL    HW126489   2.322   4.804   6.329
 8530SOL    HW226490   2.248   4.805   6.184
 8531SOL     OW26491   4.308   4.788   2.038
 8531SOL    HW126492   4.350   4.841   1.964
 8531SOL    HW226493   4.349   4.697   2.041
 8532SOL     OW26494   1.230   3.743   0.988
 8532SOL    HW126495   1.277   3.800   1.056
 8532SOL    HW226496   1.287   3.734   0.907
 8533SOL     OW26497   4.407   6.645   5.458
 8533SOL    HW126498   4.494   6.635   5.505
 8533SOL    HW226499   4.390   6.742   5.440
 8534SOL     OW26500   1.871   2.764   1.954
 8534SOL    HW126501   1.848   2.854   1.916
 8534SOL    HW226502   1.796   2.700   1.937
 8535SOL     OW26503   0.438   3.734   5.015
 8535SOL    HW126504   0.420   3.648   5.062
 8535SOL    HW226505   0.398   3.809   5.068
 8536SOL     OW26506   5.953   1.548   5.493
 8536SOL    HW126507   6.025   1.554   5.424
 8536SOL    HW226508   5.882   1.616   5.473
 8537SOL     OW26509   4.667   6.564   2.984
 8537SOL    HW126510   4.641   6.588   3.077
 8537SOL    HW226511   4.698   6.646   2.935
 8538SOL     OW26512   5.255   0.509   5.578
 8538SOL    HW126513   5.314   0.429   5.586
 8538SOL    HW226514   5.173   0.495   5.633
 8539SOL     OW26515   0.198   3.464   2.807
 8539SOL    HW126516   0.286   3.475   2.760
 8539SOL    HW226517   0.124   3.465   2.741
 8540SOL     OW26518   3.964   6.885   6.492
 8540SOL    HW126519   4.058   6.904   6.519
 8540SOL    HW226520   3.912   6.854   6.572
 8541SOL     OW26521   2.921   6.246   4.986
 8541SOL    HW126522   2.942   6.324   5.045
 8541SOL    HW226523   2.960   6.262   4.895
 8542SOL     OW26524   1.287   5.042   5.193
 8542SOL    HW126525   1.336   5.010   5.274
 8542SOL    HW226526   1.352   5.078   5.126
 8543SOL     OW26527   2.818   2.490   5.242
 8543SOL    HW126528   2.851   2.397   5.225
 8543SOL    HW226529   2.896   2.548   5.268
 8544SOL     OW26530   5.575   4.654   5.187
 8544SOL    HW126531   5.583   4.735   5.245
 8544SOL    HW226532   5.561   4.573   5.244
 8545SOL     OW26533   2.074   6.909   6.349
 8545SOL    HW126534   2.100   6.846   6.421
 8545SOL    HW226535   2.050   6.858   6.266
 8546SOL     OW26536   4.299   1.422   3.788
 8546SOL    HW126537   4.390   1.383   3.801
 8546SOL    HW226538   4.307   1.521   3.774
 8547SOL     OW26539   5.626   6.109   5.962
 8547SOL    HW126540   5.628   6.014   5.930
 8547SOL    HW226541   5.545   6.155   5.927
 8548SOL     OW26542   1.534   4.575   4.443
 8548SOL    HW126543   1.589   4.561   4.361
 8548SOL    HW226544   1.591   4.618   4.514
 8549SOL     OW26545   1.601   0.621   3.942
 8549SOL    HW126546   1.655   0.558   3.886
 8549SOL    HW226547   1.650   0.638   4.028
 8550SOL     OW26548   6.755   4.704   6.006
 8550SOL    HW126549   6.665   4.684   6.046
 8550SOL    HW226550   6.824   4.706   6.079
 8551SOL     OW26551   3.698   0.821   4.756
 8551SOL    HW126552   3.716   0.728   4.726
 8551SOL    HW226553   3.708   0.827   4.855
 8552SOL     OW26554   3.501   1.528   1.727
 8552SOL    HW126555   3.461   1.470   1.798
 8552SOL    HW226556   3.445   1.523   1.645
 8553SOL     OW26557   4.797   3.716   0.613
 8553SOL    HW126558   4.807   3.638   0.674
 8553SOL    HW226559   4.850   3.793   0.649
 8554SOL     OW26560   1.427   0.595   6.607
 8554SOL    HW126561   1.474   0.560   6.689
 8554SOL    HW226562   1.329   0.579   6.615
 8555SOL     OW26563   3.927   1.868   3.394
 8555SOL    HW126564   3.941   1.782   3.345
 8555SOL    HW226565   3.973   1.865   3.482
 8556SOL     OW26566   0.636   5.537   5.420
 8556SOL    HW126567   0.704   5.597   5.464
 8556SOL    HW226568   0.646   5.444   5.455
 8557SOL     OW26569   6.792   0.980   6.263
 8557SOL    HW126570   6.815   1.078   6.263
 8557SOL    HW226571   6.693   0.969   6.259
 8558SOL     OW26572   3.418   5.723   4.081
 8558SOL    HW126573   3.446   5.782   4.157
 8558SOL    HW226574   3.428   5.627   4.108
 8559SOL     OW26575   1.550   3.681   2.413
 8559SOL    HW126576   1.487   3.625   2.359
 8559SOL    HW226577   1.630   3.627   2.438
 8560SOL     OW26578   3.595   4.210   1.236
 8560SOL    HW126579   3.498   4.187   1.226
 8560SOL    HW226580   3.624   4.188   1.329
 8561SOL     OW26581   3.408   0.713   2.882
 8561SOL    HW126582   3.499   0.750   2.868
 8561SOL    HW226583   3.349   0.782   2.924
 8562SOL     OW26584   5.649   2.432   6.833
 8562SOL    HW126585   5.648   2.333   6.815
 8562SOL    HW226586   5.668   2.481   6.749
 8563SOL     OW26587   2.455   5.242   2.677
 8563SOL    HW126588   2.356   5.243   2.692
 8563SOL    HW226589   2.486   5.334   2.653
 8564SOL     OW26590   3.680   6.212   0.539
 8564SOL    HW126591   3.589   6.176   0.561
 8564SOL    HW226592   3.681   6.311   0.553
 8565SOL     OW26593   1.132   4.847   0.984
 8565SOL    HW126594   1.231   4.837   0.995
 8565SOL    HW226595   1.109   4.944   0.979
 8566SOL     OW26596   3.353   0.575   3.283
 8566SOL    HW126597   3.300   0.557   3.366
 8566SOL    HW226598   3.360   0.673   3.268
 8567SOL     OW26599   1.602   2.671   2.195
 8567SOL    HW126600   1.600   2.639   2.100
 8567SOL    HW226601   1.528   2.737   2.209
 8568SOL     OW26602   6.130   1.029   5.908
 8568SOL    HW126603   6.195   1.006   5.835
 8568SOL    HW226604   6.067   0.952   5.922
 8569SOL     OW26605   5.113   2.101   0.633
 8569SOL    HW126606   5.178   2.173   0.656
 8569SOL    HW226607   5.054   2.132   0.558
 8570SOL     OW26608   2.265   1.782   2.672
 8570SOL    HW126609   2.222   1.700   2.710
 8570SOL    HW226610   2.352   1.798   2.718
 8571SOL     OW26611   1.724   0.769   3.064
 8571SOL    HW126612   1.805   0.799   3.013
 8571SOL    HW226613   1.733   0.796   3.160
 8572SOL     OW26614   2.838   4.004   6.160
 8572SOL    HW126615   2.774   3.943   6.114
 8572SOL    HW226616   2.891   4.054   6.092
 8573SOL     OW26617   2.201   5.978   6.242
 8573SOL    HW126618   2.148   6.055   6.207
 8573SOL    HW226619   2.273   5.954   6.177
 8574SOL     OW26620   4.830   1.104   5.410
 8574SOL    HW126621   4.921   1.093   5.451
 8574SOL    HW226622   4.780   1.176   5.458
 8575SOL     OW26623   3.413   6.090   3.979
 8575SOL    HW126624   3.353   6.011   3.992
 8575SOL    HW226625   3.484   6.068   3.913
 8576SOL     OW26626   1.833   4.627   3.945
 8576SOL    HW126627   1.881   4.615   3.858
 8576SOL    HW226628   1.735   4.612   3.931
 8577SOL     OW26629   1.607   0.635   0.392
 8577SOL    HW126630   1.576   0.694   0.317
 8577SOL    HW226631   1.598   0.685   0.478
 8578SOL     OW26632   1.420   6.742   6.188
 8578SOL    HW126633   1.406   6.667   6.253
 8578SOL    HW226634   1.511   6.734   6.148
 8579SOL     OW26635   3.030   6.760   2.324
 8579SOL    HW126636   2.930   6.761   2.329
 8579SOL    HW226637   3.065   6.853   2.337
 8580SOL     OW26638   1.617   0.586   2.023
 8580SOL    HW126639   1.673   0.503   2.015
 8580SOL    HW226640   1.667   0.664   1.986
 8581SOL     OW26641   3.758   3.806   1.750
 8581SOL    HW126642   3.788   3.832   1.842
 8581SOL    HW226643   3.828   3.832   1.684
 8582SOL     OW26644   4.214   5.133   5.629
 8582SOL    HW126645   4.305   5.103   5.656
 8582SOL    HW226646   4.163   5.163   5.710
 8583SOL     OW26647   3.258   6.622   2.716
 8583SOL    HW126648   3.258   6.581   2.807
 8583SOL    HW226649   3.177   6.594   2.665
 8584SOL     OW26650   6.470   1.585   4.949
 8584SOL    HW126651   6.413   1.595   4.867
 8584SOL    HW226652   6.566   1.593   4.924
 8585SOL     OW26653   5.276   2.762   2.684
 8585SOL    HW126654   5.338   2.704   2.736
 8585SOL    HW226655   5.188   2.716   2.672
 8586SOL     OW26656   6.183   5.827   5.571
 8586SOL    HW126657   6.212   5.786   5.657
 8586SOL    HW226658   6.169   5.755   5.502
 8587SOL     OW26659   6.837   1.290   6.237
 8587SOL    HW126660   6.795   1.303   6.147
 8587SOL    HW226661   6.807   1.364   6.298
 8588SOL     OW26662   1.989   0.940   5.173
 8588SOL    HW126663   1.932   1.015   5.207
 8588SOL    HW226664   2.051   0.910   5.246
 8589SOL     OW26665   5.837   2.906   0.036
 8589SOL    HW126666   5.830   2.818   0.082
 8589SOL    HW226667   5.933   2.933   0.028
 8590SOL     OW26668   0.699   1.755   3.880
 8590SOL    HW126669   0.792   1.738   3.914
 8590SOL    HW226670   0.635   1.754   3.957
 8591SOL     OW26671   7.013   4.426   5.561
 8591SOL    HW126672   6.992   4.383   5.474
 8591SOL    HW226673   6.987   4.523   5.558
 8592SOL     OW26674   7.016   1.840   4.206
 8592SOL    HW126675   0.048   1.873   4.284
 8592SOL    HW226676   6.924   1.816   4.236
 8593SOL     OW26677   5.868   1.241   6.963
 8593SOL    HW126678   5.955   1.252   7.010
 8593SOL    HW226679   5.819   1.163   7.000
 8594SOL     OW26680   6.134   4.105   6.123
 8594SOL    HW126681   6.054   4.081   6.067
 8594SOL    HW226682   6.107   4.171   6.193
 8595SOL     OW26683   5.425   6.171   3.110
 8595SOL    HW126684   5.341   6.124   3.134
 8595SOL    HW226685   5.435   6.253   3.166
 8596SOL     OW26686   0.857   2.342   4.915
 8596SOL    HW126687   0.766   2.327   4.953
 8596SOL    HW226688   0.864   2.299   4.825
 8597SOL     OW26689   6.202   2.790   6.203
 8597SOL    HW126690   6.133   2.724   6.172
 8597SOL    HW226691   6.169   2.883   6.187
 8598SOL     OW26692   6.750   0.245   5.087
 8598SOL    HW126693   6.802   0.330   5.091
 8598SOL    HW226694   6.723   0.226   4.993
 8599SOL     OW26695   6.292   3.620   5.053
 8599SOL    HW126696   6.253   3.538   5.011
 8599SOL    HW226697   6.391   3.621   5.041
 8600SOL     OW26698   4.589   2.581   1.591
 8600SOL    HW126699   4.638   2.605   1.674
 8600SOL    HW226700   4.634   2.621   1.512
 8601SOL     OW26701   6.385   5.974   3.201
 8601SOL    HW126702   6.308   5.980   3.137
 8601SOL    HW226703   6.458   6.036   3.172
 8602SOL     OW26704   1.894   6.862   5.512
 8602SOL    HW126705   1.846   6.924   5.449
 8602SOL    HW226706   1.841   6.854   5.596
 8603SOL     OW26707   0.306   0.480   6.141
 8603SOL    HW126708   0.281   0.435   6.227
 8603SOL    HW226709   0.323   0.577   6.158
 8604SOL     OW26710   1.965   5.113   5.982
 8604SOL    HW126711   1.937   5.180   5.913
 8604SOL    HW226712   2.009   5.161   6.058
 8605SOL     OW26713   0.176   5.278   3.845
 8605SOL    HW126714   0.085   5.245   3.822
 8605SOL    HW226715   0.242   5.202   3.836
 8606SOL     OW26716   1.610   1.102   6.998
 8606SOL    HW126717   1.640   1.057   6.913
 8606SOL    HW226718   1.660   1.062   0.054
 8607SOL     OW26719   2.605   3.468   1.210
 8607SOL    HW126720   2.571   3.402   1.143
 8607SOL    HW226721   2.691   3.435   1.249
 8608SOL     OW26722   1.910   5.829   2.561
 8608SOL    HW126723   1.922   5.927   2.575
 8608SOL    HW226724   1.913   5.809   2.463
 8609SOL     OW26725   4.887   2.007   4.289
 8609SOL    HW126726   4.797   2.050   4.288
 8609SOL    HW226727   4.954   2.071   4.325
 8610SOL     OW26728   0.384   6.147   3.254
 8610SOL    HW126729   0.288   6.140   3.228
 8610SOL    HW226730   0.430   6.060   3.236
 8611SOL     OW26731   1.628   1.565   5.062
 8611SOL    HW126732   1.650   1.621   4.983
 8611SOL    HW226733   1.697   1.579   5.133
 8612SOL     OW26734   3.337   2.992   4.779
 8612SOL    HW126735   3.412   2.946   4.730
 8612SOL    HW226736   3.348   3.091   4.771
 8613SOL     OW26737   3.810   3.025   2.995
 8613SOL    HW126738   3.767   2.981   2.917
 8613SOL    HW226739   3.858   3.107   2.965
 8614SOL     OW26740   0.756   2.465   3.386
 8614SOL    HW126741   0.834   2.511   3.428
 8614SOL    HW226742   0.672   2.492   3.434
 8615SOL     OW26743   3.394   2.284   5.590
 8615SOL    HW126744   3.397   2.338   5.506
 8615SOL    HW226745   3.307   2.236   5.596
 8616SOL     OW26746   5.727   4.080   4.619
 8616SOL    HW126747   5.695   4.168   4.654
 8616SOL    HW226748   5.648   4.021   4.602
 8617SOL     OW26749   1.577   6.776   3.047
 8617SOL    HW126750   1.524   6.817   2.973
 8617SOL    HW226751   1.515   6.728   3.110
 8618SOL     OW26752   5.781   4.103   0.770
 8618SOL    HW126753   5.754   4.194   0.800
 8618SOL    HW226754   5.785   4.101   0.670
 8619SOL     OW26755   5.590   5.756   0.472
 8619SOL    HW126756   5.543   5.836   0.436
 8619SOL    HW226757   5.643   5.712   0.399
 8620SOL     OW26758   2.250   6.853   4.014
 8620SOL    HW126759   2.308   6.935   4.020
 8620SOL    HW226760   2.293   6.779   4.065
 8621SOL     OW26761   5.697   3.333   1.955
 8621SOL    HW126762   5.648   3.420   1.944
 8621SOL    HW226763   5.774   3.346   2.019
 8622SOL     OW26764   0.340   5.517   2.551
 8622SOL    HW126765   0.364   5.420   2.541
 8622SOL    HW226766   0.424   5.572   2.551
 8623SOL     OW26767   1.983   2.483   4.075
 8623SOL    HW126768   2.078   2.453   4.061
 8623SOL    HW226769   1.968   2.569   4.027
 8624SOL     OW26770   3.463   3.766   5.054
 8624SOL    HW126771   3.461   3.694   4.984
 8624SOL    HW226772   3.380   3.761   5.110
 8625SOL     OW26773   4.270   3.190   5.644
 8625SOL    HW126774   4.276   3.202   5.743
 8625SOL    HW226775   4.174   3.179   5.618
 8626SOL     OW26776   4.634   1.807   1.698
 8626SOL    HW126777   4.606   1.838   1.789
 8626SOL    HW226778   4.726   1.839   1.679
 8627SOL     OW26779   2.046   1.094   2.598
 8627SOL    HW126780   2.047   1.161   2.673
 8627SOL    HW226781   2.029   1.142   2.511
 8628SOL     OW26782   0.857   6.759   0.586
 8628SOL    HW126783   0.787   6.793   0.648
 8628SOL    HW226784   0.858   6.659   0.588
 8629SOL     OW26785   0.681   6.581   4.589
 8629SOL    HW126786   0.689   6.642   4.511
 8629SOL    HW226787   0.740   6.614   4.663
 8630SOL     OW26788   5.034   2.643   2.614
 8630SOL    HW126789   4.962   2.702   2.577
 8630SOL    HW226790   4.995   2.581   2.682
 8631SOL     OW26791   2.375   5.881   6.057
 8631SOL    HW126792   2.385   5.805   5.993
 8631SOL    HW226793   2.444   5.950   6.039
 8632SOL     OW26794   5.828   5.765   4.188
 8632SOL    HW126795   5.911   5.716   4.162
 8632SOL    HW226796   5.820   5.849   4.135
 8633SOL     OW26797   5.874   3.696   5.132
 8633SOL    HW126798   5.844   3.679   5.038
 8633SOL    HW226799   5.968   3.730   5.131
 8634SOL     OW26800   4.981   4.157   6.754
 8634SOL    HW126801   5.035   4.186   6.834
 8634SOL    HW226802   5.016   4.070   6.719
 8635SOL     OW26803   5.295   2.673   0.049
 8635SOL    HW126804   5.318   2.598   7.008
 8635SOL    HW226805   5.368   2.684   0.116
 8636SOL     OW26806   4.348   6.246   1.633
 8636SOL    HW126807   4.357   6.345   1.639
 8636SOL    HW226808   4.251   6.222   1.626
 8637SOL     OW26809   1.772   1.890   6.398
 8637SOL    HW126810   1.804   1.881   6.304
 8637SOL    HW226811   1.823   1.963   6.444
 8638SOL     OW26812   4.875   3.305   3.745
 8638SOL    HW126813   4.911   3.271   3.831
 8638SOL    HW226814   4.866   3.405   3.749
 8639SOL     OW26815   3.411   3.761   0.037
 8639SOL    HW126816   3.459   3.805   6.982
 8639SOL    HW226817   3.472   3.695   0.081
 8640SOL     OW26818   3.679   2.533   0.721
 8640SOL    HW126819   3.591   2.546   0.676
 8640SOL    HW226820   3.684   2.442   0.761
 8641SOL     OW26821   3.820   5.268   2.330
 8641SOL    HW126822   3.895   5.270   2.396
 8641SOL    HW226823   3.740   5.226   2.373
 8642SOL     OW26824   1.527   5.949   2.693
 8642SOL    HW126825   1.558   5.854   2.702
 8642SOL    HW226826   1.538   5.996   2.781
 8643SOL     OW26827   3.633   6.799   1.150
 8643SOL    HW126828   3.718   6.749   1.165
 8643SOL    HW226829   3.555   6.739   1.167
 8644SOL     OW26830   6.429   2.686   5.954
 8644SOL    HW126831   6.467   2.594   5.954
 8644SOL    HW226832   6.400   2.710   5.861
 8645SOL     OW26833   6.152   5.917   3.023
 8645SOL    HW126834   6.092   5.997   3.022
 8645SOL    HW226835   6.133   5.860   2.943
 8646SOL     OW26836   6.878   2.308   5.389
 8646SOL    HW126837   6.847   2.399   5.364
 8646SOL    HW226838   6.978   2.302   5.378
 8647SOL     OW26839   1.874   5.367   1.844
 8647SOL    HW126840   1.841   5.273   1.850
 8647SOL    HW226841   1.940   5.374   1.769
 8648SOL     OW26842   5.015   5.174   0.604
 8648SOL    HW126843   5.004   5.148   0.700
 8648SOL    HW226844   4.926   5.193   0.564
 8649SOL     OW26845   5.240   1.169   0.695
 8649SOL    HW126846   5.201   1.144   0.783
 8649SOL    HW226847   5.284   1.259   0.702
 8650SOL     OW26848   2.121   0.185   5.449
 8650SOL    HW126849   2.190   0.119   5.479
 8650SOL    HW226850   2.164   0.251   5.387
 8651SOL     OW26851   3.763   2.449   1.561
 8651SOL    HW126852   3.739   2.537   1.603
 8651SOL    HW226853   3.697   2.380   1.589
 8652SOL     OW26854   0.581   2.790   3.435
 8652SOL    HW126855   0.624   2.870   3.394
 8652SOL    HW226856   0.634   2.761   3.515
 8653SOL     OW26857   5.714   1.508   6.283
 8653SOL    HW126858   5.750   1.595   6.317
 8653SOL    HW226859   5.726   1.503   6.184
 8654SOL     OW26860   0.345   4.366   2.928
 8654SOL    HW126861   0.267   4.430   2.933
 8654SOL    HW226862   0.384   4.356   3.020
 8655SOL     OW26863   0.989   0.183   4.702
 8655SOL    HW126864   0.988   0.173   4.602
 8655SOL    HW226865   0.982   0.093   4.744
 8656SOL     OW26866   4.986   6.661   0.901
 8656SOL    HW126867   4.958   6.754   0.880
 8656SOL    HW226868   5.047   6.627   0.829
 8657SOL     OW26869   3.036   2.208   2.917
 8657SOL    HW126870   3.000   2.139   2.979
 8657SOL    HW226871   3.124   2.241   2.951
 8658SOL     OW26872   6.009   4.844   1.705
 8658SOL    HW126873   5.916   4.873   1.683
 8658SOL    HW226874   6.049   4.796   1.627
 8659SOL     OW26875   3.892   0.843   2.200
 8659SOL    HW126876   3.952   0.776   2.157
 8659SOL    HW226877   3.940   0.886   2.277
 8660SOL     OW26878   0.499   4.798   1.584
 8660SOL    HW126879   0.554   4.717   1.563
 8660SOL    HW226880   0.432   4.813   1.511
 8661SOL     OW26881   6.881   3.666   2.080
 8661SOL    HW126882   6.890   3.608   1.999
 8661SOL    HW226883   6.921   3.618   2.159
 8662SOL     OW26884   1.495   2.603   2.612
 8662SOL    HW126885   1.459   2.570   2.525
 8662SOL    HW226886   1.578   2.553   2.634
 8663SOL     OW26887   3.808   4.970   2.657
 8663SOL    HW126888   3.872   4.913   2.605
 8663SOL    HW226889   3.746   5.018   2.594
 8664SOL     OW26890   3.881   6.377   3.624
 8664SOL    HW126891   3.954   6.318   3.657
 8664SOL    HW226892   3.915   6.471   3.613
 8665SOL     OW26893   4.692   3.658   6.645
 8665SOL    HW126894   4.658   3.738   6.594
 8665SOL    HW226895   4.632   3.580   6.628
 8666SOL     OW26896   4.598   0.414   2.900
 8666SOL    HW126897   4.579   0.472   2.979
 8666SOL    HW226898   4.535   0.337   2.899
 8667SOL     OW26899   5.215   2.454   2.510
 8667SOL    HW126900   5.158   2.530   2.543
 8667SOL    HW226901   5.308   2.466   2.545
 8668SOL     OW26902   5.105   2.491   4.962
 8668SOL    HW126903   5.062   2.500   5.051
 8668SOL    HW226904   5.083   2.401   4.923
 8669SOL     OW26905   6.542   6.304   5.859
 8669SOL    HW126906   6.551   6.274   5.954
 8669SOL    HW226907   6.566   6.228   5.798
 8670SOL     OW26908   6.650   4.764   5.238
 8670SOL    HW126909   6.625   4.730   5.147
 8670SOL    HW226910   6.678   4.687   5.296
 8671SOL     OW26911   6.916   3.197   3.012
 8671SOL    HW126912   6.971   3.194   2.928
 8671SOL    HW226913   6.869   3.110   3.024
 8672SOL     OW26914   0.044   1.547   2.417
 8672SOL    HW126915   6.990   1.517   2.476
 8672SOL    HW226916   0.008   1.581   2.331
 8673SOL     OW26917   1.348   1.676   1.148
 8673SOL    HW126918   1.274   1.736   1.118
 8673SOL    HW226919   1.432   1.699   1.097
 8674SOL     OW26920   6.993   4.094   2.621
 8674SOL    HW126921   6.981   4.192   2.635
 8674SOL    HW226922   0.063   4.067   2.652
 8675SOL     OW26923   4.208   2.292   4.793
 8675SOL    HW126924   4.297   2.251   4.771
 8675SOL    HW226925   4.215   2.338   4.881
 8676SOL     OW26926   4.972   1.895   1.392
 8676SOL    HW126927   5.048   1.829   1.387
 8676SOL    HW226928   4.919   1.891   1.308
 8677SOL     OW26929   2.451   7.014   6.068
 8677SOL    HW126930   2.545   6.979   6.061
 8677SOL    HW226931   2.414   6.993   6.158
 8678SOL     OW26932   2.700   2.148   0.576
 8678SOL    HW126933   2.610   2.122   0.611
 8678SOL    HW226934   2.711   2.115   0.482
 8679SOL     OW26935   0.983   1.428   6.522
 8679SOL    HW126936   0.928   1.344   6.527
 8679SOL    HW226937   0.973   1.479   6.608
 8680SOL     OW26938   6.909   0.406   0.341
 8680SOL    HW126939   6.867   0.419   0.431
 8680SOL    HW226940   6.995   0.458   0.337
 8681SOL     OW26941   4.826   5.056   1.383
 8681SOL    HW126942   4.887   5.130   1.410
 8681SOL    HW226943   4.881   4.976   1.358
 8682SOL     OW26944   2.419   1.144   2.421
 8682SOL    HW126945   2.514   1.164   2.444
 8682SOL    HW226946   2.393   1.055   2.459
 8683SOL     OW26947   2.596   4.623   4.477
 8683SOL    HW126948   2.538   4.701   4.457
 8683SOL    HW226949   2.581   4.551   4.409
 8684SOL     OW26950   2.560   4.658   3.428
 8684SOL    HW126951   2.502   4.602   3.368
 8684SOL    HW226952   2.504   4.707   3.494
 8685SOL     OW26953   4.875   2.954   4.540
 8685SOL    HW126954   4.974   2.953   4.523
 8685SOL    HW226955   4.827   2.961   4.453
 8686SOL     OW26956   1.457   5.486   3.341
 8686SOL    HW126957   1.469   5.575   3.384
 8686SOL    HW226958   1.411   5.424   3.405
 8687SOL     OW26959   5.896   4.489   4.981
 8687SOL    HW126960   5.842   4.489   4.897
 8687SOL    HW226961   5.853   4.429   5.048
 8688SOL     OW26962   1.303   3.773   5.094
 8688SOL    HW126963   1.375   3.704   5.094
 8688SOL    HW226964   1.321   3.840   5.022
 8689SOL     OW26965   4.325   3.411   1.248
 8689SOL    HW126966   4.398   3.479   1.242
 8689SOL    HW226967   4.336   3.343   1.176
 8690SOL     OW26968   1.307   1.318   2.496
 8690SOL    HW126969   1.249   1.396   2.517
 8690SOL    HW226970   1.403   1.344   2.504
 8691SOL     OW26971   3.373   2.510   6.107
 8691SOL    HW126972   3.412   2.420   6.086
 8691SOL    HW226973   3.317   2.541   6.031
 8692SOL     OW26974   5.073   3.037   4.201
 8692SOL    HW126975   5.096   2.974   4.275
 8692SOL    HW226976   5.142   3.031   4.129
 8693SOL     OW26977   6.336   6.710   5.347
 8693SOL    HW126978   6.373   6.713   5.254
 8693SOL    HW226979   6.303   6.801   5.372
 8694SOL     OW26980   5.136   3.114   5.459
 8694SOL    HW126981   5.101   3.074   5.374
 8694SOL    HW226982   5.069   3.100   5.532
 8695SOL     OW26983   3.426   4.953   1.115
 8695SOL    HW126984   3.417   4.864   1.159
 8695SOL    HW226985   3.424   5.025   1.185
 8696SOL     OW26986   2.325   5.504   5.915
 8696SOL    HW126987   2.339   5.597   5.881
 8696SOL    HW226988   2.285   5.448   5.843
 8697SOL     OW26989   0.865   3.907   5.264
 8697SOL    HW126990   0.803   3.966   5.315
 8697SOL    HW226991   0.960   3.928   5.290
 8698SOL     OW26992   4.287   4.681   6.328
 8698SOL    HW126993   4.316   4.766   6.284
 8698SOL    HW226994   4.205   4.697   6.383
 8699SOL     OW26995   1.736   2.317   0.490
 8699SOL    HW126996   1.658   2.320   0.553
 8699SOL    HW226997   1.756   2.221   0.467
 8700SOL     OW26998   0.874   1.363   4.723
 8700SOL    HW126999   0.964   1.383   4.683
 8700SOL    HW227000   0.805   1.362   4.650
 8701SOL     OW27001   1.408   3.105   6.476
 8701SOL    HW127002   1.384   3.013   6.446
 8701SOL    HW227003   1.393   3.113   6.575
 8702SOL     OW27004   5.870   4.170   1.211
 8702SOL    HW127005   5.862   4.129   1.302
 8702SOL    HW227006   5.784   4.158   1.162
 8703SOL     OW27007   2.657   5.626   1.526
 8703SOL    HW127008   2.572   5.595   1.485
 8703SOL    HW227009   2.694   5.554   1.585
 8704SOL     OW27010   0.136   1.118   4.792
 8704SOL    HW127011   0.184   1.196   4.832
 8704SOL    HW227012   0.056   1.095   4.848
 8705SOL     OW27013   3.838   2.310   0.054
 8705SOL    HW127014   3.802   2.364   6.999
 8705SOL    HW227015   3.845   2.214   0.026
 8706SOL     OW27016   4.539   2.306   6.878
 8706SOL    HW127017   4.461   2.369   6.873
 8706SOL    HW227018   4.617   2.355   6.917
 8707SOL     OW27019   2.006   0.910   4.342
 8707SOL    HW127020   1.959   0.933   4.257
 8707SOL    HW227021   1.983   0.816   4.369
 8708SOL     OW27022   5.907   2.024   0.618
 8708SOL    HW127023   5.946   1.981   0.536
 8708SOL    HW227024   5.901   2.122   0.604
 8709SOL     OW27025   6.417   6.561   4.420
 8709SOL    HW127026   6.481   6.631   4.452
 8709SOL    HW227027   6.332   6.567   4.472
 8710SOL     OW27028   1.956   1.928   3.601
 8710SOL    HW127029   2.005   1.844   3.580
 8710SOL    HW227030   1.967   1.949   3.698
 8711SOL     OW27031   1.448   1.189   1.881
 8711SOL    HW127032   1.440   1.234   1.792
 8711SOL    HW227033   1.408   1.097   1.876
 8712SOL     OW27034   1.241   4.432   4.348
 8712SOL    HW127035   1.160   4.437   4.290
 8712SOL    HW227036   1.214   4.423   4.444
 8713SOL     OW27037   0.481   3.380   1.950
 8713SOL    HW127038   0.579   3.397   1.941
 8713SOL    HW227039   0.435   3.395   1.862
 8714SOL     OW27040   6.030   4.288   6.779
 8714SOL    HW127041   6.108   4.308   6.721
 8714SOL    HW227042   5.953   4.346   6.752
 8715SOL     OW27043   2.152   4.800   1.896
 8715SOL    HW127044   2.054   4.800   1.877
 8715SOL    HW227045   2.182   4.893   1.918
 8716SOL     OW27046   6.413   0.285   2.164
 8716SOL    HW127047   6.460   0.199   2.179
 8716SOL    HW227048   6.409   0.305   2.066
 8717SOL     OW27049   3.185   2.733   0.365
 8717SOL    HW127050   3.094   2.721   0.405
 8717SOL    HW227051   3.231   2.809   0.411
 8718SOL     OW27052   2.825   5.274   6.561
 8718SOL    HW127053   2.759   5.208   6.526
 8718SOL    HW227054   2.799   5.366   6.530
 8719SOL     OW27055   3.284   1.449   4.938
 8719SOL    HW127056   3.384   1.449   4.946
 8719SOL    HW227057   3.243   1.469   5.027
 8720SOL     OW27058   1.084   5.746   4.563
 8720SOL    HW127059   1.051   5.812   4.496
 8720SOL    HW227060   1.175   5.714   4.537
 8721SOL     OW27061   1.135   6.802   0.580
 8721SOL    HW127062   1.154   6.879   0.519
 8721SOL    HW227063   1.036   6.794   0.594
 8722SOL     OW27064   2.947   0.852   0.868
 8722SOL    HW127065   2.883   0.926   0.889
 8722SOL    HW227066   3.038   0.877   0.901
 8723SOL     OW27067   4.249   6.915   1.947
 8723SOL    HW127068   4.190   6.849   1.993
 8723SOL    HW227069   4.306   6.962   2.014
 8724SOL     OW27070   3.525   1.433   5.224
 8724SOL    HW127071   3.538   1.531   5.242
 8724SOL    HW227072   3.567   1.409   5.136
 8725SOL     OW27073   6.695   0.309   3.051
 8725SOL    HW127074   6.673   0.217   3.082
 8725SOL    HW227075   6.757   0.353   3.117
 8726SOL     OW27076   6.366   0.674   1.089
 8726SOL    HW127077   6.311   0.622   1.154
 8726SOL    HW227078   6.306   0.712   1.018
 8727SOL     OW27079   5.419   5.941   7.012
 8727SOL    HW127080   5.322   5.923   0.012
 8727SOL    HW227081   5.426   5.979   6.919
 8728SOL     OW27082   6.570   6.660   4.614
 8728SOL    HW127083   6.620   6.627   4.695
 8728SOL    HW227084   6.608   6.748   4.585
 8729SOL     OW27085   5.399   5.800   5.952
 8729SOL    HW127086   5.314   5.848   5.932
 8729SOL    HW227087   5.470   5.829   5.887
 8730SOL     OW27088   4.256   4.600   1.732
 8730SOL    HW127089   4.326   4.595   1.804
 8730SOL    HW227090   4.280   4.673   1.667
 8731SOL     OW27091   6.688   1.788   4.075
 8731SOL    HW127092   6.609   1.850   4.085
 8731SOL    HW227093   6.767   1.840   4.044
 8732SOL     OW27094   4.824   6.423   5.795
 8732SOL    HW127095   4.848   6.387   5.885
 8732SOL    HW227096   4.770   6.355   5.746
 8733SOL     OW27097   6.354   4.626   2.575
 8733SOL    HW127098   6.270   4.645   2.523
 8733SOL    HW227099   6.423   4.588   2.513
 8734SOL     OW27100   1.349   4.482   0.707
 8734SOL    HW127101   1.349   4.578   0.681
 8734SOL    HW227102   1.303   4.428   0.636
 8735SOL     OW27103   1.274   2.949   5.773
 8735SOL    HW127104   1.248   3.036   5.731
 8735SOL    HW227105   1.194   2.906   5.814
 8736SOL     OW27106   1.671   5.570   3.118
 8736SOL    HW127107   1.588   5.579   3.174
 8736SOL    HW227108   1.706   5.661   3.096
 8737SOL     OW27109   0.263   5.753   6.949
 8737SOL    HW127110   0.222   5.763   6.859
 8737SOL    HW227111   0.343   5.812   6.956
 8738SOL     OW27112   2.173   2.589   2.242
 8738SOL    HW127113   2.161   2.683   2.210
 8738SOL    HW227114   2.260   2.553   2.207
 8739SOL     OW27115   5.942   4.704   3.922
 8739SOL    HW127116   5.973   4.672   4.011
 8739SOL    HW227117   5.852   4.666   3.902
 8740SOL     OW27118   3.295   1.831   3.810
 8740SOL    HW127119   3.393   1.817   3.799
 8740SOL    HW227120   3.272   1.926   3.792
 8741SOL     OW27121   1.133   1.521   2.574
 8741SOL    HW127122   1.133   1.619   2.553
 8741SOL    HW227123   1.060   1.501   2.639
 8742SOL     OW27124   2.800   2.550   1.729
 8742SOL    HW127125   2.702   2.540   1.712
 8742SOL    HW227126   2.836   2.466   1.768
 8743SOL     OW27127   0.595   3.072   0.719
 8743SOL    HW127128   0.638   3.107   0.802
 8743SOL    HW227129   0.528   3.138   0.686
 8744SOL     OW27130   3.699   4.187   5.742
 8744SOL    HW127131   3.639   4.157   5.817
 8744SOL    HW227132   3.784   4.222   5.780
 8745SOL     OW27133   5.882   1.660   6.104
 8745SOL    HW127134   5.981   1.649   6.117
 8745SOL    HW227135   5.848   1.582   6.051
 8746SOL     OW27136   3.955   4.916   4.997
 8746SOL    HW127137   3.981   5.013   4.993
 8746SOL    HW227138   3.930   4.892   5.091
 8747SOL     OW27139   1.158   0.579   2.660
 8747SOL    HW127140   1.171   0.480   2.656
 8747SOL    HW227141   1.061   0.601   2.647
 8748SOL     OW27142   5.624   1.820   4.762
 8748SOL    HW127143   5.632   1.828   4.862
 8748SOL    HW227144   5.528   1.829   4.736
 8749SOL     OW27145   2.653   1.136   4.193
 8749SOL    HW127146   2.587   1.093   4.254
 8749SOL    HW227147   2.743   1.096   4.207
 8750SOL     OW27148   4.230   3.612   1.503
 8750SOL    HW127149   4.227   3.622   1.602
 8750SOL    HW227150   4.156   3.550   1.474
 8751SOL     OW27151   2.563   6.976   0.519
 8751SOL    HW127152   2.589   0.040   0.566
 8751SOL    HW227153   2.502   6.923   0.578
 8752SOL     OW27154   7.010   3.150   5.689
 8752SOL    HW127155   0.079   3.110   5.707
 8752SOL    HW227156   6.961   3.160   5.776
 8753SOL     OW27157   2.109   1.781   0.730
 8753SOL    HW127158   2.027   1.773   0.786
 8753SOL    HW227159   2.167   1.701   0.744
 8754SOL     OW27160   0.747   5.444   6.535
 8754SOL    HW127161   0.734   5.493   6.621
 8754SOL    HW227162   0.828   5.385   6.541
 8755SOL     OW27163   0.451   2.608   1.816
 8755SOL    HW127164   0.522   2.578   1.752
 8755SOL    HW227165   0.368   2.633   1.765
 8756SOL     OW27166   1.414   1.596   2.036
 8756SOL    HW127167   1.391   1.679   2.088
 8756SOL    HW227168   1.444   1.525   2.099
 8757SOL     OW27169   5.505   6.491   5.642
 8757SOL    HW127170   5.502   6.577   5.591
 8757SOL    HW227171   5.471   6.417   5.584
 8758SOL     OW27172   3.826   5.866   5.496
 8758SOL    HW127173   3.739   5.820   5.514
 8758SOL    HW227174   3.854   5.849   5.401
 8759SOL     OW27175   6.215   0.916   1.932
 8759SOL    HW127176   6.241   0.974   2.009
 8759SOL    HW227177   6.119   0.932   1.909
 8760SOL     OW27178   2.624   2.298   4.183
 8760SOL    HW127179   2.689   2.234   4.224
 8760SOL    HW227180   2.549   2.247   4.142
 8761SOL     OW27181   4.725   2.016   2.831
 8761SOL    HW127182   4.815   2.003   2.790
 8761SOL    HW227183   4.654   1.991   2.765
 8762SOL     OW27184   4.048   5.994   2.832
 8762SOL    HW127185   4.116   6.066   2.816
 8762SOL    HW227186   3.971   6.007   2.769
 8763SOL     OW27187   0.190   1.116   5.642
 8763SOL    HW127188   0.180   1.206   5.684
 8763SOL    HW227189   0.254   1.061   5.696
 8764SOL     OW27190   3.842   5.406   6.039
 8764SOL    HW127191   3.851   5.366   5.947
 8764SOL    HW227192   3.765   5.363   6.086
 8765SOL     OW27193   3.822   6.972   3.647
 8765SOL    HW127194   3.753   0.023   3.635
 8765SOL    HW227195   3.901   6.991   3.588
 8766SOL     OW27196   5.369   6.858   5.174
 8766SOL    HW127197   5.374   6.770   5.128
 8766SOL    HW227198   5.304   6.917   5.127
 8767SOL     OW27199   1.811   1.599   3.399
 8767SOL    HW127200   1.728   1.611   3.453
 8767SOL    HW227201   1.821   1.502   3.375
 8768SOL     OW27202   6.983   1.352   0.382
 8768SOL    HW127203   6.915   1.417   0.416
 8768SOL    HW227204   0.007   1.390   0.301
 8769SOL     OW27205   6.139   6.975   6.492
 8769SOL    HW127206   6.166   6.928   6.408
 8769SOL    HW227207   6.221   7.003   6.542
 8770SOL     OW27208   4.995   2.233   0.404
 8770SOL    HW127209   4.909   2.220   0.356
 8770SOL    HW227210   5.065   2.264   0.340
 8771SOL     OW27211   0.804   2.880   6.397
 8771SOL    HW127212   0.844   2.958   6.444
 8771SOL    HW227213   0.705   2.883   6.407
 8772SOL     OW27214   0.086   0.240   4.154
 8772SOL    HW127215   0.059   0.334   4.132
 8772SOL    HW227216   0.009   0.193   4.198
 8773SOL     OW27217   0.301   1.703   3.296
 8773SOL    HW127218   0.247   1.671   3.218
 8773SOL    HW227219   0.242   1.750   3.361
 8774SOL     OW27220   0.858   1.700   6.997
 8774SOL    HW127221   0.951   1.721   0.006
 8774SOL    HW227222   0.822   1.777   6.945
 8775SOL     OW27223   5.462   2.386   3.270
 8775SOL    HW127224   5.422   2.465   3.316
 8775SOL    HW227225   5.538   2.416   3.213
 8776SOL     OW27226   4.733   2.544   0.954
 8776SOL    HW127227   4.744   2.637   0.918
 8776SOL    HW227228   4.757   2.478   0.882
 8777SOL     OW27229   6.845   2.393   3.666
 8777SOL    HW127230   6.896   2.362   3.746
 8777SOL    HW227231   6.747   2.379   3.681
 8778SOL     OW27232   3.098   3.979   6.747
 8778SOL    HW127233   3.080   3.880   6.747
 8778SOL    HW227234   3.011   4.028   6.742
 8779SOL     OW27235   3.996   5.153   2.785
 8779SOL    HW127236   3.936   5.179   2.860
 8779SOL    HW227237   3.969   5.064   2.749
 8780SOL     OW27238   1.081   4.054   3.666
 8780SOL    HW127239   1.053   4.049   3.762
 8780SOL    HW227240   1.178   4.032   3.659
 8781SOL     OW27241   2.427   0.626   0.938
 8781SOL    HW127242   2.479   0.685   0.876
 8781SOL    HW227243   2.374   0.560   0.884
 8782SOL     OW27244   5.892   2.383   0.810
 8782SOL    HW127245   5.888   2.413   0.714
 8782SOL    HW227246   5.983   2.401   0.847
 8783SOL     OW27247   4.798   4.200   4.802
 8783SOL    HW127248   4.750   4.285   4.780
 8783SOL    HW227249   4.872   4.219   4.867
 8784SOL     OW27250   4.532   0.897   6.916
 8784SOL    HW127251   4.440   0.857   6.919
 8784SOL    HW227252   4.585   0.855   6.843
 8785SOL     OW27253   6.869   5.253   5.639
 8785SOL    HW127254   6.796   5.301   5.591
 8785SOL    HW227255   6.829   5.191   5.706
 8786SOL     OW27256   5.607   1.730   3.077
 8786SOL    HW127257   5.630   1.633   3.087
 8786SOL    HW227258   5.594   1.750   2.980
 8787SOL     OW27259   3.581   5.813   1.408
 8787SOL    HW127260   3.582   5.760   1.323
 8787SOL    HW227261   3.673   5.846   1.428
 8788SOL     OW27262   0.454   6.185   4.223
 8788SOL    HW127263   0.447   6.222   4.316
 8788SOL    HW227264   0.376   6.216   4.169
 8789SOL     OW27265   1.474   2.506   6.342
 8789SOL    HW127266   1.545   2.576   6.353
 8789SOL    HW227267   1.515   2.415   6.356
 8790SOL     OW27268   4.302   2.625   5.360
 8790SOL    HW127269   4.228   2.613   5.294
 8790SOL    HW227270   4.319   2.538   5.407
 8791SOL     OW27271   4.136   6.488   4.412
 8791SOL    HW127272   4.074   6.538   4.351
 8791SOL    HW227273   4.103   6.395   4.424
 8792SOL     OW27274   5.494   5.383   1.779
 8792SOL    HW127275   5.430   5.362   1.853
 8792SOL    HW227276   5.451   5.366   1.691
 8793SOL     OW27277   6.842   6.284   5.486
 8793SOL    HW127278   6.857   6.254   5.581
 8793SOL    HW227279   6.931   6.301   5.443
 8794SOL     OW27280   0.224   1.562   2.804
 8794SOL    HW127281   0.263   1.632   2.744
 8794SOL    HW227282   0.294   1.529   2.867
 8795SOL     OW27283   1.151   6.403   7.015
 8795SOL    HW127284   1.145   6.485   0.052
 8795SOL    HW227285   1.102   6.328   0.039
 8796SOL     OW27286   5.820   3.656   4.859
 8796SOL    HW127287   5.795   3.559   4.848
 8796SOL    HW227288   5.811   3.702   4.771
 8797SOL     OW27289   5.011   6.175   4.323
 8797SOL    HW127290   5.067   6.096   4.299
 8797SOL    HW227291   5.070   6.251   4.348
 8798SOL     OW27292   2.838   6.249   5.293
 8798SOL    HW127293   2.770   6.197   5.242
 8798SOL    HW227294   2.817   6.245   5.391
 8799SOL     OW27295   1.421   5.878   1.799
 8799SOL    HW127296   1.353   5.818   1.841
 8799SOL    HW227297   1.496   5.894   1.863
 8800SOL     OW27298   6.488   5.915   4.180
 8800SOL    HW127299   6.435   5.842   4.137
 8800SOL    HW227300   6.539   5.878   4.258
 8801SOL     OW27301   5.559   3.567   5.783
 8801SOL    HW127302   5.632   3.550   5.850
 8801SOL    HW227303   5.589   3.538   5.692
 8802SOL     OW27304   1.926   5.776   6.380
 8802SOL    HW127305   1.855   5.750   6.314
 8802SOL    HW227306   2.016   5.762   6.339
 8803SOL     OW27307   5.824   5.927   5.602
 8803SOL    HW127308   5.798   6.024   5.602
 8803SOL    HW227309   5.877   5.907   5.684
 8804SOL     OW27310   1.075   6.119   1.895
 8804SOL    HW127311   0.998   6.122   1.832
 8804SOL    HW227312   1.161   6.124   1.844
 8805SOL     OW27313   5.242   4.992   3.180
 8805SOL    HW127314   5.175   4.939   3.233
 8805SOL    HW227315   5.278   5.066   3.237
 8806SOL     OW27316   1.255   0.345   1.935
 8806SOL    HW127317   1.235   0.370   2.029
 8806SOL    HW227318   1.181   0.378   1.875
 8807SOL     OW27319   5.459   2.523   0.476
 8807SOL    HW127320   5.512   2.481   0.550
 8807SOL    HW227321   5.372   2.555   0.513
 8808SOL     OW27322   2.234   2.384   0.024
 8808SOL    HW127323   2.248   2.287   0.044
 8808SOL    HW227324   2.181   2.393   6.961
 8809SOL     OW27325   6.830   3.500   3.153
 8809SOL    HW127326   6.842   3.410   3.111
 8809SOL    HW227327   6.838   3.571   3.083
 8810SOL     OW27328   0.491   1.837   5.174
 8810SOL    HW127329   0.525   1.883   5.256
 8810SOL    HW227330   0.392   1.825   5.181
 8811SOL     OW27331   4.337   4.634   2.576
 8811SOL    HW127332   4.322   4.733   2.579
 8811SOL    HW227333   4.378   4.609   2.488
 8812SOL     OW27334   4.917   1.031   6.824
 8812SOL    HW127335   4.930   1.031   6.725
 8812SOL    HW227336   4.962   0.951   6.863
 8813SOL     OW27337   2.147   3.326   2.640
 8813SOL    HW127338   2.171   3.231   2.661
 8813SOL    HW227339   2.088   3.329   2.560
 8814SOL     OW27340   5.210   6.678   5.347
 8814SOL    HW127341   5.152   6.708   5.423
 8814SOL    HW227342   5.264   6.754   5.313
 8815SOL     OW27343   5.102   0.732   1.196
 8815SOL    HW127344   5.020   0.677   1.178
 8815SOL    HW227345   5.076   0.827   1.210
 8816SOL     OW27346   0.588   6.807   4.142
 8816SOL    HW127347   0.539   6.870   4.202
 8816SOL    HW227348   0.619   6.857   4.060
 8817SOL     OW27349   1.104   2.588   3.075
 8817SOL    HW127350   1.131   2.667   3.131
 8817SOL    HW227351   1.089   2.618   2.981
 8818SOL     OW27352   0.821   6.605   5.541
 8818SOL    HW127353   0.901   6.546   5.551
 8818SOL    HW227354   0.787   6.600   5.447
 8819SOL     OW27355   4.815   5.706   6.292
 8819SOL    HW127356   4.821   5.622   6.346
 8819SOL    HW227357   4.733   5.702   6.234
 8820SOL     OW27358   4.295   0.161   5.415
 8820SOL    HW127359   4.332   0.180   5.506
 8820SOL    HW227360   4.230   0.233   5.390
 8821SOL     OW27361   0.702   4.629   6.411
 8821SOL    HW127362   0.614   4.586   6.433
 8821SOL    HW227363   0.706   4.648   6.313
 8822SOL     OW27364   6.165   0.208   4.733
 8822SOL    HW127365   6.197   0.293   4.774
 8822SOL    HW227366   6.076   0.184   4.772
 8823SOL     OW27367   4.024   1.666   2.877
 8823SOL    HW127368   3.934   1.659   2.835
 8823SOL    HW227369   4.058   1.574   2.899
 8824SOL     OW27370   1.357   0.103   3.241
 8824SOL    HW127371   1.434   0.137   3.188
 8824SOL    HW227372   1.273   0.147   3.210
 8825SOL     OW27373   0.392   0.196   0.210
 8825SOL    HW127374   0.292   0.202   0.203
 8825SOL    HW227375   0.418   0.101   0.228
 8826SOL     OW27376   6.925   4.129   0.351
 8826SOL    HW127377   7.009   4.079   0.370
 8826SOL    HW227378   6.945   4.211   0.298
 8827SOL     OW27379   4.323   6.652   3.293
 8827SOL    HW127380   4.301   6.749   3.298
 8827SOL    HW227381   4.305   6.609   3.382
 8828SOL     OW27382   5.184   2.358   6.218
 8828SOL    HW127383   5.184   2.438   6.158
 8828SOL    HW227384   5.113   2.294   6.189
 8829SOL     OW27385   6.929   0.963   2.803
 8829SOL    HW127386   6.956   1.043   2.749
 8829SOL    HW227387   6.852   0.917   2.757
 8830SOL     OW27388   3.186   0.664   3.875
 8830SOL    HW127389   3.280   0.698   3.867
 8830SOL    HW227390   3.127   0.737   3.910
 8831SOL     OW27391   6.977   3.416   2.624
 8831SOL    HW127392   6.897   3.386   2.676
 8831SOL    HW227393   6.948   3.454   2.536
 8832SOL     OW27394   5.418   0.412   5.920
 8832SOL    HW127395   5.428   0.408   6.019
 8832SOL    HW227396   5.348   0.346   5.891
 8833SOL     OW27397   5.241   2.140   1.293
 8833SOL    HW127398   5.283   2.216   1.343
 8833SOL    HW227399   5.143   2.136   1.315
 8834SOL     OW27400   5.472   4.215   6.467
 8834SOL    HW127401   5.441   4.308   6.485
 8834SOL    HW227402   5.393   4.153   6.464
 8835SOL     OW27403   7.019   0.614   5.264
 8835SOL    HW127404   0.094   0.586   5.271
 8835SOL    HW227405   6.965   0.565   5.332
 8836SOL     OW27406   4.180   1.426   1.068
 8836SOL    HW127407   4.102   1.477   1.104
 8836SOL    HW227408   4.178   1.332   1.103
 8837SOL     OW27409   4.508   6.199   0.490
 8837SOL    HW127410   4.534   6.249   0.407
 8837SOL    HW227411   4.410   6.210   0.507
 8838SOL     OW27412   1.838   3.407   3.536
 8838SOL    HW127413   1.881   3.377   3.621
 8838SOL    HW227414   1.742   3.377   3.535
 8839SOL     OW27415   5.016   5.261   1.441
 8839SOL    HW127416   5.086   5.320   1.401
 8839SOL    HW227417   4.946   5.318   1.485
 8840SOL     OW27418   6.621   1.142   0.641
 8840SOL    HW127419   6.633   1.047   0.667
 8840SOL    HW227420   6.646   1.201   0.718
 8841SOL     OW27421   3.317   1.148   0.680
 8841SOL    HW127422   3.224   1.143   0.716
 8841SOL    HW227423   3.367   1.065   0.707
 8842SOL     OW27424   3.588   3.280   4.133
 8842SOL    HW127425   3.610   3.276   4.231
 8842SOL    HW227426   3.556   3.372   4.110
 8843SOL     OW27427   2.929   5.585   5.054
 8843SOL    HW127428   2.988   5.506   5.038
 8843SOL    HW227429   2.897   5.584   5.149
 8844SOL     OW27430   3.631   2.681   5.900
 8844SOL    HW127431   3.619   2.780   5.888
 8844SOL    HW227432   3.638   2.637   5.811
 8845SOL     OW27433   0.983   3.552   1.623
 8845SOL    HW127434   1.058   3.563   1.689
 8845SOL    HW227435   0.915   3.623   1.637
 8846SOL     OW27436   5.885   4.652   4.433
 8846SOL    HW127437   5.788   4.655   4.455
 8846SOL    HW227438   5.920   4.559   4.442
 8847SOL     OW27439   1.000   2.114   3.891
 8847SOL    HW127440   1.050   2.028   3.885
 8847SOL    HW227441   0.915   2.106   3.839
 8848SOL     OW27442   6.303   1.493   0.647
 8848SOL    HW127443   6.217   1.459   0.685
 8848SOL    HW227444   6.349   1.419   0.598
 8849SOL     OW27445   3.622   5.204   4.270
 8849SOL    HW127446   3.613   5.115   4.316
 8849SOL    HW227447   3.551   5.212   4.200
 8850SOL     OW27448   2.570   1.628   1.487
 8850SOL    HW127449   2.481   1.671   1.474
 8850SOL    HW227450   2.616   1.668   1.566
 8851SOL     OW27451   7.004   5.322   2.853
 8851SOL    HW127452   6.912   5.322   2.812
 8851SOL    HW227453   0.023   5.413   2.843
 8852SOL     OW27454   5.325   2.866   4.715
 8852SOL    HW127455   5.244   2.894   4.766
 8852SOL    HW227456   5.405   2.914   4.749
 8853SOL     OW27457   4.808   1.943   5.679
 8853SOL    HW127458   4.907   1.953   5.671
 8853SOL    HW227459   4.772   1.901   5.596
 8854SOL     OW27460   1.649   0.706   6.194
 8854SOL    HW127461   1.729   0.744   6.147
 8854SOL    HW227462   1.670   0.693   6.291
 8855SOL     OW27463   6.461   5.188   6.428
 8855SOL    HW127464   6.538   5.131   6.397
 8855SOL    HW227465   6.460   5.191   6.528
 8856SOL     OW27466   4.960   0.890   5.277
 8856SOL    HW127467   5.048   0.855   5.245
 8856SOL    HW227468   4.934   0.969   5.222
 8857SOL     OW27469   0.789   3.214   4.426
 8857SOL    HW127470   0.886   3.233   4.409
 8857SOL    HW227471   0.753   3.157   4.352
 8858SOL     OW27472   6.799   4.118   5.556
 8858SOL    HW127473   6.777   4.206   5.597
 8858SOL    HW227474   6.726   4.091   5.493
 8859SOL     OW27475   3.012   5.989   5.114
 8859SOL    HW127476   2.975   6.078   5.089
 8859SOL    HW227477   3.093   5.969   5.058
 8860SOL     OW27478   1.350   1.993   1.281
 8860SOL    HW127479   1.432   1.950   1.242
 8860SOL    HW227480   1.278   1.997   1.212
 8861SOL     OW27481   2.255   2.772   1.361
 8861SOL    HW127482   2.193   2.694   1.350
 8861SOL    HW227483   2.269   2.817   1.273
 8862SOL     OW27484   6.503   2.266   5.205
 8862SOL    HW127485   6.461   2.267   5.115
 8862SOL    HW227486   6.509   2.359   5.241
 8863SOL     OW27487   1.487   5.574   5.066
 8863SOL    HW127488   1.502   5.476   5.078
 8863SOL    HW227489   1.398   5.600   5.103
 8864SOL     OW27490   1.250   4.006   5.995
 8864SOL    HW127491   1.210   3.928   5.946
 8864SOL    HW227492   1.275   4.077   5.929
 8865SOL     OW27493   2.336   2.362   5.595
 8865SOL    HW127494   2.387   2.444   5.619
 8865SOL    HW227495   2.387   2.281   5.626
 8866SOL     OW27496   4.705   6.754   5.734
 8866SOL    HW127497   4.644   6.832   5.719
 8866SOL    HW227498   4.674   6.703   5.814
 8867SOL     OW27499   6.626   1.191   4.093
 8867SOL    HW127500   6.549   1.163   4.036
 8867SOL    HW227501   6.621   1.289   4.110
 8868SOL     OW27502   4.820   3.380   1.059
 8868SOL    HW127503   4.769   3.321   0.996
 8868SOL    HW227504   4.881   3.324   1.115
 8869SOL     OW27505   4.235   2.373   3.555
 8869SOL    HW127506   4.141   2.339   3.548
 8869SOL    HW227507   4.247   2.417   3.644
 8870SOL     OW27508   4.693   1.178   2.055
 8870SOL    HW127509   4.601   1.167   2.092
 8870SOL    HW227510   4.731   1.088   2.034
 8871SOL     OW27511   1.293   2.723   4.689
 8871SOL    HW127512   1.353   2.683   4.620
 8871SOL    HW227513   1.347   2.780   4.751
 8872SOL     OW27514   1.862   3.119   2.432
 8872SOL    HW127515   1.822   3.128   2.341
 8872SOL    HW227516   1.918   3.036   2.436
 8873SOL     OW27517   0.056   5.702   5.059
 8873SOL    HW127518   6.986   5.727   5.027
 8873SOL    HW227519   0.049   5.648   5.143
 8874SOL     OW27520   0.664   1.264   6.717
 8874SOL    HW127521   0.740   1.206   6.746
 8874SOL    HW227522   0.693   1.321   6.639
 8875SOL     OW27523   1.591   0.936   4.373
 8875SOL    HW127524   1.516   0.994   4.406
 8875SOL    HW227525   1.675   0.958   4.422
 8876SOL     OW27526   2.566   0.515   4.823
 8876SOL    HW127527   2.613   0.496   4.909
 8876SOL    HW227528   2.469   0.529   4.840
 8877SOL     OW27529   3.345   6.700   4.479
 8877SOL    HW127530   3.350   6.789   4.433
 8877SOL    HW227531   3.288   6.637   4.426
 8878SOL     OW27532   5.724   4.768   5.685
 8878SOL    HW127533   5.667   4.758   5.766
 8878SOL    HW227534   5.817   4.736   5.705
 8879SOL     OW27535   4.913   5.724   4.808
 8879SOL    HW127536   4.841   5.654   4.800
 8879SOL    HW227537   4.939   5.755   4.716
 8880SOL     OW27538   0.056   5.958   5.292
 8880SOL    HW127539   0.102   5.881   5.335
 8880SOL    HW227540   0.106   5.985   5.209
 8881SOL     OW27541   6.868   0.655   1.626
 8881SOL    HW127542   6.956   0.619   1.594
 8881SOL    HW227543   6.871   0.669   1.725
 8882SOL     OW27544   5.355   2.467   6.859
 8882SOL    HW127545   5.451   2.443   6.843
 8882SOL    HW227546   5.307   2.473   6.772
 8883SOL     OW27547   0.307   1.551   5.507
 8883SOL    HW127548   0.284   1.573   5.412
 8883SOL    HW227549   0.224   1.521   5.555
 8884SOL     OW27550   6.993   0.966   5.532
 8884SOL    HW127551   6.906   1.014   5.548
 8884SOL    HW227552   0.047   1.021   5.567
 8885SOL     OW27553   5.561   3.519   1.712
 8885SOL    HW127554   5.581   3.421   1.704
 8885SOL    HW227555   5.465   3.531   1.738
 8886SOL     OW27556   2.994   5.749   6.030
 8886SOL    HW127557   2.954   5.751   6.122
 8886SOL    HW227558   2.976   5.837   5.984
 8887SOL     OW27559   1.623   0.190   1.319
 8887SOL    HW127560   1.566   0.239   1.254
 8887SOL    HW227561   1.710   0.166   1.277
 8888SOL     OW27562   3.443   2.148   3.449
 8888SOL    HW127563   3.536   2.112   3.437
 8888SOL    HW227564   3.440   2.205   3.531
 8889SOL     OW27565   3.528   0.208   5.082
 8889SOL    HW127566   3.476   0.164   5.009
 8889SOL    HW227567   3.474   0.284   5.120
 8890SOL     OW27568   0.752   4.093   3.642
 8890SOL    HW127569   0.690   4.107   3.565
 8890SOL    HW227570   0.823   4.028   3.617
 8891SOL     OW27571   2.436   1.777   5.925
 8891SOL    HW127572   2.359   1.779   5.862
 8891SOL    HW227573   2.446   1.866   5.969
 8892SOL     OW27574   1.090   6.787   2.768
 8892SOL    HW127575   1.036   6.708   2.739
 8892SOL    HW227576   1.097   6.852   2.693
 8893SOL     OW27577   0.053   0.623   0.972
 8893SOL    HW127578   0.145   0.637   0.935
 8893SOL    HW227579   0.052   0.644   1.069
 8894SOL     OW27580   4.263   2.555   6.465
 8894SOL    HW127581   4.329   2.552   6.541
 8894SOL    HW227582   4.313   2.554   6.379
 8895SOL     OW27583   1.621   0.921   2.150
 8895SOL    HW127584   1.524   0.943   2.140
 8895SOL    HW227585   1.667   0.997   2.196
 8896SOL     OW27586   2.359   4.275   4.658
 8896SOL    HW127587   2.323   4.218   4.732
 8896SOL    HW227588   2.354   4.225   4.572
 8897SOL     OW27589   1.081   2.559   1.426
 8897SOL    HW127590   1.038   2.545   1.515
 8897SOL    HW227591   1.014   2.542   1.353
 8898SOL     OW27592   6.753   3.110   4.863
 8898SOL    HW127593   6.669   3.111   4.919
 8898SOL    HW227594   6.785   3.204   4.850
 8899SOL     OW27595   3.470   4.759   0.658
 8899SOL    HW127596   3.481   4.672   0.610
 8899SOL    HW227597   3.479   4.744   0.756
 8900SOL     OW27598   6.859   1.656   3.363
 8900SOL    HW127599   6.830   1.577   3.309
 8900SOL    HW227600   6.902   1.724   3.304
 8901SOL     OW27601   2.015   0.005   1.941
 8901SOL    HW127602   1.947   0.065   1.900
 8901SOL    HW227603   2.104   0.050   1.941
 8902SOL     OW27604   3.228   5.930   4.985
 8902SOL    HW127605   3.239   6.014   4.932
 8902SOL    HW227606   3.316   5.881   4.988
 8903SOL     OW27607   0.654   0.785   3.623
 8903SOL    HW127608   0.565   0.803   3.581
 8903SOL    HW227609   0.726   0.804   3.557
 8904SOL     OW27610   1.397   5.370   3.081
 8904SOL    HW127611   1.440   5.280   3.077
 8904SOL    HW227612   1.417   5.413   3.169
 8905SOL     OW27613   2.207   4.154   4.882
 8905SOL    HW127614   2.117   4.134   4.843
 8905SOL    HW227615   2.232   4.082   4.946
 8906SOL     OW27616   1.575   5.207   4.725
 8906SOL    HW127617   1.618   5.274   4.786
 8906SOL    HW227618   1.584   5.116   4.764
 8907SOL     OW27619   4.022   2.979   5.728
 8907SOL    HW127620   4.036   3.049   5.658
 8907SOL    HW227621   3.932   2.992   5.771
 8908SOL     OW27622   0.238   2.716   2.410
 8908SOL    HW127623   0.205   2.659   2.336
 8908SOL    HW227624   0.336   2.734   2.397
 8909SOL     OW27625   2.323   0.008   5.506
 8909SOL    HW127626   2.260   6.971   5.558
 8909SOL    HW227627   2.354   6.979   5.424
 8910SOL     OW27628   3.999   2.980   6.581
 8910SOL    HW127629   4.061   2.911   6.619
 8910SOL    HW227630   3.949   3.024   6.655
 8911SOL     OW27631   4.750   2.204   3.894
 8911SOL    HW127632   4.668   2.146   3.897
 8911SOL    HW227633   4.726   2.298   3.917
 8912SOL     OW27634   5.611   1.729   6.528
 8912SOL    HW127635   5.667   1.732   6.444
 8912SOL    HW227636   5.594   1.634   6.553
 8913SOL     OW27637   4.720   4.184   0.791
 8913SOL    HW127638   4.634   4.140   0.768
 8913SOL    HW227639   4.703   4.256   0.858
 8914SOL     OW27640   4.707   1.792   3.371
 8914SOL    HW127641   4.711   1.859   3.445
 8914SOL    HW227642   4.634   1.726   3.389
 8915SOL     OW27643   1.060   5.609   2.096
 8915SOL    HW127644   1.023   5.701   2.082
 8915SOL    HW227645   1.121   5.610   2.176
 8916SOL     OW27646   6.150   3.321   2.419
 8916SOL    HW127647   6.119   3.383   2.348
 8916SOL    HW227648   6.250   3.318   2.419
 8917SOL     OW27649   5.493   5.648   5.446
 8917SOL    HW127650   5.480   5.549   5.445
 8917SOL    HW227651   5.590   5.670   5.440
 8918SOL     OW27652   4.864   4.159   6.007
 8918SOL    HW127653   4.954   4.145   5.966
 8918SOL    HW227654   4.833   4.075   6.050
 8919SOL     OW27655   2.400   3.827   1.384
 8919SOL    HW127656   2.361   3.755   1.326
 8919SOL    HW227657   2.437   3.900   1.327
 8920SOL     OW27658   6.395   5.113   5.572
 8920SOL    HW127659   6.368   5.205   5.546
 8920SOL    HW227660   6.448   5.072   5.498
 8921SOL     OW27661   1.395   5.256   3.474
 8921SOL    HW127662   1.361   5.165   3.497
 8921SOL    HW227663   1.461   5.286   3.542
 8922SOL     OW27664   6.446   4.376   6.956
 8922SOL    HW127665   6.370   4.415   6.905
 8922SOL    HW227666   6.417   4.292   7.001
 8923SOL     OW27667   2.039   3.944   4.600
 8923SOL    HW127668   1.974   3.895   4.660
 8923SOL    HW227669   2.007   4.038   4.586
 8924SOL     OW27670   2.718   5.654   5.230
 8924SOL    HW127671   2.644   5.602   5.188
 8924SOL    HW227672   2.734   5.738   5.178
 8925SOL     OW27673   5.121   6.053   1.763
 8925SOL    HW127674   5.094   5.959   1.741
 8925SOL    HW227675   5.101   6.112   1.685
 8926SOL     OW27676   5.065   0.843   6.958
 8926SOL    HW127677   5.143   0.783   6.941
 8926SOL    HW227678   5.029   0.826   0.028
 8927SOL     OW27679   2.386   1.634   4.250
 8927SOL    HW127680   2.342   1.707   4.301
 8927SOL    HW227681   2.483   1.657   4.236
 8928SOL     OW27682   1.026   7.013   3.840
 8928SOL    HW127683   1.119   6.984   3.816
 8928SOL    HW227684   0.980   0.026   3.758
 8929SOL     OW27685   5.367   4.575   3.977
 8929SOL    HW127686   5.441   4.643   3.972
 8929SOL    HW227687   5.368   4.519   3.895
 8930SOL     OW27688   1.366   4.787   4.851
 8930SOL    HW127689   1.308   4.717   4.809
 8930SOL    HW227690   1.318   4.875   4.850
 8931SOL     OW27691   5.200   1.217   1.601
 8931SOL    HW127692   5.184   1.218   1.502
 8931SOL    HW227693   5.221   1.310   1.632
 8932SOL     OW27694   6.047   0.736   0.093
 8932SOL    HW127695   6.088   0.663   0.149
 8932SOL    HW227696   6.032   0.702   0.000
 8933SOL     OW27697   1.422   0.463   5.601
 8933SOL    HW127698   1.351   0.393   5.589
 8933SOL    HW227699   1.379   0.551   5.619
 8934SOL     OW27700   4.306   6.939   3.371
 8934SOL    HW127701   4.375   6.944   3.299
 8934SOL    HW227702   4.346   6.971   3.457
 8935SOL     OW27703   6.078   1.840   2.429
 8935SOL    HW127704   6.157   1.890   2.394
 8935SOL    HW227705   5.995   1.894   2.413
 8936SOL     OW27706   1.927   4.041   3.017
 8936SOL    HW127707   1.852   3.980   3.044
 8936SOL    HW227708   1.896   4.100   2.943
 8937SOL     OW27709   4.156   0.480   5.309
 8937SOL    HW127710   4.067   0.498   5.350
 8937SOL    HW227711   4.145   0.454   5.214
 8938SOL     OW27712   5.833   6.617   1.627
 8938SOL    HW127713   5.826   6.538   1.567
 8938SOL    HW227714   5.859   6.698   1.573
 8939SOL     OW27715   0.460   2.707   4.720
 8939SOL    HW127716   0.557   2.701   4.695
 8939SOL    HW227717   0.411   2.758   4.649
 8940SOL     OW27718   6.334   2.870   1.839
 8940SOL    HW127719   6.422   2.877   1.886
 8940SOL    HW227720   6.264   2.916   1.894
 8941SOL     OW27721   5.494   2.143   3.152
 8941SOL    HW127722   5.541   2.129   3.065
 8941SOL    HW227723   5.468   2.239   3.162
 8942SOL     OW27724   4.838   4.359   4.024
 8942SOL    HW127725   4.798   4.450   4.017
 8942SOL    HW227726   4.936   4.364   4.005
 8943SOL     OW27727   4.358   2.576   0.881
 8943SOL    HW127728   4.310   2.495   0.849
 8943SOL    HW227729   4.381   2.565   0.978
 8944SOL     OW27730   4.744   5.571   5.194
 8944SOL    HW127731   4.709   5.581   5.100
 8944SOL    HW227732   4.691   5.629   5.256
 8945SOL     OW27733   5.773   3.961   2.536
 8945SOL    HW127734   5.687   3.954   2.485
 8945SOL    HW227735   5.755   3.998   2.627
 8946SOL     OW27736   4.300   1.419   4.947
 8946SOL    HW127737   4.222   1.482   4.946
 8946SOL    HW227738   4.329   1.401   4.853
 8947SOL     OW27739   2.087   4.613   0.271
 8947SOL    HW127740   2.064   4.575   0.361
 8947SOL    HW227741   2.109   4.710   0.282
 8948SOL     OW27742   5.263   0.612   2.772
 8948SOL    HW127743   5.176   0.661   2.770
 8948SOL    HW227744   5.247   0.517   2.800
 8949SOL     OW27745   3.434   6.090   0.558
 8949SOL    HW127746   3.483   6.004   0.565
 8949SOL    HW227747   3.419   6.113   0.461
 8950SOL     OW27748   3.208   3.588   2.572
 8950SOL    HW127749   3.215   3.497   2.611
 8950SOL    HW227750   3.293   3.639   2.589
 8951SOL     OW27751   0.882   0.457   4.254
 8951SOL    HW127752   0.845   0.418   4.170
 8951SOL    HW227753   0.811   0.457   4.325
 8952SOL     OW27754   1.900   4.565   4.454
 8952SOL    HW127755   1.954   4.613   4.385
 8952SOL    HW227756   1.839   4.500   4.409
 8953SOL     OW27757   0.909   4.681   1.453
 8953SOL    HW127758   0.823   4.630   1.456
 8953SOL    HW227759   0.919   4.734   1.537
 8954SOL     OW27760   2.039   4.087   5.490
 8954SOL    HW127761   2.110   4.040   5.438
 8954SOL    HW227762   2.069   4.097   5.585
 8955SOL     OW27763   5.739   2.944   5.194
 8955SOL    HW127764   5.682   2.993   5.260
 8955SOL    HW227765   5.682   2.894   5.130
 8956SOL     OW27766   0.778   6.080   0.990
 8956SOL    HW127767   0.842   6.122   1.055
 8956SOL    HW227768   0.802   6.108   0.897
 8957SOL     OW27769   1.171   6.343   2.539
 8957SOL    HW127770   1.253   6.398   2.554
 8957SOL    HW227771   1.175   6.300   2.449
 8958SOL     OW27772   0.863   4.202   4.539
 8958SOL    HW127773   0.844   4.145   4.459
 8958SOL    HW227774   0.783   4.203   4.599
 8959SOL     OW27775   5.829   1.906   4.231
 8959SOL    HW127776   5.833   1.855   4.145
 8959SOL    HW227777   5.734   1.913   4.262
 8960SOL     OW27778   5.178   5.260   3.008
 8960SOL    HW127779   5.205   5.265   3.104
 8960SOL    HW227780   5.175   5.165   2.978
 8961SOL     OW27781   2.717   1.702   4.787
 8961SOL    HW127782   2.750   1.789   4.822
 8961SOL    HW227783   2.795   1.643   4.766
 8962SOL     OW27784   6.217   5.558   2.263
 8962SOL    HW127785   6.211   5.459   2.260
 8962SOL    HW227786   6.147   5.594   2.326
 8963SOL     OW27787   2.996   6.554   6.286
 8963SOL    HW127788   2.897   6.567   6.292
 8963SOL    HW227789   3.042   6.634   6.324
 8964SOL     OW27790   2.150   3.040   3.797
 8964SOL    HW127791   2.225   3.004   3.742
 8964SOL    HW227792   2.180   3.056   3.890
 8965SOL     OW27793   4.229   5.781   0.541
 8965SOL    HW127794   4.219   5.739   0.632
 8965SOL    HW227795   4.248   5.709   0.474
 8966SOL     OW27796   5.282   0.140   5.352
 8966SOL    HW127797   5.215   0.066   5.342
 8966SOL    HW227798   5.373   0.100   5.366
 8967SOL     OW27799   3.181   0.200   3.599
 8967SOL    HW127800   3.107   0.135   3.578
 8967SOL    HW227801   3.153   0.258   3.676
 8968SOL     OW27802   3.559   4.911   2.222
 8968SOL    HW127803   3.502   4.891   2.301
 8968SOL    HW227804   3.504   4.903   2.139
 8969SOL     OW27805   0.069   0.745   2.743
 8969SOL    HW127806   0.033   0.832   2.776
 8969SOL    HW227807   7.015   0.686   2.714
 8970SOL     OW27808   1.915   1.215   3.463
 8970SOL    HW127809   1.908   1.237   3.366
 8970SOL    HW227810   1.989   1.268   3.504
 8971SOL     OW27811   3.322   4.133   1.206
 8971SOL    HW127812   3.303   4.065   1.135
 8971SOL    HW227813   3.293   4.223   1.174
 8972SOL     OW27814   5.085   3.921   6.679
 8972SOL    HW127815   4.998   3.887   6.715
 8972SOL    HW227816   5.136   3.845   6.638
 8973SOL     OW27817   2.704   2.402   3.087
 8973SOL    HW127818   2.624   2.365   3.040
 8973SOL    HW227819   2.780   2.408   3.023
 8974SOL     OW27820   2.094   4.386   3.943
 8974SOL    HW127821   2.093   4.413   4.039
 8974SOL    HW227822   2.002   4.398   3.904
 8975SOL     OW27823   6.833   4.515   5.844
 8975SOL    HW127824   6.918   4.559   5.814
 8975SOL    HW227825   6.791   4.569   5.916
 8976SOL     OW27826   6.057   0.108   2.049
 8976SOL    HW127827   6.078   0.198   2.012
 8976SOL    HW227828   6.084   0.104   2.145
 8977SOL     OW27829   6.845   4.555   6.738
 8977SOL    HW127830   6.895   4.549   6.652
 8977SOL    HW227831   6.759   4.605   6.724
 8978SOL     OW27832   6.083   5.681   6.067
 8978SOL    HW127833   6.045   5.592   6.044
 8978SOL    HW227834   6.010   5.742   6.098
 8979SOL     OW27835   1.804   5.351   3.676
 8979SOL    HW127836   1.754   5.275   3.636
 8979SOL    HW227837   1.843   5.323   3.763
 8980SOL     OW27838   3.743   0.823   0.150
 8980SOL    HW127839   3.718   0.754   0.218
 8980SOL    HW227840   3.688   0.906   0.166
 8981SOL     OW27841   3.938   2.208   6.564
 8981SOL    HW127842   3.861   2.198   6.627
 8981SOL    HW227843   3.936   2.134   6.497
 8982SOL     OW27844   0.335   1.054   1.599
 8982SOL    HW127845   0.395   0.999   1.540
 8982SOL    HW227846   0.241   1.022   1.590
 8983SOL     OW27847   1.631   6.932   2.369
 8983SOL    HW127848   1.662   6.878   2.290
 8983SOL    HW227849   1.703   6.998   2.393
 8984SOL     OW27850   6.978   1.424   4.879
 8984SOL    HW127851   6.959   1.331   4.909
 8984SOL    HW227852   0.040   1.457   4.925
 8985SOL     OW27853   4.810   1.349   2.691
 8985SOL    HW127854   4.785   1.440   2.658
 8985SOL    HW227855   4.728   1.291   2.695
 8986SOL     OW27856   0.229   5.566   0.383
 8986SOL    HW127857   0.207   5.476   0.419
 8986SOL    HW227858   0.146   5.622   0.379
 8987SOL     OW27859   2.328   6.864   1.607
 8987SOL    HW127860   2.385   6.842   1.686
 8987SOL    HW227861   2.235   6.886   1.637
 8988SOL     OW27862   2.975   0.063   1.126
 8988SOL    HW127863   2.902   7.021   1.151
 8988SOL    HW227864   3.001   0.117   1.207
 8989SOL     OW27865   5.888   1.559   2.578
 8989SOL    HW127866   5.943   1.625   2.629
 8989SOL    HW227867   5.855   1.601   2.493
 8990SOL     OW27868   3.230   0.901   2.972
 8990SOL    HW127869   3.188   0.895   3.062
 8990SOL    HW227870   3.251   0.997   2.951
 8991SOL     OW27871   1.326   2.765   0.787
 8991SOL    HW127872   1.417   2.769   0.747
 8991SOL    HW227873   1.260   2.805   0.724
 8992SOL     OW27874   6.369   4.303   6.330
 8992SOL    HW127875   6.404   4.271   6.242
 8992SOL    HW227876   6.301   4.375   6.315
 8993SOL     OW27877   5.743   4.525   4.715
 8993SOL    HW127878   5.708   4.433   4.733
 8993SOL    HW227879   5.711   4.556   4.626
 8994SOL     OW27880   1.327   6.219   2.770
 8994SOL    HW127881   1.275   6.244   2.851
 8994SOL    HW227882   1.300   6.278   2.694
 8995SOL     OW27883   2.180   4.031   4.398
 8995SOL    HW127884   2.138   3.999   4.483
 8995SOL    HW227885   2.109   4.068   4.337
 8996SOL     OW27886   1.934   3.728   1.343
 8996SOL    HW127887   2.025   3.712   1.379
 8996SOL    HW227888   1.886   3.795   1.400
 8997SOL     OW27889   4.431   1.372   5.477
 8997SOL    HW127890   4.389   1.409   5.395
 8997SOL    HW227891   4.360   1.337   5.538
 8998SOL     OW27892   0.510   1.566   6.102
 8998SOL    HW127893   0.574   1.503   6.058
 8998SOL    HW227894   0.451   1.516   6.165
 8999SOL     OW27895   5.284   2.620   5.540
 8999SOL    HW127896   5.208   2.668   5.496
 8999SOL    HW227897   5.336   2.684   5.596
 9000SOL     OW27898   3.500   5.036   0.869
 9000SOL    HW127899   3.573   4.981   0.827
 9000SOL    HW227900   3.464   4.988   0.949
 9001SOL     OW27901   2.020   4.254   3.499
 9001SOL    HW127902   2.008   4.206   3.586
 9001SOL    HW227903   2.112   4.293   3.495
 9002SOL     OW27904   5.505   4.098   5.399
 9002SOL    HW127905   5.577   4.097   5.330
 9002SOL    HW227906   5.513   4.017   5.457
 9003SOL     OW27907   6.449   3.248   6.460
 9003SOL    HW127908   6.412   3.220   6.549
 9003SOL    HW227909   6.425   3.181   6.390
 9004SOL     OW27910   5.006   5.439   0.878
 9004SOL    HW127911   5.074   5.367   0.868
 9004SOL    HW227912   4.934   5.410   0.941
 9005SOL     OW27913   5.184   2.718   3.587
 9005SOL    HW127914   5.245   2.740   3.663
 9005SOL    HW227915   5.103   2.671   3.622
 9006SOL     OW27916   2.316   6.887   1.081
 9006SOL    HW127917   2.376   6.812   1.107
 9006SOL    HW227918   2.357   6.940   1.007
 9007SOL     OW27919   2.215   5.953   4.769
 9007SOL    HW127920   2.278   5.909   4.705
 9007SOL    HW227921   2.134   5.896   4.782
 9008SOL     OW27922   0.672   4.177   2.649
 9008SOL    HW127923   0.713   4.155   2.560
 9008SOL    HW227924   0.687   4.273   2.670
 9009SOL     OW27925   4.534   6.293   0.051
 9009SOL    HW127926   4.457   6.332   0.001
 9009SOL    HW227927   4.508   6.205   0.091
 9010SOL     OW27928   0.183   5.404   4.807
 9010SOL    HW127929   0.192   5.501   4.827
 9010SOL    HW227930   0.241   5.381   4.729
 9011SOL     OW27931   4.520   2.212   2.636
 9011SOL    HW127932   4.593   2.281   2.634
 9011SOL    HW227933   4.431   2.258   2.634
 9012SOL     OW27934   5.303   5.297   2.288
 9012SOL    HW127935   5.270   5.331   2.376
 9012SOL    HW227936   5.381   5.353   2.257
 9013SOL     OW27937   4.641   6.486   2.693
 9013SOL    HW127938   4.550   6.497   2.655
 9013SOL    HW227939   4.635   6.467   2.791
 9014SOL     OW27940   2.417   0.729   1.176
 9014SOL    HW127941   2.401   0.824   1.151
 9014SOL    HW227942   2.426   0.674   1.093
 9015SOL     OW27943   6.365   1.773   4.740
 9015SOL    HW127944   6.300   1.798   4.812
 9015SOL    HW227945   6.456   1.808   4.764
 9016SOL     OW27946   6.845   5.765   6.171
 9016SOL    HW127947   6.866   5.705   6.248
 9016SOL    HW227948   6.912   5.839   6.168
 9017SOL     OW27949   6.989   3.832   3.189
 9017SOL    HW127950   6.963   3.917   3.235
 9017SOL    HW227951   0.020   3.775   3.253
 9018SOL     OW27952   3.807   1.798   5.984
 9018SOL    HW127953   3.771   1.863   5.916
 9018SOL    HW227954   3.905   1.813   5.996
 9019SOL     OW27955   1.436   5.349   0.063
 9019SOL    HW127956   1.355   5.313   0.018
 9019SOL    HW227957   1.490   5.402   7.019
 9020SOL     OW27958   1.180   4.930   3.918
 9020SOL    HW127959   1.249   4.996   3.889
 9020SOL    HW227960   1.129   4.898   3.839
 9021SOL     OW27961   6.220   5.666   5.287
 9021SOL    HW127962   6.129   5.626   5.293
 9021SOL    HW227963   6.289   5.594   5.280
 9022SOL     OW27964   2.948   6.442   6.738
 9022SOL    HW127965   2.978   6.534   6.713
 9022SOL    HW227966   3.023   6.377   6.724
 9023SOL     OW27967   3.355   3.154   3.543
 9023SOL    HW127968   3.315   3.238   3.577
 9023SOL    HW227969   3.455   3.160   3.548
 9024SOL     OW27970   0.988   0.405   6.494
 9024SOL    HW127971   0.942   0.355   6.567
 9024SOL    HW227972   0.987   0.351   6.410
 9025SOL     OW27973   0.160   3.786   0.266
 9025SOL    HW127974   0.063   3.761   0.262
 9025SOL    HW227975   0.205   3.758   0.181
 9026SOL     OW27976   2.945   3.182   5.608
 9026SOL    HW127977   2.979   3.270   5.640
 9026SOL    HW227978   2.846   3.178   5.620
 9027SOL     OW27979   2.451   2.627   2.543
 9027SOL    HW127980   2.502   2.592   2.622
 9027SOL    HW227981   2.484   2.584   2.460
 9028SOL     OW27982   2.807   4.829   4.439
 9028SOL    HW127983   2.838   4.785   4.354
 9028SOL    HW227984   2.736   4.772   4.482
 9029SOL     OW27985   5.852   5.495   2.688
 9029SOL    HW127986   5.834   5.504   2.590
 9029SOL    HW227987   5.855   5.586   2.730
 9030SOL     OW27988   3.779   2.101   2.255
 9030SOL    HW127989   3.737   2.152   2.179
 9030SOL    HW227990   3.719   2.105   2.334
 9031SOL     OW27991   1.693   1.414   1.180
 9031SOL    HW127992   1.607   1.414   1.231
 9031SOL    HW227993   1.682   1.361   1.096
 9032SOL     OW27994   1.075   2.699   2.823
 9032SOL    HW127995   1.151   2.668   2.766
 9032SOL    HW227996   0.993   2.708   2.767
 9033SOL     OW27997   1.419   3.967   1.636
 9033SOL    HW127998   1.494   3.973   1.703
 9033SOL    HW227999   1.354   4.041   1.653
 9034SOL     OW28000   1.763   6.626   6.867
 9034SOL    HW128001   1.824   6.598   6.793
 9034SOL    HW228002   1.760   6.553   6.936
 9035SOL     OW28003   0.038   0.490   4.448
 9035SOL    HW128004   0.024   0.529   4.358
 9035SOL    HW228005   0.070   0.561   4.511
 9036SOL     OW28006   0.987   1.394   4.056
 9036SOL    HW128007   0.892   1.370   4.075
 9036SOL    HW228008   1.047   1.347   4.121
 9037SOL     OW28009   2.608   3.884   6.029
 9037SOL    HW128010   2.648   3.956   5.972
 9037SOL    HW228011   2.508   3.893   6.029
 9038SOL     OW28012   4.601   6.142   5.134
 9038SOL    HW128013   4.582   6.238   5.113
 9038SOL    HW228014   4.662   6.104   5.064
 9039SOL     OW28015   2.634   4.509   6.714
 9039SOL    HW128016   2.712   4.555   6.670
 9039SOL    HW228017   2.550   4.556   6.690
 9040SOL     OW28018   2.986   1.937   2.294
 9040SOL    HW128019   3.052   2.002   2.256
 9040SOL    HW228020   2.910   1.925   2.230
 9041SOL     OW28021   1.696   3.031   6.493
 9041SOL    HW128022   1.619   3.088   6.523
 9041SOL    HW228023   1.766   3.088   6.450
 9042SOL     OW28024   2.261   5.432   3.360
 9042SOL    HW128025   2.264   5.530   3.340
 9042SOL    HW228026   2.344   5.388   3.326
 9043SOL     OW28027   6.351   2.271   0.597
 9043SOL    HW128028   6.322   2.285   0.692
 9043SOL    HW228029   6.279   2.304   0.535
 9044SOL     OW28030   6.888   4.227   0.598
 9044SOL    HW128031   6.794   4.261   0.596
 9044SOL    HW228032   6.913   4.192   0.508
 9045SOL     OW28033   2.455   5.636   3.819
 9045SOL    HW128034   2.405   5.720   3.840
 9045SOL    HW228035   2.444   5.572   3.895
 9046SOL     OW28036   3.869   4.466   6.036
 9046SOL    HW128037   3.913   4.549   6.002
 9046SOL    HW228038   3.773   4.484   6.056
 9047SOL     OW28039   1.049   4.406   4.564
 9047SOL    HW128040   0.981   4.334   4.550
 9047SOL    HW228041   1.137   4.365   4.589
 9048SOL     OW28042   1.535   2.163   4.835
 9048SOL    HW128043   1.621   2.214   4.828
 9048SOL    HW228044   1.460   2.219   4.798
 9049SOL     OW28045   4.701   6.192   6.639
 9049SOL    HW128046   4.738   6.116   6.585
 9049SOL    HW228047   4.769   6.265   6.645
 9050SOL     OW28048   7.006   5.051   5.494
 9050SOL    HW128049   0.075   5.081   5.524
 9050SOL    HW228050   6.936   5.107   5.541
 9051SOL     OW28051   5.363   6.650   5.903
 9051SOL    HW128052   5.454   6.611   5.905
 9051SOL    HW228053   5.355   6.713   5.825
 9052SOL     OW28054   3.075   5.367   5.020
 9052SOL    HW128055   3.086   5.374   4.921
 9052SOL    HW228056   3.013   5.291   5.042
 9053SOL     OW28057   3.459   1.763   3.172
 9053SOL    HW128058   3.383   1.812   3.215
 9053SOL    HW228059   3.462   1.784   3.074
 9054SOL     OW28060   2.429   0.065   0.918
 9054SOL    HW128061   2.500   0.005   0.881
 9054SOL    HW228062   2.472   0.138   0.972
 9055SOL     OW28063   0.737   2.568   5.019
 9055SOL    HW128064   0.782   2.517   4.946
 9055SOL    HW228065   0.719   2.507   5.096
 9056SOL     OW28066   4.681   2.755   2.698
 9056SOL    HW128067   4.687   2.715   2.789
 9056SOL    HW228068   4.646   2.849   2.705
 9057SOL     OW28069   4.016   6.154   0.157
 9057SOL    HW128070   4.068   6.208   0.224
 9057SOL    HW228071   4.058   6.064   0.147
 9058SOL     OW28072   2.396   2.565   4.422
 9058SOL    HW128073   2.313   2.518   4.394
 9058SOL    HW228074   2.447   2.508   4.486
 9059SOL     OW28075   0.332   1.036   2.377
 9059SOL    HW128076   0.305   0.983   2.458
 9059SOL    HW228077   0.292   1.127   2.383
 9060SOL     OW28078   0.487   5.166   1.270
 9060SOL    HW128079   0.529   5.256   1.256
 9060SOL    HW228080   0.522   5.102   1.202
 9061SOL     OW28081   5.105   4.012   2.322
 9061SOL    HW128082   5.056   3.925   2.327
 9061SOL    HW228083   5.061   4.071   2.254
 9062SOL     OW28084   1.275   5.743   2.974
 9062SOL    HW128085   1.263   5.646   2.997
 9062SOL    HW228086   1.200   5.773   2.916
 9063SOL     OW28087   4.772   1.513   1.740
 9063SOL    HW128088   4.728   1.590   1.787
 9063SOL    HW228089   4.868   1.509   1.766
 9064SOL     OW28090   1.313   5.798   3.272
 9064SOL    HW128091   1.249   5.737   3.318
 9064SOL    HW228092   1.301   5.791   3.173
 9065SOL     OW28093   3.524   4.420   6.389
 9065SOL    HW128094   3.542   4.418   6.488
 9065SOL    HW228095   3.430   4.390   6.371
 9066SOL     OW28096   4.369   5.116   3.992
 9066SOL    HW128097   4.402   5.179   4.062
 9066SOL    HW228098   4.366   5.164   3.904
 9067SOL     OW28099   1.853   6.718   4.441
 9067SOL    HW128100   1.777   6.782   4.447
 9067SOL    HW228101   1.858   6.665   4.526
 9068SOL     OW28102   3.887   0.621   6.349
 9068SOL    HW128103   3.913   0.710   6.313
 9068SOL    HW228104   3.789   0.607   6.336
 9069SOL     OW28105   5.450   2.946   1.917
 9069SOL    HW128106   5.457   2.875   1.847
 9069SOL    HW228107   5.387   3.017   1.887
 9070SOL     OW28108   1.896   1.494   5.490
 9070SOL    HW128109   1.819   1.446   5.532
 9070SOL    HW228110   1.920   1.574   5.545
 9071SOL     OW28111   5.586   2.507   6.380
 9071SOL    HW128112   5.643   2.503   6.298
 9071SOL    HW228113   5.644   2.509   6.461
 9072SOL     OW28114   5.416   0.065   2.403
 9072SOL    HW128115   5.363   0.022   2.330
 9072SOL    HW228116   5.374   0.043   2.491
 9073SOL     OW28117   4.640   2.980   5.389
 9073SOL    HW128118   4.581   2.926   5.329
 9073SOL    HW228119   4.588   3.009   5.470
 9074SOL     OW28120   2.053   1.230   2.844
 9074SOL    HW128121   1.961   1.192   2.833
 9074SOL    HW228122   2.046   1.320   2.887
 9075SOL     OW28123   5.913   6.200   0.316
 9075SOL    HW128124   5.860   6.161   0.391
 9075SOL    HW228125   5.887   6.296   0.303
 9076SOL     OW28126   0.682   6.767   2.492
 9076SOL    HW128127   0.756   6.742   2.428
 9076SOL    HW228128   0.623   6.835   2.450
 9077SOL     OW28129   6.288   1.833   6.654
 9077SOL    HW128130   6.292   1.786   6.742
 9077SOL    HW228131   6.257   1.928   6.668
 9078SOL     OW28132   5.329   0.407   0.071
 9078SOL    HW128133   5.387   0.336   0.030
 9078SOL    HW228134   5.260   0.364   0.129
 9079SOL     OW28135   0.655   1.433   6.505
 9079SOL    HW128136   0.643   1.527   6.534
 9079SOL    HW228137   0.691   1.431   6.412
 9080SOL     OW28138   5.998   4.081   2.265
 9080SOL    HW128139   6.066   4.080   2.338
 9080SOL    HW228140   5.907   4.072   2.304
 9081SOL     OW28141   4.777   1.804   0.700
 9081SOL    HW128142   4.853   1.862   0.730
 9081SOL    HW228143   4.765   1.729   0.765
 9082SOL     OW28144   3.465   5.465   6.227
 9082SOL    HW128145   3.440   5.548   6.177
 9082SOL    HW228146   3.410   5.388   6.194
 9083SOL     OW28147   3.451   6.729   0.603
 9083SOL    HW128148   3.507   6.647   0.610
 9083SOL    HW228149   3.505   6.809   0.630
 9084SOL     OW28150   0.020   3.618   4.970
 9084SOL    HW128151   0.047   3.714   4.982
 9084SOL    HW228152   0.005   3.600   4.873
 9085SOL     OW28153   2.752   5.253   0.324
 9085SOL    HW128154   2.827   5.272   0.261
 9085SOL    HW228155   2.757   5.158   0.355
 9086SOL     OW28156   0.060   3.316   0.558
 9086SOL    HW128157   0.073   3.360   0.469
 9086SOL    HW228158   0.120   3.359   0.626
 9087SOL     OW28159   5.167   1.208   0.991
 9087SOL    HW128160   5.081   1.164   1.018
 9087SOL    HW228161   5.159   1.307   1.003
 9088SOL     OW28162   5.951   5.808   0.357
 9088SOL    HW128163   5.996   5.745   0.293
 9088SOL    HW228164   5.925   5.891   0.308
 9089SOL     OW28165   4.861   5.662   3.774
 9089SOL    HW128166   4.853   5.660   3.675
 9089SOL    HW228167   4.887   5.754   3.804
 9090SOL     OW28168   5.107   5.799   5.852
 9090SOL    HW128169   5.069   5.770   5.940
 9090SOL    HW228170   5.081   5.894   5.833
 9091SOL     OW28171   2.892   2.081   1.918
 9091SOL    HW128172   2.818   2.033   1.966
 9091SOL    HW228173   2.904   2.172   1.958
 9092SOL     OW28174   1.990   1.378   4.995
 9092SOL    HW128175   2.051   1.457   5.003
 9092SOL    HW228176   1.973   1.339   5.085
 9093SOL     OW28177   2.474   3.644   0.964
 9093SOL    HW128178   2.469   3.547   0.939
 9093SOL    HW228179   2.552   3.659   1.024
 9094SOL     OW28180   6.621   4.314   0.611
 9094SOL    HW128181   6.583   4.233   0.567
 9094SOL    HW228182   6.562   4.340   0.688
 9095SOL     OW28183   2.175   3.268   0.118
 9095SOL    HW128184   2.078   3.253   0.140
 9095SOL    HW228185   2.194   3.366   0.119
 9096SOL     OW28186   6.219   3.321   3.086
 9096SOL    HW128187   6.293   3.260   3.114
 9096SOL    HW228188   6.131   3.279   3.107
 9097SOL     OW28189   6.655   5.496   5.800
 9097SOL    HW128190   6.627   5.401   5.808
 9097SOL    HW228191   6.666   5.535   5.892
 9098SOL     OW28192   3.597   3.745   4.449
 9098SOL    HW128193   3.541   3.721   4.528
 9098SOL    HW228194   3.690   3.712   4.463
 9099SOL     OW28195   2.127   2.339   0.517
 9099SOL    HW128196   2.109   2.353   0.615
 9099SOL    HW228197   2.222   2.310   0.505
 9100SOL     OW28198   0.999   2.979   0.270
 9100SOL    HW128199   1.097   2.993   0.258
 9100SOL    HW228200   0.950   3.013   0.189
 9101SOL     OW28201   2.064   2.372   6.841
 9101SOL    HW128202   1.974   2.400   6.807
 9101SOL    HW228203   2.057   2.281   6.882
 9102SOL     OW28204   5.078   6.658   2.565
 9102SOL    HW128205   5.008   6.663   2.635
 9102SOL    HW228206   5.116   6.565   2.563
 9103SOL     OW28207   0.308   4.096   6.313
 9103SOL    HW128208   0.382   4.141   6.363
 9103SOL    HW228209   0.229   4.085   6.374
 9104SOL     OW28210   5.239   0.189   1.819
 9104SOL    HW128211   5.336   0.203   1.840
 9104SOL    HW228212   5.222   0.210   1.723
 9105SOL     OW28213   2.451   1.667   5.592
 9105SOL    HW128214   2.404   1.584   5.621
 9105SOL    HW228215   2.441   1.738   5.662
 9106SOL     OW28216   6.617   5.102   1.549
 9106SOL    HW128217   6.647   5.197   1.560
 9106SOL    HW228218   6.695   5.041   1.559
 9107SOL     OW28219   4.742   0.326   1.301
 9107SOL    HW128220   4.686   0.392   1.352
 9107SOL    HW228221   4.717   0.329   1.204
 9108SOL     OW28222   3.952   6.128   6.910
 9108SOL    HW128223   3.854   6.151   6.904
 9108SOL    HW228224   3.984   6.142   7.003
 9109SOL     OW28225   2.713   1.608   4.441
 9109SOL    HW128226   2.654   1.608   4.521
 9109SOL    HW228227   2.807   1.585   4.469
 9110SOL     OW28228   1.355   2.786   2.955
 9110SOL    HW128229   1.274   2.730   2.976
 9110SOL    HW228230   1.345   2.876   2.998
 9111SOL     OW28231   4.326   4.025   1.710
 9111SOL    HW128232   4.253   3.964   1.741
 9111SOL    HW228233   4.345   4.092   1.782
 9112SOL     OW28234   0.454   4.962   2.351
 9112SOL    HW128235   0.552   4.957   2.333
 9112SOL    HW228236   0.403   4.908   2.284
 9113SOL     OW28237   3.707   6.215   0.061
 9113SOL    HW128238   3.705   6.305   0.019
 9113SOL    HW228239   3.764   6.217   0.143
 9114SOL     OW28240   2.516   4.370   1.814
 9114SOL    HW128241   2.455   4.370   1.893
 9114SOL    HW228242   2.468   4.404   1.734
 9115SOL     OW28243   1.832   4.308   3.866
 9115SOL    HW128244   1.863   4.334   3.775
 9115SOL    HW228245   1.759   4.369   3.896
 9116SOL     OW28246   1.889   1.347   6.017
 9116SOL    HW128247   1.909   1.423   6.080
 9116SOL    HW228248   1.887   1.261   6.068
 9117SOL     OW28249   6.457   2.408   6.780
 9117SOL    HW128250   6.528   2.444   6.841
 9117SOL    HW228251   6.490   2.326   6.735
 9118SOL     OW28252   0.106   5.746   1.536
 9118SOL    HW128253   0.078   5.808   1.463
 9118SOL    HW228254   0.115   5.654   1.499
 9119SOL     OW28255   6.317   6.815   1.162
 9119SOL    HW128256   6.279   6.905   1.183
 9119SOL    HW228257   6.247   6.759   1.117
 9120SOL     OW28258   5.354   1.240   6.349
 9120SOL    HW128259   5.274   1.297   6.369
 9120SOL    HW228260   5.432   1.271   6.403
 9121SOL     OW28261   1.670   0.882   6.784
 9121SOL    HW128262   1.756   0.879   6.731
 9121SOL    HW228263   1.593   0.893   6.721
 9122SOL     OW28264   0.572   2.491   0.924
 9122SOL    HW128265   0.622   2.544   0.992
 9122SOL    HW228266   0.618   2.498   0.836
 9123SOL     OW28267   2.891   5.693   0.154
 9123SOL    HW128268   2.850   5.761   0.094
 9123SOL    HW228269   2.823   5.623   0.176
 9124SOL     OW28270   6.071   5.025   5.617
 9124SOL    HW128271   6.037   4.943   5.664
 9124SOL    HW228272   6.148   5.000   5.559
 9125SOL     OW28273   4.831   6.281   2.548
 9125SOL    HW128274   4.754   6.337   2.517
 9125SOL    HW228275   4.818   6.187   2.517
 9126SOL     OW28276   6.039   0.857   2.226
 9126SOL    HW128277   6.003   0.868   2.319
 9126SOL    HW228278   5.969   0.815   2.168
 9127SOL     OW28279   4.953   0.471   6.689
 9127SOL    HW128280   5.046   0.480   6.656
 9127SOL    HW228281   4.891   0.520   6.628
 9128SOL     OW28282   4.701   2.682   5.167
 9128SOL    HW128283   4.728   2.607   5.228
 9128SOL    HW228284   4.699   2.649   5.073
 9129SOL     OW28285   1.896   2.025   6.187
 9129SOL    HW128286   1.943   2.112   6.202
 9129SOL    HW228287   1.819   2.040   6.124
 9130SOL     OW28288   6.004   5.242   0.799
 9130SOL    HW128289   6.040   5.305   0.731
 9130SOL    HW228290   5.978   5.156   0.755
 9131SOL     OW28291   0.560   4.273   4.301
 9131SOL    HW128292   0.604   4.187   4.329
 9131SOL    HW228293   0.628   4.347   4.305
 9132SOL     OW28294   0.798   3.055   4.761
 9132SOL    HW128295   0.793   3.122   4.835
 9132SOL    HW228296   0.812   3.103   4.674
 9133SOL     OW28297   1.487   4.254   1.257
 9133SOL    HW128298   1.564   4.209   1.212
 9133SOL    HW228299   1.418   4.280   1.189
 9134SOL     OW28300   3.136   5.426   6.239
 9134SOL    HW128301   3.215   5.472   6.278
 9134SOL    HW228302   3.052   5.461   6.282
 9135SOL     OW28303   6.730   6.258   4.213
 9135SOL    HW128304   6.640   6.300   4.227
 9135SOL    HW228305   6.718   6.169   4.170
 9136SOL     OW28306   4.619   4.448   5.588
 9136SOL    HW128307   4.711   4.458   5.550
 9136SOL    HW228308   4.619   4.479   5.683
 9137SOL     OW28309   4.102   1.213   2.399
 9137SOL    HW128310   4.108   1.294   2.341
 9137SOL    HW228311   4.191   1.197   2.442
 9138SOL     OW28312   3.851   5.095   0.316
 9138SOL    HW128313   3.770   5.153   0.309
 9138SOL    HW228314   3.838   5.013   0.259
 9139SOL     OW28315   2.454   1.240   5.966
 9139SOL    HW128316   2.373   1.193   5.932
 9139SOL    HW228317   2.522   1.247   5.893
 9140SOL     OW28318   6.996   2.288   3.853
 9140SOL    HW128319   6.973   2.205   3.904
 9140SOL    HW228320   0.022   2.263   3.768
 9141SOL     OW28321   5.896   0.444   6.021
 9141SOL    HW128322   5.814   0.492   6.055
 9141SOL    HW228323   5.868   0.359   5.976
 9142SOL     OW28324   0.413   3.804   5.921
 9142SOL    HW128325   0.436   3.759   6.008
 9142SOL    HW228326   0.314   3.810   5.912
 9143SOL     OW28327   5.118   3.349   0.703
 9143SOL    HW128328   5.032   3.390   0.732
 9143SOL    HW228329   5.112   3.324   0.607
 9144SOL     OW28330   2.021   4.408   5.137
 9144SOL    HW128331   2.120   4.404   5.131
 9144SOL    HW228332   1.982   4.427   5.047
 9145SOL     OW28333   0.451   4.511   6.381
 9145SOL    HW128334   0.408   4.544   6.297
 9145SOL    HW228335   0.405   4.427   6.412
 9146SOL     OW28336   6.264   1.998   2.322
 9146SOL    HW128337   6.362   1.986   2.335
 9146SOL    HW228338   6.238   2.091   2.348
 9147SOL     OW28339   4.340   5.613   5.896
 9147SOL    HW128340   4.285   5.570   5.968
 9147SOL    HW228341   4.372   5.543   5.832
 9148SOL     OW28342   4.127   6.017   3.092
 9148SOL    HW128343   4.091   6.010   2.999
 9148SOL    HW228344   4.225   6.037   3.088
 9149SOL     OW28345   5.509   3.580   3.957
 9149SOL    HW128346   5.472   3.618   4.042
 9149SOL    HW228347   5.522   3.654   3.890
 9150SOL     OW28348   4.924   1.029   2.938
 9150SOL    HW128349   4.984   1.005   3.014
 9150SOL    HW228350   4.842   1.074   2.973
 9151SOL     OW28351   1.604   3.951   1.845
 9151SOL    HW128352   1.562   3.977   1.933
 9151SOL    HW228353   1.657   3.867   1.858
 9152SOL     OW28354   2.461   5.767   2.730
 9152SOL    HW128355   2.466   5.770   2.830
 9152SOL    HW228356   2.366   5.757   2.701
 9153SOL     OW28357   1.488   3.043   6.050
 9153SOL    HW128358   1.491   3.047   5.950
 9153SOL    HW228359   1.395   3.059   6.082
 9154SOL     OW28360   2.369   5.825   0.273
 9154SOL    HW128361   2.438   5.887   0.235
 9154SOL    HW228362   2.289   5.825   0.212
 9155SOL     OW28363   1.218   3.983   0.757
 9155SOL    HW128364   1.282   3.908   0.742
 9155SOL    HW228365   1.126   3.947   0.770
 9156SOL     OW28366   4.949   2.628   1.435
 9156SOL    HW128367   4.904   2.716   1.449
 9156SOL    HW228368   4.918   2.589   1.348
 9157SOL     OW28369   5.179   3.852   5.496
 9157SOL    HW128370   5.231   3.907   5.562
 9157SOL    HW228371   5.190   3.755   5.518
 9158SOL     OW28372   0.656   4.150   3.934
 9158SOL    HW128373   0.672   4.066   3.985
 9158SOL    HW228374   0.665   4.133   3.836
 9159SOL     OW28375   6.643   4.487   3.328
 9159SOL    HW128376   6.702   4.465   3.250
 9159SOL    HW228377   6.557   4.525   3.295
 9160SOL     OW28378   6.378   6.939   6.818
 9160SOL    HW128379   6.435   6.991   6.754
 9160SOL    HW228380   6.424   6.933   6.906
 9161SOL     OW28381   4.997   4.134   4.476
 9161SOL    HW128382   4.982   4.081   4.560
 9161SOL    HW228383   4.993   4.073   4.397
 9162SOL     OW28384   5.122   2.313   2.861
 9162SOL    HW128385   5.056   2.387   2.853
 9162SOL    HW228386   5.115   2.253   2.781
 9163SOL     OW28387   3.190   1.711   4.042
 9163SOL    HW128388   3.275   1.714   4.096
 9163SOL    HW228389   3.208   1.746   3.950
 9164SOL     OW28390   3.254   0.392   0.477
 9164SOL    HW128391   3.208   0.305   0.458
 9164SOL    HW228392   3.246   0.413   0.574
 9165SOL     OW28393   6.089   6.851   0.026
 9165SOL    HW128394   6.086   6.751   0.018
 9165SOL    HW228395   6.175   6.878   0.069
 9166SOL     OW28396   3.131   5.469   1.290
 9166SOL    HW128397   3.077   5.438   1.212
 9166SOL    HW228398   3.101   5.560   1.318
 9167SOL     OW28399   1.386   4.359   5.265
 9167SOL    HW128400   1.347   4.368   5.173
 9167SOL    HW228401   1.486   4.364   5.259
 9168SOL     OW28402   1.972   0.858   6.336
 9168SOL    HW128403   2.064   0.825   6.358
 9168SOL    HW228404   1.943   0.822   6.248
 9169SOL     OW28405   7.004   0.289   3.787
 9169SOL    HW128406   0.073   0.318   3.817
 9169SOL    HW228407   7.011   0.244   3.697
 9170SOL     OW28408   6.476   6.165   6.421
 9170SOL    HW128409   6.475   6.192   6.517
 9170SOL    HW228410   6.527   6.080   6.411
 9171SOL     OW28411   2.606   5.852   6.488
 9171SOL    HW128412   2.687   5.818   6.537
 9171SOL    HW228413   2.527   5.850   6.549
 9172SOL     OW28414   2.931   1.849   4.055
 9172SOL    HW128415   2.913   1.776   3.989
 9172SOL    HW228416   3.030   1.859   4.066
 9173SOL     OW28417   0.702   5.556   4.269
 9173SOL    HW128418   0.740   5.606   4.191
 9173SOL    HW228419   0.766   5.562   4.346
 9174SOL     OW28420   0.712   4.916   0.465
 9174SOL    HW128421   0.614   4.907   0.446
 9174SOL    HW228422   0.735   4.864   0.548
 9175SOL     OW28423   1.944   6.141   5.910
 9175SOL    HW128424   2.033   6.185   5.897
 9175SOL    HW228425   1.956   6.056   5.961
 9176SOL     OW28426   2.090   0.613   6.111
 9176SOL    HW128427   2.059   0.524   6.144
 9176SOL    HW228428   2.175   0.638   6.157
 9177SOL     OW28429   0.821   4.939   3.893
 9177SOL    HW128430   0.879   4.922   3.973
 9177SOL    HW228431   0.873   4.990   3.825
 9178SOL     OW28432   2.798   5.050   0.051
 9178SOL    HW128433   2.785   4.980   0.121
 9178SOL    HW228434   2.738   5.128   0.070
 9179SOL     OW28435   3.579   4.965   4.393
 9179SOL    HW128436   3.522   4.917   4.327
 9179SOL    HW228437   3.674   4.932   4.385
 9180SOL     OW28438   5.255   1.645   3.285
 9180SOL    HW128439   5.292   1.729   3.245
 9180SOL    HW228440   5.161   1.632   3.253
 9181SOL     OW28441   4.504   1.707   2.496
 9181SOL    HW128442   4.483   1.798   2.461
 9181SOL    HW228443   4.419   1.660   2.521
 9182SOL     OW28444   1.337   6.755   1.608
 9182SOL    HW128445   1.322   6.796   1.697
 9182SOL    HW228446   1.330   6.825   1.537
 9183SOL     OW28447   5.214   6.107   0.283
 9183SOL    HW128448   5.191   6.104   0.186
 9183SOL    HW228449   5.145   6.057   0.335
 9184SOL     OW28450   5.188   0.228   0.211
 9184SOL    HW128451   5.102   0.192   0.250
 9184SOL    HW228452   5.263   0.166   0.234
 9185SOL     OW28453   3.552   1.082   5.104
 9185SOL    HW128454   3.514   1.115   5.018
 9185SOL    HW228455   3.627   1.142   5.132
 9186SOL     OW28456   5.485   0.842   6.157
 9186SOL    HW128457   5.484   0.910   6.084
 9186SOL    HW228458   5.544   0.766   6.132
 9187SOL     OW28459   2.189   6.165   2.101
 9187SOL    HW128460   2.288   6.155   2.088
 9187SOL    HW228461   2.153   6.084   2.147
 9188SOL     OW28462   2.608   6.332   0.786
 9188SOL    HW128463   2.515   6.316   0.819
 9188SOL    HW228464   2.661   6.247   0.796
 9189SOL     OW28465   5.314   5.743   2.354
 9189SOL    HW128466   5.295   5.841   2.351
 9189SOL    HW228467   5.267   5.702   2.431
 9190SOL     OW28468   2.001   5.245   0.253
 9190SOL    HW128469   2.004   5.323   0.316
 9190SOL    HW228470   1.911   5.240   0.211
 9191SOL     OW28471   0.224   0.144   5.868
 9191SOL    HW128472   0.215   0.239   5.895
 9191SOL    HW228473   0.150   0.090   5.907
 9192SOL     OW28474   6.809   4.094   4.246
 9192SOL    HW128475   6.780   4.173   4.192
 9192SOL    HW228476   6.909   4.090   4.250
 9193SOL     OW28477   2.808   3.476   7.011
 9193SOL    HW128478   2.754   3.462   0.073
 9193SOL    HW228479   2.750   3.512   6.939
 9194SOL     OW28480   3.820   0.727   3.913
 9194SOL    HW128481   3.916   0.755   3.914
 9194SOL    HW228482   3.815   0.627   3.906
 9195SOL     OW28483   1.784   1.749   3.810
 9195SOL    HW128484   1.814   1.738   3.905
 9195SOL    HW228485   1.747   1.841   3.798
 9196SOL     OW28486   4.735   2.419   5.225
 9196SOL    HW128487   4.757   2.341   5.166
 9196SOL    HW228488   4.682   2.389   5.304
 9197SOL     OW28489   2.275   3.702   1.682
 9197SOL    HW128490   2.268   3.794   1.723
 9197SOL    HW228491   2.268   3.633   1.754
 9198SOL     OW28492   6.830   4.800   4.244
 9198SOL    HW128493   6.825   4.700   4.247
 9198SOL    HW228494   6.850   4.834   4.336
 9199SOL     OW28495   6.350   4.338   4.869
 9199SOL    HW128496   6.421   4.382   4.814
 9199SOL    HW228497   6.271   4.399   4.876
 9200SOL     OW28498   3.142   6.910   0.471
 9200SOL    HW128499   3.238   6.936   0.457
 9200SOL    HW228500   3.138   6.819   0.512
 9201SOL     OW28501   1.833   4.405   0.696
 9201SOL    HW128502   1.774   4.479   0.728
 9201SOL    HW228503   1.909   4.443   0.643
 9202SOL     OW28504   2.285   0.080   3.271
 9202SOL    HW128505   2.356   0.123   3.215
 9202SOL    HW228506   2.223   0.150   3.305
 9203SOL     OW28507   6.870   6.324   0.839
 9203SOL    HW128508   6.936   6.349   0.910
 9203SOL    HW228509   6.918   6.302   0.755
 9204SOL     OW28510   4.961   1.140   6.147
 9204SOL    HW128511   4.886   1.077   6.124
 9204SOL    HW228512   5.023   1.148   6.069
 9205SOL     OW28513   6.958   4.191   1.976
 9205SOL    HW128514   0.036   4.206   1.975
 9205SOL    HW228515   6.926   4.190   2.071
 9206SOL     OW28516   3.544   5.818   0.599
 9206SOL    HW128517   3.523   5.733   0.649
 9206SOL    HW228518   3.577   5.796   0.508
 9207SOL     OW28519   4.692   5.306   6.912
 9207SOL    HW128520   4.695   5.403   6.933
 9207SOL    HW228521   4.782   5.265   6.927
 9208SOL     OW28522   1.040   3.690   3.466
 9208SOL    HW128523   1.045   3.691   3.366
 9208SOL    HW228524   0.947   3.666   3.493
 9209SOL     OW28525   2.650   0.989   6.448
 9209SOL    HW128526   2.747   0.967   6.451
 9209SOL    HW228527   2.636   1.076   6.401
 9210SOL     OW28528   6.822   0.788   3.417
 9210SOL    HW128529   6.723   0.783   3.414
 9210SOL    HW228530   6.851   0.882   3.437
 9211SOL     OW28531   0.796   1.708   2.849
 9211SOL    HW128532   0.859   1.631   2.845
 9211SOL    HW228533   0.716   1.683   2.905
 9212SOL     OW28534   3.110   4.906   4.311
 9212SOL    HW128535   3.064   4.899   4.222
 9212SOL    HW228536   3.146   4.999   4.322
 9213SOL     OW28537   5.859   3.867   6.402
 9213SOL    HW128538   5.790   3.934   6.376
 9213SOL    HW228539   5.949   3.911   6.407
 9214SOL     OW28540   6.961   5.062   0.866
 9214SOL    HW128541   7.007   5.023   0.946
 9214SOL    HW228542   6.887   5.001   0.838
 9215SOL     OW28543   0.828   1.318   0.853
 9215SOL    HW128544   0.833   1.412   0.886
 9215SOL    HW228545   0.866   1.312   0.761
 9216SOL     OW28546   2.416   6.505   3.003
 9216SOL    HW128547   2.424   6.605   3.004
 9216SOL    HW228548   2.506   6.464   2.996
 9217SOL     OW28549   0.964   2.521   6.798
 9217SOL    HW128550   1.052   2.519   6.750
 9217SOL    HW228551   0.894   2.555   6.736
 9218SOL     OW28552   2.801   0.569   0.434
 9218SOL    HW128553   2.714   0.579   0.386
 9218SOL    HW228554   2.875   0.607   0.378
 9219SOL     OW28555   7.000   2.275   0.844
 9219SOL    HW128556   6.950   2.200   0.802
 9219SOL    HW228557   6.998   2.355   0.783
 9220SOL     OW28558   3.346   6.456   1.955
 9220SOL    HW128559   3.418   6.504   2.007
 9220SOL    HW228560   3.327   6.368   1.999
 9221SOL     OW28561   3.037   5.592   4.191
 9221SOL    HW128562   3.102   5.563   4.261
 9221SOL    HW228563   2.982   5.514   4.161
 9222SOL     OW28564   2.443   2.201   5.796
 9222SOL    HW128565   2.526   2.181   5.848
 9222SOL    HW228566   2.366   2.208   5.858
 9223SOL     OW28567   2.763   2.993   5.299
 9223SOL    HW128568   2.746   2.977   5.396
 9223SOL    HW228569   2.680   2.975   5.246
 9224SOL     OW28570   2.459   4.747   5.278
 9224SOL    HW128571   2.445   4.747   5.179
 9224SOL    HW228572   2.511   4.665   5.304
 9225SOL     OW28573   2.133   6.258   6.946
 9225SOL    HW128574   2.174   6.314   6.874
 9225SOL    HW228575   2.042   6.229   6.918
 9226SOL     OW28576   4.186   6.704   1.277
 9226SOL    HW128577   4.260   6.699   1.210
 9226SOL    HW228578   4.221   6.744   1.362
 9227SOL     OW28579   1.677   6.060   2.500
 9227SOL    HW128580   1.749   6.125   2.524
 9227SOL    HW228581   1.638   6.021   2.584
 9228SOL     OW28582   0.870   0.040   6.488
 9228SOL    HW128583   0.773   0.037   6.513
 9228SOL    HW228584   0.893   0.131   6.454
 9229SOL     OW28585   0.606   5.107   5.030
 9229SOL    HW128586   0.661   5.049   4.969
 9229SOL    HW228587   0.529   5.145   4.980
 9230SOL     OW28588   5.566   0.066   4.116
 9230SOL    HW128589   5.625   0.143   4.090
 9230SOL    HW228590   5.598   0.026   4.202
 9231SOL     OW28591   1.595   2.793   3.315
 9231SOL    HW128592   1.506   2.839   3.321
 9231SOL    HW228593   1.582   2.698   3.289
 9232SOL     OW28594   3.951   4.861   1.407
 9232SOL    HW128595   3.888   4.912   1.349
 9232SOL    HW228596   3.909   4.846   1.496
 9233SOL     OW28597   5.074   5.173   1.041
 9233SOL    HW128598   4.978   5.153   1.020
 9233SOL    HW228599   5.095   5.140   1.133
 9234SOL     OW28600   2.133   6.218   3.740
 9234SOL    HW128601   2.076   6.225   3.822
 9234SOL    HW228602   2.215   6.274   3.752
 9235SOL     OW28603   0.828   2.211   3.346
 9235SOL    HW128604   0.796   2.305   3.349
 9235SOL    HW228605   0.863   2.191   3.254
 9236SOL     OW28606   3.064   2.945   5.849
 9236SOL    HW128607   3.098   2.947   5.754
 9236SOL    HW228608   2.994   2.874   5.857
 9237SOL     OW28609   1.723   3.663   3.549
 9237SOL    HW128610   1.697   3.662   3.646
 9237SOL    HW228611   1.744   3.570   3.519
 9238SOL     OW28612   4.491   3.121   5.864
 9238SOL    HW128613   4.420   3.179   5.904
 9238SOL    HW228614   4.562   3.105   5.932
 9239SOL     OW28615   2.012   4.169   0.823
 9239SOL    HW128616   1.978   4.127   0.907
 9239SOL    HW228617   1.953   4.245   0.797
 9240SOL     OW28618   4.430   1.299   2.435
 9240SOL    HW128619   4.407   1.240   2.513
 9240SOL    HW228620   4.527   1.289   2.413
 9241SOL     OW28621   0.534   5.850   6.378
 9241SOL    HW128622   0.570   5.757   6.386
 9241SOL    HW228623   0.459   5.850   6.311
 9242SOL     OW28624   6.980   6.037   1.844
 9242SOL    HW128625   6.913   5.965   1.825
 9242SOL    HW228626   0.051   6.000   1.831
 9243SOL     OW28627   5.930   5.964   4.749
 9243SOL    HW128628   5.915   5.866   4.736
 9243SOL    HW228629   6.010   5.978   4.808
 9244SOL     OW28630   3.644   5.110   6.646
 9244SOL    HW128631   3.591   5.155   6.575
 9244SOL    HW228632   3.652   5.012   6.625
 9245SOL     OW28633   0.326   5.196   0.880
 9245SOL    HW128634   0.252   5.218   0.944
 9245SOL    HW228635   0.382   5.278   0.866
 9246SOL     OW28636   0.269   4.968   4.219
 9246SOL    HW128637   0.185   4.929   4.181
 9246SOL    HW228638   0.266   4.964   4.319
 9247SOL     OW28639   1.696   6.315   2.581
 9247SOL    HW128640   1.732   6.343   2.492
 9247SOL    HW228641   1.745   6.364   2.654
 9248SOL     OW28642   2.948   1.586   6.519
 9248SOL    HW128643   3.028   1.553   6.568
 9248SOL    HW228644   2.876   1.516   6.522
 9249SOL     OW28645   4.591   0.474   3.597
 9249SOL    HW128646   4.608   0.384   3.638
 9249SOL    HW228647   4.652   0.488   3.519
 9250SOL     OW28648   5.116   3.639   4.107
 9250SOL    HW128649   5.100   3.624   4.205
 9250SOL    HW228650   5.034   3.677   4.065
 9251SOL     OW28651   3.112   2.126   2.664
 9251SOL    HW128652   3.082   2.193   2.733
 9251SOL    HW228653   3.032   2.091   2.616
 9252SOL     OW28654   1.249   0.064   4.858
 9252SOL    HW128655   1.349   0.063   4.846
 9252SOL    HW228656   1.208   7.019   4.795
 9253SOL     OW28657   1.067   6.798   5.797
 9253SOL    HW128658   1.161   6.819   5.770
 9253SOL    HW228659   1.005   6.818   5.722
 9254SOL     OW28660   5.802   3.443   1.429
 9254SOL    HW128661   5.794   3.390   1.513
 9254SOL    HW228662   5.711   3.468   1.396
 9255SOL     OW28663   5.911   4.585   0.848
 9255SOL    HW128664   5.836   4.575   0.913
 9255SOL    HW228665   5.925   4.499   0.800
 9256SOL     OW28666   4.153   4.976   1.718
 9256SOL    HW128667   4.120   4.924   1.797
 9256SOL    HW228668   4.085   5.044   1.692
 9257SOL     OW28669   1.101   4.246   0.995
 9257SOL    HW128670   1.076   4.200   1.080
 9257SOL    HW228671   1.191   4.214   0.965
 9258SOL     OW28672   4.144   3.668   3.424
 9258SOL    HW128673   4.243   3.683   3.417
 9258SOL    HW228674   4.126   3.597   3.492
 9259SOL     OW28675   0.652   2.907   0.128
 9259SOL    HW128676   0.637   3.006   0.128
 9259SOL    HW228677   0.624   2.869   0.216
 9260SOL     OW28678   5.569   3.180   6.239
 9260SOL    HW128679   5.586   3.102   6.179
 9260SOL    HW228680   5.502   3.241   6.197
 9261SOL     OW28681   4.629   6.958   6.825
 9261SOL    HW128682   4.579   6.945   6.740
 9261SOL    HW228683   4.666   0.030   6.828
 9262SOL     OW28684   4.669   1.254   5.588
 9262SOL    HW128685   4.588   1.287   5.540
 9262SOL    HW228686   4.657   1.266   5.686
 9263SOL     OW28687   5.266   3.754   1.638
 9263SOL    HW128688   5.287   3.678   1.699
 9263SOL    HW228689   5.285   3.726   1.544
 9264SOL     OW28690   6.313   3.498   0.517
 9264SOL    HW128691   6.370   3.444   0.456
 9264SOL    HW228692   6.231   3.529   0.469
 9265SOL     OW28693   1.650   0.739   6.477
 9265SOL    HW128694   1.722   0.758   6.543
 9265SOL    HW228695   1.580   0.681   6.519
 9266SOL     OW28696   1.919   6.098   2.667
 9266SOL    HW128697   1.866   6.125   2.748
 9266SOL    HW228698   1.991   6.165   2.651
 9267SOL     OW28699   2.135   4.578   5.351
 9267SOL    HW128700   2.092   4.512   5.289
 9267SOL    HW228701   2.085   4.664   5.348
 9268SOL     OW28702   0.208   0.675   2.984
 9268SOL    HW128703   0.170   0.671   2.891
 9268SOL    HW228704   0.308   0.676   2.979
 9269SOL     OW28705   3.495   1.264   6.113
 9269SOL    HW128706   3.519   1.267   6.016
 9269SOL    HW228707   3.396   1.261   6.123
 9270SOL     OW28708   0.147   6.913   5.462
 9270SOL    HW128709   0.179   6.864   5.543
 9270SOL    HW228710   0.047   6.907   5.458
 9271SOL     OW28711   1.676   4.870   0.251
 9271SOL    HW128712   1.768   4.905   0.264
 9271SOL    HW228713   1.611   4.922   0.306
 9272SOL     OW28714   2.690   4.739   6.453
 9272SOL    HW128715   2.667   4.808   6.521
 9272SOL    HW228716   2.781   4.702   6.472
 9273SOL     OW28717   3.824   6.370   5.364
 9273SOL    HW128718   3.808   6.392   5.268
 9273SOL    HW228719   3.890   6.434   5.403
 9274SOL     OW28720   6.276   1.981   0.385
 9274SOL    HW128721   6.334   1.929   0.322
 9274SOL    HW228722   6.299   1.955   0.479
 9275SOL     OW28723   1.184   0.518   6.669
 9275SOL    HW128724   1.102   0.477   6.628
 9275SOL    HW228725   1.167   0.536   6.766
 9276SOL     OW28726   4.745   6.365   4.988
 9276SOL    HW128727   4.753   6.346   4.890
 9276SOL    HW228728   4.836   6.358   5.030
 9277SOL     OW28729   3.391   3.287   0.119
 9277SOL    HW128730   3.312   3.236   0.086
 9277SOL    HW228731   3.445   3.230   0.180
 9278SOL     OW28732   1.268   2.324   1.629
 9278SOL    HW128733   1.311   2.253   1.686
 9278SOL    HW228734   1.303   2.317   1.536
 9279SOL     OW28735   3.428   0.078   2.206
 9279SOL    HW128736   3.366   0.128   2.267
 9279SOL    HW228737   3.376   0.010   2.153
 9280SOL     OW28738   2.210   0.210   3.679
 9280SOL    HW128739   2.133   0.189   3.619
 9280SOL    HW228740   2.294   0.172   3.640
 9281SOL     OW28741   2.022   2.188   0.324
 9281SOL    HW128742   1.957   2.125   0.367
 9281SOL    HW228743   2.055   2.253   0.392
 9282SOL     OW28744   4.900   2.189   5.840
 9282SOL    HW128745   4.845   2.224   5.916
 9282SOL    HW228746   4.872   2.096   5.818
 9283SOL     OW28747   5.820   2.440   2.233
 9283SOL    HW128748   5.729   2.474   2.207
 9283SOL    HW228749   5.889   2.487   2.179
 9284SOL     OW28750   2.938   3.552   1.537
 9284SOL    HW128751   2.873   3.490   1.492
 9284SOL    HW228752   2.988   3.503   1.608
 9285SOL     OW28753   6.306   3.135   6.698
 9285SOL    HW128754   6.283   3.215   6.753
 9285SOL    HW228755   6.224   3.080   6.683
 9286SOL     OW28756   5.549   6.608   5.282
 9286SOL    HW128757   5.621   6.551   5.241
 9286SOL    HW228758   5.470   6.609   5.221
 9287SOL     OW28759   3.313   6.666   1.703
 9287SOL    HW128760   3.413   6.674   1.700
 9287SOL    HW228761   3.287   6.600   1.773
 9288SOL     OW28762   5.055   2.627   5.966
 9288SOL    HW128763   5.115   2.673   5.901
 9288SOL    HW228764   5.022   2.541   5.926
 9289SOL     OW28765   4.986   3.247   3.007
 9289SOL    HW128766   5.032   3.252   3.095
 9289SOL    HW228767   4.983   3.337   2.964
 9290SOL     OW28768   4.814   2.079   5.097
 9290SOL    HW128769   4.820   2.030   5.010
 9290SOL    HW228770   4.882   2.044   5.161
 9291SOL     OW28771   0.835   2.010   4.999
 9291SOL    HW128772   0.841   1.924   4.950
 9291SOL    HW228773   0.922   2.028   5.045
 9292SOL     OW28774   0.246   3.354   6.646
 9292SOL    HW128775   0.256   3.333   6.548
 9292SOL    HW228776   0.166   3.414   6.659
 9293SOL     OW28777   5.422   4.224   6.846
 9293SOL    HW128778   5.480   4.171   6.908
 9293SOL    HW228779   5.456   4.317   6.838
 9294SOL     OW28780   6.464   6.226   6.694
 9294SOL    HW128781   6.382   6.168   6.692
 9294SOL    HW228782   6.449   6.303   6.755
 9295SOL     OW28783   4.507   1.605   3.469
 9295SOL    HW128784   4.544   1.526   3.518
 9295SOL    HW228785   4.421   1.579   3.425
 9296SOL     OW28786   6.222   0.125   5.885
 9296SOL    HW128787   6.175   0.137   5.973
 9296SOL    HW228788   6.261   0.033   5.881
 9297SOL     OW28789   0.521   1.518   0.584
 9297SOL    HW128790   0.439   1.481   0.626
 9297SOL    HW228791   0.564   1.449   0.526
 9298SOL     OW28792   1.110   6.122   4.673
 9298SOL    HW128793   1.107   6.125   4.773
 9298SOL    HW228794   1.026   6.162   4.635
 9299SOL     OW28795   1.982   3.053   4.330
 9299SOL    HW128796   1.990   2.971   4.273
 9299SOL    HW228797   2.070   3.071   4.374
 9300SOL     OW28798   5.620   4.631   4.468
 9300SOL    HW128799   5.537   4.616   4.522
 9300SOL    HW228800   5.605   4.707   4.405
 9301SOL     OW28801   5.497   4.294   2.829
 9301SOL    HW128802   5.479   4.200   2.801
 9301SOL    HW228803   5.443   4.357   2.774
 9302SOL     OW28804   2.242   1.768   2.397
 9302SOL    HW128805   2.279   1.856   2.369
 9302SOL    HW228806   2.219   1.770   2.494
 9303SOL     OW28807   3.716   5.367   0.403
 9303SOL    HW128808   3.805   5.357   0.360
 9303SOL    HW228809   3.726   5.372   0.502
 9304SOL     OW28810   3.493   3.176   0.782
 9304SOL    HW128811   3.398   3.156   0.760
 9304SOL    HW228812   3.496   3.252   0.847
 9305SOL     OW28813   5.528   2.886   2.186
 9305SOL    HW128814   5.477   2.890   2.100
 9305SOL    HW228815   5.500   2.805   2.238
 9306SOL     OW28816   6.899   3.858   3.862
 9306SOL    HW128817   6.830   3.928   3.880
 9306SOL    HW228818   6.949   3.882   3.779
 9307SOL     OW28819   1.925   1.721   6.859
 9307SOL    HW128820   1.894   1.628   6.874
 9307SOL    HW228821   1.934   1.768   6.946
 9308SOL     OW28822   6.784   2.917   0.947
 9308SOL    HW128823   6.786   2.861   1.030
 9308SOL    HW228824   6.744   3.006   0.968
 9309SOL     OW28825   4.725   3.295   6.505
 9309SOL    HW128826   4.661   3.228   6.468
 9309SOL    HW228827   4.817   3.275   6.471
 9310SOL     OW28828   4.098   5.857   6.708
 9310SOL    HW128829   4.138   5.891   6.623
 9310SOL    HW228830   4.018   5.912   6.731
 9311SOL     OW28831   6.129   2.980   0.786
 9311SOL    HW128832   6.167   2.983   0.879
 9311SOL    HW228833   6.117   3.074   0.753
 9312SOL     OW28834   1.256   4.415   6.386
 9312SOL    HW128835   1.326   4.481   6.412
 9312SOL    HW228836   1.249   4.410   6.287
 9313SOL     OW28837   6.457   6.709   3.128
 9313SOL    HW128838   6.410   6.796   3.138
 9313SOL    HW228839   6.451   6.678   3.033
 9314SOL     OW28840   5.121   4.504   0.075
 9314SOL    HW128841   5.196   4.570   0.066
 9314SOL    HW228842   5.036   4.546   0.044
 9315SOL     OW28843   0.051   6.602   6.446
 9315SOL    HW128844   6.997   6.652   6.489
 9315SOL    HW228845   0.102   6.552   6.515
 9316SOL     OW28846   3.884   6.039   3.674
 9316SOL    HW128847   3.795   6.056   3.717
 9316SOL    HW228848   3.901   5.941   3.669
 9317SOL     OW28849   6.224   4.321   4.217
 9317SOL    HW128850   6.198   4.271   4.134
 9317SOL    HW228851   6.323   4.332   4.220
 9318SOL     OW28852   6.762   6.986   6.395
 9318SOL    HW128853   6.714   7.013   6.311
 9318SOL    HW228854   6.817   0.042   6.428
 9319SOL     OW28855   0.391   3.484   5.170
 9319SOL    HW128856   0.394   3.520   5.264
 9319SOL    HW228857   0.297   3.456   5.149
 9320SOL     OW28858   5.097   2.650   6.491
 9320SOL    HW128859   5.111   2.648   6.392
 9320SOL    HW228860   5.088   2.745   6.521
 9321SOL     OW28861   6.774   5.676   3.070
 9321SOL    HW128862   6.695   5.661   3.130
 9321SOL    HW228863   6.851   5.621   3.103
 9322SOL     OW28864   0.793   6.178   6.662
 9322SOL    HW128865   0.838   6.234   6.592
 9322SOL    HW228866   0.859   6.155   6.733
 9323SOL     OW28867   0.309   0.942   6.058
 9323SOL    HW128868   0.296   0.932   5.960
 9323SOL    HW228869   0.261   1.023   6.091
 9324SOL     OW28870   1.618   5.729   6.784
 9324SOL    HW128871   1.670   5.653   6.743
 9324SOL    HW228872   1.631   5.811   6.729
 9325SOL     OW28873   6.138   2.387   1.030
 9325SOL    HW128874   6.105   2.412   1.121
 9325SOL    HW228875   6.167   2.469   0.981
 9326SOL     OW28876   2.455   6.324   1.085
 9326SOL    HW128877   2.447   6.373   1.172
 9326SOL    HW228878   2.551   6.306   1.066
 9327SOL     OW28879   4.029   1.082   3.224
 9327SOL    HW128880   4.063   0.991   3.250
 9327SOL    HW228881   4.104   1.134   3.183
 9328SOL     OW28882   3.264   1.214   2.043
 9328SOL    HW128883   3.185   1.155   2.058
 9328SOL    HW228884   3.278   1.272   2.124
 9329SOL     OW28885   1.543   3.761   1.470
 9329SOL    HW128886   1.478   3.756   1.394
 9329SOL    HW228887   1.495   3.784   1.554
 9330SOL     OW28888   5.652   0.725   6.796
 9330SOL    HW128889   5.718   0.798   6.778
 9330SOL    HW228890   5.605   0.744   6.883
 9331SOL     OW28891   0.578   1.267   6.986
 9331SOL    HW128892   0.552   1.281   6.891
 9331SOL    HW228893   0.510   1.210   0.010
 9332SOL     OW28894   3.625   3.298   4.398
 9332SOL    HW128895   3.538   3.345   4.414
 9332SOL    HW228896   3.667   3.274   4.485
 9333SOL     OW28897   5.787   5.031   1.064
 9333SOL    HW128898   5.801   5.116   1.013
 9333SOL    HW228899   5.691   5.006   1.060
 9334SOL     OW28900   2.794   6.788   5.012
 9334SOL    HW128901   2.728   6.721   5.047
 9334SOL    HW228902   2.788   6.872   5.066
 9335SOL     OW28903   0.608   0.889   0.966
 9335SOL    HW128904   0.601   0.840   1.053
 9335SOL    HW228905   0.600   0.988   0.982
 9336SOL     OW28906   3.129   6.888   5.650
 9336SOL    HW128907   3.106   6.875   5.553
 9336SOL    HW228908   3.072   6.961   5.687
 9337SOL     OW28909   5.204   0.756   2.285
 9337SOL    HW128910   5.190   0.736   2.188
 9337SOL    HW228911   5.128   0.720   2.339
 9338SOL     OW28912   3.387   0.183   1.809
 9338SOL    HW128913   3.355   0.090   1.792
 9338SOL    HW228914   3.414   0.226   1.723
 9339SOL     OW28915   4.436   6.446   0.706
 9339SOL    HW128916   4.372   6.519   0.681
 9339SOL    HW228917   4.507   6.438   0.636
 9340SOL     OW28918   6.082   3.561   0.355
 9340SOL    HW128919   6.093   3.477   0.302
 9340SOL    HW228920   6.054   3.636   0.294
 9341SOL     OW28921   6.984   5.014   6.130
 9341SOL    HW128922   6.982   4.937   6.066
 9341SOL    HW228923   6.980   5.100   6.080
 9342SOL     OW28924   1.093   6.043   5.866
 9342SOL    HW128925   1.026   5.997   5.925
 9342SOL    HW228926   1.173   6.068   5.920
 9343SOL     OW28927   6.398   5.539   4.649
 9343SOL    HW128928   6.325   5.603   4.624
 9343SOL    HW228929   6.361   5.446   4.653
 9344SOL     OW28930   4.845   6.613   1.312
 9344SOL    HW128931   4.753   6.630   1.276
 9344SOL    HW228932   4.850   6.645   1.407
 9345SOL     OW28933   6.494   2.404   0.885
 9345SOL    HW128934   6.421   2.472   0.897
 9345SOL    HW228935   6.515   2.362   0.973
 9346SOL     OW28936   5.659   0.208   0.449
 9346SOL    HW128937   5.713   0.246   0.524
 9346SOL    HW228938   5.626   0.282   0.391
 9347SOL     OW28939   1.548   6.899   1.921
 9347SOL    HW128940   1.490   6.871   1.845
 9347SOL    HW228941   1.530   6.996   1.942
 9348SOL     OW28942   3.356   4.840   6.844
 9348SOL    HW128943   3.406   4.918   6.881
 9348SOL    HW228944   3.263   4.840   6.883
 9349SOL     OW28945   1.845   6.522   2.695
 9349SOL    HW128946   1.801   6.589   2.635
 9349SOL    HW228947   1.908   6.466   2.642
 9350SOL     OW28948   0.718   2.939   6.001
 9350SOL    HW128949   0.777   2.960   5.922
 9350SOL    HW228950   0.769   2.883   6.066
 9351SOL     OW28951   2.750   1.609   6.819
 9351SOL    HW128952   2.715   1.622   6.726
 9351SOL    HW228953   2.674   1.614   6.884
 9352SOL     OW28954   2.701   4.540   5.642
 9352SOL    HW128955   2.779   4.600   5.627
 9352SOL    HW228956   2.731   4.458   5.691
 9353SOL     OW28957   6.821   0.097   0.993
 9353SOL    HW128958   6.818   0.183   0.941
 9353SOL    HW228959   6.732   0.082   1.036
 9354SOL     OW28960   0.422   1.996   6.702
 9354SOL    HW128961   0.360   1.974   6.626
 9354SOL    HW228962   0.390   1.951   6.785
 9355SOL     OW28963   0.857   1.670   5.588
 9355SOL    HW128964   0.911   1.731   5.647
 9355SOL    HW228965   0.857   1.706   5.495
 9356SOL     OW28966   5.458   6.774   3.198
 9356SOL    HW128967   5.503   6.756   3.286
 9356SOL    HW228968   5.367   6.734   3.199
 9357SOL     OW28969   0.980   1.785   0.265
 9357SOL    HW128970   0.944   1.709   0.319
 9357SOL    HW228971   0.926   1.868   0.285
 9358SOL     OW28972   0.522   3.120   1.574
 9358SOL    HW128973   0.557   3.172   1.496
 9358SOL    HW228974   0.583   3.133   1.653
 9359SOL     OW28975   1.195   0.313   5.525
 9359SOL    HW128976   1.162   0.220   5.540
 9359SOL    HW228977   1.178   0.339   5.430
 9360SOL     OW28978   1.020   0.064   5.969
 9360SOL    HW128979   0.961   7.008   5.995
 9360SOL    HW228980   1.111   0.050   6.007
 9361SOL     OW28981   1.955   6.225   3.935
 9361SOL    HW128982   1.900   6.304   3.907
 9361SOL    HW228983   1.961   6.222   4.035
 9362SOL     OW28984   2.267   0.132   1.921
 9362SOL    HW128985   2.331   0.209   1.927
 9362SOL    HW228986   2.316   0.046   1.932
 9363SOL     OW28987   1.821   4.696   2.512
 9363SOL    HW128988   1.777   4.631   2.574
 9363SOL    HW228989   1.920   4.680   2.511
 9364SOL     OW28990   1.066   2.816   1.125
 9364SOL    HW128991   1.000   2.822   1.199
 9364SOL    HW228992   1.130   2.893   1.131
 9365SOL     OW28993   2.878   1.282   4.483
 9365SOL    HW128994   2.785   1.244   4.488
 9365SOL    HW228995   2.898   1.309   4.389
 9366SOL     OW28996   4.002   5.963   1.919
 9366SOL    HW128997   3.964   5.871   1.921
 9366SOL    HW228998   4.063   5.976   1.997
 9367SOL     OW28999   0.130   0.641   1.517
 9367SOL    HW129000   0.136   0.560   1.576
 9367SOL    HW229001   0.221   0.668   1.489
 9368SOL     OW29002   2.780   0.216   3.369
 9368SOL    HW129003   2.794   0.220   3.270
 9368SOL    HW229004   2.754   0.123   3.395
 9369SOL     OW29005   3.313   5.360   0.409
 9369SOL    HW129006   3.285   5.306   0.330
 9369SOL    HW229007   3.392   5.317   0.452
 9370SOL     OW29008   4.690   1.867   4.522
 9370SOL    HW129009   4.660   1.780   4.563
 9370SOL    HW229010   4.790   1.864   4.510
 9371SOL     OW29011   4.468   5.595   1.073
 9371SOL    HW129012   4.549   5.647   1.045
 9371SOL    HW229013   4.494   5.499   1.088
 9372SOL     OW29014   4.536   6.173   1.451
 9372SOL    HW129015   4.471   6.192   1.525
 9372SOL    HW229016   4.629   6.172   1.487
 9373SOL     OW29017   0.049   2.245   1.214
 9373SOL    HW129018   0.012   2.313   1.151
 9373SOL    HW229019   0.141   2.271   1.241
 9374SOL     OW29020   0.334   5.531   5.538
 9374SOL    HW129021   0.265   5.481   5.591
 9374SOL    HW229022   0.333   5.499   5.443
 9375SOL     OW29023   0.585   1.324   0.344
 9375SOL    HW129024   0.596   1.225   0.353
 9375SOL    HW229025   0.630   1.354   0.260
 9376SOL     OW29026   2.336   4.025   1.558
 9376SOL    HW129027   2.406   4.090   1.527
 9376SOL    HW229028   2.330   3.949   1.492
 9377SOL     OW29029   1.619   1.094   3.322
 9377SOL    HW129030   1.656   1.137   3.404
 9377SOL    HW229031   1.527   1.128   3.305
 9378SOL     OW29032   3.459   1.132   4.828
 9378SOL    HW129033   3.463   1.036   4.799
 9378SOL    HW229034   3.384   1.178   4.780
 9379SOL     OW29035   5.048   6.659   4.461
 9379SOL    HW129036   5.142   6.632   4.482
 9379SOL    HW229037   5.018   6.613   4.377
 9380SOL     OW29038   5.548   5.360   0.279
 9380SOL    HW129039   5.546   5.449   0.232
 9380SOL    HW229040   5.470   5.355   0.342
 9381SOL     OW29041   5.714   1.533   5.124
 9381SOL    HW129042   5.680   1.525   5.031
 9381SOL    HW229043   5.808   1.567   5.123
 9382SOL     OW29044   3.284   5.494   5.713
 9382SOL    HW129045   3.237   5.501   5.801
 9382SOL    HW229046   3.229   5.539   5.642
 9383SOL     OW29047   5.740   4.014   2.910
 9383SOL    HW129048   5.786   4.103   2.907
 9383SOL    HW229049   5.655   4.019   2.857
 9384SOL     OW29050   2.627   0.770   2.047
 9384SOL    HW129051   2.603   0.797   1.954
 9384SOL    HW229052   2.693   0.836   2.084
 9385SOL     OW29053   4.621   1.678   3.891
 9385SOL    HW129054   4.715   1.651   3.869
 9385SOL    HW229055   4.621   1.768   3.934
 9386SOL     OW29056   4.891   5.938   0.342
 9386SOL    HW129057   4.955   5.885   0.397
 9386SOL    HW229058   4.856   6.014   0.397
 9387SOL     OW29059   2.712   2.030   0.307
 9387SOL    HW129060   2.651   2.070   0.239
 9387SOL    HW229061   2.796   2.000   0.263
 9388SOL     OW29062   2.367   6.909   5.245
 9388SOL    HW129063   2.451   6.864   5.276
 9388SOL    HW229064   2.330   6.861   5.166
 9389SOL     OW29065   1.814   4.654   2.224
 9389SOL    HW129066   1.822   4.661   2.324
 9389SOL    HW229067   1.873   4.581   2.191
 9390SOL     OW29068   5.204   5.133   4.439
 9390SOL    HW129069   5.109   5.104   4.433
 9390SOL    HW229070   5.237   5.160   4.348
 9391SOL     OW29071   1.576   3.960   4.251
 9391SOL    HW129072   1.654   3.927   4.303
 9391SOL    HW229073   1.546   3.889   4.187
 9392SOL     OW29074   5.016   4.786   2.858
 9392SOL    HW129075   5.069   4.715   2.905
 9392SOL    HW229076   5.075   4.866   2.842
 9393SOL     OW29077   2.120   6.305   6.251
 9393SOL    HW129078   2.213   6.281   6.277
 9393SOL    HW229079   2.121   6.386   6.192
 9394SOL     OW29080   3.914   0.690   0.503
 9394SOL    HW129081   3.869   0.650   0.423
 9394SOL    HW229082   3.896   0.788   0.505
 9395SOL     OW29083   1.532   1.784   0.936
 9395SOL    HW129084   1.447   1.784   0.884
 9395SOL    HW229085   1.600   1.726   0.891
 9396SOL     OW29086   0.755   0.169   6.124
 9396SOL    HW129087   0.752   0.070   6.137
 9396SOL    HW229088   0.704   0.193   6.041
 9397SOL     OW29089   3.405   0.768   4.987
 9397SOL    HW129090   3.497   0.795   5.017
 9397SOL    HW229091   3.381   0.819   4.904
 9398SOL     OW29092   0.594   2.205   0.033
 9398SOL    HW129093   0.650   2.224   6.974
 9398SOL    HW229094   0.613   2.273   0.104
 9399SOL     OW29095   0.951   2.581   4.415
 9399SOL    HW129096   0.938   2.501   4.357
 9399SOL    HW229097   0.869   2.639   4.412
 9400SOL     OW29098   5.647   1.551   1.023
 9400SOL    HW129099   5.586   1.623   0.990
 9400SOL    HW229100   5.741   1.573   0.999
 9401SOL     OW29101   0.325   2.404   3.903
 9401SOL    HW129102   0.388   2.427   3.977
 9401SOL    HW229103   0.333   2.307   3.881
 9402SOL     OW29104   2.655   6.722   4.653
 9402SOL    HW129105   2.560   6.749   4.639
 9402SOL    HW229106   2.711   6.753   4.576
 9403SOL     OW29107   5.185   2.117   1.673
 9403SOL    HW129108   5.183   2.204   1.723
 9403SOL    HW229109   5.156   2.132   1.579
 9404SOL     OW29110   2.419   2.140   0.727
 9404SOL    HW129111   2.379   2.179   0.810
 9404SOL    HW229112   2.346   2.122   0.661
 9405SOL     OW29113   6.645   5.406   5.474
 9405SOL    HW129114   6.614   5.413   5.379
 9405SOL    HW229115   6.587   5.462   5.533
 9406SOL     OW29116   0.691   2.245   0.486
 9406SOL    HW129117   0.740   2.188   0.552
 9406SOL    HW229118   0.635   2.186   0.427
 9407SOL     OW29119   2.211   4.943   5.137
 9407SOL    HW129120   2.251   4.882   5.205
 9407SOL    HW229121   2.114   4.921   5.126
 9408SOL     OW29122   6.624   3.889   4.208
 9408SOL    HW129123   6.692   3.962   4.220
 9408SOL    HW229124   6.657   3.822   4.142
 9409SOL     OW29125   6.207   5.269   2.241
 9409SOL    HW129126   6.290   5.214   2.248
 9409SOL    HW229127   6.165   5.257   2.151
 9410SOL     OW29128   3.853   0.667   0.760
 9410SOL    HW129129   3.886   0.667   0.665
 9410SOL    HW229130   3.857   0.759   0.797
 9411SOL     OW29131   3.137   4.088   3.422
 9411SOL    HW129132   3.233   4.100   3.396
 9411SOL    HW229133   3.131   4.083   3.522
 9412SOL     OW29134   4.803   6.152   1.596
 9412SOL    HW129135   4.759   6.110   1.675
 9412SOL    HW229136   4.897   6.177   1.619
 9413SOL     OW29137   4.752   4.120   3.034
 9413SOL    HW129138   4.787   4.071   2.954
 9413SOL    HW229139   4.749   4.057   3.112
 9414SOL     OW29140   2.370   2.243   3.296
 9414SOL    HW129141   2.403   2.187   3.220
 9414SOL    HW229142   2.340   2.332   3.263
 9415SOL     OW29143   5.198   1.020   1.994
 9415SOL    HW129144   5.293   1.042   1.972
 9415SOL    HW229145   5.139   1.047   1.918
 9416SOL     OW29146   5.255   5.070   5.808
 9416SOL    HW129147   5.316   4.991   5.819
 9416SOL    HW229148   5.228   5.078   5.712
 9417SOL     OW29149   3.385   5.546   2.513
 9417SOL    HW129150   3.292   5.563   2.478
 9417SOL    HW229151   3.447   5.533   2.436
 9418SOL     OW29152   3.109   1.708   5.080
 9418SOL    HW129153   3.207   1.719   5.094
 9418SOL    HW229154   3.071   1.792   5.041
 9419SOL     OW29155   1.908   2.865   6.547
 9419SOL    HW129156   1.893   2.815   6.632
 9419SOL    HW229157   1.827   2.921   6.528
 9420SOL     OW29158   5.772   4.293   6.046
 9420SOL    HW129159   5.788   4.287   6.144
 9420SOL    HW229160   5.859   4.312   5.999
 9421SOL     OW29161   3.676   6.388   6.821
 9421SOL    HW129162   3.697   6.444   6.741
 9421SOL    HW229163   3.645   6.298   6.791
 9422SOL     OW29164   2.444   6.286   5.907
 9422SOL    HW129165   2.477   6.239   5.824
 9422SOL    HW229166   2.359   6.244   5.938
 9423SOL     OW29167   4.359   4.550   2.320
 9423SOL    HW129168   4.427   4.492   2.275
 9423SOL    HW229169   4.268   4.528   2.285
 9424SOL     OW29170   6.117   0.309   4.078
 9424SOL    HW129171   6.187   0.274   4.016
 9424SOL    HW229172   6.067   0.383   4.032
 9425SOL     OW29173   6.742   3.713   0.898
 9425SOL    HW129174   6.765   3.761   0.813
 9425SOL    HW229175   6.810   3.642   0.916
 9426SOL     OW29176   6.143   3.075   6.156
 9426SOL    HW129177   6.078   3.127   6.211
 9426SOL    HW229178   6.236   3.088   6.192
 9427SOL     OW29179   4.592   4.364   2.588
 9427SOL    HW129180   4.537   4.346   2.506
 9427SOL    HW229181   4.625   4.277   2.625
 9428SOL     OW29182   1.217   6.061   5.387
 9428SOL    HW129183   1.209   6.096   5.481
 9428SOL    HW229184   1.168   5.975   5.379
 9429SOL     OW29185   2.293   2.811   4.161
 9429SOL    HW129186   2.321   2.761   4.080
 9429SOL    HW229187   2.352   2.787   4.238
 9430SOL     OW29188   1.361   1.715   3.915
 9430SOL    HW129189   1.413   1.668   3.844
 9430SOL    HW229190   1.365   1.661   4.000
 9431SOL     OW29191   0.872   4.610   5.664
 9431SOL    HW129192   0.963   4.569   5.658
 9431SOL    HW229193   0.806   4.554   5.613
 9432SOL     OW29194   6.960   0.684   4.204
 9432SOL    HW129195   7.003   0.604   4.163
 9432SOL    HW229196   6.863   0.686   4.180
 9433SOL     OW29197   4.895   5.599   1.734
 9433SOL    HW129198   4.973   5.546   1.768
 9433SOL    HW229199   4.884   5.583   1.636
 9434SOL     OW29200   4.247   6.025   3.808
 9434SOL    HW129201   4.218   5.933   3.780
 9434SOL    HW229202   4.180   6.091   3.774
 9435SOL     OW29203   6.457   3.645   0.686
 9435SOL    HW129204   6.396   3.591   0.628
 9435SOL    HW229205   6.411   3.667   0.772
 9436SOL     OW29206   2.579   0.536   3.116
 9436SOL    HW129207   2.550   0.605   3.050
 9436SOL    HW229208   2.654   0.573   3.172
 9437SOL     OW29209   5.202   0.801   5.183
 9437SOL    HW129210   5.224   0.711   5.221
 9437SOL    HW229211   5.249   0.813   5.096
 9438SOL     OW29212   4.760   0.373   2.499
 9438SOL    HW129213   4.816   0.371   2.416
 9438SOL    HW229214   4.732   0.279   2.522
 9439SOL     OW29215   1.659   4.149   0.873
 9439SOL    HW129216   1.631   4.241   0.900
 9439SOL    HW229217   1.646   4.138   0.775
 9440SOL     OW29218   1.984   5.101   3.479
 9440SOL    HW129219   1.993   5.168   3.406
 9440SOL    HW229220   1.996   5.146   3.568
 9441SOL     OW29221   0.306   6.587   4.406
 9441SOL    HW129222   0.309   6.671   4.460
 9441SOL    HW229223   0.212   6.566   4.382
 9442SOL     OW29224   5.676   3.099   0.921
 9442SOL    HW129225   5.577   3.103   0.911
 9442SOL    HW229226   5.718   3.081   0.831
 9443SOL     OW29227   1.901   4.822   1.877
 9443SOL    HW129228   1.820   4.828   1.818
 9443SOL    HW229229   1.877   4.848   1.970
 9444SOL     OW29230   2.222   4.625   6.722
 9444SOL    HW129231   2.186   4.630   6.815
 9444SOL    HW229232   2.233   4.529   6.696
 9445SOL     OW29233   0.136   1.938   4.414
 9445SOL    HW129234   0.215   1.923   4.355
 9445SOL    HW229235   0.146   1.884   4.498
 9446SOL     OW29236   6.227   3.885   4.803
 9446SOL    HW129237   6.139   3.929   4.784
 9446SOL    HW229238   6.278   3.940   4.870
 9447SOL     OW29239   4.980   4.140   2.129
 9447SOL    HW129240   4.907   4.185   2.078
 9447SOL    HW229241   5.060   4.128   2.070
 9448SOL     OW29242   6.277   2.108   6.394
 9448SOL    HW129243   6.247   2.014   6.403
 9448SOL    HW229244   6.357   2.112   6.334
 9449SOL     OW29245   5.377   0.355   2.483
 9449SOL    HW129246   5.418   0.265   2.469
 9449SOL    HW229247   5.294   0.347   2.538
 9450SOL     OW29248   1.237   6.605   3.353
 9450SOL    HW129249   1.282   6.604   3.442
 9450SOL    HW229250   1.267   6.526   3.299
 9451SOL     OW29251   4.002   5.318   0.329
 9451SOL    HW129252   3.944   5.237   0.326
 9451SOL    HW229253   4.097   5.291   0.343
 9452SOL     OW29254   6.229   4.344   6.618
 9452SOL    HW129255   6.297   4.408   6.652
 9452SOL    HW229256   6.263   4.298   6.536
 9453SOL     OW29257   5.302   4.585   1.454
 9453SOL    HW129258   5.354   4.533   1.386
 9453SOL    HW229259   5.230   4.527   1.492
 9454SOL     OW29260   6.238   5.134   0.322
 9454SOL    HW129261   6.157   5.106   0.372
 9454SOL    HW229262   6.262   5.065   0.254
 9455SOL     OW29263   3.866   0.904   1.714
 9455SOL    HW129264   3.949   0.856   1.687
 9455SOL    HW229265   3.793   0.838   1.732
 9456SOL     OW29266   6.467   1.930   3.270
 9456SOL    HW129267   6.489   1.868   3.346
 9456SOL    HW229268   6.426   1.878   3.195
 9457SOL     OW29269   6.297   5.988   4.579
 9457SOL    HW129270   6.299   6.052   4.655
 9457SOL    HW229271   6.311   6.037   4.493
 9458SOL     OW29272   5.851   4.068   0.104
 9458SOL    HW129273   5.925   4.130   0.077
 9458SOL    HW229274   5.880   4.015   0.184
 9459SOL     OW29275   4.720   4.474   4.791
 9459SOL    HW129276   4.685   4.562   4.822
 9459SOL    HW229277   4.677   4.449   4.705
 9460SOL     OW29278   0.956   3.396   2.117
 9460SOL    HW129279   0.979   3.332   2.190
 9460SOL    HW229280   1.015   3.476   2.123
 9461SOL     OW29281   1.682   1.166   1.508
 9461SOL    HW129282   1.699   1.253   1.554
 9461SOL    HW229283   1.674   1.181   1.409
 9462SOL     OW29284   6.908   1.123   4.951
 9462SOL    HW129285   6.957   1.082   5.028
 9462SOL    HW229286   6.825   1.070   4.932
 9463SOL     OW29287   6.584   4.096   0.450
 9463SOL    HW129288   6.663   4.036   0.440
 9463SOL    HW229289   6.500   4.042   0.445
 9464SOL     OW29290   1.181   0.456   1.597
 9464SOL    HW129291   1.219   0.363   1.600
 9464SOL    HW229292   1.234   0.511   1.533
 9465SOL     OW29293   0.007   5.708   0.381
 9465SOL    HW129294   6.994   5.783   0.324
 9465SOL    HW229295   6.978   5.707   0.468
 9466SOL     OW29296   4.506   3.712   5.349
 9466SOL    HW129297   4.494   3.810   5.364
 9466SOL    HW229298   4.581   3.698   5.285
 9467SOL     OW29299   1.490   3.036   0.890
 9467SOL    HW129300   1.467   3.013   0.795
 9467SOL    HW229301   1.549   2.964   0.928
 9468SOL     OW29302   5.807   1.236   0.734
 9468SOL    HW129303   5.726   1.264   0.683
 9468SOL    HW229304   5.789   1.243   0.832
 9469SOL     OW29305   6.753   6.826   1.427
 9469SOL    HW129306   6.773   6.803   1.332
 9469SOL    HW229307   6.822   6.784   1.486
 9470SOL     OW29308   3.748   3.087   0.417
 9470SOL    HW129309   3.810   3.131   0.352
 9470SOL    HW229310   3.775   2.992   0.429
 9471SOL     OW29311   6.274   2.632   4.824
 9471SOL    HW129312   6.216   2.714   4.824
 9471SOL    HW229313   6.217   2.551   4.809
 9472SOL     OW29314   1.947   3.730   5.748
 9472SOL    HW129315   1.885   3.658   5.717
 9472SOL    HW229316   1.945   3.735   5.848
 9473SOL     OW29317   2.683   3.834   1.152
 9473SOL    HW129318   2.620   3.897   1.198
 9473SOL    HW229319   2.767   3.826   1.205
 9474SOL     OW29320   5.259   4.156   0.862
 9474SOL    HW129321   5.342   4.116   0.824
 9474SOL    HW229322   5.244   4.246   0.822
 9475SOL     OW29323   4.827   4.001   5.545
 9475SOL    HW129324   4.755   3.988   5.614
 9475SOL    HW229325   4.786   4.006   5.454
 9476SOL     OW29326   4.435   3.663   1.270
 9476SOL    HW129327   4.521   3.626   1.304
 9476SOL    HW229328   4.374   3.681   1.347
 9477SOL     OW29329   2.955   4.418   0.396
 9477SOL    HW129330   2.861   4.435   0.424
 9477SOL    HW229331   2.956   4.350   0.322
 9478SOL     OW29332   5.647   4.029   6.320
 9478SOL    HW129333   5.635   4.059   6.225
 9478SOL    HW229334   5.604   4.095   6.381
 9479SOL     OW29335   4.586   0.878   1.658
 9479SOL    HW129336   4.611   0.955   1.600
 9479SOL    HW229337   4.662   0.858   1.721
 9480SOL     OW29338   5.758   0.564   1.013
 9480SOL    HW129339   5.726   0.494   0.949
 9480SOL    HW229340   5.680   0.601   1.064
 9481SOL     OW29341   4.377   0.632   3.456
 9481SOL    HW129342   4.430   0.714   3.478
 9481SOL    HW229343   4.421   0.552   3.496
 9482SOL     OW29344   6.007   5.693   6.377
 9482SOL    HW129345   6.023   5.618   6.312
 9482SOL    HW229346   6.088   5.752   6.380
 9483SOL     OW29347   6.541   6.974   0.005
 9483SOL    HW129348   6.531   0.052   7.012
 9483SOL    HW229349   6.565   6.957   0.101
 9484SOL     OW29350   2.979   5.742   4.612
 9484SOL    HW129351   2.999   5.751   4.710
 9484SOL    HW229352   2.937   5.653   4.595
 9485SOL     OW29353   0.178   1.376   5.768
 9485SOL    HW129354   0.164   1.474   5.757
 9485SOL    HW229355   0.239   1.359   5.846
 9486SOL     OW29356   6.492   5.305   6.705
 9486SOL    HW129357   6.518   5.384   6.760
 9486SOL    HW229358   6.470   5.228   6.765
 9487SOL     OW29359   3.502   3.831   3.218
 9487SOL    HW129360   3.420   3.815   3.273
 9487SOL    HW229361   3.477   3.840   3.122
 9488SOL     OW29362   1.353   0.660   1.479
 9488SOL    HW129363   1.324   0.755   1.496
 9488SOL    HW229364   1.374   0.649   1.382
 9489SOL     OW29365   5.490   3.475   0.284
 9489SOL    HW129366   5.572   3.505   0.332
 9489SOL    HW229367   5.507   3.472   0.186
 9490SOL     OW29368   5.551   3.490   5.039
 9490SOL    HW129369   5.530   3.494   4.942
 9490SOL    HW229370   5.518   3.403   5.077
 9491SOL     OW29371   5.655   0.137   2.731
 9491SOL    HW129372   5.727   0.075   2.762
 9491SOL    HW229373   5.673   0.164   2.636
 9492SOL     OW29374   4.843   2.697   3.492
 9492SOL    HW129375   4.834   2.741   3.580
 9492SOL    HW229376   4.883   2.606   3.504
 9493SOL     OW29377   3.708   6.418   1.118
 9493SOL    HW129378   3.742   6.484   1.185
 9493SOL    HW229379   3.623   6.377   1.150
 9494SOL     OW29380   5.669   2.179   1.905
 9494SOL    HW129381   5.722   2.142   1.981
 9494SOL    HW229382   5.631   2.268   1.932
 9495SOL     OW29383   5.929   2.765   1.084
 9495SOL    HW129384   5.924   2.678   1.132
 9495SOL    HW229385   5.993   2.826   1.132
 9496SOL     OW29386   5.798   2.059   1.437
 9496SOL    HW129387   5.813   1.967   1.473
 9496SOL    HW229388   5.737   2.109   1.499
 9497SOL     OW29389   4.542   4.647   4.925
 9497SOL    HW129390   4.511   4.685   4.838
 9497SOL    HW229391   4.464   4.634   4.986
 9498SOL     OW29392   1.007   5.468   4.296
 9498SOL    HW129393   0.960   5.385   4.327
 9498SOL    HW229394   1.104   5.447   4.280
 9499SOL     OW29395   5.632   5.711   4.515
 9499SOL    HW129396   5.582   5.795   4.492
 9499SOL    HW229397   5.727   5.721   4.487
 9500SOL     OW29398   2.999   1.488   0.567
 9500SOL    HW129399   2.973   1.583   0.582
 9500SOL    HW229400   2.924   1.439   0.524
 9501SOL     OW29401   2.133   3.806   4.904
 9501SOL    HW129402   2.058   3.869   4.881
 9501SOL    HW229403   2.202   3.855   4.956
 9502SOL     OW29404   5.248   4.853   3.870
 9502SOL    HW129405   5.170   4.798   3.841
 9502SOL    HW229406   5.329   4.826   3.819
 9503SOL     OW29407   6.021   0.885   0.648
 9503SOL    HW129408   6.036   0.816   0.577
 9503SOL    HW229409   5.943   0.858   0.705
 9504SOL     OW29410   6.361   5.660   1.758
 9504SOL    HW129411   6.347   5.638   1.855
 9504SOL    HW229412   6.273   5.655   1.710
 9505SOL     OW29413   4.625   4.231   5.915
 9505SOL    HW129414   4.716   4.196   5.936
 9505SOL    HW229415   4.628   4.331   5.908
 9506SOL     OW29416   2.577   1.007   1.045
 9506SOL    HW129417   2.575   1.067   1.125
 9506SOL    HW229418   2.651   0.941   1.054
 9507SOL     OW29419   5.856   6.983   2.501
 9507SOL    HW129420   5.809   6.939   2.577
 9507SOL    HW229421   5.802   0.040   2.469
 9508SOL     OW29422   4.629   1.618   2.223
 9508SOL    HW129423   4.559   1.564   2.176
 9508SOL    HW229424   4.601   1.632   2.318
 9509SOL     OW29425   5.478   0.981   3.653
 9509SOL    HW129426   5.495   1.078   3.672
 9509SOL    HW229427   5.534   0.953   3.575
 9510SOL     OW29428   1.954   2.844   3.194
 9510SOL    HW129429   1.865   2.889   3.186
 9510SOL    HW229430   1.956   2.789   3.277
 9511SOL     OW29431   0.263   1.779   1.133
 9511SOL    HW129432   0.249   1.690   1.177
 9511SOL    HW229433   0.196   1.844   1.167
 9512SOL     OW29434   6.545   1.675   1.863
 9512SOL    HW129435   6.590   1.591   1.832
 9512SOL    HW229436   6.465   1.651   1.918
 9513SOL     OW29437   4.737   3.921   5.251
 9513SOL    HW129438   4.738   3.821   5.239
 9513SOL    HW229439   4.643   3.953   5.259
 9514SOL     OW29440   3.783   2.876   6.781
 9514SOL    HW129441   3.793   2.839   6.873
 9514SOL    HW229442   3.753   2.971   6.785
 9515SOL     OW29443   0.769   5.532   3.841
 9515SOL    HW129444   0.695   5.594   3.817
 9515SOL    HW229445   0.850   5.554   3.787
 9516SOL     OW29446   6.805   3.926   6.138
 9516SOL    HW129447   6.719   3.945   6.090
 9516SOL    HW229448   6.786   3.868   6.217
 9517SOL     OW29449   0.308   6.604   1.465
 9517SOL    HW129450   0.348   6.515   1.443
 9517SOL    HW229451   0.343   6.636   1.552
 9518SOL     OW29452   1.339   0.363   0.861
 9518SOL    HW129453   1.250   0.357   0.905
 9518SOL    HW229454   1.386   0.275   0.867
 9519SOL     OW29455   0.924   3.004   5.359
 9519SOL    HW129456   0.972   2.959   5.283
 9519SOL    HW229457   0.856   3.068   5.322
 9520SOL     OW29458   3.939   6.890   1.671
 9520SOL    HW129459   3.956   6.792   1.667
 9520SOL    HW229460   4.025   6.940   1.671
 9521SOL     OW29461   5.239   5.687   3.185
 9521SOL    HW129462   5.310   5.756   3.201
 9521SOL    HW229463   5.231   5.628   3.265
 9522SOL     OW29464   3.327   5.454   0.108
 9522SOL    HW129465   3.318   5.358   0.135
 9522SOL    HW229466   3.237   5.498   0.110
 9523SOL     OW29467   2.796   6.428   5.796
 9523SOL    HW129468   2.867   6.455   5.861
 9523SOL    HW229469   2.771   6.506   5.739
 9524SOL     OW29470   4.490   2.481   1.091
 9524SOL    HW129471   4.580   2.499   1.051
 9524SOL    HW229472   4.477   2.383   1.102
 9525SOL     OW29473   3.770   0.074   5.070
 9525SOL    HW129474   3.676   0.103   5.057
 9525SOL    HW229475   3.832   0.143   5.032
 9526SOL     OW29476   4.425   6.617   2.254
 9526SOL    HW129477   4.492   6.548   2.281
 9526SOL    HW229478   4.466   6.681   2.189
 9527SOL     OW29479   6.696   2.090   1.231
 9527SOL    HW129480   6.748   2.017   1.275
 9527SOL    HW229481   6.607   2.100   1.276
 9528SOL     OW29482   6.792   1.085   1.695
 9528SOL    HW129483   6.875   1.142   1.692
 9528SOL    HW229484   6.805   1.005   1.637
 9529SOL     OW29485   1.093   3.795   4.748
 9529SOL    HW129486   1.100   3.732   4.826
 9529SOL    HW229487   0.996   3.808   4.725
 9530SOL     OW29488   1.402   2.619   4.396
 9530SOL    HW129489   1.487   2.566   4.391
 9530SOL    HW229490   1.324   2.557   4.388
 9531SOL     OW29491   2.948   6.218   3.617
 9531SOL    HW129492   2.889   6.254   3.689
 9531SOL    HW229493   2.892   6.164   3.553
 9532SOL     OW29494   2.893   1.590   2.016
 9532SOL    HW129495   2.950   1.611   1.937
 9532SOL    HW229496   2.808   1.548   1.986
 9533SOL     OW29497   1.187   1.097   4.772
 9533SOL    HW129498   1.136   1.075   4.855
 9533SOL    HW229499   1.145   1.052   4.694
 9534SOL     OW29500   5.357   1.791   4.474
 9534SOL    HW129501   5.312   1.704   4.493
 9534SOL    HW229502   5.375   1.839   4.560
 9535SOL     OW29503   3.243   2.067   4.666
 9535SOL    HW129504   3.270   2.075   4.570
 9535SOL    HW229505   3.178   2.139   4.689
 9536SOL     OW29506   2.529   6.338   6.608
 9536SOL    HW129507   2.484   6.277   6.674
 9536SOL    HW229508   2.628   6.335   6.622
 9537SOL     OW29509   2.784   6.781   0.759
 9537SOL    HW129510   2.781   6.773   0.659
 9537SOL    HW229511   2.871   6.822   0.786
 9538SOL     OW29512   6.037   3.782   3.451
 9538SOL    HW129513   6.107   3.789   3.381
 9538SOL    HW229514   6.003   3.874   3.474
 9539SOL     OW29515   0.413   3.933   6.827
 9539SOL    HW129516   0.349   3.896   6.894
 9539SOL    HW229517   0.507   3.919   6.860
 9540SOL     OW29518   5.504   3.379   5.552
 9540SOL    HW129519   5.417   3.400   5.595
 9540SOL    HW229520   5.509   3.281   5.531
 9541SOL     OW29521   0.125   1.772   3.605
 9541SOL    HW129522   0.117   1.844   3.536
 9541SOL    HW229523   0.038   1.721   3.609
 9542SOL     OW29524   4.608   4.426   4.560
 9542SOL    HW129525   4.611   4.355   4.490
 9542SOL    HW229526   4.519   4.472   4.558
 9543SOL     OW29527   5.209   2.371   1.806
 9543SOL    HW129528   5.129   2.396   1.752
 9543SOL    HW229529   5.287   2.427   1.778
 9544SOL     OW29530   4.027   1.406   1.776
 9544SOL    HW129531   4.110   1.417   1.722
 9544SOL    HW229532   4.021   1.311   1.809
 9545SOL     OW29533   1.282   0.179   4.422
 9545SOL    HW129534   1.350   0.194   4.350
 9545SOL    HW229535   1.205   0.241   4.409
 9546SOL     OW29536   2.204   4.666   2.125
 9546SOL    HW129537   2.215   4.720   2.042
 9546SOL    HW229538   2.108   4.637   2.134
 9547SOL     OW29539   6.034   5.434   3.526
 9547SOL    HW129540   5.962   5.410   3.591
 9547SOL    HW229541   6.110   5.477   3.575
 9548SOL     OW29542   4.977   0.664   2.836
 9548SOL    HW129543   4.928   0.735   2.786
 9548SOL    HW229544   4.943   0.574   2.810
 9549SOL     OW29545   2.491   5.597   0.485
 9549SOL    HW129546   2.401   5.565   0.455
 9549SOL    HW229547   2.479   5.668   0.554
 9550SOL     OW29548   1.248   1.080   0.214
 9550SOL    HW129549   1.325   1.143   0.207
 9550SOL    HW229550   1.263   1.019   0.292
 9551SOL     OW29551   1.387   5.882   5.543
 9551SOL    HW129552   1.358   5.788   5.529
 9551SOL    HW229553   1.340   5.941   5.477
 9552SOL     OW29554   0.660   5.355   3.654
 9552SOL    HW129555   0.662   5.399   3.564
 9552SOL    HW229556   0.695   5.418   3.723
 9553SOL     OW29557   5.411   4.201   6.069
 9553SOL    HW129558   5.465   4.118   6.067
 9553SOL    HW229559   5.471   4.281   6.065
 9554SOL     OW29560   1.875   1.856   1.532
 9554SOL    HW129561   1.934   1.879   1.455
 9554SOL    HW229562   1.779   1.872   1.507
 9555SOL     OW29563   0.060   2.652   6.164
 9555SOL    HW129564   7.005   2.623   6.221
 9555SOL    HW229565   0.062   2.596   6.080
 9556SOL     OW29566   6.736   1.285   0.845
 9556SOL    HW129567   6.832   1.298   0.869
 9556SOL    HW229568   6.680   1.350   0.896
 9557SOL     OW29569   5.179   1.572   2.050
 9557SOL    HW129570   5.266   1.617   2.029
 9557SOL    HW229571   5.125   1.631   2.110
 9558SOL     OW29572   6.144   4.292   1.692
 9558SOL    HW129573   6.108   4.302   1.600
 9558SOL    HW229574   6.210   4.217   1.694
 9559SOL     OW29575   6.724   3.989   2.194
 9559SOL    HW129576   6.818   3.975   2.163
 9559SOL    HW229577   6.695   3.912   2.251
 9560SOL     OW29578   4.048   2.240   5.164
 9560SOL    HW129579   4.096   2.305   5.106
 9560SOL    HW229580   4.113   2.175   5.202
 9561SOL     OW29581   2.937   6.560   6.006
 9561SOL    HW129582   2.936   6.516   6.095
 9561SOL    HW229583   3.012   6.627   6.002
 9562SOL     OW29584   5.874   4.888   4.285
 9562SOL    HW129585   5.844   4.793   4.296
 9562SOL    HW229586   5.868   4.914   4.189
 9563SOL     OW29587   0.536   6.215   6.806
 9563SOL    HW129588   0.612   6.186   6.747
 9563SOL    HW229589   0.569   6.226   6.900
 9564SOL     OW29590   1.461   0.390   6.225
 9564SOL    HW129591   1.492   0.360   6.315
 9564SOL    HW229592   1.448   0.489   6.225
 9565SOL     OW29593   3.735   5.906   4.043
 9565SOL    HW129594   3.790   5.823   4.034
 9565SOL    HW229595   3.691   5.908   4.133
 9566SOL     OW29596   3.298   4.631   6.104
 9566SOL    HW129597   3.223   4.685   6.141
 9566SOL    HW229598   3.341   4.579   6.178
 9567SOL     OW29599   6.116   4.892   4.947
 9567SOL    HW129600   6.052   4.958   4.908
 9567SOL    HW229601   6.190   4.875   4.882
 9568SOL     OW29602   5.056   3.976   6.166
 9568SOL    HW129603   5.091   3.955   6.074
 9568SOL    HW229604   5.093   4.063   6.196
 9569SOL     OW29605   5.379   6.753   1.819
 9569SOL    HW129606   5.411   6.792   1.905
 9569SOL    HW229607   5.317   6.817   1.774
 9570SOL     OW29608   0.892   1.606   6.711
 9570SOL    HW129609   0.884   1.619   6.809
 9570SOL    HW229610   0.802   1.615   6.669
 9571SOL     OW29611   2.482   2.423   0.529
 9571SOL    HW129612   2.435   2.507   0.555
 9571SOL    HW229613   2.419   2.346   0.537
 9572SOL     OW29614   0.169   3.743   1.329
 9572SOL    HW129615   0.096   3.764   1.264
 9572SOL    HW229616   0.244   3.698   1.281
 9573SOL     OW29617   5.304   1.167   2.605
 9573SOL    HW129618   5.286   1.232   2.679
 9573SOL    HW229619   5.262   1.079   2.627
 9574SOL     OW29620   2.932   2.214   3.581
 9574SOL    HW129621   3.011   2.157   3.559
 9574SOL    HW229622   2.848   2.164   3.560
 9575SOL     OW29623   4.262   1.191   3.143
 9575SOL    HW129624   4.339   1.253   3.161
 9575SOL    HW229625   4.294   1.115   3.086
 9576SOL     OW29626   3.903   2.953   5.403
 9576SOL    HW129627   3.944   2.873   5.360
 9576SOL    HW229628   3.803   2.943   5.404
 9577SOL     OW29629   0.894   5.883   3.660
 9577SOL    HW129630   0.917   5.956   3.596
 9577SOL    HW229631   0.970   5.869   3.723
 9578SOL     OW29632   6.379   4.445   1.521
 9578SOL    HW129633   6.373   4.543   1.538
 9578SOL    HW229634   6.462   4.408   1.565
 9579SOL     OW29635   1.891   5.335   2.856
 9579SOL    HW129636   1.940   5.421   2.845
 9579SOL    HW229637   1.793   5.352   2.855
 9580SOL     OW29638   4.604   3.539   5.976
 9580SOL    HW129639   4.610   3.531   6.076
 9580SOL    HW229640   4.560   3.626   5.953
 9581SOL     OW29641   1.149   5.816   5.397
 9581SOL    HW129642   1.181   5.722   5.413
 9581SOL    HW229643   1.051   5.821   5.412
 9582SOL     OW29644   4.534   5.444   2.992
 9582SOL    HW129645   4.629   5.415   3.001
 9582SOL    HW229646   4.499   5.417   2.902
 9583SOL     OW29647   1.832   4.905   2.115
 9583SOL    HW129648   1.806   4.967   2.190
 9583SOL    HW229649   1.842   4.812   2.151
 9584SOL     OW29650   5.148   5.001   0.088
 9584SOL    HW129651   5.162   4.926   0.153
 9584SOL    HW229652   5.055   4.997   0.052
 9585SOL     OW29653   6.891   0.880   3.080
 9585SOL    HW129654   6.965   0.843   3.135
 9585SOL    HW229655   6.921   0.888   2.984
 9586SOL     OW29656   4.980   3.725   2.603
 9586SOL    HW129657   5.034   3.704   2.521
 9586SOL    HW229658   4.928   3.809   2.588
 9587SOL     OW29659   5.082   6.217   1.552
 9587SOL    HW129660   5.141   6.227   1.471
 9587SOL    HW229661   5.086   6.300   1.607
 9588SOL     OW29662   6.789   1.137   3.112
 9588SOL    HW129663   6.690   1.150   3.113
 9588SOL    HW229664   6.810   1.039   3.105
 9589SOL     OW29665   3.028   2.001   5.016
 9589SOL    HW129666   2.996   2.014   4.922
 9589SOL    HW229667   3.081   2.080   5.045
 9590SOL     OW29668   0.806   5.148   4.615
 9590SOL    HW129669   0.788   5.201   4.698
 9590SOL    HW229670   0.864   5.201   4.553
 9591SOL     OW29671   1.131   4.258   2.588
 9591SOL    HW129672   1.099   4.352   2.603
 9591SOL    HW229673   1.053   4.196   2.593
 9592SOL     OW29674   5.102   5.838   0.806
 9592SOL    HW129675   5.064   5.760   0.757
 9592SOL    HW229676   5.152   5.806   0.886
 9593SOL     OW29677   2.793   2.345   3.343
 9593SOL    HW129678   2.761   2.394   3.262
 9593SOL    HW229679   2.722   2.346   3.413
 9594SOL     OW29680   6.011   0.039   1.033
 9594SOL    HW129681   5.923   0.086   1.027
 9594SOL    HW229682   6.004   6.969   0.992
 9595SOL     OW29683   1.062   5.408   4.704
 9595SOL    HW129684   1.137   5.342   4.694
 9595SOL    HW229685   1.100   5.498   4.725
 9596SOL     OW29686   5.197   5.618   1.945
 9596SOL    HW129687   5.267   5.654   2.006
 9596SOL    HW229688   5.107   5.624   1.989
 9597SOL     OW29689   1.823   4.454   1.078
 9597SOL    HW129690   1.779   4.372   1.114
 9597SOL    HW229691   1.902   4.476   1.135
 9598SOL     OW29692   0.541   5.800   5.889
 9598SOL    HW129693   0.639   5.802   5.910
 9598SOL    HW229694   0.511   5.892   5.864
 9599SOL     OW29695   3.773   1.561   4.829
 9599SOL    HW129696   3.821   1.576   4.915
 9599SOL    HW229697   3.721   1.643   4.805
 9600SOL     OW29698   1.311   6.239   6.528
 9600SOL    HW129699   1.282   6.289   6.447
 9600SOL    HW229700   1.406   6.263   6.550
 9601SOL     OW29701   0.719   6.574   5.289
 9601SOL    HW129702   0.743   6.482   5.257
 9601SOL    HW229703   0.651   6.614   5.228
 9602SOL     OW29704   1.169   5.441   6.328
 9602SOL    HW129705   1.250   5.440   6.386
 9602SOL    HW229706   1.090   5.473   6.381
 9603SOL     OW29707   0.999   4.958   2.426
 9603SOL    HW129708   1.070   4.889   2.413
 9603SOL    HW229709   1.010   5.032   2.359
 9604SOL     OW29710   0.001   6.978   6.675
 9604SOL    HW129711   7.010   0.039   6.618
 9604SOL    HW229712   6.980   6.900   6.630
 9605SOL     OW29713   2.974   4.860   0.239
 9605SOL    HW129714   2.985   4.765   0.268
 9605SOL    HW229715   3.064   4.904   0.236
 9606SOL     OW29716   6.802   6.913   5.239
 9606SOL    HW129717   6.831   6.884   5.330
 9606SOL    HW229718   6.853   6.861   5.170
 9607SOL     OW29719   6.969   2.263   2.325
 9607SOL    HW129720   6.915   2.337   2.285
 9607SOL    HW229721   0.027   2.301   2.372
 9608SOL     OW29722   6.686   0.550   2.334
 9608SOL    HW129723   6.729   0.583   2.418
 9608SOL    HW229724   6.695   0.450   2.329
 9609SOL     OW29725   1.862   2.000   3.363
 9609SOL    HW129726   1.845   1.914   3.314
 9609SOL    HW229727   1.912   1.981   3.447
 9610SOL     OW29728   3.651   0.581   5.701
 9610SOL    HW129729   3.592   0.638   5.757
 9610SOL    HW229730   3.704   0.639   5.638
 9611SOL     OW29731   5.392   5.912   1.152
 9611SOL    HW129732   5.292   5.915   1.153
 9611SOL    HW229733   5.426   5.962   1.073
 9612SOL     OW29734   5.356   3.658   3.681
 9612SOL    HW129735   5.296   3.604   3.740
 9612SOL    HW229736   5.330   3.646   3.586
 9613SOL     OW29737   5.684   0.822   5.289
 9613SOL    HW129738   5.661   0.752   5.356
 9613SOL    HW229739   5.780   0.813   5.262
 9614SOL     OW29740   2.972   2.699   0.530
 9614SOL    HW129741   2.883   2.743   0.517
 9614SOL    HW229742   2.958   2.602   0.552
 9615SOL     OW29743   0.798   5.735   4.063
 9615SOL    HW129744   0.816   5.659   4.001
 9615SOL    HW229745   0.702   5.761   4.058
 9616SOL     OW29746   0.900   2.483   1.253
 9616SOL    HW129747   0.855   2.396   1.233
 9616SOL    HW229748   0.935   2.523   1.168
 9617SOL     OW29749   0.278   3.134   2.452
 9617SOL    HW129750   0.229   3.119   2.366
 9617SOL    HW229751   0.237   3.078   2.524
 9618SOL     OW29752   4.787   3.982   1.087
 9618SOL    HW129753   4.833   4.071   1.080
 9618SOL    HW229754   4.837   3.915   1.031
 9619SOL     OW29755   0.339   6.896   1.265
 9619SOL    HW129756   0.242   6.886   1.287
 9619SOL    HW229757   0.391   6.916   1.348
 9620SOL     OW29758   3.140   1.582   6.937
 9620SOL    HW129759   3.151   1.579   6.838
 9620SOL    HW229760   3.155   1.491   6.975
 9621SOL     OW29761   0.465   0.397   1.592
 9621SOL    HW129762   0.452   0.439   1.502
 9621SOL    HW229763   0.560   0.411   1.621
 9622SOL     OW29764   6.250   5.721   5.836
 9622SOL    HW129765   6.176   5.702   5.901
 9622SOL    HW229766   6.336   5.686   5.872
 9623SOL     OW29767   3.244   5.997   5.483
 9623SOL    HW129768   3.150   5.980   5.453
 9623SOL    HW229769   3.305   5.995   5.404
 9624SOL     OW29770   4.504   5.125   5.662
 9624SOL    HW129771   4.522   5.061   5.736
 9624SOL    HW229772   4.552   5.211   5.679
 9625SOL     OW29773   4.392   4.098   5.931
 9625SOL    HW129774   4.392   4.001   5.955
 9625SOL    HW229775   4.486   4.131   5.924
 9626SOL     OW29776   2.498   2.359   6.429
 9626SOL    HW129777   2.451   2.445   6.450
 9626SOL    HW229778   2.511   2.307   6.513
 9627SOL     OW29779   0.227   5.551   0.751
 9627SOL    HW129780   0.264   5.626   0.807
 9627SOL    HW229781   0.149   5.584   0.699
 9628SOL     OW29782   6.425   1.280   6.036
 9628SOL    HW129783   6.362   1.210   6.069
 9628SOL    HW229784   6.421   1.360   6.096
 9629SOL     OW29785   0.511   5.692   3.805
 9629SOL    HW129786   0.433   5.630   3.803
 9629SOL    HW229787   0.479   5.785   3.825
 9630SOL     OW29788   5.427   1.795   6.260
 9630SOL    HW129789   5.419   1.757   6.353
 9630SOL    HW229790   5.466   1.887   6.266
 9631SOL     OW29791   4.716   6.717   0.532
 9631SOL    HW129792   4.703   6.621   0.556
 9631SOL    HW229793   4.695   6.775   0.610
 9632SOL     OW29794   2.363   4.783   2.918
 9632SOL    HW129795   2.413   4.799   3.003
 9632SOL    HW229796   2.417   4.816   2.841
 9633SOL     OW29797   3.728   2.890   4.742
 9633SOL    HW129798   3.737   2.790   4.744
 9633SOL    HW229799   3.820   2.931   4.739
 9634SOL     OW29800   5.435   4.776   3.128
 9634SOL    HW129801   5.529   4.797   3.152
 9634SOL    HW229802   5.373   4.843   3.169
 9635SOL     OW29803   0.642   4.657   4.077
 9635SOL    HW129804   0.574   4.619   4.015
 9635SOL    HW229805   0.621   4.754   4.094
 9636SOL     OW29806   5.854   4.141   3.813
 9636SOL    HW129807   5.904   4.225   3.834
 9636SOL    HW229808   5.896   4.064   3.860
 9637SOL     OW29809   1.573   3.754   0.485
 9637SOL    HW129810   1.550   3.851   0.491
 9637SOL    HW229811   1.623   3.727   0.567
 9638SOL     OW29812   6.104   5.324   5.969
 9638SOL    HW129813   6.014   5.368   5.975
 9638SOL    HW229814   6.163   5.359   6.041
 9639SOL     OW29815   4.978   2.490   1.666
 9639SOL    HW129816   4.941   2.503   1.575
 9639SOL    HW229817   4.984   2.578   1.713
 9640SOL     OW29818   3.448   0.489   3.053
 9640SOL    HW129819   3.435   0.576   3.006
 9640SOL    HW229820   3.419   0.497   3.149
 9641SOL     OW29821   6.740   2.841   4.936
 9641SOL    HW129822   6.762   2.938   4.927
 9641SOL    HW229823   6.643   2.827   4.918
 9642SOL     OW29824   0.623   2.379   4.653
 9642SOL    HW129825   0.705   2.415   4.697
 9642SOL    HW229826   0.628   2.395   4.554
 9643SOL     OW29827   5.511   5.056   4.305
 9643SOL    HW129828   5.493   4.958   4.296
 9643SOL    HW229829   5.506   5.099   4.215
 9644SOL     OW29830   1.515   4.975   3.601
 9644SOL    HW129831   1.551   4.983   3.508
 9644SOL    HW229832   1.562   4.901   3.649
 9645SOL     OW29833   1.657   4.772   6.566
 9645SOL    HW129834   1.742   4.741   6.608
 9645SOL    HW229835   1.678   4.834   6.490
 9646SOL     OW29836   3.325   5.722   0.342
 9646SOL    HW129837   3.378   5.744   0.260
 9646SOL    HW229838   3.382   5.668   0.404
 9647SOL     OW29839   5.876   6.564   3.015
 9647SOL    HW129840   5.899   6.640   3.075
 9647SOL    HW229841   5.956   6.504   3.005
 9648SOL     OW29842   2.609   2.055   1.128
 9648SOL    HW129843   2.612   2.036   1.029
 9648SOL    HW229844   2.664   1.987   1.176
 9649SOL     OW29845   0.588   5.416   1.192
 9649SOL    HW129846   0.627   5.440   1.103
 9649SOL    HW229847   0.541   5.496   1.230
 9650SOL     OW29848   1.058   4.667   4.691
 9650SOL    HW129849   1.039   4.588   4.634
 9650SOL    HW229850   1.030   4.751   4.643
 9651SOL     OW29851   3.434   1.755   6.733
 9651SOL    HW129852   3.369   1.750   6.656
 9651SOL    HW229853   3.513   1.698   6.713
 9652SOL     OW29854   0.448   4.195   0.107
 9652SOL    HW129855   0.389   4.127   0.064
 9652SOL    HW229856   0.518   4.225   0.042
 9653SOL     OW29857   5.127   4.387   5.467
 9653SOL    HW129858   5.081   4.300   5.487
 9653SOL    HW229859   5.210   4.370   5.415
 9654SOL     OW29860   3.803   3.554   3.303
 9654SOL    HW129861   3.840   3.628   3.246
 9654SOL    HW229862   3.826   3.571   3.399
 9655SOL     OW29863   4.516   1.637   1.182
 9655SOL    HW129864   4.522   1.549   1.229
 9655SOL    HW229865   4.422   1.651   1.150
 9656SOL     OW29866   4.846   4.252   6.340
 9656SOL    HW129867   4.908   4.223   6.267
 9656SOL    HW229868   4.753   4.260   6.303
 9657SOL     OW29869   5.003   4.802   3.757
 9657SOL    HW129870   5.046   4.817   3.667
 9657SOL    HW229871   4.906   4.783   3.744
 9658SOL     OW29872   5.609   1.489   2.682
 9658SOL    HW129873   5.697   1.525   2.652
 9658SOL    HW229874   5.598   1.395   2.650
 9659SOL     OW29875   3.168   2.911   6.547
 9659SOL    HW129876   3.133   2.972   6.476
 9659SOL    HW229877   3.120   2.823   6.542
 9660SOL     OW29878   1.550   6.371   1.428
 9660SOL    HW129879   1.464   6.408   1.465
 9660SOL    HW229880   1.544   6.368   1.329
 9661SOL     OW29881   4.066   3.307   1.776
 9661SOL    HW129882   4.018   3.380   1.823
 9661SOL    HW229883   4.165   3.318   1.788
 9662SOL     OW29884   4.633   6.607   5.940
 9662SOL    HW129885   4.659   6.606   6.036
 9662SOL    HW229886   4.657   6.520   5.897
 9663SOL     OW29887   0.956   5.462   2.760
 9663SOL    HW129888   0.930   5.559   2.768
 9663SOL    HW229889   1.056   5.454   2.765
 9664SOL     OW29890   3.290   5.101   2.698
 9664SOL    HW129891   3.343   5.175   2.739
 9664SOL    HW229892   3.239   5.136   2.619
 9665SOL     OW29893   5.941   4.269   5.655
 9665SOL    HW129894   6.034   4.232   5.647
 9665SOL    HW229895   5.875   4.195   5.652
 9666SOL     OW29896   5.230   3.588   0.254
 9666SOL    HW129897   5.319   3.550   0.278
 9666SOL    HW229898   5.173   3.594   0.336
 9667SOL     OW29899   5.355   6.219   6.924
 9667SOL    HW129900   5.448   6.219   6.961
 9667SOL    HW229901   5.323   6.314   6.917
 9668SOL     OW29902   1.664   1.249   6.222
 9668SOL    HW129903   1.570   1.231   6.250
 9668SOL    HW229904   1.681   1.208   6.132
 9669SOL     OW29905   2.989   0.236   0.231
 9669SOL    HW129906   2.894   0.259   0.210
 9669SOL    HW229907   3.012   0.149   0.188
 9670SOL     OW29908   0.790   0.625   0.751
 9670SOL    HW129909   0.762   0.644   0.657
 9670SOL    HW229910   0.890   0.632   0.758
 9671SOL     OW29911   1.258   5.327   6.826
 9671SOL    HW129912   1.254   5.253   6.893
 9671SOL    HW229913   1.191   5.398   6.851
 9672SOL     OW29914   0.930   3.705   4.209
 9672SOL    HW129915   0.840   3.679   4.244
 9672SOL    HW229916   0.939   3.804   4.212
 9673SOL     OW29917   2.292   3.187   6.747
 9673SOL    HW129918   2.245   3.122   6.687
 9673SOL    HW229919   2.381   3.150   6.772
 9674SOL     OW29920   1.989   6.881   4.100
 9674SOL    HW129921   1.953   6.788   4.102
 9674SOL    HW229922   2.088   6.878   4.089
 9675SOL     OW29923   6.200   4.165   5.438
 9675SOL    HW129924   6.248   4.102   5.499
 9675SOL    HW229925   6.124   4.117   5.394
 9676SOL     OW29926   1.012   3.636   5.253
 9676SOL    HW129927   0.981   3.553   5.299
 9676SOL    HW229928   0.982   3.716   5.306
 9677SOL     OW29929   6.740   4.677   2.404
 9677SOL    HW129930   6.653   4.629   2.389
 9677SOL    HW229931   6.722   4.775   2.417
 9678SOL     OW29932   3.775   3.653   5.375
 9678SOL    HW129933   3.779   3.686   5.470
 9678SOL    HW229934   3.836   3.574   5.365
 9679SOL     OW29935   1.872   0.987   4.117
 9679SOL    HW129936   1.860   0.969   4.019
 9679SOL    HW229937   1.792   1.035   4.152
 9680SOL     OW29938   4.508   0.736   2.041
 9680SOL    HW129939   4.592   0.783   2.069
 9680SOL    HW229940   4.460   0.702   2.122
 9681SOL     OW29941   1.442   2.922   1.222
 9681SOL    HW129942   1.376   2.973   1.165
 9681SOL    HW229943   1.464   2.976   1.303
 9682SOL     OW29944   4.849   7.000   6.096
 9682SOL    HW129945   4.921   0.019   6.152
 9682SOL    HW229946   4.888   6.929   6.038
 9683SOL     OW29947   4.188   6.570   3.783
 9683SOL    HW129948   4.275   6.619   3.778
 9683SOL    HW229949   4.132   6.610   3.855
 9684SOL     OW29950   0.441   3.236   5.693
 9684SOL    HW129951   0.428   3.333   5.715
 9684SOL    HW229952   0.461   3.226   5.596
 9685SOL     OW29953   3.353   4.689   1.669
 9685SOL    HW129954   3.421   4.630   1.712
 9685SOL    HW229955   3.276   4.634   1.637
 9686SOL     OW29956   0.493   1.360   5.552
 9686SOL    HW129957   0.411   1.415   5.538
 9686SOL    HW229958   0.559   1.380   5.479
 9687SOL     OW29959   5.495   1.264   3.707
 9687SOL    HW129960   5.446   1.345   3.740
 9687SOL    HW229961   5.587   1.291   3.678
 9688SOL     OW29962   0.342   4.932   1.396
 9688SOL    HW129963   0.382   4.990   1.326
 9688SOL    HW229964   0.267   4.878   1.357
 9689SOL     OW29965   1.557   5.613   1.568
 9689SOL    HW129966   1.498   5.550   1.618
 9689SOL    HW229967   1.500   5.673   1.512
 9690SOL     OW29968   0.640   4.560   5.106
 9690SOL    HW129969   0.596   4.473   5.082
 9690SOL    HW229970   0.627   4.626   5.032
 9691SOL     OW29971   3.742   3.284   1.909
 9691SOL    HW129972   3.742   3.205   1.848
 9691SOL    HW229973   3.740   3.368   1.856
 9692SOL     OW29974   5.200   4.462   0.331
 9692SOL    HW129975   5.167   4.478   0.238
 9692SOL    HW229976   5.127   4.481   0.396
 9693SOL     OW29977   4.875   3.219   5.846
 9693SOL    HW129978   4.881   3.168   5.932
 9693SOL    HW229979   4.867   3.317   5.865
 9694SOL     OW29980   2.687   6.312   1.235
 9694SOL    HW129981   2.748   6.237   1.211
 9694SOL    HW229982   2.712   6.348   1.325
 9695SOL     OW29983   1.101   3.063   4.081
 9695SOL    HW129984   1.156   3.054   3.998
 9695SOL    HW229985   1.073   2.972   4.112
 9696SOL     OW29986   5.118   3.015   3.501
 9696SOL    HW129987   5.119   3.039   3.404
 9696SOL    HW229988   5.154   2.922   3.512
 9697SOL     OW29989   0.479   6.919   1.514
 9697SOL    HW129990   0.555   6.859   1.539
 9697SOL    HW229991   0.515   7.001   1.469
 9698SOL     OW29992   0.027   3.754   1.722
 9698SOL    HW129993   0.082   3.836   1.741
 9698SOL    HW229994   0.075   3.697   1.656
 9699SOL     OW29995   1.050   5.808   1.721
 9699SOL    HW129996   1.072   5.900   1.688
 9699SOL    HW229997   1.064   5.804   1.820
 9700SOL     OW29998   5.136   1.028   6.341
 9700SOL    HW129999   5.073   1.045   6.264
 9700SOL    HW230000   5.217   1.085   6.329
 9701SOL     OW30001   5.205   3.893   6.925
 9701SOL    HW130002   5.215   3.971   6.986
 9701SOL    HW230003   5.173   3.924   6.835
 9702SOL     OW30004   3.983   3.858   1.580
 9702SOL    HW130005   4.032   3.918   1.517
 9702SOL    HW230006   4.038   3.844   1.662
 9703SOL     OW30007   5.758   4.979   3.421
 9703SOL    HW130008   5.798   4.893   3.454
 9703SOL    HW230009   5.826   5.051   3.424
 9704SOL     OW30010   1.272   4.082   2.404
 9704SOL    HW130011   1.303   3.997   2.446
 9704SOL    HW230012   1.228   4.139   2.473
 9705SOL     OW30013   0.252   3.030   5.703
 9705SOL    HW130014   0.277   3.127   5.705
 9705SOL    HW230015   0.325   2.978   5.659
 9706SOL     OW30016   0.826   0.862   2.416
 9706SOL    HW130017   0.894   0.792   2.397
 9706SOL    HW230018   0.750   0.821   2.467
 9707SOL     OW30019   0.666   5.287   2.452
 9707SOL    HW130020   0.572   5.280   2.486
 9707SOL    HW230021   0.667   5.271   2.353
 9708SOL     OW30022   2.567   0.892   1.799
 9708SOL    HW130023   2.533   0.842   1.720
 9708SOL    HW230024   2.538   0.987   1.794
 9709SOL     OW30025   5.479   1.364   1.551
 9709SOL    HW130026   5.448   1.303   1.479
 9709SOL    HW230027   5.402   1.391   1.609
 9710SOL     OW30028   5.031   5.243   4.807
 9710SOL    HW130029   4.939   5.252   4.767
 9710SOL    HW230030   5.099   5.271   4.740
 9711SOL     OW30031   2.928   0.783   7.009
 9711SOL    HW130032   2.872   0.756   6.931
 9711SOL    HW230033   3.025   0.770   6.988
 9712SOL     OW30034   5.174   0.455   6.265
 9712SOL    HW130035   5.151   0.398   6.186
 9712SOL    HW230036   5.151   0.550   6.244
 9713SOL     OW30037   2.116   6.713   2.710
 9713SOL    HW130038   2.029   6.678   2.744
 9713SOL    HW230039   2.099   6.777   2.635
 9714SOL     OW30040   2.205   3.860   3.950
 9714SOL    HW130041   2.167   3.791   3.889
 9714SOL    HW230042   2.194   3.830   4.045
 9715SOL     OW30043   6.969   2.841   6.508
 9715SOL    HW130044   6.922   2.793   6.581
 9715SOL    HW230045   0.030   2.790   6.481
 9716SOL     OW30046   2.656   6.583   0.460
 9716SOL    HW130047   2.689   6.676   0.443
 9716SOL    HW230048   2.725   6.531   0.509
 9717SOL     OW30049   3.848   2.332   5.778
 9717SOL    HW130050   3.789   2.393   5.830
 9717SOL    HW230051   3.794   2.255   5.743
 9718SOL     OW30052   4.197   2.272   6.499
 9718SOL    HW130053   4.106   2.259   6.539
 9718SOL    HW230054   4.216   2.370   6.491
 9719SOL     OW30055   4.354   7.010   6.016
 9719SOL    HW130056   4.392   0.079   6.038
 9719SOL    HW230057   4.302   7.015   5.932
 9720SOL     OW30058   2.270   2.402   2.527
 9720SOL    HW130059   2.358   2.445   2.550
 9720SOL    HW230060   2.227   2.452   2.452
 9721SOL     OW30061   0.670   1.669   1.183
 9721SOL    HW130062   0.611   1.750   1.181
 9721SOL    HW230063   0.617   1.588   1.159
 9722SOL     OW30064   3.864   2.403   5.505
 9722SOL    HW130065   3.855   2.377   5.601
 9722SOL    HW230066   3.774   2.425   5.468
 9723SOL     OW30067   6.187   0.427   4.933
 9723SOL    HW130068   6.275   0.461   4.965
 9723SOL    HW230069   6.117   0.445   5.002
 9724SOL     OW30070   1.349   4.616   1.064
 9724SOL    HW130071   1.370   4.670   0.983
 9724SOL    HW230072   1.302   4.532   1.037
 9725SOL     OW30073   4.997   5.456   3.893
 9725SOL    HW130074   4.987   5.481   3.989
 9725SOL    HW230075   4.947   5.521   3.836
 9726SOL     OW30076   6.580   0.041   3.126
 9726SOL    HW130077   6.654   7.002   3.154
 9726SOL    HW230078   6.492   0.001   3.152
 9727SOL     OW30079   6.133   2.676   1.840
 9727SOL    HW130080   6.219   2.727   1.841
 9727SOL    HW230081   6.084   2.694   1.756
 9728SOL     OW30082   5.517   2.204   4.472
 9728SOL    HW130083   5.538   2.109   4.495
 9728SOL    HW230084   5.444   2.239   4.532
 9729SOL     OW30085   0.363   3.803   3.259
 9729SOL    HW130086   0.409   3.872   3.204
 9729SOL    HW230087   0.312   3.741   3.199
 9730SOL     OW30088   0.845   5.225   2.827
 9730SOL    HW130089   0.850   5.151   2.759
 9730SOL    HW230090   0.887   5.307   2.790
 9731SOL     OW30091   5.883   2.806   1.910
 9731SOL    HW130092   5.914   2.713   1.889
 9731SOL    HW230093   5.826   2.840   1.835
 9732SOL     OW30094   1.354   3.565   2.812
 9732SOL    HW130095   1.362   3.495   2.741
 9732SOL    HW230096   1.435   3.623   2.810
 9733SOL     OW30097   6.380   4.661   2.098
 9733SOL    HW130098   6.343   4.570   2.079
 9733SOL    HW230099   6.314   4.730   2.068
 9734SOL     OW30100   4.522   5.239   6.399
 9734SOL    HW130101   4.491   5.332   6.378
 9734SOL    HW230102   4.589   5.242   6.473
 9735SOL     OW30103   0.056   2.105   0.494
 9735SOL    HW130104   0.001   2.187   0.478
 9735SOL    HW230105   0.139   2.109   0.438
 9736SOL     OW30106   5.037   2.518   5.236
 9736SOL    HW130107   4.940   2.497   5.223
 9736SOL    HW230108   5.046   2.609   5.276
 9737SOL     OW30109   5.750   2.811   3.891
 9737SOL    HW130110   5.718   2.883   3.952
 9737SOL    HW230111   5.689   2.806   3.811
 9738SOL     OW30112   2.407   6.452   1.324
 9738SOL    HW130113   2.358   6.511   1.388
 9738SOL    HW230114   2.497   6.431   1.361
 9739SOL     OW30115   6.099   6.075   0.755
 9739SOL    HW130116   6.021   6.109   0.807
 9739SOL    HW230117   6.126   6.143   0.687
 9740SOL     OW30118   6.035   0.504   2.178
 9740SOL    HW130119   6.114   0.562   2.197
 9740SOL    HW230120   6.056   0.442   2.103
 9741SOL     OW30121   2.364   2.066   3.786
 9741SOL    HW130122   2.437   2.012   3.744
 9741SOL    HW230123   2.337   2.140   3.725
 9742SOL     OW30124   3.288   2.005   6.348
 9742SOL    HW130125   3.208   2.029   6.294
 9742SOL    HW230126   3.368   2.002   6.288
 9743SOL     OW30127   6.303   3.798   4.176
 9743SOL    HW130128   6.353   3.769   4.095
 9743SOL    HW230129   6.351   3.767   4.258
 9744SOL     OW30130   1.671   1.671   2.382
 9744SOL    HW130131   1.665   1.673   2.481
 9744SOL    HW230132   1.743   1.733   2.351
 9745SOL     OW30133   0.330   6.906   5.895
 9745SOL    HW130134   0.345   7.002   5.875
 9745SOL    HW230135   0.320   6.894   5.994
 9746SOL     OW30136   3.255   6.404   5.937
 9746SOL    HW130137   3.213   6.489   5.967
 9746SOL    HW230138   3.342   6.424   5.892
 9747SOL     OW30139   3.588   1.828   3.742
 9747SOL    HW130140   3.663   1.770   3.773
 9747SOL    HW230141   3.622   1.896   3.677
 9748SOL     OW30142   0.942   1.109   2.511
 9748SOL    HW130143   1.020   1.100   2.572
 9748SOL    HW230144   0.911   1.019   2.482
 9749SOL     OW30145   6.938   0.702   1.888
 9749SOL    HW130146   6.948   0.640   1.966
 9749SOL    HW230147   6.991   0.785   1.905
 9750SOL     OW30148   5.793   2.918   5.504
 9750SOL    HW130149   5.880   2.969   5.506
 9750SOL    HW230150   5.806   2.829   5.547
 9751SOL     OW30151   3.308   0.000   1.604
 9751SOL    HW130152   3.345   0.027   1.515
 9751SOL    HW230153   3.261   6.934   1.595
 9752SOL     OW30154   3.193   2.893   0.612
 9752SOL    HW130155   3.099   2.868   0.588
 9752SOL    HW230156   3.218   2.851   0.700
 9753SOL     OW30157   6.869   5.780   3.960
 9753SOL    HW130158   6.944   5.817   4.015
 9753SOL    HW230159   6.900   5.699   3.911
 9754SOL     OW30160   3.391   1.335   2.254
 9754SOL    HW130161   3.383   1.434   2.250
 9754SOL    HW230162   3.484   1.308   2.226
 9755SOL     OW30163   3.866   3.554   0.164
 9755SOL    HW130164   3.897   3.640   0.122
 9755SOL    HW230165   3.862   3.565   0.263
 9756SOL     OW30166   5.464   0.442   6.210
 9756SOL    HW130167   5.498   0.362   6.258
 9756SOL    HW230168   5.369   0.460   6.237
 9757SOL     OW30169   5.134   3.391   4.368
 9757SOL    HW130170   5.035   3.386   4.355
 9757SOL    HW230171   5.165   3.484   4.351
 9758SOL     OW30172   2.675   1.199   2.536
 9758SOL    HW130173   2.751   1.137   2.551
 9758SOL    HW230174   2.694   1.256   2.455
 9759SOL     OW30175   6.628   1.916   1.974
 9759SOL    HW130176   6.613   1.828   1.928
 9759SOL    HW230177   6.569   1.985   1.932
 9760SOL     OW30178   4.311   0.695   6.635
 9760SOL    HW130179   4.410   0.682   6.644
 9760SOL    HW230180   4.293   0.763   6.563
 9761SOL     OW30181   0.640   2.324   1.584
 9761SOL    HW130182   0.737   2.343   1.573
 9761SOL    HW230183   0.625   2.272   1.668
 9762SOL     OW30184   2.930   1.171   5.479
 9762SOL    HW130185   2.990   1.109   5.531
 9762SOL    HW230186   2.980   1.254   5.456
 9763SOL     OW30187   6.371   2.567   1.348
 9763SOL    HW130188   6.372   2.487   1.287
 9763SOL    HW230189   6.448   2.560   1.412
 9764SOL     OW30190   0.630   2.194   2.422
 9764SOL    HW130191   0.629   2.289   2.451
 9764SOL    HW230192   0.542   2.152   2.442
 9765SOL     OW30193   6.753   0.888   1.488
 9765SOL    HW130194   6.686   0.875   1.415
 9765SOL    HW230195   6.771   0.801   1.534
 9766SOL     OW30196   0.440   2.658   3.119
 9766SOL    HW130197   0.355   2.705   3.141
 9766SOL    HW230198   0.509   2.681   3.188
 9767SOL     OW30199   2.371   1.599   5.285
 9767SOL    HW130200   2.441   1.655   5.328
 9767SOL    HW230201   2.283   1.615   5.330
 9768SOL     OW30202   5.357   3.052   0.314
 9768SOL    HW130203   5.316   2.999   0.389
 9768SOL    HW230204   5.312   3.141   0.307
 9769SOL     OW30205   3.092   1.659   5.376
 9769SOL    HW130206   3.184   1.675   5.411
 9769SOL    HW230207   3.080   1.707   5.289
 9770SOL     OW30208   1.973   3.159   5.281
 9770SOL    HW130209   1.962   3.065   5.313
 9770SOL    HW230210   2.029   3.210   5.346
 9771SOL     OW30211   3.091   0.833   1.498
 9771SOL    HW130212   3.166   0.767   1.493
 9771SOL    HW230213   3.067   0.849   1.594
 9772SOL     OW30214   0.887   0.478   1.228
 9772SOL    HW130215   0.825   0.491   1.151
 9772SOL    HW230216   0.838   0.431   1.302
 9773SOL     OW30217   5.804   6.151   2.330
 9773SOL    HW130218   5.876   6.209   2.293
 9773SOL    HW230219   5.736   6.132   2.259
 9774SOL     OW30220   1.965   4.936   4.200
 9774SOL    HW130221   2.010   4.950   4.112
 9774SOL    HW230222   1.923   5.021   4.230
 9775SOL     OW30223   2.267   1.388   2.624
 9775SOL    HW130224   2.171   1.369   2.599
 9775SOL    HW230225   2.303   1.310   2.676
 9776SOL     OW30226   2.455   5.406   1.419
 9776SOL    HW130227   2.385   5.477   1.430
 9776SOL    HW230228   2.413   5.322   1.385
 9777SOL     OW30229   4.435   1.709   5.368
 9777SOL    HW130230   4.382   1.720   5.452
 9777SOL    HW230231   4.410   1.624   5.322
 9778SOL     OW30232   0.671   3.750   3.186
 9778SOL    HW130233   0.758   3.735   3.140
 9778SOL    HW230234   0.687   3.766   3.283
 9779SOL     OW30235   2.860   0.755   3.701
 9779SOL    HW130236   2.766   0.770   3.668
 9779SOL    HW230237   2.860   0.678   3.764
 9780SOL     OW30238   0.334   1.780   0.865
 9780SOL    HW130239   0.411   1.717   0.852
 9780SOL    HW230240   0.308   1.782   0.961
 9781SOL     OW30241   0.993   0.693   2.037
 9781SOL    HW130242   1.028   0.661   1.949
 9781SOL    HW230243   1.016   0.789   2.048
 9782SOL     OW30244   6.948   2.351   0.437
 9782SOL    HW130245   6.862   2.339   0.487
 9782SOL    HW230246   6.930   2.406   0.355
 9783SOL     OW30247   4.325   1.723   2.888
 9783SOL    HW130248   4.226   1.728   2.873
 9783SOL    HW230249   4.368   1.807   2.857
 9784SOL     OW30250   1.695   1.525   6.371
 9784SOL    HW130251   1.681   1.431   6.338
 9784SOL    HW230252   1.715   1.523   6.469
 9785SOL     OW30253   0.622   4.142   4.785
 9785SOL    HW130254   0.533   4.180   4.761
 9785SOL    HW230255   0.611   4.049   4.820
 9786SOL     OW30256   2.631   4.239   6.696
 9786SOL    HW130257   2.563   4.196   6.755
 9786SOL    HW230258   2.608   4.335   6.684
 9787SOL     OW30259   3.048   3.791   2.269
 9787SOL    HW130260   3.023   3.705   2.312
 9787SOL    HW230261   2.986   3.809   2.193
 9788SOL     OW30262   3.821   0.318   2.434
 9788SOL    HW130263   3.793   0.414   2.425
 9788SOL    HW230264   3.756   0.269   2.492
 9789SOL     OW30265   3.090   1.043   0.367
 9789SOL    HW130266   3.110   0.956   0.414
 9789SOL    HW230267   3.172   1.101   0.368
 9790SOL     OW30268   4.647   5.903   4.950
 9790SOL    HW130269   4.642   5.896   4.850
 9790SOL    HW230270   4.742   5.919   4.977
 9791SOL     OW30271   0.816   0.026   1.338
 9791SOL    HW130272   0.884   0.056   1.272
 9791SOL    HW230273   0.775   6.961   1.307
 9792SOL     OW30274   3.639   4.567   1.122
 9792SOL    HW130275   3.561   4.543   1.179
 9792SOL    HW230276   3.691   4.484   1.099
 9793SOL     OW30277   6.177   1.184   3.001
 9793SOL    HW130278   6.239   1.253   2.964
 9793SOL    HW230279   6.155   1.117   2.930
 9794SOL     OW30280   4.372   4.627   4.429
 9794SOL    HW130281   4.346   4.710   4.380
 9794SOL    HW230282   4.428   4.569   4.369
 9795SOL     OW30283   0.681   3.267   3.384
 9795SOL    HW130284   0.633   3.271   3.296
 9795SOL    HW230285   0.777   3.292   3.370
 9796SOL     OW30286   2.934   3.559   3.925
 9796SOL    HW130287   2.929   3.496   4.003
 9796SOL    HW230288   2.906   3.650   3.954
 9797SOL     OW30289   2.916   5.562   6.844
 9797SOL    HW130290   2.987   5.620   6.805
 9797SOL    HW230291   2.948   5.467   6.845
 9798SOL     OW30292   0.204   4.374   6.485
 9798SOL    HW130293   0.139   4.449   6.471
 9798SOL    HW230294   0.154   4.291   6.511
 9799SOL     OW30295   3.454   0.447   0.287
 9799SOL    HW130296   3.449   0.368   0.226
 9799SOL    HW230297   3.413   0.424   0.375
 9800SOL     OW30298   6.608   3.550   4.426
 9800SOL    HW130299   6.609   3.452   4.412
 9800SOL    HW230300   6.669   3.574   4.501
 9801SOL     OW30301   5.084   5.819   0.486
 9801SOL    HW130302   5.039   5.754   0.548
 9801SOL    HW230303   5.182   5.800   0.483
 9802SOL     OW30304   4.206   3.745   0.099
 9802SOL    HW130305   4.267   3.667   0.088
 9802SOL    HW230306   4.256   3.820   0.142
 9803SOL     OW30307   1.133   3.698   6.388
 9803SOL    HW130308   1.084   3.611   6.388
 9803SOL    HW230309   1.127   3.740   6.298
 9804SOL     OW30310   0.793   4.569   2.917
 9804SOL    HW130311   0.833   4.571   3.009
 9804SOL    HW230312   0.742   4.653   2.901
 9805SOL     OW30313   1.203   5.592   3.911
 9805SOL    HW130314   1.124   5.543   3.950
 9805SOL    HW230315   1.173   5.678   3.871
 9806SOL     OW30316   3.781   1.741   0.356
 9806SOL    HW130317   3.857   1.731   0.420
 9806SOL    HW230318   3.758   1.651   0.318
 9807SOL     OW30319   4.082   3.288   3.296
 9807SOL    HW130320   4.062   3.261   3.390
 9807SOL    HW230321   4.166   3.244   3.265
 9808SOL     OW30322   3.790   5.410   2.005
 9808SOL    HW130323   3.721   5.375   2.068
 9808SOL    HW230324   3.881   5.395   2.044
 9809SOL     OW30325   6.424   2.821   0.608
 9809SOL    HW130326   6.417   2.850   0.704
 9809SOL    HW230327   6.481   2.886   0.558
 9810SOL     OW30328   2.183   2.101   1.176
 9810SOL    HW130329   2.113   2.169   1.155
 9810SOL    HW230330   2.171   2.068   1.270
 9811SOL     OW30331   5.652   3.746   4.422
 9811SOL    HW130332   5.603   3.822   4.465
 9811SOL    HW230333   5.731   3.721   4.479
 9812SOL     OW30334   3.179   5.821   5.684
 9812SOL    HW130335   3.246   5.888   5.652
 9812SOL    HW230336   3.150   5.764   5.607
 9813SOL     OW30337   4.757   0.716   2.590
 9813SOL    HW130338   4.785   0.690   2.498
 9813SOL    HW230339   4.816   0.789   2.624
 9814SOL     OW30340   0.324   1.304   6.003
 9814SOL    HW130341   0.395   1.234   6.002
 9814SOL    HW230342   0.326   1.352   6.091
 9815SOL     OW30343   4.452   2.457   4.144
 9815SOL    HW130344   4.466   2.542   4.093
 9815SOL    HW230345   4.521   2.450   4.217
 9816SOL     OW30346   2.837   1.218   0.966
 9816SOL    HW130347   2.781   1.297   0.943
 9816SOL    HW230348   2.879   1.232   1.056
 9817SOL     OW30349   6.592   0.007   2.219
 9817SOL    HW130350   6.583   6.947   2.161
 9817SOL    HW230351   6.688   0.018   2.247
 9818SOL     OW30352   5.065   2.749   5.389
 9818SOL    HW130353   5.106   2.820   5.331
 9818SOL    HW230354   4.986   2.787   5.437
 9819SOL     OW30355   4.148   1.007   2.029
 9819SOL    HW130356   4.103   0.917   2.025
 9819SOL    HW230357   4.112   1.065   1.957
 9820SOL     OW30358   4.153   2.753   6.699
 9820SOL    HW130359   4.076   2.688   6.694
 9820SOL    HW230360   4.239   2.703   6.686
 9821SOL     OW30361   6.912   5.498   0.156
 9821SOL    HW130362   6.962   5.580   0.184
 9821SOL    HW230363   6.872   5.454   0.237
 9822SOL     OW30364   1.244   6.961   2.972
 9822SOL    HW130365   1.188   6.886   2.935
 9822SOL    HW230366   1.267   6.941   3.067
 9823SOL     OW30367   3.689   6.950   1.568
 9823SOL    HW130368   3.785   6.936   1.594
 9823SOL    HW230369   3.637   6.979   1.648
 9824SOL     OW30370   0.875   4.127   5.743
 9824SOL    HW130371   0.831   4.217   5.749
 9824SOL    HW230372   0.917   4.105   5.830
 9825SOL     OW30373   4.108   5.060   5.216
 9825SOL    HW130374   4.090   5.090   5.310
 9825SOL    HW230375   4.130   5.140   5.160
 9826SOL     OW30376   4.963   0.296   6.343
 9826SOL    HW130377   5.051   0.343   6.348
 9826SOL    HW230378   4.977   0.198   6.359
 9827SOL     OW30379   0.902   3.838   4.481
 9827SOL    HW130380   0.984   3.892   4.497
 9827SOL    HW230381   0.924   3.741   4.481
 9828SOL     OW30382   2.980   2.517   6.212
 9828SOL    HW130383   3.053   2.465   6.257
 9828SOL    HW230384   2.906   2.534   6.277
 9829SOL     OW30385   3.134   4.561   1.317
 9829SOL    HW130386   3.046   4.593   1.351
 9829SOL    HW230387   3.185   4.518   1.391
 9830SOL     OW30388   6.191   1.168   0.325
 9830SOL    HW130389   6.233   1.247   0.370
 9830SOL    HW230390   6.249   1.137   0.250
 9831SOL     OW30391   5.748   6.767   0.700
 9831SOL    HW130392   5.689   6.832   0.651
 9831SOL    HW230393   5.691   6.695   0.739
 9832SOL     OW30394   4.652   4.940   0.956
 9832SOL    HW130395   4.600   4.927   0.872
 9832SOL    HW230396   4.665   4.853   1.002
 9833SOL     OW30397   4.098   3.708   5.244
 9833SOL    HW130398   4.077   3.714   5.342
 9833SOL    HW230399   4.185   3.660   5.233
 9834SOL     OW30400   1.482   2.918   4.811
 9834SOL    HW130401   1.514   2.940   4.719
 9834SOL    HW230402   1.516   2.986   4.876
 9835SOL     OW30403   4.681   1.501   4.344
 9835SOL    HW130404   4.637   1.506   4.434
 9835SOL    HW230405   4.718   1.591   4.320
 9836SOL     OW30406   4.907   4.958   2.069
 9836SOL    HW130407   4.880   5.004   2.153
 9836SOL    HW230408   4.934   4.864   2.089
 9837SOL     OW30409   1.495   6.732   4.620
 9837SOL    HW130410   1.541   6.644   4.634
 9837SOL    HW230411   1.443   6.756   4.702
 9838SOL     OW30412   6.898   5.395   5.385
 9838SOL    HW130413   6.942   5.363   5.469
 9838SOL    HW230414   6.803   5.420   5.404
 9839SOL     OW30415   6.762   2.187   2.505
 9839SOL    HW130416   6.766   2.249   2.583
 9839SOL    HW230417   6.841   2.203   2.445
 9840SOL     OW30418   6.467   0.444   0.940
 9840SOL    HW130419   6.400   0.394   0.995
 9840SOL    HW230420   6.472   0.539   0.973
 9841SOL     OW30421   1.809   3.850   4.356
 9841SOL    HW130422   1.777   3.785   4.425
 9841SOL    HW230423   1.856   3.802   4.283
 9842SOL     OW30424   3.380   2.966   3.039
 9842SOL    HW130425   3.428   3.044   2.999
 9842SOL    HW230426   3.399   2.962   3.137
 9843SOL     OW30427   5.623   3.131   2.320
 9843SOL    HW130428   5.609   3.215   2.268
 9843SOL    HW230429   5.583   3.054   2.271
 9844SOL     OW30430   4.929   0.654   2.351
 9844SOL    HW130431   4.892   0.563   2.368
 9844SOL    HW230432   4.898   0.687   2.262
 9845SOL     OW30433   1.108   1.912   3.498
 9845SOL    HW130434   1.080   2.005   3.518
 9845SOL    HW230435   1.167   1.878   3.570
 9846SOL     OW30436   2.875   3.648   3.111
 9846SOL    HW130437   2.874   3.549   3.126
 9846SOL    HW230438   2.870   3.667   3.013
 9847SOL     OW30439   2.269   4.369   5.058
 9847SOL    HW130440   2.270   4.280   5.011
 9847SOL    HW230441   2.347   4.374   5.120
 9848SOL     OW30442   4.867   3.495   0.329
 9848SOL    HW130443   4.905   3.543   0.250
 9848SOL    HW230444   4.941   3.453   0.381
 9849SOL     OW30445   0.562   6.411   5.043
 9849SOL    HW130446   0.585   6.314   5.035
 9849SOL    HW230447   0.468   6.422   5.074
 9850SOL     OW30448   4.336   6.938   2.797
 9850SOL    HW130449   4.411   6.902   2.742
 9850SOL    HW230450   4.336   6.892   2.886
 9851SOL     OW30451   5.754   2.741   4.672
 9851SOL    HW130452   5.766   2.774   4.766
 9851SOL    HW230453   5.843   2.735   4.627
 9852SOL     OW30454   4.892   1.990   3.808
 9852SOL    HW130455   4.844   1.941   3.735
 9852SOL    HW230456   4.837   2.070   3.835
 9853SOL     OW30457   6.609   4.016   1.634
 9853SOL    HW130458   6.615   3.916   1.631
 9853SOL    HW230459   6.688   4.052   1.683
 9854SOL     OW30460   4.671   6.191   3.395
 9854SOL    HW130461   4.704   6.147   3.478
 9854SOL    HW230462   4.587   6.146   3.365
 9855SOL     OW30463   1.421   3.231   1.063
 9855SOL    HW130464   1.420   3.174   0.980
 9855SOL    HW230465   1.516   3.253   1.087
 9856SOL     OW30466   4.255   2.840   0.851
 9856SOL    HW130467   4.156   2.828   0.837
 9856SOL    HW230468   4.300   2.751   0.847
 9857SOL     OW30469   5.471   3.954   3.503
 9857SOL    HW130470   5.543   3.886   3.488
 9857SOL    HW230471   5.409   3.955   3.424
 9858SOL     OW30472   4.349   1.414   0.852
 9858SOL    HW130473   4.409   1.353   0.904
 9858SOL    HW230474   4.279   1.450   0.913
 9859SOL     OW30475   6.368   0.391   1.544
 9859SOL    HW130476   6.462   0.423   1.549
 9859SOL    HW230477   6.367   0.291   1.555
 9860SOL     OW30478   0.642   0.718   2.570
 9860SOL    HW130479   0.628   0.645   2.504
 9860SOL    HW230480   0.561   0.726   2.629
 9861SOL     OW30481   4.208   0.075   4.796
 9861SOL    HW130482   4.239   0.155   4.744
 9861SOL    HW230483   4.191   7.020   4.733
 9862SOL     OW30484   0.610   2.517   0.478
 9862SOL    HW130485   0.665   2.433   0.474
 9862SOL    HW230486   0.624   2.562   0.566
 9863SOL     OW30487   2.989   6.926   0.871
 9863SOL    HW130488   2.965   0.001   0.875
 9863SOL    HW230489   3.055   6.904   0.942
 9864SOL     OW30490   4.638   5.899   2.234
 9864SOL    HW130491   4.633   5.831   2.160
 9864SOL    HW230492   4.545   5.924   2.261
 9865SOL     OW30493   0.542   2.313   4.994
 9865SOL    HW130494   0.510   2.218   4.997
 9865SOL    HW230495   0.478   2.367   4.939
 9866SOL     OW30496   4.231   4.849   3.361
 9866SOL    HW130497   4.212   4.787   3.285
 9866SOL    HW230498   4.235   4.943   3.328
 9867SOL     OW30499   4.086   0.477   6.231
 9867SOL    HW130500   4.023   0.408   6.194
 9867SOL    HW230501   4.041   0.526   6.305
 9868SOL     OW30502   0.149   5.195   0.038
 9868SOL    HW130503   0.214   5.174   6.985
 9868SOL    HW230504   0.127   5.292   0.036
 9869SOL     OW30505   1.508   3.852   3.526
 9869SOL    HW130506   1.608   3.848   3.525
 9869SOL    HW230507   1.471   3.765   3.496
 9870SOL     OW30508   5.119   4.521   2.310
 9870SOL    HW130509   5.211   4.486   2.328
 9870SOL    HW230510   5.099   4.597   2.372
 9871SOL     OW30511   1.592   1.205   5.126
 9871SOL    HW130512   1.651   1.270   5.078
 9871SOL    HW230513   1.541   1.151   5.059
 9872SOL     OW30514   1.678   5.084   3.399
 9872SOL    HW130515   1.640   5.153   3.337
 9872SOL    HW230516   1.766   5.053   3.364
 9873SOL     OW30517   0.577   2.856   0.857
 9873SOL    HW130518   0.578   2.943   0.808
 9873SOL    HW230519   0.483   2.833   0.882
 9874SOL     OW30520   0.745   2.599   3.725
 9874SOL    HW130521   0.676   2.669   3.714
 9874SOL    HW230522   0.814   2.630   3.791
 9875SOL     OW30523   1.067   0.679   3.452
 9875SOL    HW130524   1.156   0.689   3.406
 9875SOL    HW230525   1.082   0.666   3.550
 9876SOL     OW30526   0.193   6.255   2.873
 9876SOL    HW130527   0.143   6.316   2.813
 9876SOL    HW230528   0.203   6.165   2.829
 9877SOL     OW30529   3.293   0.204   2.395
 9877SOL    HW130530   3.273   0.301   2.408
 9877SOL    HW230531   3.340   0.168   2.476
 9878SOL     OW30532   0.576   0.091   5.044
 9878SOL    HW130533   0.486   0.062   5.011
 9878SOL    HW230534   0.564   0.151   5.124
 9879SOL     OW30535   5.052   6.083   5.872
 9879SOL    HW130536   5.030   6.173   5.834
 9879SOL    HW230537   5.086   6.094   5.965
 9880SOL     OW30538   1.473   1.892   4.813
 9880SOL    HW130539   1.441   1.852   4.899
 9880SOL    HW230540   1.501   1.987   4.828
 9881SOL     OW30541   0.046   2.438   6.444
 9881SOL    HW130542   0.143   2.426   6.465
 9881SOL    HW230543   7.018   2.460   6.528
 9882SOL     OW30544   1.125   1.442   3.001
 9882SOL    HW130545   1.224   1.435   3.011
 9882SOL    HW230546   1.081   1.367   3.051
 9883SOL     OW30547   2.409   0.334   1.453
 9883SOL    HW130548   2.431   0.244   1.492
 9883SOL    HW230549   2.338   0.378   1.509
 9884SOL     OW30550   3.629   0.677   4.094
 9884SOL    HW130551   3.558   0.653   4.027
 9884SOL    HW230552   3.705   0.722   4.047
 9885SOL     OW30553   6.013   5.146   3.771
 9885SOL    HW130554   6.109   5.173   3.773
 9885SOL    HW230555   6.003   5.057   3.726
 9886SOL     OW30556   1.112   3.736   2.442
 9886SOL    HW130557   1.087   3.727   2.346
 9886SOL    HW230558   1.139   3.647   2.478
 9887SOL     OW30559   4.263   0.683   6.167
 9887SOL    HW130560   4.180   0.648   6.125
 9887SOL    HW230561   4.254   0.678   6.267
 9888SOL     OW30562   0.233   4.347   0.226
 9888SOL    HW130563   0.238   4.345   0.326
 9888SOL    HW230564   0.308   4.292   0.188
 9889SOL     OW30565   0.450   4.945   0.437
 9889SOL    HW130566   0.444   5.008   0.359
 9889SOL    HW230567   0.384   4.972   0.507
 9890SOL     OW30568   1.090   2.845   1.486
 9890SOL    HW130569   1.010   2.898   1.458
 9890SOL    HW230570   1.081   2.751   1.454
 9891SOL     OW30571   5.275   1.688   1.619
 9891SOL    HW130572   5.271   1.752   1.695
 9891SOL    HW230573   5.313   1.734   1.539
 9892SOL     OW30574   6.903   5.590   6.428
 9892SOL    HW130575   6.966   5.626   6.497
 9892SOL    HW230576   6.809   5.604   6.460
 9893SOL     OW30577   1.800   0.899   0.894
 9893SOL    HW130578   1.809   0.803   0.920
 9893SOL    HW230579   1.842   0.957   0.963
 9894SOL     OW30580   1.561   2.088   0.841
 9894SOL    HW130581   1.482   2.030   0.824
 9894SOL    HW230582   1.565   2.160   0.772
 9895SOL     OW30583   5.243   3.324   5.638
 9895SOL    HW130584   5.253   3.286   5.730
 9895SOL    HW230585   5.206   3.254   5.577
 9896SOL     OW30586   5.897   0.020   0.080
 9896SOL    HW130587   5.948   6.955   0.075
 9896SOL    HW230588   5.854   0.038   7.013
 9897SOL     OW30589   4.903   5.289   3.556
 9897SOL    HW130590   4.969   5.274   3.629
 9897SOL    HW230591   4.880   5.202   3.512
 9898SOL     OW30592   3.117   6.254   5.459
 9898SOL    HW130593   3.129   6.160   5.489
 9898SOL    HW230594   3.024   6.265   5.422
 9899SOL     OW30595   0.080   5.478   6.953
 9899SOL    HW130596   0.044   5.559   6.999
 9899SOL    HW230597   0.024   5.458   6.873
 9900SOL     OW30598   2.153   3.730   3.346
 9900SOL    HW130599   2.124   3.817   3.387
 9900SOL    HW230600   2.250   3.735   3.323
 9901SOL     OW30601   2.006   2.440   5.186
 9901SOL    HW130602   1.999   2.479   5.278
 9901SOL    HW230603   2.034   2.344   5.194
 9902SOL     OW30604   2.641   4.345   0.014
 9902SOL    HW130605   2.708   4.316   6.968
 9902SOL    HW230606   2.639   4.445   0.019
 9903SOL     OW30607   5.595   0.919   3.438
 9903SOL    HW130608   5.631   0.832   3.406
 9903SOL    HW230609   5.565   0.974   3.359
 9904SOL     OW30610   0.043   2.914   6.153
 9904SOL    HW130611   0.044   2.900   6.054
 9904SOL    HW230612   0.053   2.826   6.199
 9905SOL     OW30613   4.175   1.530   0.360
 9905SOL    HW130614   4.157   1.434   0.341
 9905SOL    HW230615   4.108   1.586   0.312
 9906SOL     OW30616   4.073   3.803   4.425
 9906SOL    HW130617   4.046   3.898   4.414
 9906SOL    HW230618   4.087   3.761   4.335
 9907SOL     OW30619   0.688   6.821   0.991
 9907SOL    HW130620   0.703   6.784   1.082
 9907SOL    HW230621   0.771   6.866   0.959
 9908SOL     OW30622   5.149   3.480   3.204
 9908SOL    HW130623   5.225   3.417   3.217
 9908SOL    HW230624   5.073   3.454   3.263
 9909SOL     OW30625   2.100   6.931   5.143
 9909SOL    HW130626   2.186   6.968   5.179
 9909SOL    HW230627   2.036   7.006   5.127
 9910SOL     OW30628   0.949   4.260   3.280
 9910SOL    HW130629   0.856   4.224   3.284
 9910SOL    HW230630   1.013   4.193   3.319
 9911SOL     OW30631   2.998   6.191   2.118
 9911SOL    HW130632   2.998   6.252   2.197
 9911SOL    HW230633   3.091   6.181   2.083
 9912SOL     OW30634   4.612   1.153   6.971
 9912SOL    HW130635   4.563   1.070   6.944
 9912SOL    HW230636   4.665   1.136   0.033
 9913SOL     OW30637   5.579   3.217   6.908
 9913SOL    HW130638   5.639   3.141   6.880
 9913SOL    HW230639   5.566   3.214   7.007
 9914SOL     OW30640   0.367   2.835   4.940
 9914SOL    HW130641   0.422   2.803   5.017
 9914SOL    HW230642   0.395   2.788   4.857
 9915SOL     OW30643   5.707   0.847   3.766
 9915SOL    HW130644   5.706   0.855   3.865
 9915SOL    HW230645   5.622   0.885   3.729
 9916SOL     OW30646   2.259   2.260   1.919
 9916SOL    HW130647   2.333   2.272   1.853
 9916SOL    HW230648   2.262   2.167   1.957
 9917SOL     OW30649   6.959   4.114   4.940
 9917SOL    HW130650   6.991   4.120   4.846
 9917SOL    HW230651   0.001   4.057   4.993
 9918SOL     OW30652   4.179   2.193   2.709
 9918SOL    HW130653   4.233   2.192   2.624
 9918SOL    HW230654   4.082   2.194   2.687
 9919SOL     OW30655   6.796   5.980   0.527
 9919SOL    HW130656   6.723   5.953   0.464
 9919SOL    HW230657   6.808   6.079   0.525
 9920SOL     OW30658   4.833   1.360   2.220
 9920SOL    HW130659   4.799   1.305   2.144
 9920SOL    HW230660   4.787   1.449   2.219
 9921SOL     OW30661   3.916   5.653   5.666
 9921SOL    HW130662   3.880   5.725   5.608
 9921SOL    HW230663   3.976   5.693   5.736
 9922SOL     OW30664   0.388   5.272   0.365
 9922SOL    HW130665   0.289   5.266   0.378
 9922SOL    HW230666   0.425   5.339   0.429
 9923SOL     OW30667   5.455   4.739   0.314
 9923SOL    HW130668   5.398   4.774   0.388
 9923SOL    HW230669   5.488   4.648   0.338
 9924SOL     OW30670   0.897   4.061   4.941
 9924SOL    HW130671   0.802   4.062   4.907
 9924SOL    HW230672   0.940   3.974   4.917
 9925SOL     OW30673   5.292   2.110   4.044
 9925SOL    HW130674   5.203   2.063   4.047
 9925SOL    HW230675   5.278   2.204   4.014
 9926SOL     OW30676   2.193   4.877   0.232
 9926SOL    HW130677   2.258   4.839   0.298
 9926SOL    HW230678   2.137   4.946   0.277
 9927SOL     OW30679   6.046   7.002   2.995
 9927SOL    HW130680   6.058   0.080   3.003
 9927SOL    HW230681   6.120   6.964   2.939
 9928SOL     OW30682   4.856   4.414   1.428
 9928SOL    HW130683   4.838   4.357   1.508
 9928SOL    HW230684   4.796   4.495   1.431
 9929SOL     OW30685   2.520   4.465   3.642
 9929SOL    HW130686   2.481   4.373   3.630
 9929SOL    HW230687   2.564   4.494   3.557
 9930SOL     OW30688   6.582   0.451   3.960
 9930SOL    HW130689   6.511   0.520   3.945
 9930SOL    HW230690   6.642   0.448   3.880
 9931SOL     OW30691   1.075   4.862   5.456
 9931SOL    HW130692   1.093   4.774   5.412
 9931SOL    HW230693   0.977   4.881   5.453
 9932SOL     OW30694   1.057   5.898   5.003
 9932SOL    HW130695   1.007   5.924   4.920
 9932SOL    HW230696   1.153   5.922   4.993
 9933SOL     OW30697   0.327   5.805   2.258
 9933SOL    HW130698   0.259   5.821   2.330
 9933SOL    HW230699   0.321   5.877   2.190
 9934SOL     OW30700   6.487   2.110   6.164
 9934SOL    HW130701   6.425   2.049   6.114
 9934SOL    HW230702   6.580   2.097   6.131
 9935SOL     OW30703   3.182   1.244   6.373
 9935SOL    HW130704   3.219   1.222   6.463
 9935SOL    HW230705   3.084   1.258   6.380
 9936SOL     OW30706   0.809   4.373   4.273
 9936SOL    HW130707   0.807   4.437   4.350
 9936SOL    HW230708   0.893   4.320   4.277
 9937SOL     OW30709   6.538   2.386   6.353
 9937SOL    HW130710   6.580   2.338   6.276
 9937SOL    HW230711   6.609   2.436   6.404
 9938SOL     OW30712   6.408   6.287   3.228
 9938SOL    HW130713   6.446   6.365   3.277
 9938SOL    HW230714   6.467   6.265   3.150
 9939SOL     OW30715   2.911   3.307   2.413
 9939SOL    HW130716   2.978   3.233   2.411
 9939SOL    HW230717   2.875   3.322   2.321
 9940SOL     OW30718   0.037   1.371   0.840
 9940SOL    HW130719   0.025   1.287   0.786
 9940SOL    HW230720   0.059   1.447   0.778
 9941SOL     OW30721   3.532   5.014   5.481
 9941SOL    HW130722   3.507   5.100   5.524
 9941SOL    HW230723   3.454   4.951   5.484
 9942SOL     OW30724   2.745   5.593   3.223
 9942SOL    HW130725   2.660   5.556   3.261
 9942SOL    HW230726   2.780   5.531   3.153
 9943SOL     OW30727   1.262   6.526   5.338
 9943SOL    HW130728   1.199   6.577   5.280
 9943SOL    HW230729   1.318   6.590   5.390
 9944SOL     OW30730   0.686   3.842   0.216
 9944SOL    HW130731   0.649   3.929   0.248
 9944SOL    HW230732   0.782   3.835   0.241
 9945SOL     OW30733   6.667   5.418   0.027
 9945SOL    HW130734   6.665   5.319   0.009
 9945SOL    HW230735   6.757   5.444   0.061
 9946SOL     OW30736   4.890   0.705   5.090
 9946SOL    HW130737   4.926   0.749   5.172
 9946SOL    HW230738   4.966   0.667   5.037
 9947SOL     OW30739   6.217   4.523   3.895
 9947SOL    HW130740   6.313   4.510   3.919
 9947SOL    HW230741   6.209   4.595   3.825
 9948SOL     OW30742   4.950   4.793   4.417
 9948SOL    HW130743   4.853   4.775   4.396
 9948SOL    HW230744   4.961   4.888   4.444
 9949SOL     OW30745   5.598   5.331   2.851
 9949SOL    HW130746   5.617   5.237   2.879
 9949SOL    HW230747   5.654   5.394   2.905
 9950SOL     OW30748   4.080   5.954   5.527
 9950SOL    HW130749   4.129   5.875   5.489
 9950SOL    HW230750   3.983   5.931   5.535
 9951SOL     OW30751   5.907   1.657   3.122
 9951SOL    HW130752   5.954   1.709   3.194
 9951SOL    HW230753   5.837   1.714   3.080
 9952SOL     OW30754   6.977   5.153   0.256
 9952SOL    HW130755   6.881   5.171   0.231
 9952SOL    HW230756   0.015   5.174   0.178
 9953SOL     OW30757   0.107   1.503   4.472
 9953SOL    HW130758   0.107   1.409   4.507
 9953SOL    HW230759   0.029   1.552   4.511
 9954SOL     OW30760   4.547   0.359   5.474
 9954SOL    HW130761   4.526   0.271   5.517
 9954SOL    HW230762   4.462   0.407   5.453
 9955SOL     OW30763   0.979   4.457   5.155
 9955SOL    HW130764   0.969   4.382   5.089
 9955SOL    HW230765   0.896   4.512   5.156
 9956SOL     OW30766   1.726   6.046   1.214
 9956SOL    HW130767   1.683   6.135   1.204
 9956SOL    HW230768   1.662   5.974   1.187
 9957SOL     OW30769   6.094   4.087   2.992
 9957SOL    HW130770   6.060   3.999   2.959
 9957SOL    HW230771   6.060   4.104   3.084
 9958SOL     OW30772   2.344   4.499   1.589
 9958SOL    HW130773   2.281   4.454   1.651
 9958SOL    HW230774   2.310   4.491   1.495
 9959SOL     OW30775   3.899   3.790   0.685
 9959SOL    HW130776   3.919   3.724   0.757
 9959SOL    HW230777   3.895   3.743   0.597
 9960SOL     OW30778   0.793   1.402   2.485
 9960SOL    HW130779   0.705   1.356   2.472
 9960SOL    HW230780   0.867   1.339   2.458
 9961SOL     OW30781   2.221   4.495   4.813
 9961SOL    HW130782   2.236   4.440   4.896
 9961SOL    HW230783   2.306   4.500   4.761
 9962SOL     OW30784   5.474   6.057   5.344
 9962SOL    HW130785   5.502   6.017   5.432
 9962SOL    HW230786   5.472   6.157   5.352
 9963SOL     OW30787   3.004   0.713   0.612
 9963SOL    HW130788   2.961   0.623   0.615
 9963SOL    HW230789   2.978   0.766   0.693
 9964SOL     OW30790   4.619   5.645   5.539
 9964SOL    HW130791   4.678   5.716   5.578
 9964SOL    HW230792   4.526   5.681   5.530
 9965SOL     OW30793   4.047   0.261   0.008
 9965SOL    HW130794   4.075   0.235   6.937
 9965SOL    HW230795   4.093   0.202   0.075
 9966SOL     OW30796   0.599   0.034   2.770
 9966SOL    HW130797   0.698   0.019   2.774
 9966SOL    HW230798   0.571   0.096   2.844
 9967SOL     OW30799   0.972   5.148   0.628
 9967SOL    HW130800   0.959   5.206   0.709
 9967SOL    HW230801   1.061   5.103   0.633
 9968SOL     OW30802   3.526   2.855   2.820
 9968SOL    HW130803   3.445   2.865   2.877
 9968SOL    HW230804   3.499   2.857   2.723
 9969SOL     OW30805   0.600   3.553   1.610
 9969SOL    HW130806   0.632   3.590   1.697
 9969SOL    HW230807   0.527   3.487   1.627
 9970SOL     OW30808   5.494   4.509   1.263
 9970SOL    HW130809   5.589   4.485   1.245
 9970SOL    HW230810   5.436   4.471   1.191
 9971SOL     OW30811   2.473   5.677   0.032
 9971SOL    HW130812   2.489   5.707   0.126
 9971SOL    HW230813   2.396   5.729   7.015
 9972SOL     OW30814   6.653   4.664   1.600
 9972SOL    HW130815   6.652   4.564   1.605
 9972SOL    HW230816   6.668   4.702   1.691
 9973SOL     OW30817   5.592   6.897   4.627
 9973SOL    HW130818   5.616   6.878   4.723
 9973SOL    HW230819   5.671   6.937   4.581
 9974SOL     OW30820   1.826   0.668   4.139
 9974SOL    HW130821   1.824   0.764   4.164
 9974SOL    HW230822   1.913   0.627   4.168
 9975SOL     OW30823   0.118   2.943   0.586
 9975SOL    HW130824   0.074   2.854   0.600
 9975SOL    HW230825   0.056   3.016   0.615
 9976SOL     OW30826   1.804   0.334   5.125
 9976SOL    HW130827   1.753   0.409   5.083
 9976SOL    HW230828   1.891   0.368   5.160
 9977SOL     OW30829   6.724   4.563   4.340
 9977SOL    HW130830   6.649   4.608   4.387
 9977SOL    HW230831   6.738   4.471   4.378
 9978SOL     OW30832   6.890   2.203   4.307
 9978SOL    HW130833   6.791   2.218   4.301
 9978SOL    HW230834   6.922   2.160   4.222
 9979SOL     OW30835   0.524   4.077   5.488
 9979SOL    HW130836   0.449   4.127   5.532
 9979SOL    HW230837   0.526   4.098   5.390
 9980SOL     OW30838   3.552   6.878   5.158
 9980SOL    HW130839   3.554   6.866   5.059
 9980SOL    HW230840   3.468   6.925   5.184
 9981SOL     OW30841   3.363   2.125   4.142
 9981SOL    HW130842   3.263   2.121   4.133
 9981SOL    HW230843   3.403   2.158   4.057
 9982SOL     OW30844   6.310   5.965   3.473
 9982SOL    HW130845   6.220   5.924   3.454
 9982SOL    HW230846   6.356   5.984   3.386
 9983SOL     OW30847   0.466   0.973   1.363
 9983SOL    HW130848   0.443   0.988   1.267
 9983SOL    HW230849   0.553   1.018   1.385
 9984SOL     OW30850   2.565   0.862   0.337
 9984SOL    HW130851   2.502   0.867   0.415
 9984SOL    HW230852   2.659   0.864   0.369
 9985SOL     OW30853   1.342   0.934   1.882
 9985SOL    HW130854   1.342   0.834   1.881
 9985SOL    HW230855   1.249   0.968   1.872
 9986SOL     OW30856   5.492   4.590   4.914
 9986SOL    HW130857   5.508   4.492   4.925
 9986SOL    HW230858   5.507   4.637   5.001
 9987SOL     OW30859   6.947   3.863   5.907
 9987SOL    HW130860   0.013   3.909   5.920
 9987SOL    HW230861   6.883   3.891   5.979
 9988SOL     OW30862   6.671   6.876   4.483
 9988SOL    HW130863   6.771   6.883   4.483
 9988SOL    HW230864   6.630   6.967   4.480
 9989SOL     OW30865   0.787   3.330   4.887
 9989SOL    HW130866   0.733   3.310   4.805
 9989SOL    HW230867   0.809   3.428   4.888
 9990SOL     OW30868   1.019   5.192   2.264
 9990SOL    HW130869   1.087   5.264   2.252
 9990SOL    HW230870   0.959   5.190   2.185
 9991SOL     OW30871   3.932   2.148   3.382
 9991SOL    HW130872   3.918   2.050   3.398
 9991SOL    HW230873   3.971   2.189   3.465
 9992SOL     OW30874   6.356   5.446   6.080
 9992SOL    HW130875   6.411   5.371   6.044
 9992SOL    HW230876   6.404   5.533   6.065
 9993SOL     OW30877   0.740   0.513   1.741
 9993SOL    HW130878   0.751   0.542   1.836
 9993SOL    HW230879   0.708   0.590   1.686
 9994SOL     OW30880   5.707   4.704   2.883
 9994SOL    HW130881   5.731   4.700   2.980
 9994SOL    HW230882   5.764   4.640   2.832
 9995SOL     OW30883   5.003   0.979   4.732
 9995SOL    HW130884   5.013   0.996   4.634
 9995SOL    HW230885   5.023   0.883   4.751
 9996SOL     OW30886   2.493   3.540   0.029
 9996SOL    HW130887   2.514   3.511   6.957
 9996SOL    HW230888   2.483   3.640   0.032
 9997SOL     OW30889   2.956   6.896   4.794
 9997SOL    HW130890   2.885   6.901   4.864
 9997SOL    HW230891   3.032   6.840   4.827
 9998SOL     OW30892   5.766   6.200   5.676
 9998SOL    HW130893   5.734   6.175   5.767
 9998SOL    HW230894   5.791   6.297   5.674
 9999SOL     OW30895   0.326   2.877   4.563
 9999SOL    HW130896   0.323   2.905   4.467
 9999SOL    HW230897   0.270   2.939   4.618
10000SOL     OW30898   6.935   3.840   6.968
10000SOL    HW130899   6.906   3.752   7.006
10000SOL    HW230900   0.013   3.843   6.965
10001SOL     OW30901   4.025   0.165   3.020
10001SOL    HW130902   3.990   0.116   2.941
10001SOL    HW230903   4.081   0.103   3.075
10002SOL     OW30904   1.024   1.521   1.870
10002SOL    HW130905   0.958   1.595   1.888
10002SOL    HW230906   1.087   1.513   1.947
10003SOL     OW30907   4.727   1.947   3.590
10003SOL    HW130908   4.743   2.042   3.563
10003SOL    HW230909   4.644   1.942   3.645
10004SOL     OW30910   0.511   2.059   2.917
10004SOL    HW130911   0.575   2.131   2.945
10004SOL    HW230912   0.423   2.073   2.960
10005SOL     OW30913   5.272   6.914   4.630
10005SOL    HW130914   5.357   6.966   4.635
10005SOL    HW230915   5.247   6.880   4.721
10006SOL     OW30916   4.370   1.010   4.778
10006SOL    HW130917   4.339   1.059   4.859
10006SOL    HW230918   4.402   0.919   4.804
10007SOL     OW30919   6.429   3.527   4.201
10007SOL    HW130920   6.513   3.571   4.233
10007SOL    HW230921   6.371   3.505   4.279
10008SOL     OW30922   3.810   6.973   4.117
10008SOL    HW130923   3.794   6.998   4.022
10008SOL    HW230924   3.877   0.015   4.157
10009SOL     OW30925   0.688   4.276   2.069
10009SOL    HW130926   0.668   4.179   2.056
10009SOL    HW230927   0.788   4.288   2.075
10010SOL     OW30928   0.046   1.448   6.196
10010SOL    HW130929   7.000   1.479   6.128
10010SOL    HW230930   0.007   1.373   6.249
10011SOL     OW30931   6.980   6.656   4.744
10011SOL    HW130932   0.044   6.604   4.752
10011SOL    HW230933   6.908   6.611   4.796
10012SOL     OW30934   5.615   0.548   4.249
10012SOL    HW130935   5.587   0.602   4.328
10012SOL    HW230936   5.705   0.507   4.266
10013SOL     OW30937   1.328   0.881   2.335
10013SOL    HW130938   1.337   0.801   2.275
10013SOL    HW230939   1.398   0.877   2.406
10014SOL     OW30940   1.782   5.262   5.807
10014SOL    HW130941   1.747   5.196   5.740
10014SOL    HW230942   1.710   5.327   5.830
10015SOL     OW30943   2.482   5.102   0.119
10015SOL    HW130944   2.385   5.119   0.101
10015SOL    HW230945   2.491   5.018   0.173
10016SOL     OW30946   2.404   0.679   5.677
10016SOL    HW130947   2.490   0.728   5.666
10016SOL    HW230948   2.422   0.587   5.712
10017SOL     OW30949   0.916   1.875   4.317
10017SOL    HW130950   0.825   1.901   4.286
10017SOL    HW230951   0.985   1.927   4.266
10018SOL     OW30952   4.545   6.684   6.384
10018SOL    HW130953   4.561   6.628   6.302
10018SOL    HW230954   4.596   6.644   6.461
10019SOL     OW30955   1.702   1.220   2.239
10019SOL    HW130956   1.634   1.277   2.192
10019SOL    HW230957   1.660   1.179   2.320
10020SOL     OW30958   6.690   2.712   0.461
10020SOL    HW130959   6.683   2.672   0.552
10020SOL    HW230960   6.630   2.664   0.398
10021SOL     OW30961   5.459   2.993   1.295
10021SOL    HW130962   5.425   2.919   1.236
10021SOL    HW230963   5.539   3.035   1.252
10022SOL     OW30964   1.791   0.292   6.561
10022SOL    HW130965   1.797   0.353   6.640
10022SOL    HW230966   1.864   0.313   6.497
10023SOL     OW30967   7.013   3.337   1.250
10023SOL    HW130968   6.928   3.389   1.247
10023SOL    HW230969   7.014   3.271   1.175
10024SOL     OW30970   1.382   4.598   3.179
10024SOL    HW130971   1.318   4.522   3.164
10024SOL    HW230972   1.476   4.565   3.165
10025SOL     OW30973   1.285   1.509   0.394
10025SOL    HW130974   1.252   1.494   0.301
10025SOL    HW230975   1.211   1.489   0.458
10026SOL     OW30976   0.004   0.483   4.038
10026SOL    HW130977   0.095   0.513   4.013
10026SOL    HW230978   6.968   0.473   3.956
10027SOL     OW30979   5.412   2.294   5.937
10027SOL    HW130980   5.314   2.278   5.946
10027SOL    HW230981   5.462   2.211   5.962
10028SOL     OW30982   2.066   0.776   1.018
10028SOL    HW130983   2.143   0.840   1.015
10028SOL    HW230984   2.095   0.690   1.059
10029SOL     OW30985   5.141   1.841   3.791
10029SOL    HW130986   5.175   1.838   3.697
10029SOL    HW230987   5.085   1.923   3.804
10030SOL     OW30988   1.655   1.045   3.044
10030SOL    HW130989   1.651   1.056   3.143
10030SOL    HW230990   1.690   0.954   3.022
10031SOL     OW30991   6.489   4.248   4.249
10031SOL    HW130992   6.576   4.266   4.203
10031SOL    HW230993   6.490   4.290   4.339
10032SOL     OW30994   2.697   1.350   5.476
10032SOL    HW130995   2.763   1.317   5.408
10032SOL    HW230996   2.604   1.343   5.438
10033SOL     OW30997   5.561   2.796   4.514
10033SOL    HW130998   5.632   2.763   4.576
10033SOL    HW230999   5.480   2.823   4.567
10034SOL     OW31000   4.650   0.324   6.332
10034SOL    HW131001   4.745   0.314   6.301
10034SOL    HW231002   4.596   0.247   6.298
10035SOL     OW31003   0.007   6.719   3.268
10035SOL    HW131004   0.027   6.716   3.366
10035SOL    HW231005   6.982   6.635   3.240
10036SOL     OW31006   6.814   0.795   0.112
10036SOL    HW131007   6.911   0.809   0.091
10036SOL    HW231008   6.788   0.852   0.190
10037SOL     OW31009   0.271   6.682   0.950
10037SOL    HW131010   0.226   6.761   0.991
10037SOL    HW231011   0.285   6.612   1.020
10038SOL     OW31012   6.573   0.151   0.763
10038SOL    HW131013   6.498   0.095   0.798
10038SOL    HW231014   6.634   0.094   0.707
10039SOL     OW31015   3.177   0.541   3.499
10039SOL    HW131016   3.168   0.472   3.571
10039SOL    HW231017   3.127   0.623   3.526
10040SOL     OW31018   0.298   2.215   1.345
10040SOL    HW131019   0.371   2.197   1.278
10040SOL    HW231020   0.314   2.159   1.426
10041SOL     OW31021   1.622   5.809   0.819
10041SOL    HW131022   1.636   5.847   0.910
10041SOL    HW231023   1.524   5.815   0.796
10042SOL     OW31024   6.319   2.516   2.883
10042SOL    HW131025   6.319   2.615   2.867
10042SOL    HW231026   6.380   2.472   2.817
10043SOL     OW31027   0.628   2.809   5.112
10043SOL    HW131028   0.568   2.796   5.191
10043SOL    HW231029   0.671   2.722   5.087
10044SOL     OW31030   3.839   1.807   6.258
10044SOL    HW131031   3.789   1.738   6.309
10044SOL    HW231032   3.803   1.812   6.165
10045SOL     OW31033   2.065   0.855   0.366
10045SOL    HW131034   2.130   0.880   0.437
10045SOL    HW231035   2.048   0.934   0.306
10046SOL     OW31036   1.152   5.128   0.999
10046SOL    HW131037   1.075   5.187   0.975
10046SOL    HW231038   1.183   5.148   1.092
10047SOL     OW31039   0.951   3.900   0.744
10047SOL    HW131040   0.919   3.894   0.838
10047SOL    HW231041   0.878   3.869   0.682
10048SOL     OW31042   5.534   5.201   2.611
10048SOL    HW131043   5.558   5.265   2.684
10048SOL    HW231044   5.541   5.108   2.645
10049SOL     OW31045   5.713   1.079   5.228
10049SOL    HW131046   5.645   1.131   5.176
10049SOL    HW231047   5.691   0.982   5.223
10050SOL     OW31048   0.309   2.684   6.182
10050SOL    HW131049   0.341   2.771   6.145
10050SOL    HW231050   0.210   2.676   6.168
10051SOL     OW31051   2.238   1.802   4.078
10051SOL    HW131052   2.262   1.882   4.133
10051SOL    HW231053   2.283   1.721   4.115
10052SOL     OW31054   1.487   0.608   3.122
10052SOL    HW131055   1.567   0.668   3.115
10052SOL    HW231056   1.457   0.602   3.217
10053SOL     OW31057   5.833   5.335   3.088
10053SOL    HW131058   5.897   5.375   3.154
10053SOL    HW231059   5.749   5.389   3.087
10054SOL     OW31060   6.754   4.306   4.427
10054SOL    HW131061   6.777   4.221   4.380
10054SOL    HW231062   6.710   4.285   4.514
10055SOL     OW31063   1.499   2.464   6.752
10055SOL    HW131064   1.538   2.479   6.843
10055SOL    HW231065   1.532   2.535   6.689
10056SOL     OW31066   6.442   1.941   4.083
10056SOL    HW131067   6.425   1.862   4.142
10056SOL    HW231068   6.394   2.021   4.120
10057SOL     OW31069   5.268   5.074   5.516
10057SOL    HW131070   5.364   5.083   5.541
10057SOL    HW231071   5.255   5.101   5.421
10058SOL     OW31072   0.370   4.159   4.704
10058SOL    HW131073   0.346   4.062   4.714
10058SOL    HW231074   0.335   4.193   4.617
10059SOL     OW31075   5.515   6.762   6.496
10059SOL    HW131076   5.602   6.715   6.506
10059SOL    HW231077   5.455   6.740   6.573
10060SOL     OW31078   3.209   2.132   1.883
10060SOL    HW131079   3.254   2.159   1.798
10060SOL    HW231080   3.112   2.114   1.865
10061SOL     OW31081   3.101   0.007   2.386
10061SOL    HW131082   3.014   0.039   2.349
10061SOL    HW231083   3.156   0.085   2.415
10062SOL     OW31084   0.883   6.709   4.881
10062SOL    HW131085   0.857   6.613   4.878
10062SOL    HW231086   0.973   6.721   4.839
10063SOL     OW31087   2.764   2.289   4.790
10063SOL    HW131088   2.738   2.313   4.697
10063SOL    HW231089   2.734   2.360   4.853
10064SOL     OW31090   2.551   0.489   1.811
10064SOL    HW131091   2.549   0.468   1.713
10064SOL    HW231092   2.474   0.548   1.834
10065SOL     OW31093   0.141   1.533   1.745
10065SOL    HW131094   0.178   1.548   1.653
10065SOL    HW231095   0.198   1.465   1.792
10066SOL     OW31096   6.582   4.994   3.379
10066SOL    HW131097   6.653   4.924   3.387
10066SOL    HW231098   6.625   5.084   3.367
10067SOL     OW31099   0.064   3.444   5.395
10067SOL    HW131100   0.105   3.525   5.436
10067SOL    HW231101   0.088   3.439   5.298
10068SOL     OW31102   1.465   3.360   2.298
10068SOL    HW131103   1.502   3.330   2.386
10068SOL    HW231104   1.511   3.310   2.224
10069SOL     OW31105   3.495   4.705   0.920
10069SOL    HW131106   3.546   4.659   0.993
10069SOL    HW231107   3.397   4.701   0.940
10070SOL     OW31108   5.353   0.041   0.255
10070SOL    HW131109   5.331   6.986   0.317
10070SOL    HW231110   5.399   0.006   0.174
10071SOL     OW31111   5.144   1.161   5.953
10071SOL    HW131112   5.134   1.140   5.855
10071SOL    HW231113   5.205   1.239   5.964
10072SOL     OW31114   6.246   3.192   1.839
10072SOL    HW131115   6.221   3.279   1.880
10072SOL    HW231116   6.198   3.118   1.886
10073SOL     OW31117   5.433   5.287   4.811
10073SOL    HW131118   5.387   5.213   4.860
10073SOL    HW231119   5.515   5.252   4.766
10074SOL     OW31120   2.557   4.574   0.331
10074SOL    HW131121   2.509   4.640   0.272
10074SOL    HW231122   2.613   4.623   0.397
10075SOL     OW31123   1.322   3.481   1.569
10075SOL    HW131124   1.273   3.500   1.484
10075SOL    HW231125   1.335   3.566   1.619
10076SOL     OW31126   5.549   4.451   4.204
10076SOL    HW131127   5.567   4.455   4.106
10076SOL    HW231128   5.451   4.465   4.220
10077SOL     OW31129   4.637   3.471   6.252
10077SOL    HW131130   4.711   3.405   6.239
10077SOL    HW231131   4.600   3.463   6.345
10078SOL     OW31132   6.358   4.972   4.461
10078SOL    HW131133   6.437   5.019   4.420
10078SOL    HW231134   6.284   4.967   4.394
10079SOL     OW31135   4.954   4.540   3.590
10079SOL    HW131136   4.888   4.488   3.644
10079SOL    HW231137   4.906   4.601   3.528
10080SOL     OW31138   4.902   1.737   5.344
10080SOL    HW131139   4.977   1.708   5.404
10080SOL    HW231140   4.836   1.663   5.334
10081SOL     OW31141   1.088   4.823   0.615
10081SOL    HW131142   1.033   4.746   0.646
10081SOL    HW231143   1.133   4.866   0.693
10082SOL     OW31144   0.939   4.377   0.816
10082SOL    HW131145   1.009   4.328   0.867
10082SOL    HW231146   0.924   4.467   0.857
10083SOL     OW31147   2.649   6.016   2.171
10083SOL    HW131148   2.719   6.005   2.241
10083SOL    HW231149   2.582   5.942   2.179
10084SOL     OW31150   0.916   2.235   4.657
10084SOL    HW131151   0.879   2.269   4.571
10084SOL    HW231152   1.016   2.233   4.651
10085SOL     OW31153   5.061   6.889   1.375
10085SOL    HW131154   5.076   6.828   1.297
10085SOL    HW231155   4.994   6.959   1.350
10086SOL     OW31156   4.388   6.347   3.103
10086SOL    HW131157   4.480   6.347   3.064
10086SOL    HW231158   4.333   6.418   3.058
10087SOL     OW31159   1.790   6.074   5.259
10087SOL    HW131160   1.785   6.037   5.352
10087SOL    HW231161   1.843   6.012   5.201
10088SOL     OW31162   6.415   2.243   1.518
10088SOL    HW131163   6.484   2.309   1.488
10088SOL    HW231164   6.337   2.291   1.558
10089SOL     OW31165   4.056   0.596   1.839
10089SOL    HW131166   4.072   0.639   1.750
10089SOL    HW231167   4.021   0.503   1.825
10090SOL     OW31168   1.699   6.239   3.331
10090SOL    HW131169   1.726   6.280   3.244
10090SOL    HW231170   1.670   6.311   3.394
10091SOL     OW31171   5.506   4.959   4.556
10091SOL    HW131172   5.433   4.968   4.624
10091SOL    HW231173   5.475   4.995   4.469
10092SOL     OW31174   1.106   1.978   3.235
10092SOL    HW131175   1.151   1.894   3.204
10092SOL    HW231176   1.106   1.980   3.335
10093SOL     OW31177   4.423   3.783   6.314
10093SOL    HW131178   4.383   3.758   6.402
10093SOL    HW231179   4.523   3.789   6.323
10094SOL     OW31180   3.393   2.287   0.270
10094SOL    HW131181   3.353   2.365   0.318
10094SOL    HW231182   3.485   2.310   0.240
10095SOL     OW31183   4.014   3.171   5.517
10095SOL    HW131184   4.042   3.220   5.435
10095SOL    HW231185   3.959   3.092   5.491
10096SOL     OW31186   6.483   3.539   2.292
10096SOL    HW131187   6.392   3.559   2.327
10096SOL    HW231188   6.497   3.588   2.206
10097SOL     OW31189   0.814   1.579   0.934
10097SOL    HW131190   0.891   1.625   0.891
10097SOL    HW231191   0.796   1.622   1.023
10098SOL     OW31192   3.589   6.036   4.496
10098SOL    HW131193   3.491   6.032   4.475
10098SOL    HW231194   3.624   6.127   4.474
10099SOL     OW31195   6.947   4.667   3.305
10099SOL    HW131196   6.902   4.711   3.227
10099SOL    HW231197   6.898   4.689   3.389
10100SOL     OW31198   5.279   5.109   3.874
10100SOL    HW131199   5.368   5.103   3.918
10100SOL    HW231200   5.241   5.017   3.862
10101SOL     OW31201   6.302   2.984   0.320
10101SOL    HW131202   6.273   2.910   0.260
10101SOL    HW231203   6.401   2.981   0.329
10102SOL     OW31204   6.226   4.464   3.621
10102SOL    HW131205   6.228   4.543   3.559
10102SOL    HW231206   6.320   4.438   3.643
10103SOL     OW31207   0.391   6.549   6.851
10103SOL    HW131208   0.417   6.452   6.849
10103SOL    HW231209   0.332   6.565   6.931
10104SOL     OW31210   2.424   1.182   4.846
10104SOL    HW131211   2.362   1.126   4.790
10104SOL    HW231212   2.497   1.217   4.788
10105SOL     OW31213   3.236   1.404   3.467
10105SOL    HW131214   3.330   1.434   3.450
10105SOL    HW231215   3.236   1.337   3.542
10106SOL     OW31216   5.595   3.991   1.626
10106SOL    HW131217   5.502   3.991   1.662
10106SOL    HW231218   5.593   4.010   1.527
10107SOL     OW31219   5.424   5.464   6.456
10107SOL    HW131220   5.455   5.412   6.376
10107SOL    HW231221   5.344   5.518   6.432
10108SOL     OW31222   2.244   2.350   4.820
10108SOL    HW131223   2.333   2.394   4.810
10108SOL    HW231224   2.244   2.291   4.900
10109SOL     OW31225   0.992   2.578   1.018
10109SOL    HW131226   0.967   2.593   0.922
10109SOL    HW231227   1.009   2.666   1.062
10110SOL     OW31228   6.597   5.559   1.772
10110SOL    HW131229   6.675   5.622   1.770
10110SOL    HW231230   6.512   5.612   1.770
10111SOL     OW31231   6.553   2.276   1.998
10111SOL    HW131232   6.522   2.304   2.088
10111SOL    HW231233   6.494   2.204   1.963
10112SOL     OW31234   6.471   2.964   3.812
10112SOL    HW131235   6.384   2.934   3.772
10112SOL    HW231236   6.515   2.887   3.857
10113SOL     OW31237   6.556   6.541   5.759
10113SOL    HW131238   6.559   6.456   5.810
10113SOL    HW231239   6.615   6.534   5.678
10114SOL     OW31240   5.034   3.465   1.832
10114SOL    HW131241   5.005   3.388   1.889
10114SOL    HW231242   4.954   3.519   1.807
10115SOL     OW31243   3.487   2.954   5.849
10115SOL    HW131244   3.435   2.935   5.766
10115SOL    HW231245   3.427   2.945   5.928
10116SOL     OW31246   0.460   0.256   6.126
10116SOL    HW131247   0.416   0.346   6.118
10116SOL    HW231248   0.510   0.236   6.042
10117SOL     OW31249   6.614   4.368   1.626
10117SOL    HW131250   6.582   4.352   1.719
10117SOL    HW231251   6.668   4.290   1.595
10118SOL     OW31252   4.083   5.373   3.583
10118SOL    HW131253   4.123   5.363   3.493
10118SOL    HW231254   4.019   5.298   3.600
10119SOL     OW31255   6.096   6.205   6.488
10119SOL    HW131256   6.138   6.290   6.457
10119SOL    HW231257   6.099   6.137   6.414
10120SOL     OW31258   2.614   2.477   2.713
10120SOL    HW131259   2.673   2.447   2.788
10120SOL    HW231260   2.631   2.421   2.632
10121SOL     OW31261   6.884   5.585   1.156
10121SOL    HW131262   6.915   5.543   1.071
10121SOL    HW231263   6.850   5.514   1.218
10122SOL     OW31264   1.844   0.201   3.348
10122SOL    HW131265   1.747   0.180   3.354
10122SOL    HW231266   1.869   0.219   3.253
10123SOL     OW31267   6.460   5.733   6.023
10123SOL    HW131268   6.482   5.828   6.049
10123SOL    HW231269   6.542   5.676   6.035
10124SOL     OW31270   2.354   5.198   2.377
10124SOL    HW131271   2.324   5.108   2.343
10124SOL    HW231272   2.323   5.210   2.471
10125SOL     OW31273   1.163   0.758   4.917
10125SOL    HW131274   1.107   0.773   4.836
10125SOL    HW231275   1.118   0.691   4.977
10126SOL     OW31276   6.474   5.952   5.072
10126SOL    HW131277   6.383   5.912   5.075
10126SOL    HW231278   6.481   6.024   5.140
10127SOL     OW31279   2.292   0.070   5.868
10127SOL    HW131280   2.351   0.079   5.788
10127SOL    HW231281   2.348   0.044   5.947
10128SOL     OW31282   2.643   2.394   6.877
10128SOL    HW131283   2.695   2.359   6.954
10128SOL    HW231284   2.634   2.493   6.884
10129SOL     OW31285   6.438   1.879   4.453
10129SOL    HW131286   6.414   1.844   4.543
10129SOL    HW231287   6.504   1.817   4.410
10130SOL     OW31288   1.320   2.155   3.345
10130SOL    HW131289   1.327   2.100   3.429
10130SOL    HW231290   1.256   2.111   3.282
10131SOL     OW31291   1.799   0.038   5.361
10131SOL    HW131292   1.701   0.039   5.385
10131SOL    HW231293   1.843   0.120   5.396
10132SOL     OW31294   5.626   0.583   2.647
10132SOL    HW131295   5.631   0.494   2.601
10132SOL    HW231296   5.558   0.640   2.600
10133SOL     OW31297   5.040   6.109   1.160
10133SOL    HW131298   4.943   6.129   1.168
10133SOL    HW231299   5.058   6.016   1.192
10134SOL     OW31300   0.096   6.610   3.532
10134SOL    HW131301   7.019   6.612   3.548
10134SOL    HW231302   0.124   6.517   3.507
10135SOL     OW31303   6.456   6.655   3.583
10135SOL    HW131304   6.532   6.650   3.648
10135SOL    HW231305   6.469   6.586   3.512
10136SOL     OW31306   4.562   1.329   3.805
10136SOL    HW131307   4.560   1.313   3.903
10136SOL    HW231308   4.657   1.339   3.775
10137SOL     OW31309   0.101   5.838   4.079
10137SOL    HW131310   0.168   5.764   4.069
10137SOL    HW231311   0.117   5.886   4.165
10138SOL     OW31312   0.045   2.507   1.955
10138SOL    HW131313   0.067   2.449   1.876
10138SOL    HW231314   6.991   2.569   1.930
10139SOL     OW31315   3.979   2.394   6.807
10139SOL    HW131316   3.946   2.466   6.745
10139SOL    HW231317   3.968   2.305   6.763
10140SOL     OW31318   0.019   5.587   5.292
10140SOL    HW131319   7.001   5.497   5.310
10140SOL    HW231320   0.012   5.643   5.375
10141SOL     OW31321   1.698   2.477   4.429
10141SOL    HW131322   1.687   2.532   4.512
10141SOL    HW231323   1.741   2.533   4.358
10142SOL     OW31324   4.941   5.684   2.084
10142SOL    HW131325   4.843   5.668   2.073
10142SOL    HW231326   4.958   5.732   2.170
10143SOL     OW31327   5.713   3.163   5.871
10143SOL    HW131328   5.806   3.160   5.835
10143SOL    HW231329   5.706   3.234   5.941
10144SOL     OW31330   3.551   0.535   0.531
10144SOL    HW131331   3.573   0.534   0.629
10144SOL    HW231332   3.483   0.605   0.513
10145SOL     OW31333   6.662   6.628   5.235
10145SOL    HW131334   6.584   6.674   5.193
10145SOL    HW231335   6.746   6.677   5.212
10146SOL     OW31336   1.563   2.622   5.592
10146SOL    HW131337   1.515   2.537   5.614
10146SOL    HW231338   1.636   2.637   5.659
10147SOL     OW31339   3.770   5.595   6.609
10147SOL    HW131340   3.733   5.504   6.628
10147SOL    HW231341   3.850   5.586   6.550
10148SOL     OW31342   0.959   5.262   6.539
10148SOL    HW131343   0.946   5.165   6.518
10148SOL    HW231344   1.025   5.273   6.613
10149SOL     OW31345   3.824   3.188   2.150
10149SOL    HW131346   3.895   3.243   2.194
10149SOL    HW231347   3.792   3.234   2.067
10150SOL     OW31348   4.904   4.042   1.407
10150SOL    HW131349   4.887   3.963   1.348
10150SOL    HW231350   4.823   4.101   1.407
10151SOL     OW31351   7.014   0.849   6.141
10151SOL    HW131352   0.043   0.930   6.113
10151SOL    HW231353   6.944   0.874   6.208
10152SOL     OW31354   3.823   6.933   3.260
10152SOL    HW131355   3.782   6.957   3.172
10152SOL    HW231356   3.788   6.994   3.331
10153SOL     OW31357   4.815   3.615   1.718
10153SOL    HW131358   4.855   3.687   1.776
10153SOL    HW231359   4.771   3.657   1.639
10154SOL     OW31360   4.459   5.207   5.398
10154SOL    HW131361   4.520   5.172   5.327
10154SOL    HW231362   4.469   5.153   5.481
10155SOL     OW31363   4.657   2.140   4.310
10155SOL    HW131364   4.649   2.185   4.399
10155SOL    HW231365   4.586   2.174   4.249
10156SOL     OW31366   4.155   2.100   6.295
10156SOL    HW131367   4.056   2.087   6.290
10156SOL    HW231368   4.178   2.159   6.372
10157SOL     OW31369   0.512   4.753   0.927
10157SOL    HW131370   0.531   4.744   0.829
10157SOL    HW231371   0.544   4.671   0.974
10158SOL     OW31372   5.612   5.064   0.498
10158SOL    HW131373   5.669   5.124   0.441
10158SOL    HW231374   5.521   5.055   0.456
10159SOL     OW31375   3.151   2.982   2.532
10159SOL    HW131376   3.143   3.050   2.458
10159SOL    HW231377   3.064   2.976   2.581
10160SOL     OW31378   0.180   4.267   2.418
10160SOL    HW131379   0.189   4.168   2.419
10160SOL    HW231380   0.259   4.309   2.462
10161SOL     OW31381   6.144   3.413   5.917
10161SOL    HW131382   6.211   3.442   5.985
10161SOL    HW231383   6.072   3.483   5.909
10162SOL     OW31384   1.958   2.483   2.376
10162SOL    HW131385   2.023   2.538   2.324
10162SOL    HW231386   1.955   2.514   2.471
10163SOL     OW31387   3.400   5.103   4.805
10163SOL    HW131388   3.311   5.057   4.813
10163SOL    HW231389   3.453   5.088   4.889
10164SOL     OW31390   0.376   1.435   3.924
10164SOL    HW131391   0.396   1.493   3.845
10164SOL    HW231392   0.318   1.485   3.988
10165SOL     OW31393   1.846   3.423   4.187
10165SOL    HW131394   1.880   3.400   4.279
10165SOL    HW231395   1.907   3.385   4.118
10166SOL     OW31396   3.174   5.889   2.904
10166SOL    HW131397   3.251   5.933   2.949
10166SOL    HW231398   3.114   5.847   2.972
10167SOL     OW31399   2.873   2.106   6.362
10167SOL    HW131400   2.849   2.083   6.456
10167SOL    HW231401   2.890   2.022   6.310
10168SOL     OW31402   0.328   0.730   6.222
10168SOL    HW131403   0.322   0.804   6.155
10168SOL    HW231404   0.362   0.766   6.309
10169SOL     OW31405   4.425   5.915   2.824
10169SOL    HW131406   4.446   5.831   2.874
10169SOL    HW231407   4.391   5.984   2.889
10170SOL     OW31408   5.201   6.838   0.648
10170SOL    HW131409   5.254   6.861   0.729
10170SOL    HW231410   5.144   6.916   0.621
10171SOL     OW31411   2.332   4.218   4.269
10171SOL    HW131412   2.309   4.163   4.350
10171SOL    HW231413   2.315   4.164   4.187
10172SOL     OW31414   0.442   0.566   2.724
10172SOL    HW131415   0.471   0.471   2.722
10172SOL    HW231416   0.458   0.605   2.815
10173SOL     OW31417   3.711   3.856   4.956
10173SOL    HW131418   3.651   3.799   5.013
10173SOL    HW231419   3.787   3.801   4.922
10174SOL     OW31420   5.015   4.546   1.171
10174SOL    HW131421   5.010   4.449   1.194
10174SOL    HW231422   4.961   4.563   1.089
10175SOL     OW31423   6.490   0.089   4.237
10175SOL    HW131424   6.565   0.134   4.188
10175SOL    HW231425   6.495   7.012   4.222
10176SOL     OW31426   0.101   0.746   4.514
10176SOL    HW131427   0.031   0.749   4.586
10176SOL    HW231428   0.083   0.818   4.447
10177SOL     OW31429   2.769   1.470   4.020
10177SOL    HW131430   2.693   1.430   3.968
10177SOL    HW231431   2.822   1.529   3.960
10178SOL     OW31432   0.414   1.320   1.400
10178SOL    HW131433   0.365   1.237   1.428
10178SOL    HW231434   0.430   1.378   1.480
10179SOL     OW31435   0.049   6.093   1.105
10179SOL    HW131436   0.100   6.025   1.052
10179SOL    HW231437   6.974   6.066   1.110
10180SOL     OW31438   3.365   6.682   6.362
10180SOL    HW131439   3.397   6.686   6.457
10180SOL    HW231440   3.397   6.598   6.320
10181SOL     OW31441   0.554   3.534   3.033
10181SOL    HW131442   0.458   3.553   3.053
10181SOL    HW231443   0.612   3.594   3.088
10182SOL     OW31444   3.998   0.182   0.484
10182SOL    HW131445   4.021   0.267   0.531
10182SOL    HW231446   3.908   0.191   0.442
10183SOL     OW31447   4.168   6.498   5.768
10183SOL    HW131448   4.161   6.398   5.776
10183SOL    HW231449   4.129   6.526   5.681
10184SOL     OW31450   5.868   2.532   5.393
10184SOL    HW131451   5.792   2.524   5.329
10184SOL    HW231452   5.926   2.609   5.367
10185SOL     OW31453   2.869   4.771   2.461
10185SOL    HW131454   2.813   4.696   2.496
10185SOL    HW231455   2.953   4.777   2.515
10186SOL     OW31456   3.532   3.083   0.230
10186SOL    HW131457   3.606   3.101   0.295
10186SOL    HW231458   3.561   3.014   0.164
10187SOL     OW31459   2.244   3.787   5.656
10187SOL    HW131460   2.325   3.801   5.713
10187SOL    HW231461   2.166   3.836   5.695
10188SOL     OW31462   2.203   6.730   6.925
10188SOL    HW131463   2.272   6.787   6.880
10188SOL    HW231464   2.215   6.634   6.897
10189SOL     OW31465   1.978   1.698   4.767
10189SOL    HW131466   1.996   1.795   4.778
10189SOL    HW231467   2.046   1.645   4.818
10190SOL     OW31468   4.365   4.154   0.989
10190SOL    HW131469   4.290   4.088   0.988
10190SOL    HW231470   4.439   4.120   1.047
10191SOL     OW31471   5.451   0.698   0.296
10191SOL    HW131472   5.514   0.712   0.373
10191SOL    HW231473   5.371   0.756   0.307
10192SOL     OW31474   1.865   0.949   3.819
10192SOL    HW131475   1.960   0.928   3.796
10192SOL    HW231476   1.804   0.900   3.757
10193SOL     OW31477   3.603   3.925   4.193
10193SOL    HW131478   3.681   3.896   4.138
10193SOL    HW231479   3.622   3.907   4.290
10194SOL     OW31480   3.102   6.228   2.774
10194SOL    HW131481   3.163   6.290   2.823
10194SOL    HW231482   3.148   6.140   2.759
10195SOL     OW31483   5.305   0.550   3.275
10195SOL    HW131484   5.295   0.636   3.324
10195SOL    HW231485   5.385   0.554   3.215
10196SOL     OW31486   5.047   4.358   4.330
10196SOL    HW131487   5.035   4.431   4.397
10196SOL    HW231488   5.049   4.270   4.376
10197SOL     OW31489   5.400   1.455   3.389
10197SOL    HW131490   5.433   1.496   3.474
10197SOL    HW231491   5.332   1.514   3.347
10198SOL     OW31492   3.101   0.996   1.730
10198SOL    HW131493   3.141   1.088   1.720
10198SOL    HW231494   3.003   1.001   1.709
10199SOL     OW31495   1.056   2.046   0.372
10199SOL    HW131496   1.070   1.949   0.351
10199SOL    HW231497   1.075   2.101   0.291
10200SOL     OW31498   5.902   6.335   4.748
10200SOL    HW131499   5.918   6.434   4.743
10200SOL    HW231500   5.916   6.294   4.658
10201SOL     OW31501   1.598   4.697   2.979
10201SOL    HW131502   1.582   4.603   2.948
10201SOL    HW231503   1.515   4.751   2.967
10202SOL     OW31504   0.577   1.952   3.431
10202SOL    HW131505   0.570   1.952   3.331
10202SOL    HW231506   0.653   1.893   3.459
10203SOL     OW31507   0.320   2.673   1.344
10203SOL    HW131508   0.406   2.623   1.350
10203SOL    HW231509   0.265   2.636   1.268
10204SOL     OW31510   2.816   5.534   4.550
10204SOL    HW131511   2.814   5.464   4.622
10204SOL    HW231512   2.751   5.510   4.478
10205SOL     OW31513   4.095   0.818   0.951
10205SOL    HW131514   4.083   0.728   0.991
10205SOL    HW231515   4.007   0.865   0.949
10206SOL     OW31516   4.987   6.676   6.636
10206SOL    HW131517   5.086   6.667   6.646
10206SOL    HW231518   4.950   6.729   6.712
10207SOL     OW31519   4.125   1.437   2.678
10207SOL    HW131520   4.144   1.340   2.696
10207SOL    HW231521   4.048   1.444   2.615
10208SOL     OW31522   6.701   3.645   5.589
10208SOL    HW131523   6.755   3.727   5.607
10208SOL    HW231524   6.750   3.565   5.624
10209SOL     OW31525   4.140   6.218   6.743
10209SOL    HW131526   4.237   6.195   6.758
10209SOL    HW231527   4.084   6.169   6.809
10210SOL     OW31528   5.776   5.590   0.332
10210SOL    HW131529   5.834   5.668   0.352
10210SOL    HW231530   5.755   5.588   0.234
10211SOL     OW31531   3.892   5.362   5.317
10211SOL    HW131532   3.977   5.313   5.297
10211SOL    HW231533   3.848   5.389   5.232
10212SOL     OW31534   6.114   6.229   5.983
10212SOL    HW131535   6.179   6.273   6.045
10212SOL    HW231536   6.164   6.183   5.909
10213SOL     OW31537   4.596   1.175   4.471
10213SOL    HW131538   4.510   1.136   4.436
10213SOL    HW231539   4.600   1.162   4.570
10214SOL     OW31540   0.617   1.044   0.377
10214SOL    HW131541   0.650   1.039   0.471
10214SOL    HW231542   0.531   0.995   0.369
10215SOL     OW31543   4.373   2.506   6.905
10215SOL    HW131544   4.434   2.545   6.974
10215SOL    HW231545   4.278   2.525   6.931
10216SOL     OW31546   5.243   0.096   3.023
10216SOL    HW131547   5.157   0.102   3.074
10216SOL    HW231548   5.294   0.181   3.031
10217SOL     OW31549   3.438   2.319   5.881
10217SOL    HW131550   3.500   2.397   5.876
10217SOL    HW231551   3.389   2.310   5.794
10218SOL     OW31552   3.054   2.231   6.791
10218SOL    HW131553   3.065   2.327   6.765
10218SOL    HW231554   3.053   2.224   6.891
10219SOL     OW31555   0.889   5.337   6.788
10219SOL    HW131556   0.805   5.295   6.822
10219SOL    HW231557   0.877   5.436   6.784
10220SOL     OW31558   4.129   2.277   0.316
10220SOL    HW131559   4.140   2.193   0.263
10220SOL    HW231560   4.079   2.258   0.400
10221SOL     OW31561   2.543   0.923   4.349
10221SOL    HW131562   2.462   0.866   4.335
10221SOL    HW231563   2.540   0.963   4.440
10222SOL     OW31564   1.973   4.855   5.716
10222SOL    HW131565   1.886   4.807   5.706
10222SOL    HW231566   2.045   4.788   5.735
10223SOL     OW31567   0.571   4.632   0.075
10223SOL    HW131568   0.545   4.710   0.019
10223SOL    HW231569   0.512   4.628   0.156
10224SOL     OW31570   2.830   0.170   4.805
10224SOL    HW131571   2.810   0.125   4.717
10224SOL    HW231572   2.928   0.167   4.822
10225SOL     OW31573   4.737   5.967   4.673
10225SOL    HW131574   4.749   6.051   4.620
10225SOL    HW231575   4.821   5.913   4.669
10226SOL     OW31576   6.917   3.115   6.696
10226SOL    HW131577   7.000   3.133   6.748
10226SOL    HW231578   6.935   3.044   6.628
10227SOL     OW31579   4.905   4.754   5.403
10227SOL    HW131580   4.937   4.786   5.314
10227SOL    HW231581   4.977   4.767   5.471
10228SOL     OW31582   1.232   3.142   2.071
10228SOL    HW131583   1.152   3.086   2.091
10228SOL    HW231584   1.315   3.093   2.096
10229SOL     OW31585   2.220   0.588   1.312
10229SOL    HW131586   2.299   0.644   1.288
10229SOL    HW231587   2.157   0.641   1.368
10230SOL     OW31588   6.032   6.601   3.504
10230SOL    HW131589   6.098   6.550   3.558
10230SOL    HW231590   6.054   6.699   3.509
10231SOL     OW31591   4.802   6.779   4.578
10231SOL    HW131592   4.889   6.732   4.569
10231SOL    HW231593   4.817   6.871   4.615
10232SOL     OW31594   4.057   1.836   3.646
10232SOL    HW131595   4.060   1.757   3.584
10232SOL    HW231596   4.013   1.809   3.731
10233SOL     OW31597   4.766   0.687   5.856
10233SOL    HW131598   4.731   0.659   5.767
10233SOL    HW231599   4.754   0.613   5.922
10234SOL     OW31600   4.749   5.647   0.904
10234SOL    HW131601   4.701   5.694   0.830
10234SOL    HW231602   4.833   5.696   0.927
10235SOL     OW31603   4.826   1.134   0.169
10235SOL    HW131604   4.758   1.153   0.240
10235SOL    HW231605   4.870   1.047   0.188
10236SOL     OW31606   1.771   6.067   1.850
10236SOL    HW131607   1.826   6.009   1.790
10236SOL    HW231608   1.831   6.129   1.901
10237SOL     OW31609   5.715   2.424   3.490
10237SOL    HW131610   5.673   2.501   3.442
10237SOL    HW231611   5.658   2.342   3.480
10238SOL     OW31612   4.385   6.124   4.929
10238SOL    HW131613   4.457   6.160   4.988
10238SOL    HW231614   4.404   6.148   4.834
10239SOL     OW31615   6.151   3.638   4.670
10239SOL    HW131616   6.167   3.727   4.713
10239SOL    HW231617   6.233   3.611   4.619
10240SOL     OW31618   4.903   4.074   3.665
10240SOL    HW131619   4.825   4.130   3.636
10240SOL    HW231620   4.972   4.133   3.707
10241SOL     OW31621   1.939   1.865   3.032
10241SOL    HW131622   1.879   1.823   3.100
10241SOL    HW231623   2.008   1.921   3.080
10242SOL     OW31624   1.192   5.270   6.126
10242SOL    HW131625   1.196   5.333   6.204
10242SOL    HW231626   1.099   5.269   6.089
10243SOL     OW31627   1.009   6.424   2.938
10243SOL    HW131628   1.098   6.417   2.983
10243SOL    HW231629   0.937   6.431   3.006
10244SOL     OW31630   1.510   5.494   0.274
10244SOL    HW131631   1.469   5.584   0.292
10244SOL    HW231632   1.446   5.439   0.220
10245SOL     OW31633   2.490   2.512   0.073
10245SOL    HW131634   2.410   2.494   0.016
10245SOL    HW231635   2.463   2.565   0.153
10246SOL     OW31636   3.280   3.535   4.212
10246SOL    HW131637   3.297   3.631   4.190
10246SOL    HW231638   3.245   3.488   4.132
10247SOL     OW31639   0.660   5.949   5.243
10247SOL    HW131640   0.744   5.896   5.231
10247SOL    HW231641   0.582   5.896   5.211
10248SOL     OW31642   5.570   1.104   3.144
10248SOL    HW131643   5.649   1.042   3.144
10248SOL    HW231644   5.551   1.133   3.238
10249SOL     OW31645   4.846   1.522   6.599
10249SOL    HW131646   4.819   1.613   6.631
10249SOL    HW231647   4.946   1.517   6.592
10250SOL     OW31648   5.521   6.890   0.563
10250SOL    HW131649   5.442   6.881   0.502
10250SOL    HW231650   5.560   6.981   0.554
10251SOL     OW31651   3.741   4.596   0.829
10251SOL    HW131652   3.647   4.613   0.859
10251SOL    HW231653   3.743   4.512   0.773
10252SOL     OW31654   6.920   4.593   1.227
10252SOL    HW131655   6.898   4.505   1.185
10252SOL    HW231656   6.876   4.666   1.176
10253SOL     OW31657   3.885   5.116   0.589
10253SOL    HW131658   3.808   5.052   0.580
10253SOL    HW231659   3.927   5.130   0.499
10254SOL     OW31660   2.238   1.418   4.665
10254SOL    HW131661   2.139   1.404   4.664
10254SOL    HW231662   2.279   1.368   4.589
10255SOL     OW31663   3.166   5.520   2.815
10255SOL    HW131664   3.126   5.604   2.778
10255SOL    HW231665   3.118   5.441   2.777
10256SOL     OW31666   6.006   6.318   6.791
10256SOL    HW131667   6.078   6.345   6.727
10256SOL    HW231668   5.918   6.353   6.758
10257SOL     OW31669   1.753   5.703   5.519
10257SOL    HW131670   1.795   5.613   5.534
10257SOL    HW231671   1.753   5.723   5.421
10258SOL     OW31672   4.066   0.871   3.499
10258SOL    HW131673   4.114   0.896   3.583
10258SOL    HW231674   3.967   0.876   3.513
10259SOL     OW31675   0.829   3.663   3.949
10259SOL    HW131676   0.791   3.572   3.935
10259SOL    HW231677   0.894   3.661   4.024
10260SOL     OW31678   0.037   6.182   2.163
10260SOL    HW131679   0.134   6.160   2.166
10260SOL    HW231680   7.007   6.104   2.127
10261SOL     OW31681   1.782   0.382   1.895
10261SOL    HW131682   1.797   0.456   1.830
10261SOL    HW231683   1.870   0.347   1.926
10262SOL     OW31684   1.107   5.843   3.807
10262SOL    HW131685   1.177   5.869   3.741
10262SOL    HW231686   1.126   5.886   3.895
10263SOL     OW31687   6.725   2.976   5.506
10263SOL    HW131688   6.791   3.050   5.518
10263SOL    HW231689   6.763   2.907   5.444
10264SOL     OW31690   0.590   6.712   0.053
10264SOL    HW131691   0.546   6.704   6.985
10264SOL    HW231692   0.680   6.669   0.050
10265SOL     OW31693   4.141   1.864   2.712
10265SOL    HW131694   4.087   1.826   2.787
10265SOL    HW231695   4.204   1.933   2.748
10266SOL     OW31696   3.947   3.661   6.708
10266SOL    HW131697   4.010   3.594   6.747
10266SOL    HW231698   3.863   3.615   6.677
10267SOL     OW31699   6.592   1.519   6.368
10267SOL    HW131700   6.685   1.482   6.374
10267SOL    HW231701   6.596   1.612   6.332
10268SOL     OW31702   6.375   4.169   1.031
10268SOL    HW131703   6.436   4.149   0.955
10268SOL    HW231704   6.429   4.187   1.113
10269SOL     OW31705   3.308   1.818   5.998
10269SOL    HW131706   3.242   1.865   6.056
10269SOL    HW231707   3.261   1.750   5.942
10270SOL     OW31708   2.871   6.551   1.887
10270SOL    HW131709   2.960   6.545   1.933
10270SOL    HW231710   2.837   6.458   1.869
10271SOL     OW31711   2.778   5.292   0.980
10271SOL    HW131712   2.770   5.250   0.889
10271SOL    HW231713   2.723   5.240   1.045
10272SOL     OW31714   1.949   2.169   4.184
10272SOL    HW131715   1.882   2.096   4.194
10272SOL    HW231716   1.932   2.219   4.099
10273SOL     OW31717   4.189   0.082   4.397
10273SOL    HW131718   4.189   7.016   4.348
10273SOL    HW231719   4.094   0.110   4.415
10274SOL     OW31720   2.991   4.832   6.634
10274SOL    HW131721   3.012   4.904   6.567
10274SOL    HW231722   2.938   4.870   6.709
10275SOL     OW31723   0.981   6.709   1.679
10275SOL    HW131724   1.059   6.670   1.630
10275SOL    HW231725   1.002   6.717   1.776
10276SOL     OW31726   0.374   5.854   6.609
10276SOL    HW131727   0.436   5.851   6.531
10276SOL    HW231728   0.347   5.949   6.627
10277SOL     OW31729   0.632   5.993   1.973
10277SOL    HW131730   0.546   6.027   1.936
10277SOL    HW231731   0.615   5.948   2.061
10278SOL     OW31732   6.714   6.877   5.698
10278SOL    HW131733   6.657   6.899   5.778
10278SOL    HW231734   6.671   6.804   5.646
10279SOL     OW31735   3.965   6.289   4.807
10279SOL    HW131736   4.018   6.270   4.890
10279SOL    HW231737   4.007   6.365   4.757
10280SOL     OW31738   3.453   2.771   6.850
10280SOL    HW131739   3.503   2.805   6.771
10280SOL    HW231740   3.362   2.812   6.853
10281SOL     OW31741   4.392   0.450   4.363
10281SOL    HW131742   4.397   0.459   4.462
10281SOL    HW231743   4.455   0.379   4.333
10282SOL     OW31744   1.036   2.868   4.507
10282SOL    HW131745   1.066   2.780   4.471
10282SOL    HW231746   1.069   2.880   4.600
10283SOL     OW31747   1.524   3.932   5.960
10283SOL    HW131748   1.444   3.993   5.964
10283SOL    HW231749   1.597   3.976   5.908
10284SOL     OW31750   4.893   2.936   0.064
10284SOL    HW131751   4.823   3.006   0.065
10284SOL    HW231752   4.983   2.978   0.075
10285SOL     OW31753   5.407   0.816   0.763
10285SOL    HW131754   5.393   0.792   0.860
10285SOL    HW231755   5.463   0.898   0.757
10286SOL     OW31756   4.559   1.179   4.067
10286SOL    HW131757   4.631   1.197   4.134
10286SOL    HW231758   4.490   1.119   4.107
10287SOL     OW31759   1.165   4.289   2.234
10287SOL    HW131760   1.210   4.216   2.285
10287SOL    HW231761   1.185   4.377   2.278
10288SOL     OW31762   4.771   6.374   4.712
10288SOL    HW131763   4.792   6.320   4.631
10288SOL    HW231764   4.682   6.418   4.700
10289SOL     OW31765   2.657   1.440   1.290
10289SOL    HW131766   2.613   1.504   1.353
10289SOL    HW231767   2.730   1.486   1.241
10290SOL     OW31768   2.824   3.372   2.122
10290SOL    HW131769   2.916   3.388   2.085
10290SOL    HW231770   2.756   3.399   2.055
10291SOL     OW31771   3.905   0.502   5.408
10291SOL    HW131772   3.870   0.586   5.451
10291SOL    HW231773   3.919   0.432   5.478
10292SOL     OW31774   0.564   2.027   5.012
10292SOL    HW131775   0.527   1.942   5.051
10292SOL    HW231776   0.658   2.039   5.042
10293SOL     OW31777   3.070   5.607   3.321
10293SOL    HW131778   3.122   5.660   3.388
10293SOL    HW231779   3.015   5.669   3.266
10294SOL     OW31780   6.827   1.556   2.824
10294SOL    HW131781   6.770   1.477   2.847
10294SOL    HW231782   6.923   1.526   2.818
10295SOL     OW31783   1.947   4.245   4.309
10295SOL    HW131784   2.029   4.294   4.278
10295SOL    HW231785   1.938   4.255   4.408
10296SOL     OW31786   6.574   3.004   1.668
10296SOL    HW131787   6.651   3.065   1.687
10296SOL    HW231788   6.543   2.962   1.753
10297SOL     OW31789   3.172   5.397   4.538
10297SOL    HW131790   3.144   5.427   4.630
10297SOL    HW231791   3.205   5.476   4.487
10298SOL     OW31792   5.805   3.285   3.280
10298SOL    HW131793   5.742   3.298   3.356
10298SOL    HW231794   5.769   3.332   3.199
10299SOL     OW31795   4.988   3.837   1.930
10299SOL    HW131796   4.970   3.763   1.994
10299SOL    HW231797   5.077   3.878   1.949
10300SOL     OW31798   1.124   5.384   1.602
10300SOL    HW131799   1.085   5.453   1.542
10300SOL    HW231800   1.119   5.294   1.559
10301SOL     OW31801   4.458   1.353   1.622
10301SOL    HW131802   4.528   1.397   1.678
10301SOL    HW231803   4.369   1.395   1.640
10302SOL     OW31804   2.143   4.431   4.242
10302SOL    HW131805   2.233   4.394   4.264
10302SOL    HW231806   2.144   4.530   4.255
10303SOL     OW31807   4.126   2.680   1.415
10303SOL    HW131808   4.039   2.650   1.376
10303SOL    HW231809   4.201   2.629   1.374
10304SOL     OW31810   6.061   6.434   3.915
10304SOL    HW131811   6.096   6.466   3.827
10304SOL    HW231812   6.110   6.351   3.943
10305SOL     OW31813   1.511   5.589   1.024
10305SOL    HW131814   1.565   5.533   0.962
10305SOL    HW231815   1.417   5.555   1.027
10306SOL     OW31816   4.405   4.410   0.904
10306SOL    HW131817   4.404   4.316   0.939
10306SOL    HW231818   4.337   4.464   0.953
10307SOL     OW31819   2.151   1.604   5.424
10307SOL    HW131820   2.210   1.571   5.497
10307SOL    HW231821   2.067   1.549   5.421
10308SOL     OW31822   2.895   5.629   3.743
10308SOL    HW131823   2.972   5.584   3.790
10308SOL    HW231824   2.817   5.566   3.740
10309SOL     OW31825   0.328   6.011   3.589
10309SOL    HW131826   0.357   6.083   3.526
10309SOL    HW231827   0.279   5.940   3.539
10310SOL     OW31828   3.519   2.941   4.540
10310SOL    HW131829   3.564   2.937   4.452
10310SOL    HW231830   3.587   2.934   4.613
10311SOL     OW31831   0.347   6.931   0.784
10311SOL    HW131832   0.264   6.878   0.772
10311SOL    HW231833   0.382   6.918   0.876
10312SOL     OW31834   2.331   4.818   1.012
10312SOL    HW131835   2.280   4.874   0.947
10312SOL    HW231836   2.282   4.815   1.099
10313SOL     OW31837   6.455   5.354   3.614
10313SOL    HW131838   6.402   5.438   3.603
10313SOL    HW231839   6.547   5.376   3.645
10314SOL     OW31840   6.313   5.134   5.149
10314SOL    HW131841   6.217   5.110   5.167
10314SOL    HW231842   6.316   5.203   5.077
10315SOL     OW31843   4.607   0.048   5.518
10315SOL    HW131844   4.569   6.978   5.533
10315SOL    HW231845   4.597   0.074   5.422
10316SOL     OW31846   0.217   3.975   2.668
10316SOL    HW131847   0.175   3.934   2.749
10316SOL    HW231848   0.273   4.054   2.695
10317SOL     OW31849   4.841   4.602   0.068
10317SOL    HW131850   4.773   4.572   0.001
10317SOL    HW231851   4.826   4.553   0.154
10318SOL     OW31852   6.527   5.435   2.773
10318SOL    HW131853   6.467   5.368   2.728
10318SOL    HW231854   6.476   5.484   2.843
10319SOL     OW31855   5.595   6.557   4.743
10319SOL    HW131856   5.574   6.463   4.773
10319SOL    HW231857   5.580   6.565   4.645
10320SOL     OW31858   4.530   5.834   1.877
10320SOL    HW131859   4.492   5.926   1.862
10320SOL    HW231860   4.495   5.772   1.807
10321SOL     OW31861   4.199   0.352   4.205
10321SOL    HW131862   4.229   0.284   4.138
10321SOL    HW231863   4.274   0.372   4.268
10322SOL     OW31864   0.574   2.582   6.758
10322SOL    HW131865   0.645   2.536   6.704
10322SOL    HW231866   0.505   2.516   6.787
10323SOL     OW31867   0.848   2.275   5.801
10323SOL    HW131868   0.819   2.285   5.706
10323SOL    HW231869   0.921   2.205   5.806
10324SOL     OW31870   3.618   2.923   4.284
10324SOL    HW131871   3.718   2.930   4.276
10324SOL    HW231872   3.577   2.929   4.193
10325SOL     OW31873   0.033   4.180   2.946
10325SOL    HW131874   0.014   4.237   3.026
10325SOL    HW231875   0.017   4.234   2.863
10326SOL     OW31876   5.385   1.814   1.381
10326SOL    HW131877   5.449   1.876   1.336
10326SOL    HW231878   5.308   1.796   1.321
10327SOL     OW31879   6.516   1.164   3.132
10327SOL    HW131880   6.472   1.126   3.051
10327SOL    HW231881   6.468   1.247   3.160
10328SOL     OW31882   6.134   3.812   2.683
10328SOL    HW131883   6.072   3.840   2.756
10328SOL    HW231884   6.198   3.743   2.717
10329SOL     OW31885   3.420   6.193   2.697
10329SOL    HW131886   3.404   6.284   2.659
10329SOL    HW231887   3.489   6.199   2.769
10330SOL     OW31888   3.201   3.879   1.121
10330SOL    HW131889   3.213   3.851   1.026
10330SOL    HW231890   3.278   3.846   1.176
10331SOL     OW31891   5.481   0.907   4.541
10331SOL    HW131892   5.389   0.873   4.562
10331SOL    HW231893   5.473   0.990   4.485
10332SOL     OW31894   0.384   1.346   6.495
10332SOL    HW131895   0.463   1.399   6.525
10332SOL    HW231896   0.363   1.276   6.562
10333SOL     OW31897   6.221   4.643   5.686
10333SOL    HW131898   6.228   4.643   5.586
10333SOL    HW231899   6.125   4.636   5.713
10334SOL     OW31900   1.069   4.893   4.919
10334SOL    HW131901   1.131   4.956   4.873
10334SOL    HW231902   1.103   4.800   4.911
10335SOL     OW31903   3.279   5.133   2.073
10335SOL    HW131904   3.319   5.042   2.064
10335SOL    HW231905   3.280   5.178   1.984
10336SOL     OW31906   5.039   6.984   2.706
10336SOL    HW131907   5.123   6.948   2.665
10336SOL    HW231908   5.041   6.970   2.804
10337SOL     OW31909   0.490   4.668   5.699
10337SOL    HW131910   0.408   4.642   5.649
10337SOL    HW231911   0.549   4.724   5.641
10338SOL     OW31912   2.771   4.955   2.801
10338SOL    HW131913   2.679   4.962   2.762
10338SOL    HW231914   2.839   4.984   2.734
10339SOL     OW31915   3.024   5.637   0.902
10339SOL    HW131916   2.958   5.684   0.961
10339SOL    HW231917   2.979   5.611   0.817
10340SOL     OW31918   1.626   6.136   0.381
10340SOL    HW131919   1.710   6.157   0.331
10340SOL    HW231920   1.579   6.221   0.404
10341SOL     OW31921   0.678   2.403   2.187
10341SOL    HW131922   0.607   2.341   2.156
10341SOL    HW231923   0.661   2.429   2.282
10342SOL     OW31924   3.794   6.663   3.954
10342SOL    HW131925   3.812   6.571   3.988
10342SOL    HW231926   3.707   6.696   3.992
10343SOL     OW31927   2.547   2.573   4.158
10343SOL    HW131928   2.593   2.489   4.186
10343SOL    HW231929   2.505   2.617   4.238
10344SOL     OW31930   4.215   3.571   1.774
10344SOL    HW131931   4.162   3.549   1.856
10344SOL    HW231932   4.271   3.492   1.748
10345SOL     OW31933   2.806   2.284   5.705
10345SOL    HW131934   2.839   2.200   5.661
10345SOL    HW231935   2.870   2.358   5.688
10346SOL     OW31936   6.133   5.409   0.609
10346SOL    HW131937   6.197   5.483   0.626
10346SOL    HW231938   6.081   5.428   0.526
10347SOL     OW31939   4.473   0.369   1.459
10347SOL    HW131940   4.537   0.294   1.476
10347SOL    HW231941   4.500   0.449   1.511
10348SOL     OW31942   6.790   4.913   5.813
10348SOL    HW131943   6.725   4.922   5.737
10348SOL    HW231944   6.765   4.835   5.869
10349SOL     OW31945   6.747   2.046   0.393
10349SOL    HW131946   6.675   2.105   0.430
10349SOL    HW231947   6.791   2.091   0.315
10350SOL     OW31948   2.168   4.756   4.860
10350SOL    HW131949   2.173   4.658   4.840
10350SOL    HW231950   2.253   4.786   4.903
10351SOL     OW31951   3.825   4.921   4.717
10351SOL    HW131952   3.779   5.010   4.704
10351SOL    HW231953   3.888   4.927   4.794
10352SOL     OW31954   6.537   0.718   0.057
10352SOL    HW131955   6.621   0.744   0.104
10352SOL    HW231956   6.511   0.624   0.083
10353SOL     OW31957   6.338   2.283   3.953
10353SOL    HW131958   6.307   2.205   3.900
10353SOL    HW231959   6.332   2.262   4.051
10354SOL     OW31960   6.102   2.620   1.403
10354SOL    HW131961   6.201   2.621   1.421
10354SOL    HW231962   6.055   2.660   1.482
10355SOL     OW31963   0.583   1.618   0.822
10355SOL    HW131964   0.678   1.600   0.846
10355SOL    HW231965   0.565   1.584   0.729
10356SOL     OW31966   5.370   2.103   6.609
10356SOL    HW131967   5.297   2.082   6.674
10356SOL    HW231968   5.344   2.183   6.555
10357SOL     OW31969   1.223   6.922   6.139
10357SOL    HW131970   1.299   6.859   6.155
10357SOL    HW231971   1.241   7.009   6.185
10358SOL     OW31972   0.168   2.428   2.933
10358SOL    HW131973   0.074   2.434   2.966
10358SOL    HW231974   0.195   2.332   2.929
10359SOL     OW31975   0.636   1.967   2.243
10359SOL    HW131976   0.629   2.063   2.270
10359SOL    HW231977   0.721   1.928   2.277
10360SOL     OW31978   6.135   3.962   1.101
10360SOL    HW131979   6.229   3.995   1.089
10360SOL    HW231980   6.113   3.961   1.199
10361SOL     OW31981   6.114   1.893   2.103
10361SOL    HW131982   6.170   1.934   2.175
10361SOL    HW231983   6.101   1.796   2.121
10362SOL     OW31984   1.266   5.695   1.937
10362SOL    HW131985   1.178   5.658   1.966
10362SOL    HW231986   1.319   5.624   1.890
10363SOL     OW31987   5.547   5.109   6.895
10363SOL    HW131988   5.611   5.039   6.927
10363SOL    HW231989   5.459   5.067   6.873
10364SOL     OW31990   5.372   5.452   2.891
10364SOL    HW131991   5.301   5.406   2.945
10364SOL    HW231992   5.447   5.388   2.874
10365SOL     OW31993   6.156   5.547   0.172
10365SOL    HW131994   6.213   5.558   0.254
10365SOL    HW231995   6.145   5.635   0.127
10366SOL     OW31996   3.034   6.452   4.007
10366SOL    HW131997   3.019   6.551   3.999
10366SOL    HW231998   3.132   6.434   4.006
10367SOL     OW31999   5.507   6.302   2.049
10367SOL    HW132000   5.445   6.329   1.975
10367SOL    HW232001   5.554   6.384   2.084
10368SOL     OW32002   1.164   5.370   2.060
10368SOL    HW132003   1.128   5.326   1.978
10368SOL    HW232004   1.125   5.462   2.069
10369SOL     OW32005   2.726   0.192   5.961
10369SOL    HW132006   2.761   0.115   6.015
10369SOL    HW232007   2.644   0.164   5.911
10370SOL     OW32008   2.004   1.773   5.955
10370SOL    HW132009   2.071   1.787   6.027
10370SOL    HW232010   1.916   1.746   5.995
10371SOL     OW32011   4.153   5.935   2.594
10371SOL    HW132012   4.083   5.867   2.618
10371SOL    HW232013   4.234   5.920   2.651
10372SOL     OW32014   2.520   6.710   1.163
10372SOL    HW132015   2.607   6.663   1.179
10372SOL    HW232016   2.446   6.657   1.204
10373SOL     OW32017   5.989   1.039   6.578
10373SOL    HW132018   5.918   1.110   6.579
10373SOL    HW232019   6.077   1.081   6.556
10374SOL     OW32020   2.994   5.143   3.341
10374SOL    HW132021   2.964   5.051   3.367
10374SOL    HW232022   2.991   5.152   3.242
10375SOL     OW32023   2.313   5.695   0.884
10375SOL    HW132024   2.334   5.609   0.930
10375SOL    HW232025   2.395   5.728   0.836
10376SOL     OW32026   2.522   4.899   3.603
10376SOL    HW132027   2.496   4.965   3.673
10376SOL    HW232028   2.599   4.934   3.551
10377SOL     OW32029   1.965   1.098   2.254
10377SOL    HW132030   1.877   1.142   2.236
10377SOL    HW232031   1.968   1.010   2.206
10378SOL     OW32032   0.560   5.979   4.878
10378SOL    HW132033   0.478   6.035   4.864
10378SOL    HW232034   0.533   5.886   4.899
10379SOL     OW32035   2.318   0.455   3.827
10379SOL    HW132036   2.285   0.362   3.809
10379SOL    HW232037   2.406   0.451   3.873
10380SOL     OW32038   3.433   1.698   4.183
10380SOL    HW132039   3.507   1.631   4.188
10380SOL    HW232040   3.462   1.783   4.228
10381SOL     OW32041   4.141   6.701   2.740
10381SOL    HW132042   4.042   6.708   2.748
10381SOL    HW232043   4.171   6.743   2.655
10382SOL     OW32044   4.455   5.614   1.734
10382SOL    HW132045   4.416   5.571   1.653
10382SOL    HW232046   4.516   5.550   1.780
10383SOL     OW32047   0.951   4.854   6.849
10383SOL    HW132048   0.952   4.800   6.933
10383SOL    HW232049   0.929   4.796   6.771
10384SOL     OW32050   5.200   5.457   1.342
10384SOL    HW132051   5.249   5.495   1.264
10384SOL    HW232052   5.149   5.530   1.388
10385SOL     OW32053   4.502   4.521   0.664
10385SOL    HW132054   4.436   4.531   0.589
10385SOL    HW232055   4.463   4.461   0.734
10386SOL     OW32056   0.547   0.496   1.353
10386SOL    HW132057   0.581   0.408   1.319
10386SOL    HW232058   0.624   0.557   1.370
10387SOL     OW32059   5.017   3.316   2.287
10387SOL    HW132060   5.083   3.247   2.316
10387SOL    HW232061   4.954   3.336   2.362
10388SOL     OW32062   1.754   6.981   4.850
10388SOL    HW132063   1.733   6.979   4.752
10388SOL    HW232064   1.669   6.972   4.903
10389SOL     OW32065   0.998   4.008   6.977
10389SOL    HW132066   0.998   4.036   6.881
10389SOL    HW232067   0.922   4.052   0.004
10390SOL     OW32068   2.392   2.772   1.815
10390SOL    HW132069   2.393   2.864   1.776
10390SOL    HW232070   2.431   2.707   1.750
10391SOL     OW32071   5.803   6.572   3.970
10391SOL    HW132072   5.894   6.613   3.968
10391SOL    HW232073   5.809   6.478   4.004
10392SOL     OW32074   6.422   3.973   4.592
10392SOL    HW132075   6.364   3.911   4.645
10392SOL    HW232076   6.376   3.995   4.505
10393SOL     OW32077   1.700   2.895   3.086
10393SOL    HW132078   1.658   2.862   3.001
10393SOL    HW232079   1.655   2.853   3.164
10394SOL     OW32080   3.092   0.280   4.187
10394SOL    HW132081   3.185   0.264   4.219
10394SOL    HW232082   3.069   0.377   4.196
10395SOL     OW32083   0.837   0.006   0.629
10395SOL    HW132084   0.860   6.969   0.552
10395SOL    HW232085   0.806   0.095   0.596
10396SOL     OW32086   3.317   2.118   4.939
10396SOL    HW132087   3.250   2.189   4.960
10396SOL    HW232088   3.302   2.084   4.847
10397SOL     OW32089   5.052   1.997   4.047
10397SOL    HW132090   4.990   2.010   4.124
10397SOL    HW232091   5.001   1.962   3.968
10398SOL     OW32092   5.985   2.613   2.447
10398SOL    HW132093   5.906   2.568   2.406
10398SOL    HW232094   6.009   2.693   2.392
10399SOL     OW32095   1.016   3.972   1.938
10399SOL    HW132096   1.113   3.967   1.914
10399SOL    HW232097   0.979   3.879   1.947
10400SOL     OW32098   2.333   6.258   0.839
10400SOL    HW132099   2.274   6.339   0.843
10400SOL    HW232100   2.365   6.236   0.930
10401SOL     OW32101   0.603   0.842   5.713
10401SOL    HW132102   0.634   0.929   5.751
10401SOL    HW232103   0.646   0.767   5.762
10402SOL     OW32104   0.103   3.149   5.048
10402SOL    HW132105   0.013   3.140   5.091
10402SOL    HW232106   0.126   3.063   5.001
10403SOL     OW32107   3.292   6.950   0.797
10403SOL    HW132108   3.219   6.893   0.760
10403SOL    HW232109   3.253   0.003   0.850
10404SOL     OW32110   6.655   6.625   6.409
10404SOL    HW132111   6.629   6.645   6.315
10404SOL    HW232112   6.743   6.670   6.430
10405SOL     OW32113   0.591   2.334   6.410
10405SOL    HW132114   0.521   2.400   6.438
10405SOL    HW232115   0.611   2.272   6.485
10406SOL     OW32116   1.839   5.099   1.621
10406SOL    HW132117   1.883   5.173   1.569
10406SOL    HW232118   1.841   5.015   1.567
10407SOL     OW32119   2.260   6.091   5.875
10407SOL    HW132120   2.215   6.092   5.786
10407SOL    HW232121   2.264   5.997   5.910
10408SOL     OW32122   3.936   1.307   0.327
10408SOL    HW132123   3.965   1.214   0.306
10408SOL    HW232124   3.958   1.367   0.249
10409SOL     OW32125   5.791   4.895   1.337
10409SOL    HW132126   5.695   4.870   1.321
10409SOL    HW232127   5.828   4.939   1.256
10410SOL     OW32128   4.960   0.388   0.818
10410SOL    HW132129   5.032   0.419   0.755
10410SOL    HW232130   4.978   0.423   0.909
10411SOL     OW32131   2.673   5.131   3.865
10411SOL    HW132132   2.680   5.207   3.800
10411SOL    HW232133   2.751   5.134   3.928
10412SOL     OW32134   5.848   0.268   0.648
10412SOL    HW132135   5.824   0.174   0.672
10412SOL    HW232136   5.940   0.288   0.682
10413SOL     OW32137   0.045   2.916   2.047
10413SOL    HW132138   0.124   2.855   2.056
10413SOL    HW232139   0.005   2.907   1.956
10414SOL     OW32140   5.189   2.884   4.438
10414SOL    HW132141   5.202   2.882   4.538
10414SOL    HW232142   5.237   2.807   4.396
10415SOL     OW32143   0.015   0.210   6.212
10415SOL    HW132144   0.012   0.207   6.112
10415SOL    HW232145   0.008   0.305   6.243
10416SOL     OW32146   5.358   3.589   4.836
10416SOL    HW132147   5.356   3.531   4.754
10416SOL    HW232148   5.285   3.560   4.898
10417SOL     OW32149   2.624   4.796   3.173
10417SOL    HW132150   2.650   4.730   3.103
10417SOL    HW232151   2.619   4.750   3.262
10418SOL     OW32152   1.475   5.121   6.100
10418SOL    HW132153   1.509   5.215   6.097
10418SOL    HW232154   1.396   5.115   6.160
10419SOL     OW32155   1.180   1.461   1.054
10419SOL    HW132156   1.108   1.460   1.123
10419SOL    HW232157   1.236   1.544   1.065
10420SOL     OW32158   0.337   3.431   3.639
10420SOL    HW132159   0.321   3.336   3.663
10420SOL    HW232160   0.277   3.490   3.694
10421SOL     OW32161   0.438   1.352   3.404
10421SOL    HW132162   0.405   1.376   3.496
10421SOL    HW232163   0.506   1.418   3.375
10422SOL     OW32164   5.734   3.425   6.006
10422SOL    HW132165   5.640   3.408   6.035
10422SOL    HW232166   5.786   3.463   6.083
10423SOL     OW32167   5.103   4.346   2.725
10423SOL    HW132168   5.084   4.265   2.670
10423SOL    HW232169   5.017   4.387   2.756
10424SOL     OW32170   4.491   2.161   6.285
10424SOL    HW132171   4.429   2.139   6.360
10424SOL    HW232172   4.472   2.101   6.207
10425SOL     OW32173   1.973   6.378   1.748
10425SOL    HW132174   2.065   6.418   1.754
10425SOL    HW232175   1.962   6.309   1.819
10426SOL     OW32176   6.312   3.660   0.045
10426SOL    HW132177   6.296   3.573   7.020
10426SOL    HW232178   6.322   3.733   6.997
10427SOL     OW32179   4.732   1.264   0.927
10427SOL    HW132180   4.728   1.254   0.827
10427SOL    HW232181   4.649   1.226   0.968
10428SOL     OW32182   4.345   1.364   4.669
10428SOL    HW132183   4.316   1.418   4.590
10428SOL    HW232184   4.422   1.306   4.645
10429SOL     OW32185   6.084   6.540   2.372
10429SOL    HW132186   6.022   6.489   2.312
10429SOL    HW232187   6.069   6.638   2.361
10430SOL     OW32188   3.978   6.561   3.055
10430SOL    HW132189   3.953   6.464   3.064
10430SOL    HW232190   3.924   6.615   3.119
10431SOL     OW32191   2.209   1.317   5.257
10431SOL    HW132192   2.246   1.373   5.331
10431SOL    HW232193   2.112   1.302   5.272
10432SOL     OW32194   5.324   1.036   5.263
10432SOL    HW132195   5.255   0.965   5.249
10432SOL    HW232196   5.379   1.014   5.344
10433SOL     OW32197   2.822   6.559   0.917
10433SOL    HW132198   2.762   6.484   0.888
10433SOL    HW232199   2.797   6.643   0.869
10434SOL     OW32200   2.728   2.013   4.087
10434SOL    HW132201   2.741   2.089   4.023
10434SOL    HW232202   2.806   1.950   4.079
10435SOL     OW32203   5.160   6.079   0.014
10435SOL    HW132204   5.091   6.064   6.964
10435SOL    HW232205   5.226   6.146   7.003
10436SOL     OW32206   1.195   6.954   2.336
10436SOL    HW132207   1.136   6.961   2.256
10436SOL    HW232208   1.228   6.860   2.345
10437SOL     OW32209   6.368   5.021   5.818
10437SOL    HW132210   6.400   5.047   5.727
10437SOL    HW232211   6.271   4.999   5.814
10438SOL     OW32212   3.633   6.250   6.396
10438SOL    HW132213   3.557   6.186   6.411
10438SOL    HW232214   3.596   6.337   6.366
10439SOL     OW32215   4.099   0.368   5.600
10439SOL    HW132216   4.183   0.422   5.601
10439SOL    HW232217   4.098   0.305   5.677
10440SOL     OW32218   2.654   5.897   0.290
10440SOL    HW132219   2.684   5.802   0.277
10440SOL    HW232220   2.626   5.910   0.386
10441SOL     OW32221   3.640   0.620   6.854
10441SOL    HW132222   3.608   0.569   6.935
10441SOL    HW232223   3.738   0.636   6.862
10442SOL     OW32224   4.369   5.445   5.656
10442SOL    HW132225   4.379   5.517   5.588
10442SOL    HW232226   4.301   5.378   5.624
10443SOL     OW32227   6.162   2.901   5.071
10443SOL    HW132228   6.162   2.905   4.971
10443SOL    HW232229   6.160   2.994   5.108
10444SOL     OW32230   3.636   4.983   3.873
10444SOL    HW132231   3.643   5.082   3.868
10444SOL    HW232232   3.540   4.957   3.886
10445SOL     OW32233   6.149   5.939   4.036
10445SOL    HW132234   6.069   5.892   3.999
10445SOL    HW232235   6.221   5.873   4.055
10446SOL     OW32236   0.888   5.970   6.447
10446SOL    HW132237   0.875   5.871   6.446
10446SOL    HW232238   0.890   6.004   6.353
10447SOL     OW32239   5.983   2.266   1.386
10447SOL    HW132240   6.069   2.217   1.374
10447SOL    HW232241   5.912   2.202   1.416
10448SOL     OW32242   3.279   3.855   2.141
10448SOL    HW132243   3.199   3.843   2.199
10448SOL    HW232244   3.251   3.865   2.046
10449SOL     OW32245   1.433   4.957   4.481
10449SOL    HW132246   1.451   4.928   4.387
10449SOL    HW232247   1.457   4.884   4.545
10450SOL     OW32248   0.002   3.135   1.004
10450SOL    HW132249   0.099   3.121   0.984
10450SOL    HW232250   6.988   3.056   1.054
10451SOL     OW32251   2.292   4.342   2.743
10451SOL    HW132252   2.218   4.399   2.777
10451SOL    HW232253   2.315   4.370   2.649
10452SOL     OW32254   1.129   3.943   5.281
10452SOL    HW132255   1.164   3.864   5.231
10452SOL    HW232256   1.202   3.984   5.334
10453SOL     OW32257   5.491   0.225   1.824
10453SOL    HW132258   5.486   0.301   1.889
10453SOL    HW232259   5.585   0.213   1.793
10454SOL     OW32260   4.964   3.421   2.562
10454SOL    HW132261   5.039   3.368   2.602
10454SOL    HW232262   4.963   3.513   2.603
10455SOL     OW32263   6.462   4.366   3.009
10455SOL    HW132264   6.442   4.408   3.097
10455SOL    HW232265   6.503   4.276   3.023
10456SOL     OW32266   3.820   6.449   0.862
10456SOL    HW132267   3.859   6.374   0.808
10456SOL    HW232268   3.774   6.413   0.942
10457SOL     OW32269   3.840   3.638   4.531
10457SOL    HW132270   3.917   3.701   4.536
10457SOL    HW232271   3.849   3.567   4.600
10458SOL     OW32272   6.900   6.685   1.604
10458SOL    HW132273   6.954   6.617   1.554
10458SOL    HW232274   6.927   6.686   1.700
10459SOL     OW32275   6.698   4.941   2.441
10459SOL    HW132276   6.698   4.948   2.341
10459SOL    HW232277   6.631   5.005   2.479
10460SOL     OW32278   2.154   5.310   2.009
10460SOL    HW132279   2.164   5.226   1.955
10460SOL    HW232280   2.088   5.371   1.965
10461SOL     OW32281   2.271   1.570   6.026
10461SOL    HW132282   2.200   1.518   5.978
10461SOL    HW232283   2.349   1.584   5.965
10462SOL     OW32284   5.697   6.815   1.173
10462SOL    HW132285   5.643   6.898   1.182
10462SOL    HW232286   5.697   6.766   1.261
10463SOL     OW32287   2.875   4.093   1.727
10463SOL    HW132288   2.940   4.064   1.797
10463SOL    HW232289   2.872   4.025   1.654
10464SOL     OW32290   5.351   0.377   1.601
10464SOL    HW132291   5.367   0.319   1.681
10464SOL    HW232292   5.404   0.461   1.610
10465SOL     OW32293   6.757   5.255   4.823
10465SOL    HW132294   6.836   5.301   4.782
10465SOL    HW232295   6.779   5.233   4.918
10466SOL     OW32296   5.088   6.066   6.139
10466SOL    HW132297   5.050   6.121   6.213
10466SOL    HW232298   5.151   5.998   6.176
10467SOL     OW32299   4.324   0.928   4.012
10467SOL    HW132300   4.258   0.853   4.015
10467SOL    HW232301   4.410   0.898   4.054
10468SOL     OW32302   3.519   5.908   3.116
10468SOL    HW132303   3.503   5.851   3.197
10468SOL    HW232304   3.593   5.868   3.062
10469SOL     OW32305   1.919   4.876   0.062
10469SOL    HW132306   2.015   4.895   0.042
10469SOL    HW232307   1.892   4.791   0.017
10470SOL     OW32308   2.657   1.665   4.183
10470SOL    HW132309   2.695   1.647   4.274
10470SOL    HW232310   2.691   1.597   4.119
10471SOL     OW32311   4.661   3.772   0.378
10471SOL    HW132312   4.673   3.773   0.477
10471SOL    HW232313   4.736   3.721   0.336
10472SOL     OW32314   4.783   1.404   3.120
10472SOL    HW132315   4.739   1.492   3.103
10472SOL    HW232316   4.780   1.383   3.217
10473SOL     OW32317   4.801   5.521   0.515
10473SOL    HW132318   4.784   5.425   0.538
10473SOL    HW232319   4.885   5.528   0.461
10474SOL     OW32320   4.750   0.442   4.172
10474SOL    HW132321   4.806   0.371   4.130
10474SOL    HW232322   4.762   0.528   4.121
10475SOL     OW32323   4.662   6.165   1.821
10475SOL    HW132324   4.709   6.134   1.903
10475SOL    HW232325   4.564   6.146   1.829
10476SOL     OW32326   6.996   4.370   0.219
10476SOL    HW132327   6.979   4.436   0.145
10476SOL    HW232328   0.074   4.361   0.233
10477SOL     OW32329   4.754   4.717   5.108
10477SOL    HW132330   4.780   4.796   5.052
10477SOL    HW232331   4.666   4.681   5.077
10478SOL     OW32332   0.501   6.157   2.301
10478SOL    HW132333   0.527   6.212   2.221
10478SOL    HW232334   0.544   6.067   2.295
10479SOL     OW32335   1.318   4.775   2.769
10479SOL    HW132336   1.228   4.785   2.727
10479SOL    HW232337   1.313   4.800   2.865
10480SOL     OW32338   6.143   0.051   2.617
10480SOL    HW132339   6.088   0.024   2.539
10480SOL    HW232340   6.222   7.011   2.625
10481SOL     OW32341   2.394   0.758   4.944
10481SOL    HW132342   2.404   0.781   4.847
10481SOL    HW232343   2.354   0.666   4.953
10482SOL     OW32344   1.182   5.206   5.595
10482SOL    HW132345   1.235   5.267   5.536
10482SOL    HW232346   1.211   5.112   5.580
10483SOL     OW32347   6.960   5.428   0.895
10483SOL    HW132348   7.006   5.490   0.832
10483SOL    HW232349   6.862   5.425   0.873
10484SOL     OW32350   6.125   1.839   1.588
10484SOL    HW132351   6.197   1.773   1.568
10484SOL    HW232352   6.039   1.808   1.548
10485SOL     OW32353   3.151   4.031   3.699
10485SOL    HW132354   3.144   3.934   3.675
10485SOL    HW232355   3.214   4.041   3.776
10486SOL     OW32356   5.798   5.456   5.072
10486SOL    HW132357   5.862   5.493   5.139
10486SOL    HW232358   5.715   5.512   5.070
10487SOL     OW32359   5.228   2.902   3.162
10487SOL    HW132360   5.155   2.857   3.213
10487SOL    HW232361   5.203   2.908   3.066
10488SOL     OW32362   6.910   2.044   5.628
10488SOL    HW132363   6.979   2.109   5.594
10488SOL    HW232364   6.908   1.965   5.567
10489SOL     OW32365   5.928   3.947   4.500
10489SOL    HW132366   5.843   3.997   4.514
10489SOL    HW232367   5.982   3.991   4.428
10490SOL     OW32368   5.482   6.721   6.830
10490SOL    HW132369   5.553   6.791   6.824
10490SOL    HW232370   5.397   6.762   6.861
10491SOL     OW32371   2.025   3.115   5.712
10491SOL    HW132372   2.085   3.111   5.632
10491SOL    HW232373   2.081   3.129   5.794
10492SOL     OW32374   3.762   5.897   0.171
10492SOL    HW132375   3.806   5.951   0.243
10492SOL    HW232376   3.687   5.843   0.209
10493SOL     OW32377   3.882   5.675   1.624
10493SOL    HW132378   3.879   5.588   1.672
10493SOL    HW232379   3.977   5.697   1.600
10494SOL     OW32380   0.718   4.388   4.023
10494SOL    HW132381   0.749   4.394   4.117
10494SOL    HW232382   0.690   4.294   4.003
10495SOL     OW32383   0.036   6.389   0.656
10495SOL    HW132384   0.003   6.481   0.637
10495SOL    HW232385   0.136   6.390   0.660
10496SOL     OW32386   0.430   4.638   6.677
10496SOL    HW132387   0.398   4.572   6.745
10496SOL    HW232388   0.405   4.606   6.585
10497SOL     OW32389   2.923   0.738   1.894
10497SOL    HW132390   3.004   0.774   1.942
10497SOL    HW232391   2.894   0.804   1.825
10498SOL     OW32392   4.510   4.077   6.401
10498SOL    HW132393   4.523   4.136   6.322
10498SOL    HW232394   4.427   4.021   6.389
10499SOL     OW32395   5.426   3.722   2.748
10499SOL    HW132396   5.516   3.719   2.791
10499SOL    HW232397   5.360   3.765   2.811
10500SOL     OW32398   1.161   3.584   4.924
10500SOL    HW132399   1.197   3.608   5.014
10500SOL    HW232400   1.206   3.501   4.891
10501SOL     OW32401   3.678   5.006   2.932
10501SOL    HW132402   3.730   5.033   2.851
10501SOL    HW232403   3.582   4.992   2.907
10502SOL     OW32404   3.193   3.340   2.645
10502SOL    HW132405   3.247   3.256   2.644
10502SOL    HW232406   3.101   3.321   2.680
10503SOL     OW32407   6.872   1.534   6.057
10503SOL    HW132408   6.909   1.584   5.978
10503SOL    HW232409   6.808   1.593   6.106
10504SOL     OW32410   0.655   3.918   5.803
10504SOL    HW132411   0.707   3.997   5.836
10504SOL    HW232412   0.562   3.921   5.840
10505SOL     OW32413   6.123   0.070   0.684
10505SOL    HW132414   6.108   0.157   0.732
10505SOL    HW232415   6.170   0.006   0.746
10506SOL     OW32416   1.300   4.415   6.118
10506SOL    HW132417   1.212   4.411   6.069
10506SOL    HW232418   1.375   4.416   6.052
10507SOL     OW32419   1.142   5.686   5.745
10507SOL    HW132420   1.121   5.775   5.786
10507SOL    HW232421   1.183   5.626   5.813
10508SOL     OW32422   1.851   5.477   6.132
10508SOL    HW132423   1.908   5.557   6.117
10508SOL    HW232424   1.874   5.436   6.220
10509SOL     OW32425   4.787   2.414   3.230
10509SOL    HW132426   4.727   2.475   3.282
10509SOL    HW232427   4.737   2.373   3.154
10510SOL     OW32428   5.230   5.672   3.703
10510SOL    HW132429   5.281   5.588   3.682
10510SOL    HW232430   5.205   5.718   3.619
10511SOL     OW32431   4.019   1.762   0.874
10511SOL    HW132432   3.975   1.717   0.951
10511SOL    HW232433   4.032   1.696   0.800
10512SOL     OW32434   4.086   1.754   5.351
10512SOL    HW132435   4.057   1.846   5.375
10512SOL    HW232436   4.110   1.704   5.434
10513SOL     OW32437   3.929   3.113   0.228
10513SOL    HW132438   3.954   3.140   0.135
10513SOL    HW232439   4.006   3.065   0.270
10514SOL     OW32440   1.473   4.548   1.878
10514SOL    HW132441   1.435   4.612   1.811
10514SOL    HW232442   1.398   4.506   1.929
10515SOL     OW32443   2.232   2.996   4.778
10515SOL    HW132444   2.249   2.906   4.738
10515SOL    HW232445   2.294   3.009   4.855
10516SOL     OW32446   4.880   2.271   1.799
10516SOL    HW132447   4.873   2.293   1.896
10516SOL    HW232448   4.904   2.353   1.748
10517SOL     OW32449   0.883   3.014   2.436
10517SOL    HW132450   0.950   2.942   2.453
10517SOL    HW232451   0.794   2.986   2.470
10518SOL     OW32452   1.131   5.517   2.343
10518SOL    HW132453   1.154   5.600   2.394
10518SOL    HW232454   1.039   5.487   2.368
10519SOL     OW32455   3.696   0.133   1.407
10519SOL    HW132456   3.690   0.079   1.491
10519SOL    HW232457   3.792   0.145   1.382
10520SOL     OW32458   1.608   2.769   6.417
10520SOL    HW132459   1.514   2.769   6.384
10520SOL    HW232460   1.639   2.863   6.429
10521SOL     OW32461   6.630   2.633   3.272
10521SOL    HW132462   6.682   2.560   3.315
10521SOL    HW232463   6.535   2.630   3.304
10522SOL     OW32464   5.741   1.415   3.946
10522SOL    HW132465   5.689   1.488   3.902
10522SOL    HW232466   5.687   1.376   4.021
10523SOL     OW32467   1.038   4.510   2.646
10523SOL    HW132468   0.985   4.581   2.599
10523SOL    HW232469   1.042   4.531   2.743
10524SOL     OW32470   6.819   5.962   4.546
10524SOL    HW132471   6.786   5.965   4.452
10524SOL    HW232472   6.862   6.049   4.570
10525SOL     OW32473   5.079   1.532   3.978
10525SOL    HW132474   5.018   1.463   4.017
10525SOL    HW232475   5.079   1.613   4.036
10526SOL     OW32476   1.492   5.203   6.619
10526SOL    HW132477   1.561   5.185   6.690
10526SOL    HW232478   1.402   5.179   6.654
10527SOL     OW32479   0.348   6.444   5.391
10527SOL    HW132480   0.431   6.400   5.425
10527SOL    HW232481   0.355   6.543   5.406
10528SOL     OW32482   1.784   4.955   5.430
10528SOL    HW132483   1.760   4.903   5.348
10528SOL    HW232484   1.757   4.903   5.511
10529SOL     OW32485   0.139   5.334   1.061
10529SOL    HW132486   0.178   5.412   1.110
10529SOL    HW232487   0.087   5.366   0.982
10530SOL     OW32488   0.037   6.372   1.740
10530SOL    HW132489   0.071   6.308   1.671
10530SOL    HW232490   6.961   6.354   1.756
10531SOL     OW32491   3.356   2.629   5.597
10531SOL    HW132492   3.278   2.582   5.557
10531SOL    HW232493   3.439   2.605   5.547
10532SOL     OW32494   4.751   6.052   5.841
10532SOL    HW132495   4.657   6.046   5.874
10532SOL    HW232496   4.814   6.031   5.915
10533SOL     OW32497   3.806   0.484   3.045
10533SOL    HW132498   3.904   0.496   3.060
10533SOL    HW232499   3.757   0.564   3.080
10534SOL     OW32500   1.517   5.751   3.460
10534SOL    HW132501   1.447   5.781   3.395
10534SOL    HW232502   1.576   5.828   3.484
10535SOL     OW32503   3.535   2.017   2.575
10535SOL    HW132504   3.478   2.073   2.515
10535SOL    HW232505   3.562   1.933   2.526
10536SOL     OW32506   5.672   3.361   5.299
10536SOL    HW132507   5.584   3.337   5.257
10536SOL    HW232508   5.658   3.382   5.396
10537SOL     OW32509   4.017   1.063   4.110
10537SOL    HW132510   4.069   0.984   4.078
10537SOL    HW232511   4.057   1.096   4.196
10538SOL     OW32512   0.140   2.836   3.483
10538SOL    HW132513   0.185   2.859   3.569
10538SOL    HW232514   0.040   2.840   3.495
10539SOL     OW32515   6.700   6.507   2.985
10539SOL    HW132516   6.734   6.416   2.959
10539SOL    HW232517   6.600   6.505   2.989
10540SOL     OW32518   1.873   4.203   0.103
10540SOL    HW132519   1.947   4.271   0.106
10540SOL    HW232520   1.831   4.195   0.193
10541SOL     OW32521   3.006   2.932   5.280
10541SOL    HW132522   2.908   2.951   5.292
10541SOL    HW232523   3.036   2.969   5.192
10542SOL     OW32524   5.063   6.313   2.951
10542SOL    HW132525   5.017   6.353   2.872
10542SOL    HW232526   4.998   6.305   3.027
10543SOL     OW32527   2.018   2.805   4.216
10543SOL    HW132528   1.975   2.714   4.215
10543SOL    HW232529   2.094   2.807   4.151
10544SOL     OW32530   3.375   1.422   2.906
10544SOL    HW132531   3.460   1.475   2.900
10544SOL    HW232532   3.299   1.484   2.923
10545SOL     OW32533   2.168   3.078   2.164
10545SOL    HW132534   2.248   3.064   2.221
10545SOL    HW232535   2.192   3.062   2.068
10546SOL     OW32536   2.343   0.001   6.992
10546SOL    HW132537   2.316   6.949   0.033
10546SOL    HW232538   2.320   6.996   6.898
10547SOL     OW32539   4.098   6.204   5.787
10547SOL    HW132540   4.100   6.122   5.843
10547SOL    HW232541   4.058   6.183   5.698
10548SOL     OW32542   0.670   6.050   3.116
10548SOL    HW132543   0.758   6.033   3.162
10548SOL    HW232544   0.598   5.997   3.160
10549SOL     OW32545   6.510   0.413   2.592
10549SOL    HW132546   6.528   0.388   2.687
10549SOL    HW232547   6.452   0.343   2.550
10550SOL     OW32548   5.003   5.649   2.878
10550SOL    HW132549   4.978   5.616   2.969
10550SOL    HW232550   4.939   5.721   2.851
10551SOL     OW32551   3.678   0.937   5.665
10551SOL    HW132552   3.583   0.969   5.666
10551SOL    HW232553   3.736   1.005   5.709
10552SOL     OW32554   3.008   6.975   3.604
10552SOL    HW132555   3.073   6.941   3.672
10552SOL    HW232556   2.914   6.956   3.636
10553SOL     OW32557   6.163   5.707   0.909
10553SOL    HW132558   6.219   5.772   0.961
10553SOL    HW232559   6.068   5.735   0.911
10554SOL     OW32560   6.338   6.420   2.697
10554SOL    HW132561   6.292   6.333   2.712
10554SOL    HW232562   6.320   6.452   2.604
10555SOL     OW32563   3.154   3.503   0.909
10555SOL    HW132564   3.195   3.412   0.923
10555SOL    HW232565   3.165   3.530   0.813
10556SOL     OW32566   2.785   1.848   2.106
10556SOL    HW132567   2.827   1.758   2.094
10556SOL    HW232568   2.718   1.863   2.034
10557SOL     OW32569   1.874   4.593   2.870
10557SOL    HW132570   1.828   4.584   2.957
10557SOL    HW232571   1.807   4.603   2.797
10558SOL     OW32572   3.876   5.256   4.686
10558SOL    HW132573   3.920   5.253   4.596
10558SOL    HW232574   3.779   5.236   4.676
10559SOL     OW32575   3.956   6.634   1.679
10559SOL    HW132576   3.917   6.567   1.743
10559SOL    HW232577   3.989   6.587   1.597
10560SOL     OW32578   5.198   6.660   3.339
10560SOL    HW132579   5.259   6.663   3.418
10560SOL    HW232580   5.183   6.566   3.310
10561SOL     OW32581   0.058   4.835   6.407
10561SOL    HW132582   0.038   4.889   6.325
10561SOL    HW232583   0.060   4.895   6.487
10562SOL     OW32584   4.223   5.974   2.139
10562SOL    HW132585   4.151   5.991   2.207
10562SOL    HW232586   4.311   5.967   2.186
10563SOL     OW32587   0.765   6.672   2.757
10563SOL    HW132588   0.701   6.698   2.685
10563SOL    HW232589   0.827   6.602   2.722
10564SOL     OW32590   5.045   4.776   3.228
10564SOL    HW132591   5.078   4.691   3.187
10564SOL    HW232592   4.986   4.824   3.163
10565SOL     OW32593   0.345   0.918   5.772
10565SOL    HW132594   0.442   0.894   5.765
10565SOL    HW232595   0.292   0.863   5.708
10566SOL     OW32596   3.379   1.954   0.591
10566SOL    HW132597   3.351   2.049   0.574
10566SOL    HW232598   3.476   1.944   0.566
10567SOL     OW32599   1.942   2.501   6.419
10567SOL    HW132600   1.922   2.407   6.389
10567SOL    HW232601   2.031   2.529   6.382
10568SOL     OW32602   5.136   2.305   5.862
10568SOL    HW132603   5.043   2.270   5.875
10568SOL    HW232604   5.139   2.360   5.779
10569SOL     OW32605   5.652   0.690   0.452
10569SOL    HW132606   5.747   0.666   0.473
10569SOL    HW232607   5.635   0.785   0.477
10570SOL     OW32608   1.803   3.534   3.196
10570SOL    HW132609   1.856   3.458   3.233
10570SOL    HW232610   1.813   3.614   3.256
10571SOL     OW32611   6.952   4.411   5.061
10571SOL    HW132612   0.005   4.463   5.019
10571SOL    HW232613   6.933   4.330   5.006
10572SOL     OW32614   6.138   4.265   1.155
10572SOL    HW132615   6.188   4.184   1.124
10572SOL    HW232616   6.041   4.243   1.164
10573SOL     OW32617   6.830   2.800   3.212
10573SOL    HW132618   6.754   2.739   3.234
10573SOL    HW232619   6.861   2.845   3.296
10574SOL     OW32620   5.803   2.184   2.734
10574SOL    HW132621   5.802   2.278   2.699
10574SOL    HW232622   5.897   2.151   2.740
10575SOL     OW32623   5.649   6.739   2.973
10575SOL    HW132624   5.562   6.758   3.018
10575SOL    HW232625   5.695   6.664   3.021
10576SOL     OW32626   1.391   4.024   4.466
10576SOL    HW132627   1.346   3.941   4.500
10576SOL    HW232628   1.485   4.002   4.439
10577SOL     OW32629   4.465   4.077   0.720
10577SOL    HW132630   4.434   4.105   0.811
10577SOL    HW232631   4.404   4.116   0.651
10578SOL     OW32632   0.713   3.463   2.827
10578SOL    HW132633   0.773   3.384   2.839
10578SOL    HW232634   0.654   3.472   2.907
10579SOL     OW32635   0.612   3.401   0.447
10579SOL    HW132636   0.637   3.330   0.381
10579SOL    HW232637   0.579   3.482   0.398
10580SOL     OW32638   5.241   6.757   6.619
10580SOL    HW132639   5.234   6.804   6.530
10580SOL    HW232640   5.220   6.822   6.692
10581SOL     OW32641   4.528   0.850   3.532
10581SOL    HW132642   4.584   0.838   3.450
10581SOL    HW232643   4.586   0.883   3.607
10582SOL     OW32644   6.542   3.309   6.128
10582SOL    HW132645   6.605   3.373   6.172
10582SOL    HW232646   6.593   3.252   6.064
10583SOL     OW32647   3.322   1.979   5.483
10583SOL    HW132648   3.345   1.889   5.447
10583SOL    HW232649   3.299   1.972   5.580
10584SOL     OW32650   0.928   6.681   3.337
10584SOL    HW132651   0.972   6.676   3.248
10584SOL    HW232652   0.997   6.683   3.409
10585SOL     OW32653   1.770   1.091   5.278
10585SOL    HW132654   1.725   1.025   5.338
10585SOL    HW232655   1.702   1.134   5.220
10586SOL     OW32656   4.514   4.338   5.237
10586SOL    HW132657   4.511   4.291   5.325
10586SOL    HW232658   4.421   4.351   5.202
10587SOL     OW32659   2.679   4.879   5.323
10587SOL    HW132660   2.605   4.813   5.312
10587SOL    HW232661   2.767   4.832   5.319
10588SOL     OW32662   1.568   3.384   3.471
10588SOL    HW132663   1.499   3.428   3.528
10588SOL    HW232664   1.538   3.387   3.375
10589SOL     OW32665   5.878   6.304   3.693
10589SOL    HW132666   5.960   6.306   3.750
10589SOL    HW232667   5.882   6.228   3.629
10590SOL     OW32668   0.793   5.076   2.589
10590SOL    HW132669   0.753   5.152   2.537
10590SOL    HW232670   0.861   5.030   2.532
10591SOL     OW32671   7.004   3.926   2.083
10591SOL    HW132672   6.961   3.836   2.087
10591SOL    HW232673   0.064   3.926   2.143
10592SOL     OW32674   0.502   2.121   4.750
10592SOL    HW132675   0.537   2.075   4.832
10592SOL    HW232676   0.559   2.201   4.730
10593SOL     OW32677   3.188   4.950   3.506
10593SOL    HW132678   3.133   4.881   3.458
10593SOL    HW232679   3.268   4.972   3.451
10594SOL     OW32680   3.267   5.377   3.624
10594SOL    HW132681   3.240   5.357   3.530
10594SOL    HW232682   3.359   5.415   3.625
10595SOL     OW32683   4.939   6.929   0.890
10595SOL    HW132684   4.979   6.986   0.818
10595SOL    HW232685   4.842   6.951   0.900
10596SOL     OW32686   5.121   3.081   0.124
10596SOL    HW132687   5.128   3.154   0.055
10596SOL    HW232688   5.212   3.050   0.149
10597SOL     OW32689   2.166   6.227   4.815
10597SOL    HW132690   2.244   6.281   4.782
10597SOL    HW232691   2.179   6.131   4.792
10598SOL     OW32692   3.257   0.631   0.229
10598SOL    HW132693   3.324   0.558   0.215
10598SOL    HW232694   3.281   0.710   0.173
10599SOL     OW32695   0.947   2.261   0.771
10599SOL    HW132696   0.861   2.251   0.822
10599SOL    HW232697   1.023   2.236   0.831
10600SOL     OW32698   4.001   1.139   1.829
10600SOL    HW132699   3.938   1.066   1.803
10600SOL    HW232700   3.965   1.185   1.911
10601SOL     OW32701   2.123   0.779   4.657
10601SOL    HW132702   2.041   0.819   4.617
10601SOL    HW232703   2.111   0.770   4.756
10602SOL     OW32704   6.339   0.268   1.888
10602SOL    HW132705   6.384   0.335   1.829
10602SOL    HW232706   6.318   0.186   1.836
10603SOL     OW32707   5.881   0.405   3.171
10603SOL    HW132708   5.800   0.446   3.130
10603SOL    HW232709   5.860   0.312   3.202
10604SOL     OW32710   5.151   1.280   4.855
10604SOL    HW132711   5.098   1.280   4.770
10604SOL    HW232712   5.197   1.192   4.865
10605SOL     OW32713   3.154   2.257   0.629
10605SOL    HW132714   3.125   2.255   0.725
10605SOL    HW232715   3.253   2.242   0.624
10606SOL     OW32716   6.504   0.840   6.687
10606SOL    HW132717   6.601   0.860   6.674
10606SOL    HW232718   6.476   0.866   6.780
10607SOL     OW32719   3.467   4.077   0.301
10607SOL    HW132720   3.500   4.104   0.211
10607SOL    HW232721   3.539   4.028   0.350
10608SOL     OW32722   5.359   4.408   3.761
10608SOL    HW132723   5.309   4.460   3.692
10608SOL    HW232724   5.364   4.312   3.734
10609SOL     OW32725   5.856   0.431   0.139
10609SOL    HW132726   5.887   0.498   0.072
10609SOL    HW232727   5.758   0.417   0.131
10610SOL     OW32728   0.876   1.737   3.178
10610SOL    HW132729   0.812   1.668   3.145
10610SOL    HW232730   0.831   1.826   3.181
10611SOL     OW32731   3.983   5.184   4.939
10611SOL    HW132732   4.081   5.197   4.930
10611SOL    HW232733   3.939   5.203   4.851
10612SOL     OW32734   6.553   2.572   3.678
10612SOL    HW132735   6.548   2.604   3.773
10612SOL    HW232736   6.556   2.472   3.676
10613SOL     OW32737   4.333   6.330   4.045
10613SOL    HW132738   4.240   6.334   4.081
10613SOL    HW232739   4.375   6.244   4.072
10614SOL     OW32740   3.655   2.024   5.851
10614SOL    HW132741   3.670   2.063   5.760
10614SOL    HW232742   3.660   2.096   5.920
10615SOL     OW32743   2.231   2.741   5.507
10615SOL    HW132744   2.221   2.839   5.522
10615SOL    HW232745   2.315   2.723   5.456
10616SOL     OW32746   1.698   5.833   0.239
10616SOL    HW132747   1.675   5.803   0.146
10616SOL    HW232748   1.719   5.931   0.237
10617SOL     OW32749   1.588   3.197   1.358
10617SOL    HW132750   1.633   3.180   1.270
10617SOL    HW232751   1.625   3.135   1.427
10618SOL     OW32752   1.063   4.455   4.158
10618SOL    HW132753   1.076   4.455   4.058
10618SOL    HW232754   1.021   4.541   4.186
10619SOL     OW32755   1.128   2.538   2.050
10619SOL    HW132756   1.051   2.592   2.017
10619SOL    HW232757   1.095   2.448   2.080
10620SOL     OW32758   3.063   0.538   5.766
10620SOL    HW132759   3.020   0.541   5.676
10620SOL    HW232760   3.021   0.466   5.821
10621SOL     OW32761   0.109   3.893   2.946
10621SOL    HW132762   0.067   3.845   3.022
10621SOL    HW232763   0.104   3.992   2.962
10622SOL     OW32764   4.389   2.446   0.293
10622SOL    HW132765   4.356   2.391   0.216
10622SOL    HW232766   4.419   2.535   0.259
10623SOL     OW32767   5.021   5.834   5.479
10623SOL    HW132768   5.078   5.753   5.463
10623SOL    HW232769   4.955   5.843   5.404
10624SOL     OW32770   0.360   2.078   7.017
10624SOL    HW132771   0.283   2.138   0.018
10624SOL    HW232772   0.446   2.128   0.008
10625SOL     OW32773   6.337   5.542   0.372
10625SOL    HW132774   6.430   5.536   0.337
10625SOL    HW232775   6.335   5.514   0.468
10626SOL     OW32776   5.614   2.738   1.335
10626SOL    HW132777   5.606   2.823   1.387
10626SOL    HW232778   5.678   2.677   1.382
10627SOL     OW32779   5.743   5.186   5.005
10627SOL    HW132780   5.777   5.272   5.045
10627SOL    HW232781   5.643   5.187   5.004
10628SOL     OW32782   2.998   6.466   0.345
10628SOL    HW132783   2.963   6.507   0.430
10628SOL    HW232784   2.979   6.368   0.345
10629SOL     OW32785   4.670   5.567   4.357
10629SOL    HW132786   4.585   5.517   4.374
10629SOL    HW232787   4.651   5.665   4.357
10630SOL     OW32788   3.585   1.067   1.676
10630SOL    HW132789   3.662   1.019   1.718
10630SOL    HW232790   3.558   1.144   1.734
10631SOL     OW32791   3.608   5.986   1.809
10631SOL    HW132792   3.588   5.894   1.844
10631SOL    HW232793   3.675   5.979   1.735
10632SOL     OW32794   5.624   6.446   4.475
10632SOL    HW132795   5.668   6.366   4.433
10632SOL    HW232796   5.678   6.528   4.456
10633SOL     OW32797   2.120   3.629   0.745
10633SOL    HW132798   2.179   3.551   0.723
10633SOL    HW232799   2.176   3.713   0.749
10634SOL     OW32800   0.029   4.803   6.836
10634SOL    HW132801   7.010   4.851   6.758
10634SOL    HW232802   0.004   4.706   6.832
10635SOL     OW32803   2.951   6.027   6.494
10635SOL    HW132804   2.998   5.980   6.570
10635SOL    HW232805   2.893   6.099   6.531
10636SOL     OW32806   6.394   2.773   7.015
10636SOL    HW132807   6.317   2.785   0.056
10636SOL    HW232808   6.416   2.860   6.971
10637SOL     OW32809   2.613   0.707   7.020
10637SOL    HW132810   2.609   0.786   0.060
10637SOL    HW232811   2.668   0.635   0.042
10638SOL     OW32812   5.183   5.041   0.849
10638SOL    HW132813   5.134   5.088   0.922
10638SOL    HW232814   5.240   5.107   0.800
10639SOL     OW32815   0.071   4.919   1.809
10639SOL    HW132816   0.112   4.830   1.830
10639SOL    HW232817   0.066   4.931   1.709
10640SOL     OW32818   4.287   6.120   3.519
10640SOL    HW132819   4.326   6.188   3.458
10640SOL    HW232820   4.207   6.078   3.476
10641SOL     OW32821   1.314   2.117   2.804
10641SOL    HW132822   1.385   2.124   2.734
10641SOL    HW232823   1.357   2.120   2.895
10642SOL     OW32824   6.958   3.262   5.981
10642SOL    HW132825   7.016   3.236   6.058
10642SOL    HW232826   6.867   3.221   5.992
10643SOL     OW32827   2.507   5.099   5.726
10643SOL    HW132828   2.433   5.032   5.718
10643SOL    HW232829   2.506   5.159   5.646
10644SOL     OW32830   6.590   3.129   2.699
10644SOL    HW132831   6.492   3.128   2.720
10644SOL    HW232832   6.625   3.036   2.699
10645SOL     OW32833   2.166   2.008   3.132
10645SOL    HW132834   2.111   2.091   3.120
10645SOL    HW232835   2.185   1.994   3.229
10646SOL     OW32836   5.403   0.186   3.563
10646SOL    HW132837   5.502   0.198   3.558
10646SOL    HW232838   5.379   0.094   3.533
10647SOL     OW32839   3.469   5.557   5.038
10647SOL    HW132840   3.554   5.517   5.073
10647SOL    HW232841   3.442   5.509   4.954
10648SOL     OW32842   4.809   4.220   5.329
10648SOL    HW132843   4.830   4.311   5.365
10648SOL    HW232844   4.774   4.228   5.236
10649SOL     OW32845   6.060   3.505   3.187
10649SOL    HW132846   6.027   3.480   3.278
10649SOL    HW232847   6.131   3.440   3.158
10650SOL     OW32848   0.729   0.370   3.007
10650SOL    HW132849   0.770   0.293   3.058
10650SOL    HW232850   0.673   0.424   3.070
10651SOL     OW32851   2.920   5.413   5.717
10651SOL    HW132852   2.851   5.354   5.758
10651SOL    HW232853   2.909   5.413   5.618
10652SOL     OW32854   1.598   0.108   6.974
10652SOL    HW132855   1.619   0.010   6.981
10652SOL    HW232856   1.625   0.141   6.883
10653SOL     OW32857   5.275   5.982   4.642
10653SOL    HW132858   5.293   6.056   4.707
10653SOL    HW232859   5.270   5.895   4.691
10654SOL     OW32860   6.592   2.279   4.202
10654SOL    HW132861   6.600   2.312   4.107
10654SOL    HW232862   6.498   2.249   4.219
10655SOL     OW32863   0.011   4.439   0.935
10655SOL    HW132864   6.950   4.416   0.987
10655SOL    HW232865   7.010   4.509   0.867
10656SOL     OW32866   5.609   1.963   4.529
10656SOL    HW132867   5.625   1.924   4.620
10656SOL    HW232868   5.588   1.890   4.464
10657SOL     OW32869   5.191   0.011   5.071
10657SOL    HW132870   5.149   7.010   5.159
10657SOL    HW232871   5.145   0.091   5.031
10658SOL     OW32872   1.268   1.674   5.274
10658SOL    HW132873   1.216   1.593   5.246
10658SOL    HW232874   1.303   1.662   5.367
10659SOL     OW32875   0.749   5.855   0.413
10659SOL    HW132876   0.705   5.769   0.440
10659SOL    HW232877   0.738   5.923   0.486
10660SOL     OW32878   5.407   2.784   5.706
10660SOL    HW132879   5.491   2.747   5.665
10660SOL    HW232880   5.398   2.749   5.800
10661SOL     OW32881   3.446   5.315   5.363
10661SOL    HW132882   3.348   5.314   5.345
10661SOL    HW232883   3.485   5.224   5.345
10662SOL     OW32884   2.356   1.408   1.389
10662SOL    HW132885   2.386   1.459   1.308
10662SOL    HW232886   2.304   1.468   1.449
10663SOL     OW32887   0.795   2.092   3.688
10663SOL    HW132888   0.746   2.176   3.712
10663SOL    HW232889   0.743   2.041   3.619
10664SOL     OW32890   1.206   5.036   4.743
10664SOL    HW132891   1.187   5.131   4.764
10664SOL    HW232892   1.135   4.999   4.684
10665SOL     OW32893   3.146   3.107   7.011
10665SOL    HW132894   3.193   3.038   0.044
10665SOL    HW232895   3.157   3.087   6.913
10666SOL     OW32896   3.603   3.749   1.526
10666SOL    HW132897   3.678   3.703   1.478
10666SOL    HW232898   3.639   3.797   1.605
10667SOL     OW32899   5.333   2.743   3.851
10667SOL    HW132900   5.382   2.754   3.938
10667SOL    HW232901   5.387   2.686   3.790
10668SOL     OW32902   3.262   2.605   5.855
10668SOL    HW132903   3.163   2.620   5.856
10668SOL    HW232904   3.300   2.637   5.768
10669SOL     OW32905   6.033   1.610   1.439
10669SOL    HW132906   6.047   1.512   1.452
10669SOL    HW232907   5.971   1.625   1.362
10670SOL     OW32908   4.878   3.819   4.417
10670SOL    HW132909   4.917   3.887   4.354
10670SOL    HW232910   4.847   3.865   4.500
10671SOL     OW32911   1.278   3.626   5.336
10671SOL    HW132912   1.186   3.601   5.306
10671SOL    HW232913   1.322   3.681   5.266
10672SOL     OW32914   5.897   3.464   2.415
10672SOL    HW132915   5.911   3.558   2.447
10672SOL    HW232916   5.967   3.405   2.454
10673SOL     OW32917   1.934   1.481   1.064
10673SOL    HW132918   1.917   1.528   0.977
10673SOL    HW232919   1.847   1.460   1.109
10674SOL     OW32920   3.315   3.527   3.836
10674SOL    HW132921   3.232   3.579   3.813
10674SOL    HW232922   3.374   3.522   3.755
10675SOL     OW32923   3.705   6.798   5.449
10675SOL    HW132924   3.695   6.766   5.543
10675SOL    HW232925   3.656   6.738   5.387
10676SOL     OW32926   1.458   0.039   5.799
10676SOL    HW132927   1.551   0.013   5.825
10676SOL    HW232928   1.440   0.133   5.825
10677SOL     OW32929   0.103   1.490   0.172
10677SOL    HW132930   0.072   1.585   0.166
10677SOL    HW232931   0.203   1.489   0.181
10678SOL     OW32932   3.889   5.719   1.972
10678SOL    HW132933   3.944   5.658   2.029
10678SOL    HW232934   3.798   5.679   1.959
10679SOL     OW32935   4.122   3.843   6.635
10679SOL    HW132936   4.213   3.819   6.668
10679SOL    HW232937   4.060   3.765   6.646
10680SOL     OW32938   3.782   1.203   5.235
10680SOL    HW132939   3.804   1.273   5.303
10680SOL    HW232940   3.851   1.206   5.162
10681SOL     OW32941   2.101   3.578   5.352
10681SOL    HW132942   2.088   3.616   5.443
10681SOL    HW232943   2.049   3.630   5.285
10682SOL     OW32944   5.216   3.069   6.479
10682SOL    HW132945   5.210   3.167   6.493
10682SOL    HW232946   5.309   3.037   6.500
10683SOL     OW32947   2.647   0.668   3.545
10683SOL    HW132948   2.561   0.698   3.587
10683SOL    HW232949   2.635   0.662   3.446
10684SOL     OW32950   4.717   4.665   2.106
10684SOL    HW132951   4.813   4.639   2.095
10684SOL    HW232952   4.700   4.749   2.055
10685SOL     OW32953   1.056   6.410   1.675
10685SOL    HW132954   1.127   6.424   1.743
10685SOL    HW232955   0.972   6.379   1.720
10686SOL     OW32956   2.607   0.848   6.788
10686SOL    HW132957   2.683   0.913   6.790
10686SOL    HW232958   2.606   0.795   6.873
10687SOL     OW32959   0.994   4.023   4.201
10687SOL    HW132960   1.061   4.093   4.228
10687SOL    HW232961   1.024   3.978   4.117
10688SOL     OW32962   5.089   1.337   2.742
10688SOL    HW132963   5.111   1.424   2.699
10688SOL    HW232964   4.990   1.324   2.742
10689SOL     OW32965   0.555   6.892   2.221
10689SOL    HW132966   0.634   6.953   2.225
10689SOL    HW232967   0.473   6.942   2.248
10690SOL     OW32968   0.159   6.868   4.217
10690SOL    HW132969   0.207   6.930   4.155
10690SOL    HW232970   0.225   6.805   4.258
10691SOL     OW32971   3.597   0.312   2.161
10691SOL    HW132972   3.535   0.234   2.156
10691SOL    HW232973   3.561   0.380   2.225
10692SOL     OW32974   2.323   1.184   4.067
10692SOL    HW132975   2.345   1.280   4.051
10692SOL    HW232976   2.312   1.137   3.979
10693SOL     OW32977   1.748   5.110   0.019
10693SOL    HW132978   1.782   5.020   0.047
10693SOL    HW232979   1.737   5.167   0.101
10694SOL     OW32980   4.211   0.823   5.158
10694SOL    HW132981   4.201   0.785   5.066
10694SOL    HW232982   4.293   0.786   5.201
10695SOL     OW32983   5.506   4.283   2.274
10695SOL    HW132984   5.439   4.299   2.201
10695SOL    HW232985   5.595   4.265   2.233
10696SOL     OW32986   6.504   4.467   3.561
10696SOL    HW132987   6.459   4.556   3.554
10696SOL    HW232988   6.549   4.445   3.475
10697SOL     OW32989   2.432   5.027   5.359
10697SOL    HW132990   2.502   4.977   5.310
10697SOL    HW232991   2.355   5.047   5.298
10698SOL     OW32992   3.970   3.115   6.856
10698SOL    HW132993   4.000   3.029   6.899
10698SOL    HW232994   3.879   3.139   6.889
10699SOL     OW32995   3.401   2.829   0.823
10699SOL    HW132996   3.351   2.863   0.902
10699SOL    HW232997   3.452   2.905   0.781
10700SOL     OW32998   4.835   0.674   1.380
10700SOL    HW132999   4.766   0.702   1.313
10700SOL    HW233000   4.871   0.755   1.426
10701SOL     OW33001   3.144   6.981   6.709
10701SOL    HW133002   3.073   6.912   6.726
10701SOL    HW233003   3.217   6.970   6.777
10702SOL     OW33004   5.645   2.206   1.633
10702SOL    HW133005   5.561   2.157   1.606
10702SOL    HW233006   5.670   2.180   1.726
10703SOL     OW33007   0.837   2.765   6.157
10703SOL    HW133008   0.842   2.776   6.256
10703SOL    HW233009   0.821   2.669   6.135
10704SOL     OW33010   5.239   6.949   1.664
10704SOL    HW133011   5.175   0.004   1.671
10704SOL    HW233012   5.279   6.946   1.572
10705SOL     OW33013   5.753   3.749   1.185
10705SOL    HW133014   5.717   3.711   1.271
10705SOL    HW233015   5.835   3.803   1.205
10706SOL     OW33016   4.205   0.047   0.630
10706SOL    HW133017   4.241   0.133   0.667
10706SOL    HW233018   4.140   0.067   0.556
10707SOL     OW33019   5.750   0.281   3.998
10707SOL    HW133020   5.761   0.354   3.930
10707SOL    HW233021   5.765   0.318   4.090
10708SOL     OW33022   4.149   1.838   2.011
10708SOL    HW133023   4.114   1.927   1.981
10708SOL    HW233024   4.215   1.804   1.945
10709SOL     OW33025   6.069   4.844   3.725
10709SOL    HW133026   5.995   4.836   3.659
10709SOL    HW233027   6.048   4.791   3.807
10710SOL     OW33028   5.385   1.548   3.684
10710SOL    HW133029   5.303   1.502   3.651
10710SOL    HW233030   5.361   1.608   3.761
10711SOL     OW33031   4.204   0.251   1.985
10711SOL    HW133032   4.201   0.193   2.066
10711SOL    HW233033   4.111   0.264   1.950
10712SOL     OW33034   5.322   6.841   2.933
10712SOL    HW133035   5.234   6.887   2.937
10712SOL    HW233036   5.379   6.871   3.010
10713SOL     OW33037   1.151   4.220   1.348
10713SOL    HW133038   1.248   4.240   1.333
10713SOL    HW233039   1.142   4.157   1.426
10714SOL     OW33040   2.929   3.858   4.510
10714SOL    HW133041   2.969   3.798   4.440
10714SOL    HW233042   2.888   3.802   4.582
10715SOL     OW33043   6.603   0.717   1.761
10715SOL    HW133044   6.634   0.652   1.692
10715SOL    HW233045   6.509   0.744   1.742
10716SOL     OW33046   5.631   1.610   3.770
10716SOL    HW133047   5.675   1.642   3.686
10716SOL    HW233048   5.535   1.587   3.750
10717SOL     OW33049   1.637   2.539   0.219
10717SOL    HW133050   1.553   2.525   0.272
10717SOL    HW233051   1.682   2.623   0.250
10718SOL     OW33052   1.929   5.175   5.500
10718SOL    HW133053   1.884   5.095   5.462
10718SOL    HW233054   2.004   5.146   5.560
10719SOL     OW33055   6.277   5.597   4.298
10719SOL    HW133056   6.259   5.666   4.367
10719SOL    HW233057   6.245   5.508   4.330
10720SOL     OW33058   0.045   4.911   3.385
10720SOL    HW133059   0.010   4.833   3.333
10720SOL    HW233060   7.005   4.989   3.373
10721SOL     OW33061   5.382   3.951   5.202
10721SOL    HW133062   5.437   4.003   5.268
10721SOL    HW233063   5.286   3.977   5.210
10722SOL     OW33064   6.680   4.504   5.407
10722SOL    HW133065   6.637   4.420   5.374
10722SOL    HW233066   6.779   4.492   5.412
10723SOL     OW33067   5.794   6.747   0.244
10723SOL    HW133068   5.738   6.826   0.271
10723SOL    HW233069   5.849   6.717   0.321
10724SOL     OW33070   6.625   6.362   0.512
10724SOL    HW133071   6.710   6.311   0.524
10724SOL    HW233072   6.552   6.317   0.564
10725SOL     OW33073   2.611   5.734   5.507
10725SOL    HW133074   2.687   5.761   5.448
10725SOL    HW233075   2.646   5.704   5.596
10726SOL     OW33076   5.523   1.396   4.477
10726SOL    HW133077   5.558   1.305   4.454
10726SOL    HW233078   5.527   1.409   4.576
10727SOL     OW33079   1.832   5.962   5.518
10727SOL    HW133080   1.816   5.863   5.523
10727SOL    HW233081   1.792   6.006   5.598
10728SOL     OW33082   5.989   5.873   1.040
10728SOL    HW133083   5.915   5.940   1.044
10728SOL    HW233084   5.988   5.818   1.124
10729SOL     OW33085   6.528   2.900   1.410
10729SOL    HW133086   6.552   2.939   1.499
10729SOL    HW233087   6.563   2.807   1.403
10730SOL     OW33088   4.559   0.147   2.079
10730SOL    HW133089   4.527   0.203   2.155
10730SOL    HW233090   4.513   0.176   1.995
10731SOL     OW33091   4.169   1.181   1.232
10731SOL    HW133092   4.206   1.167   1.323
10731SOL    HW233093   4.195   1.104   1.173
10732SOL     OW33094   0.992   4.943   5.190
10732SOL    HW133095   1.037   4.936   5.100
10732SOL    HW233096   1.060   4.930   5.262
10733SOL     OW33097   6.006   2.596   6.955
10733SOL    HW133098   5.946   2.558   6.885
10733SOL    HW233099   6.100   2.567   6.938
10734SOL     OW33100   6.867   2.127   1.715
10734SOL    HW133101   6.872   2.081   1.804
10734SOL    HW233102   6.928   2.081   1.651
10735SOL     OW33103   0.118   3.968   2.349
10735SOL    HW133104   0.199   3.916   2.326
10735SOL    HW233105   0.112   3.979   2.448
10736SOL     OW33106   3.078   0.427   3.762
10736SOL    HW133107   2.979   0.435   3.768
10736SOL    HW233108   3.120   0.510   3.798
10737SOL     OW33109   6.894   1.947   1.364
10737SOL    HW133110   6.924   2.027   1.416
10737SOL    HW233111   6.852   1.880   1.426
10738SOL     OW33112   4.209   0.920   3.004
10738SOL    HW133113   4.217   0.860   3.084
10738SOL    HW233114   4.300   0.935   2.965
10739SOL     OW33115   2.093   2.711   1.769
10739SOL    HW133116   2.024   2.757   1.825
10739SOL    HW233117   2.182   2.755   1.782
10740SOL     OW33118   5.192   4.793   3.489
10740SOL    HW133119   5.155   4.787   3.397
10740SOL    HW233120   5.244   4.710   3.510
10741SOL     OW33121   3.671   0.533   2.646
10741SOL    HW133122   3.664   0.631   2.666
10741SOL    HW233123   3.726   0.489   2.717
10742SOL     OW33124   6.315   5.632   0.687
10742SOL    HW133125   6.348   5.710   0.633
10742SOL    HW233126   6.259   5.665   0.762
10743SOL     OW33127   2.214   2.044   4.222
10743SOL    HW133128   2.141   2.109   4.243
10743SOL    HW233129   2.222   1.977   4.296
10744SOL     OW33130   3.836   2.203   1.043
10744SOL    HW133131   3.792   2.142   1.109
10744SOL    HW233132   3.932   2.179   1.035
10745SOL     OW33133   0.253   5.521   5.965
10745SOL    HW133134   0.265   5.424   5.946
10745SOL    HW233135   0.310   5.548   6.043
10746SOL     OW33136   0.303   4.171   5.658
10746SOL    HW133137   0.293   4.246   5.724
10746SOL    HW233138   0.235   4.100   5.678
10747SOL     OW33139   2.962   1.175   4.732
10747SOL    HW133140   2.942   1.196   4.636
10747SOL    HW233141   2.909   1.236   4.791
10748SOL     OW33142   5.211   1.341   2.415
10748SOL    HW133143   5.242   1.277   2.485
10748SOL    HW233144   5.119   1.372   2.437
10749SOL     OW33145   2.018   6.917   5.864
10749SOL    HW133146   1.935   6.967   5.840
10749SOL    HW233147   2.098   6.968   5.833
10750SOL     OW33148   3.404   0.708   6.161
10750SOL    HW133149   3.385   0.617   6.197
10750SOL    HW233150   3.319   0.752   6.136
10751SOL     OW33151   2.329   4.929   4.067
10751SOL    HW133152   2.290   4.880   3.989
10751SOL    HW233153   2.317   5.027   4.054
10752SOL     OW33154   4.908   5.055   4.096
10752SOL    HW133155   4.872   5.095   4.011
10752SOL    HW233156   4.966   5.122   4.142
10753SOL     OW33157   0.228   3.518   4.412
10753SOL    HW133158   0.321   3.484   4.403
10753SOL    HW233159   0.163   3.442   4.409
10754SOL     OW33160   1.697   0.399   2.598
10754SOL    HW133161   1.680   0.478   2.657
10754SOL    HW233162   1.691   0.315   2.652
10755SOL     OW33163   6.290   5.672   2.010
10755SOL    HW133164   6.281   5.599   2.077
10755SOL    HW233165   6.216   5.738   2.023
10756SOL     OW33166   6.893   6.713   5.079
10756SOL    HW133167   6.993   6.710   5.070
10756SOL    HW233168   6.851   6.671   4.999
10757SOL     OW33169   2.605   2.781   0.943
10757SOL    HW133170   2.544   2.724   0.997
10757SOL    HW233171   2.638   2.857   1.000
10758SOL     OW33172   0.807   5.293   3.936
10758SOL    HW133173   0.811   5.232   3.857
10758SOL    HW233174   0.786   5.386   3.906
10759SOL     OW33175   6.918   2.827   0.199
10759SOL    HW133176   6.964   2.909   0.234
10759SOL    HW233177   6.942   2.814   0.103
10760SOL     OW33178   6.345   0.705   3.281
10760SOL    HW133179   6.419   0.649   3.243
10760SOL    HW233180   6.279   0.726   3.209
10761SOL     OW33181   2.748   5.068   5.497
10761SOL    HW133182   2.768   5.022   5.583
10761SOL    HW233183   2.720   5.000   5.429
10762SOL     OW33184   3.496   0.693   4.525
10762SOL    HW133185   3.427   0.628   4.558
10762SOL    HW233186   3.547   0.730   4.603
10763SOL     OW33187   4.038   0.008   3.494
10763SOL    HW133188   3.994   0.068   3.428
10763SOL    HW233189   4.113   6.980   3.450
10764SOL     OW33190   5.774   0.050   3.831
10764SOL    HW133191   5.781   0.127   3.894
10764SOL    HW233192   5.682   0.011   3.837
10765SOL     OW33193   5.808   3.361   1.025
10765SOL    HW133194   5.751   3.443   1.035
10765SOL    HW233195   5.751   3.283   0.999
10766SOL     OW33196   3.871   2.815   1.765
10766SOL    HW133197   3.870   2.873   1.846
10766SOL    HW233198   3.955   2.760   1.764
10767SOL     OW33199   2.885   1.416   1.735
10767SOL    HW133200   2.964   1.415   1.797
10767SOL    HW233201   2.916   1.432   1.642
10768SOL     OW33202   6.773   5.427   0.377
10768SOL    HW133203   6.723   5.366   0.438
10768SOL    HW233204   6.753   5.522   0.401
10769SOL     OW33205   1.775   4.015   5.894
10769SOL    HW133206   1.792   3.986   5.799
10769SOL    HW233207   1.792   4.113   5.902
10770SOL     OW33208   4.630   6.309   2.926
10770SOL    HW133209   4.664   6.403   2.917
10770SOL    HW233210   4.657   6.256   2.845
10771SOL     OW33211   2.895   1.068   3.620
10771SOL    HW133212   2.937   1.145   3.572
10771SOL    HW233213   2.805   1.095   3.655
10772SOL     OW33214   5.434   5.498   3.644
10772SOL    HW133215   5.447   5.410   3.689
10772SOL    HW233216   5.521   5.530   3.607
10773SOL     OW33217   5.093   5.251   3.757
10773SOL    HW133218   5.065   5.327   3.816
10773SOL    HW233219   5.169   5.202   3.800
10774SOL     OW33220   1.238   0.913   3.623
10774SOL    HW133221   1.171   0.938   3.693
10774SOL    HW233222   1.295   0.993   3.601
10775SOL     OW33223   0.645   4.001   2.034
10775SOL    HW133224   0.589   3.967   1.959
10775SOL    HW233225   0.586   4.030   2.109
10776SOL     OW33226   1.617   0.078   6.684
10776SOL    HW133227   1.611   7.000   6.670
10776SOL    HW233228   1.694   0.114   6.631
10777SOL     OW33229   2.968   6.214   1.566
10777SOL    HW133230   3.055   6.228   1.611
10777SOL    HW233231   2.929   6.126   1.595
10778SOL     OW33232   5.819   5.845   3.308
10778SOL    HW133233   5.756   5.784   3.357
10778SOL    HW233234   5.773   5.880   3.226
10779SOL     OW33235   5.616   2.142   3.415
10779SOL    HW133236   5.690   2.076   3.422
10779SOL    HW233237   5.580   2.143   3.322
10780SOL     OW33238   0.765   1.082   3.323
10780SOL    HW133239   0.770   1.158   3.387
10780SOL    HW233240   0.673   1.077   3.284
10781SOL     OW33241   3.673   0.226   4.167
10781SOL    HW133242   3.754   0.177   4.133
10781SOL    HW233243   3.703   0.309   4.214
10782SOL     OW33244   6.673   5.386   3.789
10782SOL    HW133245   6.765   5.396   3.827
10782SOL    HW233246   6.635   5.298   3.817
10783SOL     OW33247   6.759   2.027   2.769
10783SOL    HW133248   6.736   2.065   2.679
10783SOL    HW233249   6.721   1.935   2.777
10784SOL     OW33250   2.364   1.285   4.453
10784SOL    HW133251   2.320   1.225   4.387
10784SOL    HW233252   2.458   1.304   4.424
10785SOL     OW33253   0.739   4.121   6.917
10785SOL    HW133254   0.705   4.101   6.825
10785SOL    HW233255   0.759   4.219   6.924
10786SOL     OW33256   0.575   5.470   2.900
10786SOL    HW133257   0.566   5.526   2.817
10786SOL    HW233258   0.577   5.374   2.875
10787SOL     OW33259   1.765   2.672   5.773
10787SOL    HW133260   1.852   2.721   5.770
10787SOL    HW233261   1.768   2.602   5.844
10788SOL     OW33262   6.091   4.057   6.476
10788SOL    HW133263   6.063   4.124   6.407
10788SOL    HW233264   6.175   4.012   6.446
10789SOL     OW33265   6.367   1.719   6.887
10789SOL    HW133266   6.464   1.719   6.911
10789SOL    HW233267   6.321   1.647   6.938
10790SOL     OW33268   6.742   6.788   2.957
10790SOL    HW133269   6.786   6.786   2.867
10790SOL    HW233270   6.721   6.694   2.985
10791SOL     OW33271   7.001   6.210   2.426
10791SOL    HW133272   7.001   6.172   2.334
10791SOL    HW233273   0.033   6.294   2.427
10792SOL     OW33274   3.502   4.054   5.060
10792SOL    HW133275   3.509   3.968   5.111
10792SOL    HW233276   3.405   4.077   5.047
10793SOL     OW33277   5.461   3.264   4.801
10793SOL    HW133278   5.378   3.235   4.849
10793SOL    HW233279   5.483   3.199   4.729
10794SOL     OW33280   3.614   3.388   3.740
10794SOL    HW133281   3.648   3.329   3.667
10794SOL    HW233282   3.536   3.343   3.786
10795SOL     OW33283   0.991   4.682   3.652
10795SOL    HW133284   1.042   4.597   3.662
10795SOL    HW233285   0.908   4.665   3.600
10796SOL     OW33286   1.680   5.934   4.960
10796SOL    HW133287   1.623   5.903   4.885
10796SOL    HW233288   1.675   6.034   4.967
10797SOL     OW33289   3.925   2.481   0.311
10797SOL    HW133290   3.970   2.497   0.223
10797SOL    HW233291   3.911   2.383   0.323
10798SOL     OW33292   0.298   1.802   0.194
10798SOL    HW133293   0.305   1.883   0.135
10798SOL    HW233294   0.201   1.776   0.202
10799SOL     OW33295   4.398   1.445   2.182
10799SOL    HW133296   4.307   1.477   2.209
10799SOL    HW233297   4.427   1.371   2.244
10800SOL     OW33298   1.612   6.773   1.189
10800SOL    HW133299   1.651   6.865   1.191
10800SOL    HW233300   1.646   6.721   1.267
10801SOL     OW33301   1.421   0.529   0.669
10801SOL    HW133302   1.370   0.485   0.743
10801SOL    HW233303   1.503   0.475   0.648
10802SOL     OW33304   6.497   6.994   3.789
10802SOL    HW133305   6.421   6.944   3.831
10802SOL    HW233306   6.473   0.069   3.779
10803SOL     OW33307   2.272   5.290   6.521
10803SOL    HW133308   2.361   5.300   6.566
10803SOL    HW233309   2.281   5.227   6.444
10804SOL     OW33310   6.904   3.525   4.446
10804SOL    HW133311   6.901   3.597   4.377
10804SOL    HW233312   6.935   3.440   4.405
10805SOL     OW33313   5.986   0.776   5.220
10805SOL    HW133314   6.013   0.871   5.207
10805SOL    HW233315   5.937   0.744   5.139
10806SOL     OW33316   2.017   4.458   6.539
10806SOL    HW133317   2.006   4.393   6.614
10806SOL    HW233318   2.102   4.438   6.490
10807SOL     OW33319   3.489   6.525   4.236
10807SOL    HW133320   3.534   6.614   4.239
10807SOL    HW233321   3.556   6.452   4.250
10808SOL     OW33322   0.720   2.406   6.175
10808SOL    HW133323   0.814   2.406   6.208
10808SOL    HW233324   0.657   2.401   6.253
10809SOL     OW33325   2.444   5.972   4.455
10809SOL    HW133326   2.467   6.060   4.497
10809SOL    HW233327   2.511   5.903   4.483
10810SOL     OW33328   0.376   0.285   4.225
10810SOL    HW133329   0.368   0.315   4.320
10810SOL    HW233330   0.291   0.243   4.196
10811SOL     OW33331   5.003   4.986   4.952
10811SOL    HW133332   5.037   5.079   4.939
10811SOL    HW233333   4.903   4.987   4.950
10812SOL     OW33334   6.263   2.540   6.926
10812SOL    HW133335   6.319   2.466   6.888
10812SOL    HW233336   6.321   2.619   6.944
10813SOL     OW33337   0.930   4.427   6.285
10813SOL    HW133338   0.908   4.486   6.363
10813SOL    HW233339   0.943   4.484   6.203
10814SOL     OW33340   2.713   0.756   1.118
10814SOL    HW133341   2.723   0.679   1.054
10814SOL    HW233342   2.654   0.729   1.194
10815SOL     OW33343   5.197   1.019   4.959
10815SOL    HW133344   5.109   0.976   4.974
10815SOL    HW233345   5.264   0.950   4.930
10816SOL     OW33346   3.941   3.125   3.789
10816SOL    HW133347   3.869   3.178   3.833
10816SOL    HW233348   3.901   3.051   3.736
10817SOL     OW33349   2.391   6.563   3.370
10817SOL    HW133350   2.303   6.574   3.417
10817SOL    HW233351   2.390   6.478   3.317
10818SOL     OW33352   4.022   4.908   6.125
10818SOL    HW133353   4.088   4.848   6.170
10818SOL    HW233354   3.987   4.974   6.192
10819SOL     OW33355   0.055   5.688   5.970
10819SOL    HW133356   6.999   5.667   6.030
10819SOL    HW233357   0.119   5.611   5.971
10820SOL     OW33358   2.579   4.309   6.147
10820SOL    HW133359   2.481   4.319   6.160
10820SOL    HW233360   2.613   4.234   6.205
10821SOL     OW33361   4.785   5.834   3.087
10821SOL    HW133362   4.843   5.788   3.154
10821SOL    HW233363   4.796   5.933   3.096
10822SOL     OW33364   5.079   2.165   2.301
10822SOL    HW133365   5.032   2.086   2.341
10822SOL    HW233366   5.154   2.134   2.242
10823SOL     OW33367   6.003   6.647   2.644
10823SOL    HW133368   5.932   6.706   2.604
10823SOL    HW233369   5.981   6.552   2.623
10824SOL     OW33370   0.749   2.624   4.104
10824SOL    HW133371   0.753   2.681   4.022
10824SOL    HW233372   0.832   2.568   4.111
10825SOL     OW33373   0.594   2.037   0.357
10825SOL    HW133374   0.567   1.954   0.407
10825SOL    HW233375   0.656   2.011   0.282
10826SOL     OW33376   0.486   2.531   3.409
10826SOL    HW133377   0.494   2.629   3.427
10826SOL    HW233378   0.390   2.509   3.389
10827SOL     OW33379   6.998   3.587   4.701
10827SOL    HW133380   0.064   3.635   4.695
10827SOL    HW233381   6.953   3.587   4.611
10828SOL     OW33382   6.492   4.982   5.346
10828SOL    HW133383   6.550   4.904   5.322
10828SOL    HW233384   6.442   5.013   5.265
10829SOL     OW33385   4.219   3.231   5.290
10829SOL    HW133386   4.165   3.180   5.224
10829SOL    HW233387   4.312   3.244   5.254
10830SOL     OW33388   4.402   1.666   3.734
10830SOL    HW133389   4.406   1.696   3.639
10830SOL    HW233390   4.483   1.700   3.783
10831SOL     OW33391   3.767   1.096   3.297
10831SOL    HW133392   3.860   1.097   3.261
10831SOL    HW233393   3.707   1.145   3.233
10832SOL     OW33394   6.775   3.368   0.531
10832SOL    HW133395   6.752   3.448   0.586
10832SOL    HW233396   6.870   3.341   0.549
10833SOL     OW33397   0.381   1.100   0.070
10833SOL    HW133398   0.396   1.018   0.125
10833SOL    HW233399   0.283   1.121   0.067
10834SOL     OW33400   6.837   6.442   1.188
10834SOL    HW133401   6.916   6.427   1.129
10834SOL    HW233402   6.818   6.541   1.193
10835SOL     OW33403   0.227   2.211   5.921
10835SOL    HW133404   0.288   2.146   5.876
10835SOL    HW233405   0.174   2.163   5.991
10836SOL     OW33406   6.836   1.062   4.045
10836SOL    HW133407   6.758   1.120   4.068
10836SOL    HW233408   6.885   1.036   4.128
10837SOL     OW33409   0.347   3.775   2.920
10837SOL    HW133410   0.326   3.684   2.958
10837SOL    HW233411   0.263   3.827   2.909
10838SOL     OW33412   0.006   5.588   2.709
10838SOL    HW133413   0.007   5.555   2.615
10838SOL    HW233414   6.933   5.602   2.739
10839SOL     OW33415   5.225   2.629   1.476
10839SOL    HW133416   5.125   2.625   1.470
10839SOL    HW233417   5.251   2.659   1.567
10840SOL     OW33418   3.305   0.463   1.450
10840SOL    HW133419   3.220   0.481   1.401
10840SOL    HW233420   3.292   0.483   1.547
10841SOL     OW33421   1.734   5.117   5.163
10841SOL    HW133422   1.765   5.025   5.189
10841SOL    HW233423   1.760   5.136   5.069
10842SOL     OW33424   5.262   4.804   0.475
10842SOL    HW133425   5.309   4.765   0.554
10842SOL    HW233426   5.164   4.783   0.481
10843SOL     OW33427   2.339   2.210   1.423
10843SOL    HW133428   2.257   2.153   1.427
10843SOL    HW233429   2.325   2.293   1.476
10844SOL     OW33430   1.714   5.380   4.883
10844SOL    HW133431   1.658   5.463   4.873
10844SOL    HW233432   1.757   5.380   4.973
10845SOL     OW33433   4.310   6.691   4.788
10845SOL    HW133434   4.382   6.721   4.851
10845SOL    HW233435   4.221   6.720   4.824
10846SOL     OW33436   5.287   0.641   6.969
10846SOL    HW133437   5.302   0.545   6.993
10846SOL    HW233438   5.366   0.695   6.999
10847SOL     OW33439   1.864   0.855   6.593
10847SOL    HW133440   1.880   0.851   6.494
10847SOL    HW233441   1.896   0.943   6.628
10848SOL     OW33442   1.536   4.705   2.085
10848SOL    HW133443   1.617   4.668   2.130
10848SOL    HW233444   1.518   4.654   2.001
10849SOL     OW33445   2.465   6.603   4.408
10849SOL    HW133446   2.382   6.563   4.446
10849SOL    HW233447   2.494   6.681   4.464
10850SOL     OW33448   3.531   5.029   0.334
10850SOL    HW133449   3.570   5.096   0.272
10850SOL    HW233450   3.538   5.063   0.428
10851SOL     OW33451   2.138   5.319   0.743
10851SOL    HW133452   2.229   5.288   0.772
10851SOL    HW233453   2.146   5.364   0.653
10852SOL     OW33454   2.189   1.539   1.882
10852SOL    HW133455   2.105   1.550   1.829
10852SOL    HW233456   2.166   1.511   1.975
10853SOL     OW33457   2.558   1.955   6.105
10853SOL    HW133458   2.642   1.903   6.124
10853SOL    HW233459   2.577   2.025   6.037
10854SOL     OW33460   3.396   6.224   5.339
10854SOL    HW133461   3.397   6.144   5.279
10854SOL    HW233462   3.312   6.224   5.393
10855SOL     OW33463   3.362   1.352   6.829
10855SOL    HW133464   3.431   1.279   6.834
10855SOL    HW233465   3.301   1.344   6.908
10856SOL     OW33466   0.323   1.221   0.363
10856SOL    HW133467   0.294   1.304   0.411
10856SOL    HW233468   0.398   1.244   0.301
10857SOL     OW33469   6.507   2.047   2.427
10857SOL    HW133470   6.482   2.029   2.522
10857SOL    HW233471   6.567   2.127   2.423
10858SOL     OW33472   2.386   6.347   1.956
10858SOL    HW133473   2.300   6.345   1.905
10858SOL    HW233474   2.422   6.255   1.964
10859SOL     OW33475   1.886   5.728   3.273
10859SOL    HW133476   1.843   5.644   3.305
10859SOL    HW233477   1.865   5.741   3.176
10860SOL     OW33478   0.333   3.018   3.392
10860SOL    HW133479   0.378   3.027   3.480
10860SOL    HW233480   0.241   2.981   3.405
10861SOL     OW33481   4.134   3.365   4.809
10861SOL    HW133482   4.124   3.359   4.908
10861SOL    HW233483   4.228   3.341   4.784
10862SOL     OW33484   1.231   0.610   4.455
10862SOL    HW133485   1.153   0.623   4.394
10862SOL    HW233486   1.314   0.641   4.410
10863SOL     OW33487   3.304   6.075   4.466
10863SOL    HW133488   3.274   6.150   4.526
10863SOL    HW233489   3.319   6.110   4.374
10864SOL     OW33490   3.772   5.944   2.888
10864SOL    HW133491   3.849   5.922   2.948
10864SOL    HW233492   3.714   5.863   2.876
10865SOL     OW33493   6.246   1.881   6.133
10865SOL    HW133494   6.254   1.830   6.048
10865SOL    HW233495   6.195   1.966   6.116
10866SOL     OW33496   5.537   5.159   0.970
10866SOL    HW133497   5.567   5.231   1.031
10866SOL    HW233498   5.500   5.199   0.886
10867SOL     OW33499   3.272   1.933   0.305
10867SOL    HW133500   3.329   2.010   0.276
10867SOL    HW233501   3.330   1.856   0.331
10868SOL     OW33502   2.692   2.329   2.505
10868SOL    HW133503   2.644   2.388   2.440
10868SOL    HW233504   2.788   2.322   2.478
10869NA      NA33505   6.393   2.156   5.715
10870NA      NA33506   4.303   4.583   5.296
10871NA      NA33507   2.493   3.709   1.571
10872NA      NA33508   4.910   3.590   5.224
10873NA      NA33509   4.060   2.380   5.383
10874NA      NA33510   3.731   4.684   1.680
10875NA      NA33511   6.657   5.815   4.909
10876NA      NA33512   3.704   4.087   4.914
10877NA      NA33513   4.547   6.854   0.019
10878NA      NA33514   3.763   6.943   5.267
10879NA      NA33515   0.050   5.116   2.965
10880NA      NA33516   2.604   0.424   2.870
10881NA      NA33517   3.711   4.076   1.057
10882NA      NA33518   3.434   3.408   3.017
   7.02116   7.02116   7.02116
